<LesHouchesEvents version="3.0">
<header>
<!--
#*********************************************************************
#                                                                    *
#                        MadGraph5_aMC@NLO                           *
#                                                                    *
#                           Going Beyond                             *
#                                                                    *
#                   http://madgraph.hep.uiuc.edu                     *
#                   http://madgraph.phys.ucl.ac.be                   *
#                   http://amcatnlo.cern.ch                          *
#                                                                    *
#                     The MadGraph5_aMC@NLO team                     *
#                                                                    *
#....................................................................*
#                                                                    *
# This file contains all the information necessary to reproduce      *
# the events generated:                                              *
#                                                                    *
# 1. software version                                                *
# 2. proc_card          : code generation info including model       *
# 3. param_card         : model primary parameters in the LH format  *
# 4. run_card           : running parameters (collider and cuts)     *
# 5. pythia_card        : present only if pythia has been run        *
# 6. pgs_card           : present only if pgs has been run           *
# 7. delphes_cards      : present only if delphes has been run       *
#                                                                    *
#                                                                    *
#*********************************************************************
-->
<MGVersion>
#5.2.2.3
</MGVersion>
<MG5ProcCard>
#************************************************************
#*                     MadGraph5_aMC@NLO                    *
#*                                                          *
#*                *                       *                 *
#*                  *        * *        *                   *
#*                    * * * * 5 * * * *                     *
#*                  *        * *        *                   *
#*                *                       *                 *
#*                                                          *
#*                                                          *
#*         VERSION 2.2.3                 2015-02-10         *
#*                                                          *
#*    The MadGraph5_aMC@NLO Development Team - Find us at   *
#*    https://server06.fynu.ucl.ac.be/projects/madgraph     *
#*                                                          *
#************************************************************
#*                                                          *
#*               Command File for MadGraph5_aMC@NLO         *
#*                                                          *
#*     run as ./bin/mg5_aMC  filename                       *
#*                                                          *
#************************************************************
set group_subprocesses Auto
set ignore_six_quark_processes False
set loop_optimized_output True
set gauge unitary
set complex_mass_scheme False
import model sm
define p = g u c d s u~ c~ d~ s~
define j = g u c d s u~ c~ d~ s~
define l+ = e+ mu+
define l- = e- mu-
define vl = ve vm vt
define vl~ = ve~ vm~ vt~
import model Zprime_UFO
generate p p > zph, zph > j j
add process p p > zph, zph > b b~
output Dijet_signal
</MG5ProcCard>
<MGProcCard>
#*********************************************************************
#                        MadGraph/MadEvent                           *
#                   http://madgraph.hep.uiuc.edu                     *
#                                                                    *
#                          proc_card.dat                             *
#*********************************************************************
#                                                                    *
#            This Files is generated by MADGRAPH 5                   *
#                                                                    *
# WARNING: This Files is generated for MADEVENT (compatibility issue)*
#          This files is NOT a valid MG4 proc_card.dat               *
#          Running this in MG4 will NEVER reproduce the result of MG5*
#                                                                    *
#*********************************************************************
#*********************************************************************
# Process(es) requested : mg2 input                                  *
#*********************************************************************
# Begin PROCESS # This is TAG. Do not modify this line
p p > zph , zph > j j           #Process
# Be carefull the coupling are here in MG5 convention
          
end_coup           # End the couplings input

done               # this tells MG there are no more procs
# End PROCESS  # This is TAG. Do not modify this line
#*********************************************************************
# Model information                                                  *
#*********************************************************************
# Begin MODEL  # This is TAG. Do not modify this line
Zprime_UFO
# End   MODEL  # This is TAG. Do not modify this line
#*********************************************************************
# Start multiparticle definitions                                    *
#*********************************************************************
# Begin MULTIPARTICLES # This is TAG. Do not modify this line

# End  MULTIPARTICLES # This is TAG. Do not modify this line
</MGProcCard>
<MGRunCard>
#*********************************************************************
#                       MadGraph5_aMC@NLO                            *
#                                                                    *
#                     run_card.dat MadEvent                          *
#                                                                    *
#  This file is used to set the parameters of the run.               *
#                                                                    *
#  Some notation/conventions:                                        *
#                                                                    *
#   Lines starting with a '# ' are info or comments                  *
#                                                                    *
#   mind the format:   value    = variable     ! comment             *
#*********************************************************************
#
#*******************                                                 
# Running parameters
#*******************                                                 
#                                                                    
#*********************************************************************
# Tag name for the run (one word)                                    *
#*********************************************************************
  tag_1     = run_tag ! name of the run 
#*********************************************************************
# Run to generate the grid pack                                      *
#*********************************************************************
  .false.     = gridpack  !True = setting up the grid pack
#*********************************************************************
# Number of events and rnd seed                                      *
# Warning: Do not generate more than 1M events in a single run       *
# If you want to run Pythia, avoid more than 50k events in a run.    *
#*********************************************************************
  2000 = nevents ! Number of unweighted events requested 
 1074 = iseed   ! rnd seed (0=assigned automatically=default))
#*********************************************************************
# Collider type and energy                                           *
# lpp: 0=No PDF, 1=proton, -1=antiproton, 2=photon from proton,      *
#                                         3=photon from electron     *
#*********************************************************************
        1     = lpp1    ! beam 1 type 
        1     = lpp2    ! beam 2 type
     4000     = ebeam1  ! beam 1 total energy in GeV
     4000     = ebeam2  ! beam 2 total energy in GeV
#*********************************************************************
# Beam polarization from -100 (left-handed) to 100 (right-handed)    *
#*********************************************************************
        0     = polbeam1 ! beam polarization for beam 1
        0     = polbeam2 ! beam polarization for beam 2
#*********************************************************************
# PDF CHOICE: this automatically fixes also alpha_s and its evol.    *
#*********************************************************************
 'nn23lo1'    = pdlabel     ! PDF set                                     
 230000    = lhaid     ! if pdlabel=lhapdf, this is the lhapdf number
#*********************************************************************
# Renormalization and factorization scales                           *
#*********************************************************************
 F        = fixed_ren_scale  ! if .true. use fixed ren scale
 F        = fixed_fac_scale  ! if .true. use fixed fac scale
 91.1880  = scale            ! fixed ren scale
 91.1880  = dsqrt_q2fact1    ! fixed fact scale for pdf1
 91.1880  = dsqrt_q2fact2    ! fixed fact scale for pdf2
 1        = scalefact        ! scale factor for event-by-event scales
#*********************************************************************
# Matching - Warning! ickkw > 1 is still beta
#*********************************************************************
 0        = ickkw            ! 0 no matching, 1 MLM, 2 CKKW matching
 1        = highestmult      ! for ickkw=2, highest mult group
 1        = ktscheme         ! for ickkw=1, 1 Durham kT, 2 Pythia pTE
 1        = alpsfact         ! scale factor for QCD emission vx
 F        = chcluster        ! cluster only according to channel diag
 T        = pdfwgt           ! for ickkw=1, perform pdf reweighting
 5        = asrwgtflavor     ! highest quark flavor for a_s reweight
 T        = clusinfo         ! include clustering tag in output
 3.0      = lhe_version       ! Change the way clustering information pass to shower.        
#*********************************************************************
#**********************************************************
#
#**********************************************************
# Automatic ptj and mjj cuts if xqcut > 0
# (turn off for VBF and single top processes)
#**********************************************************
   T  = auto_ptj_mjj  ! Automatic setting of ptj and mjj
#**********************************************************
#                                                                    
#**********************************
# BW cutoff (M+/-bwcutoff*Gamma)
#**********************************
  15  = bwcutoff      ! (M+/-bwcutoff*Gamma)
#**********************************************************
# Apply pt/E/eta/dr/mij cuts on decay products or not
# (note that etmiss/ptll/ptheavy/ht/sorted cuts always apply)
#**********************************************************
   T  = cut_decays    ! Cut decay products 
#*************************************************************
# Number of helicities to sum per event (0 = all helicities)
# 0 gives more stable result, but longer run time (needed for
# long decay chains e.g.).
# Use >=2 if most helicities contribute, e.g. pure QCD.
#*************************************************************
   0  = nhel          ! Number of helicities used per event
#*******************                                                 
# Standard Cuts
#*******************                                                 
#                                                                    
#*********************************************************************
# Minimum and maximum pt's (for max, -1 means no cut)                *
#*********************************************************************
 20  = ptj       ! minimum pt for the jets 
  0  = ptb       ! minimum pt for the b 
 10  = pta       ! minimum pt for the photons 
 10  = ptl       ! minimum pt for the charged leptons 
  0  = misset    ! minimum missing Et (sum of neutrino's momenta)
  0  = ptheavy   ! minimum pt for one heavy final state
 1.0 = ptonium   ! minimum pt for the quarkonium states
 -1  = ptjmax    ! maximum pt for the jets
 -1  = ptbmax    ! maximum pt for the b
 -1  = ptamax    ! maximum pt for the photons
 -1  = ptlmax    ! maximum pt for the charged leptons
 -1  = missetmax ! maximum missing Et (sum of neutrino's momenta)
#*********************************************************************
# Minimum and maximum E's (in the center of mass frame)              *
#*********************************************************************
  0  = ej     ! minimum E for the jets 
  0  = eb     ! minimum E for the b 
  0  = ea     ! minimum E for the photons 
  0  = el     ! minimum E for the charged leptons 
 -1   = ejmax ! maximum E for the jets
 -1   = ebmax ! maximum E for the b
 -1   = eamax ! maximum E for the photons
 -1   = elmax ! maximum E for the charged leptons
#*********************************************************************
# Maximum and minimum absolute rapidity (for max, -1 means no cut)   *
#*********************************************************************
   5  = etaj    ! max rap for the jets 
  -1  = etab    ! max rap for the b
 2.5  = etaa    ! max rap for the photons 
 2.5  = etal    ! max rap for the charged leptons 
 0.6  = etaonium ! max rap for the quarkonium states
   0  = etajmin ! min rap for the jets
   0  = etabmin ! min rap for the b
   0  = etaamin ! min rap for the photons
   0  = etalmin ! main rap for the charged leptons
#*********************************************************************
# Minimum and maximum DeltaR distance                                *
#*********************************************************************
 0.4 = drjj    ! min distance between jets 
 0   = drbb    ! min distance between b's 
 0.4 = drll    ! min distance between leptons 
 0.4 = draa    ! min distance between gammas 
 0   = drbj    ! min distance between b and jet 
 0.4 = draj    ! min distance between gamma and jet 
 0.4 = drjl    ! min distance between jet and lepton 
 0   = drab    ! min distance between gamma and b 
 0   = drbl    ! min distance between b and lepton 
 0.4 = dral    ! min distance between gamma and lepton 
 -1  = drjjmax ! max distance between jets
 -1  = drbbmax ! max distance between b's
 -1  = drllmax ! max distance between leptons
 -1  = draamax ! max distance between gammas
 -1  = drbjmax ! max distance between b and jet
 -1  = drajmax ! max distance between gamma and jet
 -1  = drjlmax ! max distance between jet and lepton
 -1  = drabmax ! max distance between gamma and b
 -1  = drblmax ! max distance between b and lepton
 -1  = dralmax ! maxdistance between gamma and lepton
#*********************************************************************
# Minimum and maximum invariant mass for pairs                       *
# WARNING: for four lepton final state mmll cut require to have      *
#          different lepton masses for each flavor!                  *           
#*********************************************************************
 0   = mmjj    ! min invariant mass of a jet pair 
 0   = mmbb    ! min invariant mass of a b pair 
 0   = mmaa    ! min invariant mass of gamma gamma pair
 0   = mmll    ! min invariant mass of l+l- (same flavour) lepton pair
 -1  = mmjjmax ! max invariant mass of a jet pair
 -1  = mmbbmax ! max invariant mass of a b pair
 -1  = mmaamax ! max invariant mass of gamma gamma pair
 -1  = mmllmax ! max invariant mass of l+l- (same flavour) lepton pair
#*********************************************************************
# Minimum and maximum invariant mass for all letpons                 *
#*********************************************************************
 0   = mmnl    ! min invariant mass for all letpons (l+- and vl) 
 -1  = mmnlmax ! max invariant mass for all letpons (l+- and vl) 
#*********************************************************************
# Minimum and maximum pt for 4-momenta sum of leptons                *
#*********************************************************************
 0   = ptllmin  ! Minimum pt for 4-momenta sum of leptons(l and vl)
 -1  = ptllmax  ! Maximum pt for 4-momenta sum of leptons(l and vl)
#*********************************************************************
# Inclusive cuts                                                     *
#*********************************************************************
 0  = xptj ! minimum pt for at least one jet  
 0  = xptb ! minimum pt for at least one b 
 0  = xpta ! minimum pt for at least one photon 
 0  = xptl ! minimum pt for at least one charged lepton 
#*********************************************************************
# Control the pt's of the jets sorted by pt                          *
#*********************************************************************
 0   = ptj1min ! minimum pt for the leading jet in pt
 0   = ptj2min ! minimum pt for the second jet in pt
 0   = ptj3min ! minimum pt for the third jet in pt
 0   = ptj4min ! minimum pt for the fourth jet in pt
 -1  = ptj1max ! maximum pt for the leading jet in pt 
 -1  = ptj2max ! maximum pt for the second jet in pt
 -1  = ptj3max ! maximum pt for the third jet in pt
 -1  = ptj4max ! maximum pt for the fourth jet in pt
 0   = cutuse  ! reject event if fails any (0) / all (1) jet pt cuts
#*********************************************************************
# Control the pt's of leptons sorted by pt                           *
#*********************************************************************
 0   = ptl1min ! minimum pt for the leading lepton in pt
 0   = ptl2min ! minimum pt for the second lepton in pt
 0   = ptl3min ! minimum pt for the third lepton in pt
 0   = ptl4min ! minimum pt for the fourth lepton in pt
 -1  = ptl1max ! maximum pt for the leading lepton in pt 
 -1  = ptl2max ! maximum pt for the second lepton in pt
 -1  = ptl3max ! maximum pt for the third lepton in pt
 -1  = ptl4max ! maximum pt for the fourth lepton in pt
#*********************************************************************
# Control the Ht(k)=Sum of k leading jets                            *
#*********************************************************************
 0   = htjmin ! minimum jet HT=Sum(jet pt)
 -1  = htjmax ! maximum jet HT=Sum(jet pt)
 0   = ihtmin  !inclusive Ht for all partons (including b)
 -1  = ihtmax  !inclusive Ht for all partons (including b)
 0   = ht2min ! minimum Ht for the two leading jets
 0   = ht3min ! minimum Ht for the three leading jets
 0   = ht4min ! minimum Ht for the four leading jets
 -1  = ht2max ! maximum Ht for the two leading jets
 -1  = ht3max ! maximum Ht for the three leading jets
 -1  = ht4max ! maximum Ht for the four leading jets
#***********************************************************************
# Photon-isolation cuts, according to hep-ph/9801442                   *
# When ptgmin=0, all the other parameters are ignored                  *
# When ptgmin>0, pta and draj are not going to be used                 *
#***********************************************************************
   0 = ptgmin ! Min photon transverse momentum
 0.4 = R0gamma ! Radius of isolation code
 1.0 = xn ! n parameter of eq.(3.4) in hep-ph/9801442
 1.0 = epsgamma ! epsilon_gamma parameter of eq.(3.4) in hep-ph/9801442
 .true. = isoEM ! isolate photons from EM energy (photons and leptons)
#*********************************************************************
# WBF cuts                                                           *
#*********************************************************************
 0   = xetamin ! minimum rapidity for two jets in the WBF case  
 0   = deltaeta ! minimum rapidity for two jets in the WBF case 
#*********************************************************************
# KT DURHAM CUT                                                      *
#*********************************************************************
 -1    =  ktdurham        
 0.4  =  dparameter 
#*********************************************************************
# maximal pdg code for quark to be considered as a light jet         *
# (otherwise b cuts are applied)                                     *
#*********************************************************************
 4 = maxjetflavor    ! Maximum jet pdg code
#*********************************************************************
# Jet measure cuts                                                   *
#*********************************************************************
 0   = xqcut   ! minimum kt jet measure between partons
#*********************************************************************
#
#*********************************************************************
# Store info for systematics studies                                 *
# WARNING: If use_syst is T, matched Pythia output is                *
#          meaningful ONLY if plotted taking matchscale              *
#          reweighting into account!                                 *
#*********************************************************************
   F  = use_syst      ! Enable systematics studies
#
#**************************************
# Parameter of the systematics study
#  will be used by SysCalc (if installed)
#**************************************                                  
#
0.5 1 2 = sys_scalefact  # factorization/renormalization scale factor
0.5 1 2 = sys_alpsfact  # \alpha_s emission scale factors
30 50 = sys_matchscale # variation of merging scale
# PDF sets and number of members (0 or none for all members).
CT10nlo.LHgrid = sys_pdf # matching scales
# MSTW2008nlo68cl.LHgrid 1  = sys_pdf
</MGRunCard>
<slha>
######################################################################
## PARAM_CARD AUTOMATICALY GENERATED BY MG5 FOLLOWING UFO MODEL   ####
######################################################################
##                                                                  ##
##  Width set on Auto will be computed following the information    ##
##        present in the decay.py files of the model.               ##
##        See  arXiv:1402.1178 for more details.                    ##
##                                                                  ##
######################################################################

###################################
## INFORMATION FOR CKMBLOCK
###################################
Block ckmblock 
    1 2.277360e-01 # cabi 

###################################
## INFORMATION FOR FRBLOCK
###################################
Block frblock 
    1 4.000000e-01 # gz 

###################################
## INFORMATION FOR MASS
###################################
Block mass 
    1 5.040000e-03 # MD 
    2 2.550000e-03 # MU 
    3 1.010000e-01 # MS 
    4 1.270000e+00 # MC 
    5 4.700000e+00 # MB 
    6 1.720000e+02 # MT 
   11 5.110000e-04 # Me 
   13 1.056600e-01 # MM 
   15 1.777000e+00 # MTA 
   23 9.118760e+01 # MZ 
   25 1.200000e+02 # MH 
  10030 3.300000e+03 # MZph 
  10031 3.000000e+02 # MZpl 
## Dependent parameters, given by model restrictions.
## Those values should be edited following the 
## analytical expression. MG5 ignores those values 
## but they are important for interfacing the output of MG5
## to external program such as Pythia.
  12 0.000000 # ve : 0.0 
  14 0.000000 # vm : 0.0 
  16 0.000000 # vt : 0.0 
  21 0.000000 # g : 0.0 
  22 0.000000 # a : 0.0 
  24 79.824360 # w+ : cmath.sqrt(MZ__exp__2/2. + cmath.sqrt(MZ__exp__4/4. - (aEW*cmath.pi*MZ__exp__2)/(Gf*sqrt__2))) 

###################################
## INFORMATION FOR SMINPUTS
###################################
Block sminputs 
    1 1.279000e+02 # aEWM1 
    2 1.166370e-05 # Gf 
    3 1.184000e-01 # aS 

###################################
## INFORMATION FOR YUKAWA
###################################
Block yukawa 
    1 5.040000e-03 # ymdo 
    2 2.550000e-03 # ymup 
    3 1.010000e-01 # yms 
    4 1.270000e+00 # ymc 
    5 4.700000e+00 # ymb 
    6 1.720000e+02 # ymt 
   11 5.110000e-04 # yme 
   13 1.056600e-01 # ymm 
   15 1.777000e+00 # ymtau 

###################################
## INFORMATION FOR DECAY
###################################
DECAY   6 1.508336e+00 # WT 
DECAY  23 2.495200e+00 # WZ 
DECAY  24 2.085000e+00 # WW 
DECAY  25 5.753088e-03 # WH 
## Dependent parameters, given by model restrictions.
## Those values should be edited following the 
## analytical expression. MG5 ignores those values 
## but they are important for interfacing the output of MG5
## to external program such as Pythia.
DECAY  1 0.000000 # d : 0.0 
DECAY  2 0.000000 # u : 0.0 
DECAY  3 0.000000 # s : 0.0 
DECAY  4 0.000000 # c : 0.0 
DECAY  5 0.000000 # b : 0.0 
DECAY  11 0.000000 # e- : 0.0 
DECAY  12 0.000000 # ve : 0.0 
DECAY  13 0.000000 # mu- : 0.0 
DECAY  14 0.000000 # vm : 0.0 
DECAY  15 0.000000 # ta- : 0.0 
DECAY  16 0.000000 # vt : 0.0 
DECAY  21 0.000000 # g : 0.0 
DECAY  22 0.000000 # a : 0.0 
DECAY  10030 0.308725 # zph : (gz__exp__2*MZph*(5 + cmath.sqrt(1 - (4*MT__exp__2)/MZph__exp__2)))/(144.*cmath.pi) 
DECAY  10031 0.132629 # zpl : (5*gz__exp__2*MZpl)/(144.*cmath.pi) 
#===========================================================
# QUANTUM NUMBERS OF NEW STATE(S) (NON SM PDG CODE)
#===========================================================

Block QNUMBERS 10030  # zph 
        1 0  # 3 times electric charge
        2 3  # number of spin states (2S+1)
        3 1  # colour rep (1: singlet, 3: triplet, 8: octet)
        4 0  # Particle/Antiparticle distinction (0=own anti)
Block QNUMBERS 10031  # zpl 
        1 0  # 3 times electric charge
        2 3  # number of spin states (2S+1)
        3 1  # colour rep (1: singlet, 3: triplet, 8: octet)
        4 0  # Particle/Antiparticle distinction (0=own anti)
</slha>
## END BANNER##
<MGGenerationInfo>
#  Number of Events        :         3867
#  Integrated weight (pb)  :  0.70441E-04
#  Max wgt                 :  0.28758E-07
#  Average wgt             :  0.18216E-07
</MGGenerationInfo>
</header>
<init>
     2212     2212  0.40000000000E+04  0.40000000000E+04 0 0  247000  247000 2   1
  0.70513389440E-04  0.15904327472E-06  0.28758290000E-07   0
</init>
<event>
 5   0  0.2824402E-07  0.3289006E+04  0.7818609E-02  0.8165698E-01
       -2   -1    0    0    0  501  0.00000000000E+00  0.00000000000E+00  0.12553686704E+04  0.12553686704E+04  0.25500000920E-02 0.  1.
        2   -1    0    0  501    0  0.00000000000E+00  0.00000000000E+00 -0.21542594955E+04  0.21542594955E+04  0.25500000920E-02 0. -1.
    10030    2    1    2    0    0  0.00000000000E+00  0.00000000000E+00 -0.89889082514E+03  0.34096281659E+04  0.32890058549E+04 0.  0.
        1    1    3    3  502    0  0.15082235697E+04 -0.64898512127E+03 -0.54485243618E+03  0.17299665318E+04  0.50400001928E-02 0. -1.
       -1    1    3    3    0  502 -0.15082235697E+04  0.64898512127E+03 -0.35403838896E+03  0.16796616340E+04  0.50400001928E-02 0.  1.
</event>
<event>
 5   0  0.2824402E-07  0.3306387E+04  0.7818609E-02  0.8161272E-01
        2   -1    0    0  501    0  0.00000000000E+00  0.00000000000E+00  0.24091461388E+04  0.24091461388E+04  0.25500000920E-02 0. -1.
       -2   -1    0    0    0  501  0.00000000000E+00  0.00000000000E+00 -0.11344468034E+04  0.11344468034E+04  0.25500000920E-02 0.  1.
    10030    2    1    2    0    0  0.00000000000E+00  0.00000000000E+00  0.12746993354E+04  0.35435929422E+04  0.33063866296E+04 0.  0.
        1    1    3    3  502    0 -0.42591297491E+03 -0.15797885739E+04  0.38392331325E+03  0.16806340800E+04  0.50400001928E-02 0. -1.
       -1    1    3    3    0  502  0.42591297491E+03  0.15797885739E+04  0.89077602212E+03  0.18629588622E+04  0.50400001928E-02 0.  1.
</event>
<event>
 5   0  0.2875829E-07  0.3298027E+04  0.7818609E-02  0.8163398E-01
        2   -1    0    0  501    0  0.00000000000E+00  0.00000000000E+00  0.26630603842E+04  0.26630603842E+04  0.25500000920E-02 0.  1.
       -2   -1    0    0    0  501  0.00000000000E+00  0.00000000000E+00 -0.10210977429E+04  0.10210977429E+04  0.25500000920E-02 0. -1.
    10030    2    1    2    0    0  0.00000000000E+00  0.00000000000E+00  0.16419626413E+04  0.36841581271E+04  0.32980266508E+04 0.  0.
        3    1    3    3  502    0 -0.11608457317E+04 -0.60173918264E+03 -0.30144300150E+03  0.13418348446E+04  0.10100000352E+00 0.  1.
       -3    1    3    3    0  502  0.11608457317E+04  0.60173918264E+03  0.19434056428E+04  0.23423232825E+04  0.10100000352E+00 0. -1.
</event>
<event>
 5   0  0.2824402E-07  0.3298560E+04  0.7818609E-02  0.8163262E-01
        2   -1    0    0  501    0  0.00000000000E+00  0.00000000000E+00  0.16906822528E+04  0.16906822528E+04  0.25500000920E-02 0. -1.
       -2   -1    0    0    0  501  0.00000000000E+00  0.00000000000E+00 -0.16088919028E+04  0.16088919028E+04  0.25500000920E-02 0.  1.
    10030    2    1    2    0    0  0.00000000000E+00  0.00000000000E+00  0.81790349963E+02  0.32995741556E+04  0.32985602840E+04 0.  0.
        1    1    3    3  502    0 -0.10171188001E+04 -0.76177023943E+03  0.10925510159E+04  0.16758556840E+04  0.50400001928E-02 0. -1.
       -1    1    3    3    0  502  0.10171188001E+04  0.76177023943E+03 -0.10107606659E+04  0.16237184716E+04  0.50400001928E-02 0.  1.
</event>
<event>
 5   0  0.2875829E-07  0.3302124E+04  0.7818609E-02  0.8162355E-01
       -2   -1    0    0    0  501  0.00000000000E+00  0.00000000000E+00  0.17536847324E+04  0.17536847324E+04  0.25500000920E-02 0. -1.
        2   -1    0    0  501    0  0.00000000000E+00  0.00000000000E+00 -0.15544442545E+04  0.15544442545E+04  0.25500000920E-02 0.  1.
    10030    2    1    2    0    0  0.00000000000E+00  0.00000000000E+00  0.19924047789E+03  0.33081289868E+04  0.33021236539E+04 0.  0.
        3    1    3    3  502    0 -0.66077284926E+03 -0.19324966082E+03 -0.14037884363E+04  0.15635178841E+04  0.10100000352E+00 0.  1.
       -3    1    3    3    0  502  0.66077284926E+03  0.19324966082E+03  0.16030289142E+04  0.17446111027E+04  0.10100000352E+00 0. -1.
</event>
<event>
 5   0  0.9181760E-08  0.3281604E+04  0.7818609E-02  0.8167592E-01
        1   -1    0    0  501    0  0.00000000000E+00  0.00000000000E+00  0.27304928500E+04  0.27304928500E+04  0.50400001928E-02 0. -1.
       -1   -1    0    0    0  501  0.00000000000E+00  0.00000000000E+00 -0.98598725702E+03  0.98598725703E+03  0.50400001928E-02 0.  1.
    10030    2    1    2    0    0  0.00000000000E+00  0.00000000000E+00  0.17445055930E+04  0.37164801070E+04  0.32816039709E+04 0.  0.
        1    1    3    3  502    0 -0.11018661279E+04 -0.81416123923E+03 -0.15032106735E+03  0.13782466799E+04  0.50400001928E-02 0. -1.
       -1    1    3    3    0  502  0.11018661279E+04  0.81416123923E+03  0.18948266603E+04  0.23382334272E+04  0.50400001928E-02 0.  1.
</event>
<event>
 5   0  0.9283910E-08  0.3294975E+04  0.7818609E-02  0.8164175E-01
       -1   -1    0    0    0  501  0.00000000000E+00  0.00000000000E+00  0.11825817515E+04  0.11825817515E+04  0.50400001928E-02 0.  1.
        1   -1    0    0  501    0  0.00000000000E+00  0.00000000000E+00 -0.22951607013E+04  0.22951607014E+04  0.50400001928E-02 0. -1.
    10030    2    1    2    0    0  0.00000000000E+00  0.00000000000E+00 -0.11125789498E+04  0.34777424529E+04  0.32949750604E+04 0.  0.
        3    1    3    3  502    0 -0.14387867754E+04  0.23278431063E+03 -0.13669547350E+04  0.19982144975E+04  0.10100000352E+00 0.  1.
       -3    1    3    3    0  502  0.14387867754E+04 -0.23278431063E+03  0.25437578516E+03  0.14795279553E+04  0.10100000352E+00 0. -1.
</event>
<event>
 5   0  0.2824402E-07  0.3299610E+04  0.7818609E-02  0.8162995E-01
       -2   -1    0    0    0  501  0.00000000000E+00  0.00000000000E+00  0.93807579999E+03  0.93807579999E+03  0.25500000920E-02 0.  1.
        2   -1    0    0  501    0  0.00000000000E+00  0.00000000000E+00 -0.29015306995E+04  0.29015306995E+04  0.25500000920E-02 0. -1.
    10030    2    1    2    0    0  0.00000000000E+00  0.00000000000E+00 -0.19634548996E+04  0.38396064995E+04  0.32996095115E+04 0.  0.
        1    1    3    3  502    0 -0.79472255966E+03 -0.14424643343E+04 -0.86790065560E+03  0.18615957807E+04  0.50400001928E-02 0. -1.
       -1    1    3    3    0  502  0.79472255966E+03  0.14424643343E+04 -0.10955542440E+04  0.19780107189E+04  0.50400001928E-02 0.  1.
</event>
<event>
 5   0  0.9454010E-08  0.3300353E+04  0.7818609E-02  0.8162805E-01
        1   -1    0    0  501    0  0.00000000000E+00  0.00000000000E+00  0.23701667580E+04  0.23701667580E+04  0.50400001928E-02 0.  1.
       -1   -1    0    0    0  501  0.00000000000E+00  0.00000000000E+00 -0.11488993788E+04  0.11488993788E+04  0.50400001928E-02 0. -1.
    10030    2    1    2    0    0  0.00000000000E+00  0.00000000000E+00  0.12212673792E+04  0.35190661368E+04  0.33003533847E+04 0.  0.
        2    1    3    3  502    0  0.12003336925E+03  0.15409810879E+04  0.12269083034E+04  0.19734068784E+04  0.25500000920E-02 0.  1.
       -2    1    3    3    0  502 -0.12003336925E+03 -0.15409810879E+04 -0.56409241593E+01  0.15456592584E+04  0.25500000920E-02 0. -1.
</event>
<event>
 5   0  0.2824402E-07  0.3300823E+04  0.7818609E-02  0.8162686E-01
       -2   -1    0    0    0  501  0.00000000000E+00  0.00000000000E+00  0.13932648094E+04  0.13932648094E+04  0.25500000920E-02 0.  1.
        2   -1    0    0  501    0  0.00000000000E+00  0.00000000000E+00 -0.19550179500E+04  0.19550179500E+04  0.25500000920E-02 0. -1.
    10030    2    1    2    0    0  0.00000000000E+00  0.00000000000E+00 -0.56175314061E+03  0.33482827594E+04  0.33008227529E+04 0.  0.
        1    1    3    3  502    0 -0.15726941777E+04 -0.45655531395E+03 -0.72872184321E+02  0.16392437544E+04  0.50400001928E-02 0. -1.
       -1    1    3    3    0  502  0.15726941777E+04  0.45655531395E+03 -0.48888095629E+03  0.17090390050E+04  0.50400001928E-02 0.  1.
</event>
<event>
 5   0  0.9454010E-08  0.3299770E+04  0.7818609E-02  0.8162954E-01
       -1   -1    0    0    0  501  0.00000000000E+00  0.00000000000E+00  0.14001972360E+04  0.14001972360E+04  0.50400001928E-02 0. -1.
        1   -1    0    0  501    0  0.00000000000E+00  0.00000000000E+00 -0.19440980046E+04  0.19440980046E+04  0.50400001928E-02 0.  1.
    10030    2    1    2    0    0  0.00000000000E+00  0.00000000000E+00 -0.54390076863E+03  0.33442952406E+04  0.32997700844E+04 0.  0.
        2    1    3    3  502    0  0.35707869972E+03 -0.11853547372E+04 -0.13773319250E+04  0.18519217809E+04  0.25500000920E-02 0.  1.
       -2    1    3    3    0  502 -0.35707869972E+03  0.11853547372E+04  0.83343115639E+03  0.14923734597E+04  0.25500000920E-02 0. -1.
</event>
<event>
 5   0  0.2703956E-07  0.3299394E+04  0.7818609E-02  0.8163050E-01
       -2   -1    0    0    0  501  0.00000000000E+00  0.00000000000E+00  0.11543937198E+04  0.11543937198E+04  0.25500000920E-02 0. -1.
        2   -1    0    0  501    0  0.00000000000E+00  0.00000000000E+00 -0.23575140296E+04  0.23575140296E+04  0.25500000920E-02 0.  1.
    10030    2    1    2    0    0  0.00000000000E+00  0.00000000000E+00 -0.12031203098E+04  0.35119077494E+04  0.32993935140E+04 0.  0.
        5    1    3    3  502    0 -0.73311640554E+03 -0.10107175529E+04 -0.17491836308E+04  0.21491103043E+04  0.46999998093E+01 0.  1.
       -5    1    3    3    0  502  0.73311640554E+03  0.10107175529E+04  0.54606332100E+03  0.13627974451E+04  0.46999998093E+01 0. -1.
</event>
<event>
 5   0  0.9810351E-08  0.3297401E+04  0.7818609E-02  0.8163557E-01
       -1   -1    0    0    0  501  0.00000000000E+00  0.00000000000E+00  0.13280174258E+04  0.13280174258E+04  0.50400001928E-02 0.  1.
        1   -1    0    0  501    0  0.00000000000E+00  0.00000000000E+00 -0.20468204294E+04  0.20468204294E+04  0.50400001928E-02 0. -1.
    10030    2    1    2    0    0  0.00000000000E+00  0.00000000000E+00 -0.71880300353E+03  0.33748378552E+04  0.32974009145E+04 0.  0.
        5    1    3    3  502    0 -0.77750698423E+03  0.12453875789E+04  0.40833705909E+03  0.15238991358E+04  0.46999998093E+01 0.  1.
       -5    1    3    3    0  502  0.77750698423E+03 -0.12453875789E+04 -0.11271400626E+04  0.18509387194E+04  0.46999998093E+01 0. -1.
</event>
<event>
 5   0  0.9181760E-08  0.3287277E+04  0.7818609E-02  0.8166140E-01
        1   -1    0    0  501    0  0.00000000000E+00  0.00000000000E+00  0.94807478802E+03  0.94807478803E+03  0.50400001928E-02 0.  1.
       -1   -1    0    0    0  501  0.00000000000E+00  0.00000000000E+00 -0.28495088864E+04  0.28495088864E+04  0.50400001928E-02 0. -1.
    10030    2    1    2    0    0  0.00000000000E+00  0.00000000000E+00 -0.19014340984E+04  0.37975836744E+04  0.32872770090E+04 0.  0.
        1    1    3    3  502    0  0.95791004805E+03 -0.26536852444E+03 -0.24629461539E+04  0.26559585597E+04  0.50400001928E-02 0. -1.
       -1    1    3    3    0  502 -0.95791004805E+03  0.26536852444E+03  0.56151205556E+03  0.11416251147E+04  0.50400001928E-02 0.  1.
</event>
<event>
 5   0  0.9283910E-08  0.3294390E+04  0.7818609E-02  0.8164324E-01
        1   -1    0    0  501    0  0.00000000000E+00  0.00000000000E+00  0.14069459574E+04  0.14069459574E+04  0.50400001928E-02 0. -1.
       -1   -1    0    0    0  501  0.00000000000E+00  0.00000000000E+00 -0.19284689971E+04  0.19284689971E+04  0.50400001928E-02 0.  1.
    10030    2    1    2    0    0  0.00000000000E+00  0.00000000000E+00 -0.52152303969E+03  0.33354149545E+04  0.32943901769E+04 0.  0.
        3    1    3    3  502    0  0.33995806773E+03 -0.15177128748E+04  0.28842097160E+03  0.15818377051E+04  0.10100000352E+00 0. -1.
       -3    1    3    3    0  502 -0.33995806773E+03  0.15177128748E+04 -0.80994401129E+03  0.17535772494E+04  0.10100000352E+00 0.  1.
</event>
<event>
 5   0  0.9283910E-08  0.3330486E+04  0.7818609E-02  0.8155181E-01
       -1   -1    0    0    0  501  0.00000000000E+00  0.00000000000E+00  0.13287700408E+04  0.13287700408E+04  0.50400001928E-02 0.  1.
        1   -1    0    0  501    0  0.00000000000E+00  0.00000000000E+00 -0.20869177337E+04  0.20869177337E+04  0.50400001928E-02 0. -1.
    10030    2    1    2    0    0  0.00000000000E+00  0.00000000000E+00 -0.75814769290E+03  0.34156877746E+04  0.33304857077E+04 0.  0.
        3    1    3    3  502    0  0.77571496785E+03 -0.80581285856E+03 -0.16443141578E+04  0.19886772322E+04  0.10100000352E+00 0. -1.
       -3    1    3    3    0  502 -0.77571496785E+03  0.80581285856E+03  0.88616646485E+03  0.14270105424E+04  0.10100000352E+00 0.  1.
</event>
<event>
 5   0  0.2824402E-07  0.3302162E+04  0.7818609E-02  0.8162345E-01
       -2   -1    0    0    0  501  0.00000000000E+00  0.00000000000E+00  0.14706318134E+04  0.14706318134E+04  0.25500000920E-02 0.  1.
        2   -1    0    0  501    0  0.00000000000E+00  0.00000000000E+00 -0.18536721081E+04  0.18536721081E+04  0.25500000920E-02 0. -1.
    10030    2    1    2    0    0  0.00000000000E+00  0.00000000000E+00 -0.38304029463E+03  0.33243039215E+04  0.33021624272E+04 0.  0.
        1    1    3    3  502    0 -0.80187512950E+03  0.14397887958E+04 -0.29256082163E+03  0.16737942927E+04  0.50400001928E-02 0. -1.
       -1    1    3    3    0  502  0.80187512950E+03 -0.14397887958E+04 -0.90479472997E+02  0.16505096288E+04  0.50400001928E-02 0.  1.
</event>
<event>
 5   0  0.8805125E-08  0.3304650E+04  0.7818609E-02  0.8161713E-01
        1   -1    0    0  501    0  0.00000000000E+00  0.00000000000E+00  0.97657201299E+03  0.97657201300E+03  0.50400001928E-02 0.  1.
       -1   -1    0    0    0  501  0.00000000000E+00  0.00000000000E+00 -0.27956750903E+04  0.27956750903E+04  0.50400001928E-02 0. -1.
    10030    2    1    2    0    0  0.00000000000E+00  0.00000000000E+00 -0.18191030773E+04  0.37722471033E+04  0.33046500877E+04 0.  0.
        4    1    3    3  502    0  0.13085624536E+04 -0.97893336299E+03 -0.63103988419E+03  0.17518159642E+04  0.12699999809E+01 0.  1.
       -4    1    3    3    0  502 -0.13085624536E+04  0.97893336299E+03 -0.11880631931E+04  0.20204311391E+04  0.12699999809E+01 0. -1.
</event>
<event>
 5   0  0.9181760E-08  0.3299735E+04  0.7818609E-02  0.8162963E-01
       -1   -1    0    0    0  501  0.00000000000E+00  0.00000000000E+00  0.13441442009E+04  0.13441442009E+04  0.50400001928E-02 0. -1.
        1   -1    0    0  501    0  0.00000000000E+00  0.00000000000E+00 -0.20251266099E+04  0.20251266099E+04  0.50400001928E-02 0.  1.
    10030    2    1    2    0    0  0.00000000000E+00  0.00000000000E+00 -0.68098240898E+03  0.33692708108E+04  0.32997346492E+04 0.  0.
        1    1    3    3  502    0  0.31737340428E+03  0.16007191615E+04 -0.92400917199E+02  0.16344924721E+04  0.50400001928E-02 0. -1.
       -1    1    3    3    0  502 -0.31737340428E+03 -0.16007191615E+04 -0.58858149178E+03  0.17347783387E+04  0.50400001928E-02 0.  1.
</event>
<event>
 5   0  0.2727168E-07  0.3302486E+04  0.7818609E-02  0.8162263E-01
        2   -1    0    0  501    0  0.00000000000E+00  0.00000000000E+00  0.19537512835E+04  0.19537512835E+04  0.25500000920E-02 0.  1.
       -2   -1    0    0    0  501  0.00000000000E+00  0.00000000000E+00 -0.13955737318E+04  0.13955737318E+04  0.25500000920E-02 0. -1.
    10030    2    1    2    0    0  0.00000000000E+00  0.00000000000E+00  0.55817755171E+03  0.33493250152E+04  0.33024863177E+04 0.  0.
        2    1    3    3  502    0 -0.28620676150E+03 -0.55164390034E+03  0.18306157536E+04  0.19332302865E+04  0.25500000920E-02 0.  1.
       -2    1    3    3    0  502  0.28620676150E+03  0.55164390034E+03 -0.12724382019E+04  0.14160947288E+04  0.25500000920E-02 0. -1.
</event>
<event>
 5   0  0.9283910E-08  0.3284178E+04  0.7818609E-02  0.8166933E-01
        1   -1    0    0  501    0  0.00000000000E+00  0.00000000000E+00  0.16080225639E+04  0.16080225639E+04  0.50400001928E-02 0.  1.
       -1   -1    0    0    0  501  0.00000000000E+00  0.00000000000E+00 -0.16768772991E+04  0.16768772991E+04  0.50400001928E-02 0. -1.
    10030    2    1    2    0    0  0.00000000000E+00  0.00000000000E+00 -0.68854735174E+02  0.32848998630E+04  0.32841781522E+04 0.  0.
        3    1    3    3  502    0 -0.10424392360E+04  0.89667075073E+03  0.86341042599E+03  0.16236303674E+04  0.10100000352E+00 0.  1.
       -3    1    3    3    0  502  0.10424392360E+04 -0.89667075073E+03 -0.93226516117E+03  0.16612694956E+04  0.10100000352E+00 0. -1.
</event>
<event>
 5   0  0.2875829E-07  0.3262486E+04  0.7818609E-02  0.8172507E-01
        2   -1    0    0  501    0  0.00000000000E+00  0.00000000000E+00  0.14442342281E+04  0.14442342281E+04  0.25500000920E-02 0.  1.
       -2   -1    0    0    0  501  0.00000000000E+00  0.00000000000E+00 -0.18424668710E+04  0.18424668710E+04  0.25500000920E-02 0. -1.
    10030    2    1    2    0    0  0.00000000000E+00  0.00000000000E+00 -0.39823264288E+03  0.32867010992E+04  0.32624859965E+04 0.  0.
        3    1    3    3  502    0  0.10696813021E+04  0.37120130743E+03  0.98388453540E+03  0.15000124292E+04  0.10100000352E+00 0.  1.
       -3    1    3    3    0  502 -0.10696813021E+04 -0.37120130743E+03 -0.13821171783E+04  0.17866886699E+04  0.10100000352E+00 0. -1.
</event>
<event>
 5   0  0.9181760E-08  0.3300263E+04  0.7818609E-02  0.8162828E-01
       -1   -1    0    0    0  501  0.00000000000E+00  0.00000000000E+00  0.14033211007E+04  0.14033211007E+04  0.50400001928E-02 0. -1.
        1   -1    0    0  501    0  0.00000000000E+00  0.00000000000E+00 -0.19403497906E+04  0.19403497906E+04  0.50400001928E-02 0.  1.
    10030    2    1    2    0    0  0.00000000000E+00  0.00000000000E+00 -0.53702868990E+03  0.33436708913E+04  0.33002629010E+04 0.  0.
        1    1    3    3  502    0 -0.10370781104E+02 -0.36271797469E+03 -0.18994267782E+04  0.19337771247E+04  0.50400001928E-02 0.  1.
       -1    1    3    3    0  502  0.10370781104E+02  0.36271797469E+03  0.13623980883E+04  0.14098937666E+04  0.50400001928E-02 0. -1.
</event>
<event>
 5   0  0.2727168E-07  0.3302450E+04  0.7818609E-02  0.8162272E-01
        2   -1    0    0  501    0  0.00000000000E+00  0.00000000000E+00  0.14583162826E+04  0.14583162826E+04  0.25500000920E-02 0.  1.
       -2   -1    0    0    0  501  0.00000000000E+00  0.00000000000E+00 -0.18696519333E+04  0.18696519333E+04  0.25500000920E-02 0. -1.
    10030    2    1    2    0    0  0.00000000000E+00  0.00000000000E+00 -0.41133565066E+03  0.33279682159E+04  0.33024499131E+04 0.  0.
        2    1    3    3  502    0  0.65543088350E+03  0.15115650019E+04 -0.94701290071E+02  0.16502686849E+04  0.25500000920E-02 0. -1.
       -2    1    3    3    0  502 -0.65543088350E+03 -0.15115650019E+04 -0.31663436059E+03  0.16776995310E+04  0.25500000920E-02 0.  1.
</event>
<event>
 5   0  0.9454010E-08  0.3298863E+04  0.7818609E-02  0.8163185E-01
       -1   -1    0    0    0  501  0.00000000000E+00  0.00000000000E+00  0.11486918554E+04  0.11486918554E+04  0.50400001928E-02 0.  1.
        1   -1    0    0  501    0  0.00000000000E+00  0.00000000000E+00 -0.23684548501E+04  0.23684548501E+04  0.50400001928E-02 0. -1.
    10030    2    1    2    0    0  0.00000000000E+00  0.00000000000E+00 -0.12197629947E+04  0.35171467055E+04  0.32988633171E+04 0.  0.
        2    1    3    3  502    0  0.13150152604E+04 -0.31745709703E+03  0.39626863853E+03  0.14096357605E+04  0.25500000920E-02 0.  1.
       -2    1    3    3    0  502 -0.13150152604E+04  0.31745709703E+03 -0.16160316332E+04  0.21075109450E+04  0.25500000920E-02 0. -1.
</event>
<event>
 5   0  0.2875829E-07  0.3307370E+04  0.7818609E-02  0.8161023E-01
       -2   -1    0    0    0  501  0.00000000000E+00  0.00000000000E+00  0.84817707095E+03  0.84817707095E+03  0.25500000920E-02 0.  1.
        2   -1    0    0  501    0  0.00000000000E+00  0.00000000000E+00 -0.32241790951E+04  0.32241790951E+04  0.25500000920E-02 0. -1.
    10030    2    1    2    0    0  0.00000000000E+00  0.00000000000E+00 -0.23760020241E+04  0.40723561660E+04  0.33073704244E+04 0.  0.
        3    1    3    3  502    0  0.49304400063E+03  0.15530043978E+04 -0.15357410836E+04  0.22390658168E+04  0.10100000352E+00 0.  1.
       -3    1    3    3    0  502 -0.49304400063E+03 -0.15530043978E+04 -0.84026094056E+03  0.18332903492E+04  0.10100000352E+00 0. -1.
</event>
<event>
 5   0  0.2703956E-07  0.3300521E+04  0.7818609E-02  0.8162763E-01
       -2   -1    0    0    0  501  0.00000000000E+00  0.00000000000E+00  0.15871682655E+04  0.15871682655E+04  0.25500000920E-02 0. -1.
        2   -1    0    0  501    0  0.00000000000E+00  0.00000000000E+00 -0.17158612118E+04  0.17158612118E+04  0.25500000920E-02 0.  1.
    10030    2    1    2    0    0  0.00000000000E+00  0.00000000000E+00 -0.12869294634E+03  0.33030294773E+04  0.33005214517E+04 0.  0.
        5    1    3    3  502    0 -0.10816672678E+04 -0.32731210758E+03 -0.12678413071E+04  0.16984054180E+04  0.46999998093E+01 0.  1.
       -5    1    3    3    0  502  0.10816672678E+04  0.32731210758E+03  0.11391483607E+04  0.16046240593E+04  0.46999998093E+01 0. -1.
</event>
<event>
 5   0  0.9454010E-08  0.3311243E+04  0.7818609E-02  0.8160041E-01
       -1   -1    0    0    0  501  0.00000000000E+00  0.00000000000E+00  0.10683799687E+04  0.10683799687E+04  0.50400001928E-02 0. -1.
        1   -1    0    0  501    0  0.00000000000E+00  0.00000000000E+00 -0.25656431553E+04  0.25656431553E+04  0.50400001928E-02 0.  1.
    10030    2    1    2    0    0  0.00000000000E+00  0.00000000000E+00 -0.14972631866E+04  0.36340231240E+04  0.33112425185E+04 0.  0.
        2    1    3    3  502    0 -0.73570360641E+03 -0.44844814527E+03  0.80294158955E+03  0.11777439160E+04  0.25500000920E-02 0. -1.
       -2    1    3    3    0  502  0.73570360641E+03  0.44844814527E+03 -0.23002047762E+04  0.24562792080E+04  0.25500000920E-02 0.  1.
</event>
<event>
 5   0  0.2875829E-07  0.3306925E+04  0.7818609E-02  0.8161136E-01
        2   -1    0    0  501    0  0.00000000000E+00  0.00000000000E+00  0.24671031170E+04  0.24671031170E+04  0.25500000920E-02 0.  1.
       -2   -1    0    0    0  501  0.00000000000E+00  0.00000000000E+00 -0.11081569468E+04  0.11081569468E+04  0.25500000920E-02 0. -1.
    10030    2    1    2    0    0  0.00000000000E+00  0.00000000000E+00  0.13589461702E+04  0.35752600638E+04  0.33069245275E+04 0.  0.
        3    1    3    3  502    0 -0.75166701130E+03 -0.11317433979E+04 -0.33938124837E+03  0.14003664008E+04  0.10100000352E+00 0. -1.
       -3    1    3    3    0  502  0.75166701130E+03  0.11317433979E+04  0.16983274185E+04  0.21748936630E+04  0.10100000352E+00 0.  1.
</event>
<event>
 5   0  0.2824402E-07  0.3301272E+04  0.7818609E-02  0.8162572E-01
        2   -1    0    0  501    0  0.00000000000E+00  0.00000000000E+00  0.14085494281E+04  0.14085494281E+04  0.25500000920E-02 0. -1.
       -2   -1    0    0    0  501  0.00000000000E+00  0.00000000000E+00 -0.19343299493E+04  0.19343299493E+04  0.25500000920E-02 0.  1.
    10030    2    1    2    0    0  0.00000000000E+00  0.00000000000E+00 -0.52578052118E+03  0.33428793774E+04  0.33012720844E+04 0.  0.
        1    1    3    3  502    0  0.12996630933E+04 -0.10170734250E+03 -0.12881384912E+04  0.18326945496E+04  0.50400001928E-02 0.  1.
       -1    1    3    3    0  502 -0.12996630933E+04  0.10170734250E+03  0.76235797006E+03  0.15101848278E+04  0.50400001928E-02 0. -1.
</event>
<event>
 5   0  0.9810351E-08  0.3299157E+04  0.7818609E-02  0.8163110E-01
        1   -1    0    0  501    0  0.00000000000E+00  0.00000000000E+00  0.15333067688E+04  0.15333067688E+04  0.50400001928E-02 0. -1.
       -1   -1    0    0    0  501  0.00000000000E+00  0.00000000000E+00 -0.17746669121E+04  0.17746669121E+04  0.50400001928E-02 0.  1.
    10030    2    1    2    0    0  0.00000000000E+00  0.00000000000E+00 -0.24136014330E+03  0.33079736808E+04  0.32991567338E+04 0.  0.
        5    1    3    3  502    0  0.12856170970E+04  0.95168577927E+03 -0.52495676715E+03  0.16834841371E+04  0.46999998093E+01 0. -1.
       -5    1    3    3    0  502 -0.12856170970E+04 -0.95168577927E+03  0.28359662385E+03  0.16244895437E+04  0.46999998093E+01 0.  1.
</event>
<event>
 5   0  0.2875829E-07  0.3307903E+04  0.7818609E-02  0.8160887E-01
        2   -1    0    0  501    0  0.00000000000E+00  0.00000000000E+00  0.25591305003E+04  0.25591305003E+04  0.25500000920E-02 0. -1.
       -2   -1    0    0    0  501  0.00000000000E+00  0.00000000000E+00 -0.10689394233E+04  0.10689394233E+04  0.25500000920E-02 0.  1.
    10030    2    1    2    0    0  0.00000000000E+00  0.00000000000E+00  0.14901910770E+04  0.36280699237E+04  0.33079029498E+04 0.  0.
        3    1    3    3  502    0  0.12462050663E+04 -0.18104389759E+03  0.19211430946E+04  0.22970839689E+04  0.10100000352E+00 0. -1.
       -3    1    3    3    0  502 -0.12462050663E+04  0.18104389759E+03 -0.43095201764E+03  0.13309859548E+04  0.10100000352E+00 0.  1.
</event>
<event>
 5   0  0.8805125E-08  0.3295602E+04  0.7818609E-02  0.8164015E-01
        1   -1    0    0  501    0  0.00000000000E+00  0.00000000000E+00  0.22223439908E+04  0.22223439908E+04  0.50400001928E-02 0.  1.
       -1   -1    0    0    0  501  0.00000000000E+00  0.00000000000E+00 -0.12217948832E+04  0.12217948832E+04  0.50400001928E-02 0. -1.
    10030    2    1    2    0    0  0.00000000000E+00  0.00000000000E+00  0.10005491076E+04  0.34441388740E+04  0.32956022313E+04 0.  0.
        4    1    3    3  502    0  0.33584915973E+03  0.40249107484E+03 -0.11323303873E+04  0.12477850145E+04  0.12699999809E+01 0. -1.
       -4    1    3    3    0  502 -0.33584915973E+03 -0.40249107484E+03  0.21328794949E+04  0.21963538595E+04  0.12699999809E+01 0.  1.
</event>
<event>
 5   0  0.9181760E-08  0.3302104E+04  0.7818609E-02  0.8162360E-01
        1   -1    0    0  501    0  0.00000000000E+00  0.00000000000E+00  0.12584165695E+04  0.12584165696E+04  0.50400001928E-02 0. -1.
       -1   -1    0    0    0  501  0.00000000000E+00  0.00000000000E+00 -0.21661932160E+04  0.21661932160E+04  0.50400001928E-02 0.  1.
    10030    2    1    2    0    0  0.00000000000E+00  0.00000000000E+00 -0.90777664643E+03  0.34246097855E+04  0.33021044416E+04 0.  0.
        1    1    3    3  502    0  0.26262822950E+03 -0.32464144206E+03 -0.21105249044E+04  0.21514369674E+04  0.50400001928E-02 0.  1.
       -1    1    3    3    0  502 -0.26262822950E+03  0.32464144206E+03  0.12027482579E+04  0.12731728181E+04  0.50400001928E-02 0. -1.
</event>
<event>
 5   0  0.9283910E-08  0.3298307E+04  0.7818609E-02  0.8163326E-01
       -1   -1    0    0    0  501  0.00000000000E+00  0.00000000000E+00  0.14062481756E+04  0.14062481756E+04  0.50400001928E-02 0.  1.
        1   -1    0    0  501    0  0.00000000000E+00  0.00000000000E+00 -0.19340161622E+04  0.19340161622E+04  0.50400001928E-02 0. -1.
    10030    2    1    2    0    0  0.00000000000E+00  0.00000000000E+00 -0.52776798658E+03  0.33402643377E+04  0.32983066562E+04 0.  0.
        3    1    3    3  502    0 -0.88498292364E+03 -0.78383736030E+03  0.90057379415E+03  0.14861456697E+04  0.10100000352E+00 0.  1.
       -3    1    3    3    0  502  0.88498292364E+03  0.78383736030E+03 -0.14283417807E+04  0.18541186681E+04  0.10100000352E+00 0. -1.
</event>
<event>
 5   0  0.2713815E-07  0.3302684E+04  0.7818609E-02  0.8162213E-01
       -2   -1    0    0    0  501  0.00000000000E+00  0.00000000000E+00  0.15794728801E+04  0.15794728801E+04  0.25500000920E-02 0.  1.
        2   -1    0    0  501    0  0.00000000000E+00  0.00000000000E+00 -0.17264816859E+04  0.17264816859E+04  0.25500000920E-02 0. -1.
    10030    2    1    2    0    0  0.00000000000E+00  0.00000000000E+00 -0.14700880582E+03  0.33059545660E+04  0.33026843633E+04 0.  0.
        4    1    3    3  502    0 -0.56591740451E+03 -0.12698405719E+04  0.81854116898E+03  0.16133099036E+04  0.12699999809E+01 0.  1.
       -4    1    3    3    0  502  0.56591740451E+03  0.12698405719E+04 -0.96554997479E+03  0.16926446625E+04  0.12699999809E+01 0. -1.
</event>
<event>
 5   0  0.2713815E-07  0.3293668E+04  0.7818609E-02  0.8164508E-01
       -2   -1    0    0    0  501  0.00000000000E+00  0.00000000000E+00  0.13668195601E+04  0.13668195601E+04  0.25500000920E-02 0.  1.
        2   -1    0    0  501    0  0.00000000000E+00  0.00000000000E+00 -0.19842135484E+04  0.19842135484E+04  0.25500000920E-02 0. -1.
    10030    2    1    2    0    0  0.00000000000E+00  0.00000000000E+00 -0.61739398828E+03  0.33510331085E+04  0.32936677971E+04 0.  0.
        4    1    3    3  502    0  0.99534601265E+03  0.78954282013E+02 -0.16411296584E+04  0.19210038085E+04  0.12699999809E+01 0. -1.
       -4    1    3    3    0  502 -0.99534601265E+03 -0.78954282013E+02  0.10237356702E+04  0.14300293000E+04  0.12699999809E+01 0.  1.
</event>
<event>
 5   0  0.9454010E-08  0.3307524E+04  0.7818609E-02  0.8160984E-01
        1   -1    0    0  501    0  0.00000000000E+00  0.00000000000E+00  0.18060942272E+04  0.18060942272E+04  0.50400001928E-02 0. -1.
       -1   -1    0    0    0  501  0.00000000000E+00  0.00000000000E+00 -0.15142778780E+04  0.15142778780E+04  0.50400001928E-02 0.  1.
    10030    2    1    2    0    0  0.00000000000E+00  0.00000000000E+00  0.29181634917E+03  0.33203721052E+04  0.33075238677E+04 0.  0.
        2    1    3    3  502    0 -0.20323348507E+03 -0.15742280570E+04  0.61185630675E+03  0.17011366685E+04  0.25500000920E-02 0. -1.
       -2    1    3    3    0  502  0.20323348507E+03  0.15742280570E+04 -0.32003995759E+03  0.16192354366E+04  0.25500000920E-02 0.  1.
</event>
<event>
 5   0  0.9810351E-08  0.3280951E+04  0.7818609E-02  0.8167759E-01
       -1   -1    0    0    0  501  0.00000000000E+00  0.00000000000E+00  0.18027912564E+04  0.18027912564E+04  0.50400001928E-02 0.  1.
        1   -1    0    0  501    0  0.00000000000E+00  0.00000000000E+00 -0.14927741709E+04  0.14927741709E+04  0.50400001928E-02 0. -1.
    10030    2    1    2    0    0  0.00000000000E+00  0.00000000000E+00  0.31001708547E+03  0.32955654273E+04  0.32809512176E+04 0.  0.
        5    1    3    3  502    0 -0.56370424456E+03 -0.56407472666E+03 -0.12849723201E+04  0.15123222957E+04  0.46999998093E+01 0. -1.
       -5    1    3    3    0  502  0.56370424456E+03  0.56407472666E+03  0.15949894056E+04  0.17832431316E+04  0.46999998093E+01 0.  1.
</event>
<event>
 5   0  0.9810351E-08  0.3292775E+04  0.7818609E-02  0.8164736E-01
        1   -1    0    0  501    0  0.00000000000E+00  0.00000000000E+00  0.20636282051E+04  0.20636282051E+04  0.50400001928E-02 0.  1.
       -1   -1    0    0    0  501  0.00000000000E+00  0.00000000000E+00 -0.13135080341E+04  0.13135080341E+04  0.50400001928E-02 0. -1.
    10030    2    1    2    0    0  0.00000000000E+00  0.00000000000E+00  0.75012017101E+03  0.33771362392E+04  0.32927752592E+04 0.  0.
        5    1    3    3  502    0  0.14692995459E+04  0.67832039198E+03  0.68548669766E+03  0.17575192211E+04  0.46999998093E+01 0. -1.
       -5    1    3    3    0  502 -0.14692995459E+04 -0.67832039198E+03  0.64633473351E+02  0.16196170182E+04  0.46999998093E+01 0.  1.
</event>
<event>
 5   0  0.2727168E-07  0.3303699E+04  0.7818609E-02  0.8161955E-01
       -2   -1    0    0    0  501  0.00000000000E+00  0.00000000000E+00  0.16136076694E+04  0.16136076694E+04  0.25500000920E-02 0.  1.
        2   -1    0    0  501    0  0.00000000000E+00  0.00000000000E+00 -0.16909979984E+04  0.16909979984E+04  0.25500000920E-02 0. -1.
    10030    2    1    2    0    0  0.00000000000E+00  0.00000000000E+00 -0.77390328997E+02  0.33046056678E+04  0.33036993441E+04 0.  0.
        2    1    3    3  502    0 -0.10071729479E+04  0.70599889523E+03  0.10642294502E+04  0.16264735195E+04  0.25500000920E-02 0.  1.
       -2    1    3    3    0  502  0.10071729479E+04 -0.70599889523E+03 -0.11416197792E+04  0.16781321483E+04  0.25500000920E-02 0. -1.
</event>
<event>
 5   0  0.2875829E-07  0.3302760E+04  0.7818609E-02  0.8162193E-01
       -2   -1    0    0    0  501  0.00000000000E+00  0.00000000000E+00  0.15165511281E+04  0.15165511281E+04  0.25500000920E-02 0.  1.
        2   -1    0    0  501    0  0.00000000000E+00  0.00000000000E+00 -0.17981956795E+04  0.17981956795E+04  0.25500000920E-02 0. -1.
    10030    2    1    2    0    0  0.00000000000E+00  0.00000000000E+00 -0.28164455142E+03  0.33147468076E+04  0.33027598680E+04 0.  0.
        3    1    3    3  502    0 -0.14230098148E+04  0.56411785665E+02  0.69822415538E+03  0.15860820294E+04  0.10100000352E+00 0. -1.
       -3    1    3    3    0  502  0.14230098148E+04 -0.56411785665E+02 -0.97986870680E+03  0.17286647782E+04  0.10100000352E+00 0.  1.
</event>
<event>
 5   0  0.2824402E-07  0.3295117E+04  0.7818609E-02  0.8164139E-01
       -2   -1    0    0    0  501  0.00000000000E+00  0.00000000000E+00  0.13984805264E+04  0.13984805264E+04  0.25500000920E-02 0.  1.
        2   -1    0    0  501    0  0.00000000000E+00  0.00000000000E+00 -0.19409986725E+04  0.19409986725E+04  0.25500000920E-02 0. -1.
    10030    2    1    2    0    0  0.00000000000E+00  0.00000000000E+00 -0.54251814609E+03  0.33394791989E+04  0.32951168994E+04 0.  0.
        1    1    3    3  502    0  0.10160104777E+04 -0.12167893104E+04  0.18377943231E+03  0.15958159031E+04  0.50400001928E-02 0.  1.
       -1    1    3    3    0  502 -0.10160104777E+04  0.12167893104E+04 -0.72629757840E+03  0.17436632958E+04  0.50400001928E-02 0. -1.
</event>
<event>
 5   0  0.2727168E-07  0.3306454E+04  0.7818609E-02  0.8161255E-01
       -2   -1    0    0    0  501  0.00000000000E+00  0.00000000000E+00  0.18784112685E+04  0.18784112685E+04  0.25500000920E-02 0. -1.
        2   -1    0    0  501    0  0.00000000000E+00  0.00000000000E+00 -0.14550375317E+04  0.14550375317E+04  0.25500000920E-02 0.  1.
    10030    2    1    2    0    0  0.00000000000E+00  0.00000000000E+00  0.42337373680E+03  0.33334488003E+04  0.33064536263E+04 0.  0.
        2    1    3    3  502    0  0.14281470863E+04 -0.30785998387E+03 -0.56843763191E+03  0.15676425649E+04  0.25500000920E-02 0.  1.
       -2    1    3    3    0  502 -0.14281470863E+04  0.30785998387E+03  0.99181136871E+03  0.17658062354E+04  0.25500000920E-02 0. -1.
</event>
<event>
 5   0  0.2875829E-07  0.3289554E+04  0.7818609E-02  0.8165559E-01
       -2   -1    0    0    0  501  0.00000000000E+00  0.00000000000E+00  0.12248843841E+04  0.12248843841E+04  0.25500000920E-02 0.  1.
        2   -1    0    0  501    0  0.00000000000E+00  0.00000000000E+00 -0.22086092509E+04  0.22086092509E+04  0.25500000920E-02 0. -1.
    10030    2    1    2    0    0  0.00000000000E+00  0.00000000000E+00 -0.98372486682E+03  0.34334936350E+04  0.32895537581E+04 0.  0.
        3    1    3    3  502    0 -0.85852608770E+03  0.13560068384E+04 -0.86742543154E+03  0.18243487820E+04  0.10100000352E+00 0. -1.
       -3    1    3    3    0  502  0.85852608770E+03 -0.13560068384E+04 -0.11629943528E+03  0.16091448529E+04  0.10100000352E+00 0.  1.
</event>
<event>
 5   0  0.9810351E-08  0.3279250E+04  0.7818609E-02  0.8168195E-01
       -1   -1    0    0    0  501  0.00000000000E+00  0.00000000000E+00  0.11996538424E+04  0.11996538424E+04  0.50400001928E-02 0.  1.
        1   -1    0    0  501    0  0.00000000000E+00  0.00000000000E+00 -0.22409543818E+04  0.22409543818E+04  0.50400001928E-02 0. -1.
    10030    2    1    2    0    0  0.00000000000E+00  0.00000000000E+00 -0.10413005394E+04  0.34406082242E+04  0.32792496305E+04 0.  0.
        5    1    3    3  502    0 -0.30903816407E+03 -0.13463391584E+04  0.40611028045E+03  0.14398199076E+04  0.46999998093E+01 0.  1.
       -5    1    3    3    0  502  0.30903816407E+03  0.13463391584E+04 -0.14474108199E+04  0.20007883166E+04  0.46999998093E+01 0. -1.
</event>
<event>
 5   0  0.2703956E-07  0.3290671E+04  0.7818609E-02  0.8165273E-01
        2   -1    0    0  501    0  0.00000000000E+00  0.00000000000E+00  0.18201998343E+04  0.18201998343E+04  0.25500000920E-02 0. -1.
       -2   -1    0    0    0  501  0.00000000000E+00  0.00000000000E+00 -0.14872704986E+04  0.14872704986E+04  0.25500000920E-02 0.  1.
    10030    2    1    2    0    0  0.00000000000E+00  0.00000000000E+00  0.33292933565E+03  0.33074703329E+04  0.32906713693E+04 0.  0.
        5    1    3    3  502    0 -0.15643742944E+04 -0.49870413024E+03  0.27252436049E+03  0.16644111150E+04  0.46999998093E+01 0. -1.
       -5    1    3    3    0  502  0.15643742944E+04  0.49870413024E+03  0.60404975166E+02  0.16430592179E+04  0.46999998093E+01 0.  1.
</event>
<event>
 5   0  0.9810351E-08  0.3284451E+04  0.7818609E-02  0.8166863E-01
       -1   -1    0    0    0  501  0.00000000000E+00  0.00000000000E+00  0.17474617372E+04  0.17474617372E+04  0.50400001928E-02 0. -1.
        1   -1    0    0  501    0  0.00000000000E+00  0.00000000000E+00 -0.15433264323E+04  0.15433264323E+04  0.50400001928E-02 0.  1.
    10030    2    1    2    0    0  0.00000000000E+00  0.00000000000E+00  0.20413530488E+03  0.32907881696E+04  0.32844505712E+04 0.  0.
        5    1    3    3  502    0 -0.10531402025E+04 -0.11045817455E+03 -0.11555740935E+04  0.15673796190E+04  0.46999998093E+01 0.  1.
       -5    1    3    3    0  502  0.10531402025E+04  0.11045817455E+03  0.13597093984E+04  0.17234085506E+04  0.46999998093E+01 0. -1.
</event>
<event>
 5   0  0.9283910E-08  0.3303617E+04  0.7818609E-02  0.8161976E-01
        1   -1    0    0  501    0  0.00000000000E+00  0.00000000000E+00  0.27577757963E+04  0.27577757963E+04  0.50400001928E-02 0.  1.
       -1   -1    0    0    0  501  0.00000000000E+00  0.00000000000E+00 -0.98937392881E+03  0.98937392882E+03  0.50400001928E-02 0. -1.
    10030    2    1    2    0    0  0.00000000000E+00  0.00000000000E+00  0.17684018674E+04  0.37471497251E+04  0.33036170930E+04 0.  0.
        3    1    3    3  502    0 -0.89587641895E+03 -0.70323286074E+03  0.22412102036E+04  0.25139916868E+04  0.10100000352E+00 0.  1.
       -3    1    3    3    0  502  0.89587641895E+03  0.70323286074E+03 -0.47280833613E+03  0.12331580383E+04  0.10100000352E+00 0. -1.
</event>
<event>
 5   0  0.2875829E-07  0.3294901E+04  0.7818609E-02  0.8164194E-01
       -2   -1    0    0    0  501  0.00000000000E+00  0.00000000000E+00  0.17191208103E+04  0.17191208103E+04  0.25500000920E-02 0. -1.
        2   -1    0    0  501    0  0.00000000000E+00  0.00000000000E+00 -0.15787682183E+04  0.15787682183E+04  0.25500000920E-02 0.  1.
    10030    2    1    2    0    0  0.00000000000E+00  0.00000000000E+00  0.14035259200E+03  0.32978890285E+04  0.32949010902E+04 0.  0.
        3    1    3    3  502    0 -0.30441329038E+03  0.15559906876E+04  0.51815207099E+03  0.16680096073E+04  0.10100000352E+00 0.  1.
       -3    1    3    3    0  502  0.30441329038E+03 -0.15559906876E+04 -0.37779947899E+03  0.16298794212E+04  0.10100000352E+00 0. -1.
</event>
<event>
 5   0  0.9181760E-08  0.3267065E+04  0.7818609E-02  0.8171327E-01
        1   -1    0    0  501    0  0.00000000000E+00  0.00000000000E+00  0.20732702045E+04  0.20732702045E+04  0.50400001928E-02 0. -1.
       -1   -1    0    0    0  501  0.00000000000E+00  0.00000000000E+00 -0.12870624690E+04  0.12870624690E+04  0.50400001928E-02 0.  1.
    10030    2    1    2    0    0  0.00000000000E+00  0.00000000000E+00  0.78620773548E+03  0.33603326735E+04  0.32670649019E+04 0.  0.
        1    1    3    3  502    0 -0.12486669166E+04  0.56154712199E+03  0.13095648631E+04  0.18945881794E+04  0.50400001928E-02 0. -1.
       -1    1    3    3    0  502  0.12486669166E+04 -0.56154712199E+03 -0.52335712765E+03  0.14657444941E+04  0.50400001928E-02 0.  1.
</event>
<event>
 5   0  0.9283910E-08  0.3297512E+04  0.7818609E-02  0.8163529E-01
        1   -1    0    0  501    0  0.00000000000E+00  0.00000000000E+00  0.32124481681E+04  0.32124481681E+04  0.50400001928E-02 0. -1.
       -1   -1    0    0    0  501  0.00000000000E+00  0.00000000000E+00 -0.84620732187E+03  0.84620732189E+03  0.50400001928E-02 0.  1.
    10030    2    1    2    0    0  0.00000000000E+00  0.00000000000E+00  0.23662408462E+04  0.40586554900E+04  0.32975124934E+04 0.  0.
        3    1    3    3  502    0  0.12546593225E+04  0.34410808154E+03  0.24297305054E+04  0.27561151511E+04  0.10100000352E+00 0. -1.
       -3    1    3    3    0  502 -0.12546593225E+04 -0.34410808154E+03 -0.63489659164E+02  0.13025403388E+04  0.10100000352E+00 0.  1.
</event>
<event>
 5   0  0.8805125E-08  0.3300584E+04  0.7818609E-02  0.8162747E-01
       -1   -1    0    0    0  501  0.00000000000E+00  0.00000000000E+00  0.22428098648E+04  0.22428098648E+04  0.50400001928E-02 0. -1.
        1   -1    0    0  501    0  0.00000000000E+00  0.00000000000E+00 -0.12143088369E+04  0.12143088369E+04  0.50400001928E-02 0.  1.
    10030    2    1    2    0    0  0.00000000000E+00  0.00000000000E+00  0.10285010279E+04  0.34571187018E+04  0.33005840928E+04 0.  0.
        4    1    3    3  502    0  0.61943110608E+03 -0.34262057981E+02  0.21160230868E+04  0.22050904971E+04  0.12699999809E+01 0. -1.
       -4    1    3    3    0  502 -0.61943110608E+03  0.34262057981E+02 -0.10875220589E+04  0.12520282047E+04  0.12699999809E+01 0.  1.
</event>
<event>
 5   0  0.9810351E-08  0.3286629E+04  0.7818609E-02  0.8166306E-01
       -1   -1    0    0    0  501  0.00000000000E+00  0.00000000000E+00  0.13058621263E+04  0.13058621263E+04  0.50400001928E-02 0. -1.
        1   -1    0    0  501    0  0.00000000000E+00  0.00000000000E+00 -0.20679696512E+04  0.20679696512E+04  0.50400001928E-02 0.  1.
    10030    2    1    2    0    0  0.00000000000E+00  0.00000000000E+00 -0.76210752485E+03  0.33738317775E+04  0.32866294260E+04 0.  0.
        5    1    3    3  502    0  0.29505250563E+03  0.56167620682E+03 -0.19371649013E+04  0.20384224506E+04  0.46999998093E+01 0.  1.
       -5    1    3    3    0  502 -0.29505250563E+03 -0.56167620682E+03  0.11750573765E+04  0.13354093269E+04  0.46999998093E+01 0. -1.
</event>
<event>
 5   0  0.2713815E-07  0.3301106E+04  0.7818609E-02  0.8162614E-01
        2   -1    0    0  501    0  0.00000000000E+00  0.00000000000E+00  0.17382931483E+04  0.17382931483E+04  0.25500000920E-02 0. -1.
       -2   -1    0    0    0  501  0.00000000000E+00  0.00000000000E+00 -0.15672411164E+04  0.15672411164E+04  0.25500000920E-02 0.  1.
    10030    2    1    2    0    0  0.00000000000E+00  0.00000000000E+00  0.17105203190E+03  0.33055342647E+04  0.33011055689E+04 0.  0.
        4    1    3    3  502    0  0.10072649863E+04 -0.12405816032E+03 -0.12178921675E+04  0.15853189346E+04  0.12699999809E+01 0.  1.
       -4    1    3    3    0  502 -0.10072649863E+04  0.12405816032E+03  0.13889441994E+04  0.17202153301E+04  0.12699999809E+01 0. -1.
</event>
<event>
 5   0  0.2824402E-07  0.3291846E+04  0.7818609E-02  0.8164973E-01
        2   -1    0    0  501    0  0.00000000000E+00  0.00000000000E+00  0.24021794441E+04  0.24021794441E+04  0.25500000920E-02 0.  1.
       -2   -1    0    0    0  501  0.00000000000E+00  0.00000000000E+00 -0.11277516508E+04  0.11277516508E+04  0.25500000920E-02 0. -1.
    10030    2    1    2    0    0  0.00000000000E+00  0.00000000000E+00  0.12744277933E+04  0.35299310949E+04  0.32918455818E+04 0.  0.
        1    1    3    3  502    0 -0.44610959917E+03 -0.15715121877E+04  0.42168573025E+03  0.16871523896E+04  0.50400001928E-02 0. -1.
       -1    1    3    3    0  502  0.44610959917E+03  0.15715121877E+04  0.85274206300E+03  0.18427787053E+04  0.50400001928E-02 0.  1.
</event>
<event>
 5   0  0.8805125E-08  0.3285158E+04  0.7818609E-02  0.8166682E-01
        1   -1    0    0  501    0  0.00000000000E+00  0.00000000000E+00  0.12582001839E+04  0.12582001839E+04  0.50400001928E-02 0. -1.
       -1   -1    0    0    0  501  0.00000000000E+00  0.00000000000E+00 -0.21443852508E+04  0.21443852508E+04  0.50400001928E-02 0.  1.
    10030    2    1    2    0    0  0.00000000000E+00  0.00000000000E+00 -0.88618506683E+03  0.34025854347E+04  0.32851580887E+04 0.  0.
        4    1    3    3  502    0 -0.12018872296E+04 -0.10652241630E+04 -0.80012996996E+03  0.17942811964E+04  0.12699999809E+01 0.  1.
       -4    1    3    3    0  502  0.12018872296E+04  0.10652241630E+04 -0.86055096868E+02  0.16083042383E+04  0.12699999809E+01 0. -1.
</event>
<event>
 5   0  0.2727168E-07  0.3301236E+04  0.7818609E-02  0.8162581E-01
       -2   -1    0    0    0  501  0.00000000000E+00  0.00000000000E+00  0.14649010129E+04  0.14649010129E+04  0.25500000920E-02 0.  1.
        2   -1    0    0  501    0  0.00000000000E+00  0.00000000000E+00 -0.18598793098E+04  0.18598793098E+04  0.25500000920E-02 0. -1.
    10030    2    1    2    0    0  0.00000000000E+00  0.00000000000E+00 -0.39497829695E+03  0.33247803227E+04  0.33012355777E+04 0.  0.
        2    1    3    3  502    0 -0.12740459099E+04  0.63311853927E+03  0.64544312970E+03  0.15622512278E+04  0.25500000920E-02 0.  1.
       -2    1    3    3    0  502  0.12740459099E+04 -0.63311853927E+03 -0.10404214267E+04  0.17625290949E+04  0.25500000920E-02 0. -1.
</event>
<event>
 5   0  0.9810351E-08  0.3326287E+04  0.7818609E-02  0.8156239E-01
        1   -1    0    0  501    0  0.00000000000E+00  0.00000000000E+00  0.17751743967E+04  0.17751743967E+04  0.50400001928E-02 0. -1.
       -1   -1    0    0    0  501  0.00000000000E+00  0.00000000000E+00 -0.15581827716E+04  0.15581827716E+04  0.50400001928E-02 0.  1.
    10030    2    1    2    0    0  0.00000000000E+00  0.00000000000E+00  0.21699162507E+03  0.33333571682E+04  0.33262869157E+04 0.  0.
        5    1    3    3  502    0 -0.62690031301E+03  0.90813686696E+03 -0.11384591041E+04  0.15855055324E+04  0.46999998093E+01 0.  1.
       -5    1    3    3    0  502  0.62690031301E+03 -0.90813686696E+03  0.13554507292E+04  0.17478516358E+04  0.46999998093E+01 0. -1.
</event>
<event>
 5   0  0.2727168E-07  0.3272987E+04  0.7818609E-02  0.8169803E-01
        2   -1    0    0  501    0  0.00000000000E+00  0.00000000000E+00  0.14134429890E+04  0.14134429890E+04  0.25500000920E-02 0. -1.
       -2   -1    0    0    0  501  0.00000000000E+00  0.00000000000E+00 -0.18947427536E+04  0.18947427536E+04  0.25500000920E-02 0.  1.
    10030    2    1    2    0    0  0.00000000000E+00  0.00000000000E+00 -0.48129976466E+03  0.33081857426E+04  0.32729869300E+04 0.  0.
        2    1    3    3  502    0  0.23801969588E+03 -0.12307977486E+04  0.82261102398E+03  0.14994016708E+04  0.25500000920E-02 0. -1.
       -2    1    3    3    0  502 -0.23801969588E+03  0.12307977486E+04 -0.13039107886E+04  0.18087840718E+04  0.25500000920E-02 0.  1.
</event>
<event>
 5   0  0.8805125E-08  0.3291343E+04  0.7818609E-02  0.8165102E-01
        1   -1    0    0  501    0  0.00000000000E+00  0.00000000000E+00  0.18488655660E+04  0.18488655660E+04  0.50400001928E-02 0.  1.
       -1   -1    0    0    0  501  0.00000000000E+00  0.00000000000E+00 -0.14648087198E+04  0.14648087198E+04  0.50400001928E-02 0. -1.
    10030    2    1    2    0    0  0.00000000000E+00  0.00000000000E+00  0.38405684623E+03  0.33136742858E+04  0.32913428279E+04 0.  0.
        4    1    3    3  502    0  0.16848420454E+03 -0.12339662666E+03  0.18354699924E+04  0.18473130109E+04  0.12699999809E+01 0.  1.
       -4    1    3    3    0  502 -0.16848420454E+03  0.12339662666E+03 -0.14514131461E+04  0.14663612748E+04  0.12699999809E+01 0. -1.
</event>
<event>
 5   0  0.8805125E-08  0.3301933E+04  0.7818609E-02  0.8162404E-01
       -1   -1    0    0    0  501  0.00000000000E+00  0.00000000000E+00  0.11111873415E+04  0.11111873415E+04  0.50400001928E-02 0.  1.
        1   -1    0    0  501    0  0.00000000000E+00  0.00000000000E+00 -0.24529534918E+04  0.24529534918E+04  0.50400001928E-02 0. -1.
    10030    2    1    2    0    0  0.00000000000E+00  0.00000000000E+00 -0.13417661503E+04  0.35641408334E+04  0.33019332940E+04 0.  0.
        4    1    3    3  502    0  0.26150681790E+03  0.37631323419E+03  0.10411623257E+04  0.11375491494E+04  0.12699999809E+01 0.  1.
       -4    1    3    3    0  502 -0.26150681790E+03 -0.37631323419E+03 -0.23829284760E+04  0.24265916840E+04  0.12699999809E+01 0. -1.
</event>
<event>
 5   0  0.8805125E-08  0.3287343E+04  0.7818609E-02  0.8166123E-01
       -1   -1    0    0    0  501  0.00000000000E+00  0.00000000000E+00  0.12793466317E+04  0.12793466318E+04  0.50400001928E-02 0. -1.
        1   -1    0    0  501    0  0.00000000000E+00  0.00000000000E+00 -0.21117470501E+04  0.21117470501E+04  0.50400001928E-02 0.  1.
    10030    2    1    2    0    0  0.00000000000E+00  0.00000000000E+00 -0.83240041838E+03  0.33910936819E+04  0.32873432895E+04 0.  0.
        4    1    3    3  502    0  0.12785721950E+04 -0.95244316494E+03 -0.82851487758E+03  0.17967563429E+04  0.12699999809E+01 0.  1.
       -4    1    3    3    0  502 -0.12785721950E+04  0.95244316494E+03 -0.38855407985E+01  0.15943373390E+04  0.12699999809E+01 0. -1.
</event>
<event>
 5   0  0.2727168E-07  0.3296004E+04  0.7818609E-02  0.8163913E-01
       -2   -1    0    0    0  501  0.00000000000E+00  0.00000000000E+00  0.10899092109E+04  0.10899092109E+04  0.25500000920E-02 0.  1.
        2   -1    0    0  501    0  0.00000000000E+00  0.00000000000E+00 -0.24918691438E+04  0.24918691438E+04  0.25500000920E-02 0. -1.
    10030    2    1    2    0    0  0.00000000000E+00  0.00000000000E+00 -0.14019599329E+04  0.35817783547E+04  0.32960043278E+04 0.  0.
        2    1    3    3  502    0  0.85140789208E+01  0.51885305043E+03  0.99880935440E+03  0.11255670144E+04  0.25500000920E-02 0.  1.
       -2    1    3    3    0  502 -0.85140789208E+01 -0.51885305043E+03 -0.24007692873E+04  0.24562113403E+04  0.25500000920E-02 0. -1.
</event>
<event>
 5   0  0.8805125E-08  0.3301850E+04  0.7818609E-02  0.8162425E-01
        3   -1    0    0  501    0  0.00000000000E+00  0.00000000000E+00  0.17124372643E+04  0.17124372673E+04  0.10100000352E+00 0. -1.
       -3   -1    0    0    0  501  0.00000000000E+00  0.00000000000E+00 -0.15916227494E+04  0.15916227526E+04  0.10100000352E+00 0.  1.
    10030    2    1    2    0    0  0.00000000000E+00  0.00000000000E+00  0.12081451488E+03  0.33040600199E+04  0.33018504612E+04 0.  0.
        5    1    3    3  502    0  0.82865896318E+03 -0.13043917728E+04 -0.52085877170E+03  0.16307757431E+04  0.46999998093E+01 0.  1.
       -5    1    3    3    0  502 -0.82865896318E+03  0.13043917728E+04  0.64167328658E+03  0.16732842768E+04  0.46999998093E+01 0. -1.
</event>
<event>
 5   0  0.2703956E-07  0.3306143E+04  0.7818609E-02  0.8161334E-01
       -2   -1    0    0    0  501  0.00000000000E+00  0.00000000000E+00  0.22507138380E+04  0.22507138380E+04  0.25500000920E-02 0. -1.
        2   -1    0    0  501    0  0.00000000000E+00  0.00000000000E+00 -0.12141241696E+04  0.12141241696E+04  0.25500000920E-02 0.  1.
    10030    2    1    2    0    0  0.00000000000E+00  0.00000000000E+00  0.10365896684E+04  0.34648380076E+04  0.33061434147E+04 0.  0.
        5    1    3    3  502    0  0.61102746173E+03  0.89210386583E+03 -0.79209071043E+03  0.13403856348E+04  0.46999998093E+01 0.  1.
       -5    1    3    3    0  502 -0.61102746173E+03 -0.89210386583E+03  0.18286803788E+04  0.21244523728E+04  0.46999998093E+01 0. -1.
</event>
<event>
 5   0  0.2703956E-07  0.3296872E+04  0.7818609E-02  0.8163692E-01
       -2   -1    0    0    0  501  0.00000000000E+00  0.00000000000E+00  0.21187395625E+04  0.21187395625E+04  0.25500000920E-02 0.  1.
        2   -1    0    0  501    0  0.00000000000E+00  0.00000000000E+00 -0.12825270282E+04  0.12825270282E+04  0.25500000920E-02 0. -1.
    10030    2    1    2    0    0  0.00000000000E+00  0.00000000000E+00  0.83621253436E+03  0.34012665907E+04  0.32968717019E+04 0.  0.
        5    1    3    3  502    0  0.13501037293E+03 -0.47850249816E+02 -0.12760875564E+04  0.12841101934E+04  0.46999998093E+01 0. -1.
       -5    1    3    3    0  502 -0.13501037293E+03  0.47850249816E+02  0.21123000908E+04  0.21171563973E+04  0.46999998093E+01 0.  1.
</event>
<event>
 5   0  0.2713815E-07  0.3322077E+04  0.7818609E-02  0.8157300E-01
        2   -1    0    0  501    0  0.00000000000E+00  0.00000000000E+00  0.28559432377E+04  0.28559432377E+04  0.25500000920E-02 0. -1.
       -2   -1    0    0    0  501  0.00000000000E+00  0.00000000000E+00 -0.96607279831E+03  0.96607279832E+03  0.25500000920E-02 0.  1.
    10030    2    1    2    0    0  0.00000000000E+00  0.00000000000E+00  0.18898704394E+04  0.38220160360E+04  0.33220771066E+04 0.  0.
        4    1    3    3  502    0  0.10771861785E+04 -0.30561225161E+02 -0.50932374749E+03  0.11919212828E+04  0.12699999809E+01 0.  1.
       -4    1    3    3    0  502 -0.10771861785E+04  0.30561225161E+02  0.23991941869E+04  0.26300947533E+04  0.12699999809E+01 0. -1.
</event>
<event>
 5   0  0.8805125E-08  0.3293657E+04  0.7818609E-02  0.8164511E-01
       -1   -1    0    0    0  501  0.00000000000E+00  0.00000000000E+00  0.13902163264E+04  0.13902163264E+04  0.50400001928E-02 0. -1.
        1   -1    0    0  501    0  0.00000000000E+00  0.00000000000E+00 -0.19508066935E+04  0.19508066935E+04  0.50400001928E-02 0.  1.
    10030    2    1    2    0    0  0.00000000000E+00  0.00000000000E+00 -0.56059036713E+03  0.33410230199E+04  0.32936565182E+04 0.  0.
        4    1    3    3  502    0 -0.77152872182E+03 -0.14503507328E+04 -0.16345236742E+03  0.16509064498E+04  0.12699999809E+01 0.  1.
       -4    1    3    3    0  502  0.77152872182E+03  0.14503507328E+04 -0.39713799971E+03  0.16901165701E+04  0.12699999809E+01 0. -1.
</event>
<event>
 5   0  0.9454010E-08  0.3292796E+04  0.7818609E-02  0.8164731E-01
       -1   -1    0    0    0  501  0.00000000000E+00  0.00000000000E+00  0.17401157198E+04  0.17401157198E+04  0.50400001928E-02 0. -1.
        1   -1    0    0  501    0  0.00000000000E+00  0.00000000000E+00 -0.15577281156E+04  0.15577281156E+04  0.50400001928E-02 0.  1.
    10030    2    1    2    0    0  0.00000000000E+00  0.00000000000E+00  0.18238760421E+03  0.32978438355E+04  0.32927964901E+04 0.  0.
        2    1    3    3  502    0 -0.80988147522E+03 -0.81620987030E+03  0.12713550878E+04  0.17141908632E+04  0.25500000920E-02 0. -1.
       -2    1    3    3    0  502  0.80988147522E+03  0.81620987030E+03 -0.10889674836E+04  0.15836529723E+04  0.25500000920E-02 0.  1.
</event>
<event>
 5   0  0.2727168E-07  0.3302776E+04  0.7818609E-02  0.8162189E-01
       -2   -1    0    0    0  501  0.00000000000E+00  0.00000000000E+00  0.12616876861E+04  0.12616876861E+04  0.25500000920E-02 0. -1.
        2   -1    0    0  501    0  0.00000000000E+00  0.00000000000E+00 -0.21614560760E+04  0.21614560760E+04  0.25500000920E-02 0.  1.
    10030    2    1    2    0    0  0.00000000000E+00  0.00000000000E+00 -0.89976838987E+03  0.34231437621E+04  0.33027761142E+04 0.  0.
        2    1    3    3  502    0 -0.26495759623E+03 -0.87726849836E+03  0.97396557293E+03  0.13373150277E+04  0.25500000920E-02 0. -1.
       -2    1    3    3    0  502  0.26495759623E+03  0.87726849836E+03 -0.18737339628E+04  0.20858287344E+04  0.25500000920E-02 0.  1.
</event>
<event>
 5   0  0.9454010E-08  0.3295831E+04  0.7818609E-02  0.8163957E-01
       -1   -1    0    0    0  501  0.00000000000E+00  0.00000000000E+00  0.13860173542E+04  0.13860173543E+04  0.50400001928E-02 0. -1.
        1   -1    0    0  501    0  0.00000000000E+00  0.00000000000E+00 -0.19593017938E+04  0.19593017938E+04  0.50400001928E-02 0.  1.
    10030    2    1    2    0    0  0.00000000000E+00  0.00000000000E+00 -0.57328443959E+03  0.33453191481E+04  0.32958314814E+04 0.  0.
        2    1    3    3  502    0  0.75425983065E+03  0.14187800912E+04 -0.65789567700E+03  0.17362809569E+04  0.25500000920E-02 0.  1.
       -2    1    3    3    0  502 -0.75425983065E+03 -0.14187800912E+04  0.84611237411E+02  0.16090381912E+04  0.25500000920E-02 0. -1.
</event>
<event>
 5   0  0.2875829E-07  0.3302016E+04  0.7818609E-02  0.8162383E-01
        2   -1    0    0  501    0  0.00000000000E+00  0.00000000000E+00  0.20798399023E+04  0.20798399023E+04  0.25500000920E-02 0. -1.
       -2   -1    0    0    0  501  0.00000000000E+00  0.00000000000E+00 -0.13105947817E+04  0.13105947817E+04  0.25500000920E-02 0.  1.
    10030    2    1    2    0    0  0.00000000000E+00  0.00000000000E+00  0.76924512066E+03  0.33904346840E+04  0.33020159435E+04 0.  0.
        3    1    3    3  502    0  0.93358867649E+03  0.13482627204E+04  0.58059216143E+03  0.17396802718E+04  0.10100000352E+00 0. -1.
       -3    1    3    3    0  502 -0.93358867649E+03 -0.13482627204E+04  0.18865295923E+03  0.16507544122E+04  0.10100000352E+00 0.  1.
</event>
<event>
 5   0  0.2703956E-07  0.3298901E+04  0.7818609E-02  0.8163175E-01
        2   -1    0    0  501    0  0.00000000000E+00  0.00000000000E+00  0.22720776779E+04  0.22720776779E+04  0.25500000920E-02 0. -1.
       -2   -1    0    0    0  501  0.00000000000E+00  0.00000000000E+00 -0.11974444588E+04  0.11974444588E+04  0.25500000920E-02 0.  1.
    10030    2    1    2    0    0  0.00000000000E+00  0.00000000000E+00  0.10746332192E+04  0.34695221367E+04  0.32989009233E+04 0.  0.
        5    1    3    3  502    0 -0.13832356427E+04  0.74066513434E+03  0.10722890145E+04  0.19004608665E+04  0.46999998093E+01 0. -1.
       -5    1    3    3    0  502  0.13832356427E+04 -0.74066513434E+03  0.23442046053E+01  0.15690612702E+04  0.46999998093E+01 0.  1.
</event>
<event>
 5   0  0.9810351E-08  0.3323436E+04  0.7818609E-02  0.8156957E-01
        1   -1    0    0  501    0  0.00000000000E+00  0.00000000000E+00  0.15491212007E+04  0.15491212007E+04  0.50400001928E-02 0.  1.
       -1   -1    0    0    0  501  0.00000000000E+00  0.00000000000E+00 -0.17824993326E+04  0.17824993326E+04  0.50400001928E-02 0. -1.
    10030    2    1    2    0    0  0.00000000000E+00  0.00000000000E+00 -0.23337813191E+03  0.33316205332E+04  0.33234364783E+04 0.  0.
        5    1    3    3  502    0 -0.41052147903E+03  0.11497446044E+04 -0.12467826747E+04  0.17449726840E+04  0.46999998093E+01 0. -1.
       -5    1    3    3    0  502  0.41052147903E+03 -0.11497446044E+04  0.10134045428E+04  0.15866478492E+04  0.46999998093E+01 0.  1.
</event>
<event>
 5   0  0.9283910E-08  0.3299745E+04  0.7818609E-02  0.8162960E-01
       -1   -1    0    0    0  501  0.00000000000E+00  0.00000000000E+00  0.31211785067E+04  0.31211785067E+04  0.50400001928E-02 0. -1.
        1   -1    0    0  501    0  0.00000000000E+00  0.00000000000E+00 -0.87213173086E+03  0.87213173088E+03  0.50400001928E-02 0.  1.
    10030    2    1    2    0    0  0.00000000000E+00  0.00000000000E+00  0.22490467759E+04  0.39933102376E+04  0.32997447255E+04 0.  0.
        3    1    3    3  502    0 -0.12827711481E+04  0.32374502805E+03 -0.68457784946E+02  0.13247638054E+04  0.10100000352E+00 0. -1.
       -3    1    3    3    0  502  0.12827711481E+04 -0.32374502805E+03  0.23175045608E+04  0.26685464322E+04  0.10100000352E+00 0.  1.
</event>
<event>
 5   0  0.2875829E-07  0.3293365E+04  0.7818609E-02  0.8164586E-01
       -2   -1    0    0    0  501  0.00000000000E+00  0.00000000000E+00  0.12661393835E+04  0.12661393835E+04  0.25500000920E-02 0. -1.
        2   -1    0    0  501    0  0.00000000000E+00  0.00000000000E+00 -0.21415993063E+04  0.21415993063E+04  0.25500000920E-02 0.  1.
    10030    2    1    2    0    0  0.00000000000E+00  0.00000000000E+00 -0.87545992277E+03  0.34077386898E+04  0.32933649816E+04 0.  0.
        3    1    3    3  502    0 -0.28559191303E+03  0.41222861262E+03 -0.20606606839E+04  0.21208058927E+04  0.10100000352E+00 0.  1.
       -3    1    3    3    0  502  0.28559191303E+03 -0.41222861262E+03  0.11852007612E+04  0.12869327971E+04  0.10100000352E+00 0. -1.
</event>
<event>
 5   0  0.2824402E-07  0.3290665E+04  0.7818609E-02  0.8165275E-01
       -2   -1    0    0    0  501  0.00000000000E+00  0.00000000000E+00  0.19150607856E+04  0.19150607856E+04  0.25500000920E-02 0.  1.
        2   -1    0    0  501    0  0.00000000000E+00  0.00000000000E+00 -0.14135947080E+04  0.14135947080E+04  0.25500000920E-02 0. -1.
    10030    2    1    2    0    0  0.00000000000E+00  0.00000000000E+00  0.50146607764E+03  0.33286554936E+04  0.32906654598E+04 0.  0.
        1    1    3    3  502    0  0.14327344486E+03  0.11476809845E+04 -0.93299950498E+03  0.14859969712E+04  0.50400001928E-02 0. -1.
       -1    1    3    3    0  502 -0.14327344486E+03 -0.11476809845E+04  0.14344655826E+04  0.18426585223E+04  0.50400001928E-02 0.  1.
</event>
<event>
 5   0  0.2824402E-07  0.3297932E+04  0.7818609E-02  0.8163422E-01
       -2   -1    0    0    0  501  0.00000000000E+00  0.00000000000E+00  0.15627811205E+04  0.15627811205E+04  0.25500000920E-02 0. -1.
        2   -1    0    0  501    0  0.00000000000E+00  0.00000000000E+00 -0.17399039147E+04  0.17399039147E+04  0.25500000920E-02 0.  1.
    10030    2    1    2    0    0  0.00000000000E+00  0.00000000000E+00 -0.17712279426E+03  0.33026850352E+04  0.32979320729E+04 0.  0.
        1    1    3    3  502    0  0.30533756676E+03  0.14088307467E+04  0.71325091596E+03  0.16083413728E+04  0.50400001928E-02 0. -1.
       -1    1    3    3    0  502 -0.30533756676E+03 -0.14088307467E+04 -0.89037371022E+03  0.16943436624E+04  0.50400001928E-02 0.  1.
</event>
<event>
 5   0  0.2727168E-07  0.3292791E+04  0.7818609E-02  0.8164732E-01
        2   -1    0    0  501    0  0.00000000000E+00  0.00000000000E+00  0.22784408676E+04  0.22784408676E+04  0.25500000920E-02 0.  1.
       -2   -1    0    0    0  501  0.00000000000E+00  0.00000000000E+00 -0.11896808917E+04  0.11896808917E+04  0.25500000920E-02 0. -1.
    10030    2    1    2    0    0  0.00000000000E+00  0.00000000000E+00  0.10887599759E+04  0.34681217593E+04  0.32927906481E+04 0.  0.
        2    1    3    3  502    0 -0.36889165002E+03 -0.76205303593E+03  0.20315899471E+04  0.22009460676E+04  0.25500000920E-02 0.  1.
       -2    1    3    3    0  502  0.36889165002E+03  0.76205303593E+03 -0.94282997122E+03  0.12671756917E+04  0.25500000920E-02 0. -1.
</event>
<event>
 5   0  0.9181760E-08  0.3298841E+04  0.7818609E-02  0.8163190E-01
        1   -1    0    0  501    0  0.00000000000E+00  0.00000000000E+00  0.76500841734E+03  0.76500841736E+03  0.50400001928E-02 0.  1.
       -1   -1    0    0    0  501  0.00000000000E+00  0.00000000000E+00 -0.35562845489E+04  0.35562845489E+04  0.50400001928E-02 0. -1.
    10030    2    1    2    0    0  0.00000000000E+00  0.00000000000E+00 -0.27912761315E+04  0.43212929662E+04  0.32988407748E+04 0.  0.
        1    1    3    3  502    0 -0.15014366110E+04  0.64754099782E+03 -0.16795253047E+04  0.23440193024E+04  0.50400001928E-02 0. -1.
       -1    1    3    3    0  502  0.15014366110E+04 -0.64754099782E+03 -0.11117508268E+04  0.19772736638E+04  0.50400001928E-02 0.  1.
</event>
<event>
 5   0  0.2824402E-07  0.3283814E+04  0.7818609E-02  0.8167026E-01
        2   -1    0    0  501    0  0.00000000000E+00  0.00000000000E+00  0.20259436966E+04  0.20259436966E+04  0.25500000920E-02 0. -1.
       -2   -1    0    0    0  501  0.00000000000E+00  0.00000000000E+00 -0.13306684511E+04  0.13306684511E+04  0.25500000920E-02 0.  1.
    10030    2    1    2    0    0  0.00000000000E+00  0.00000000000E+00  0.69527524551E+03  0.33566121477E+04  0.32838144653E+04 0.  0.
        1    1    3    3  502    0  0.13672062019E+04  0.14049869546E+03  0.12658083458E+04  0.18684922934E+04  0.50400001928E-02 0. -1.
       -1    1    3    3    0  502 -0.13672062019E+04 -0.14049869546E+03 -0.57053310033E+03  0.14881198543E+04  0.50400001928E-02 0.  1.
</event>
<event>
 5   0  0.2713815E-07  0.3294465E+04  0.7818609E-02  0.8164305E-01
        2   -1    0    0  501    0  0.00000000000E+00  0.00000000000E+00  0.20719150485E+04  0.20719150485E+04  0.25500000920E-02 0. -1.
       -2   -1    0    0    0  501  0.00000000000E+00  0.00000000000E+00 -0.13095977952E+04  0.13095977952E+04  0.25500000920E-02 0.  1.
    10030    2    1    2    0    0  0.00000000000E+00  0.00000000000E+00  0.76231725327E+03  0.33815128437E+04  0.32944652855E+04 0.  0.
        4    1    3    3  502    0 -0.10031341221E+04 -0.25443386287E+02  0.17219854129E+04  0.19930280500E+04  0.12699999809E+01 0. -1.
       -4    1    3    3    0  502  0.10031341221E+04  0.25443386287E+02 -0.95966815965E+03  0.13884847937E+04  0.12699999809E+01 0.  1.
</event>
<event>
 5   0  0.2875829E-07  0.3297416E+04  0.7818609E-02  0.8163553E-01
        2   -1    0    0  501    0  0.00000000000E+00  0.00000000000E+00  0.26800740860E+04  0.26800740860E+04  0.25500000920E-02 0.  1.
       -2   -1    0    0    0  501  0.00000000000E+00  0.00000000000E+00 -0.10142395932E+04  0.10142395932E+04  0.25500000920E-02 0. -1.
    10030    2    1    2    0    0  0.00000000000E+00  0.00000000000E+00  0.16658344928E+04  0.36943136791E+04  0.32974155035E+04 0.  0.
        3    1    3    3  502    0  0.10057039004E+03 -0.16210043578E+04  0.51510479278E+03  0.17038493152E+04  0.10100000352E+00 0. -1.
       -3    1    3    3    0  502 -0.10057039004E+03  0.16210043578E+04  0.11507297000E+04  0.19904643639E+04  0.10100000352E+00 0.  1.
</event>
<event>
 5   0  0.9810351E-08  0.3304067E+04  0.7818609E-02  0.8161861E-01
       -1   -1    0    0    0  501  0.00000000000E+00  0.00000000000E+00  0.96257332570E+03  0.96257332572E+03  0.50400001928E-02 0. -1.
        1   -1    0    0  501    0  0.00000000000E+00  0.00000000000E+00 -0.28353318640E+04  0.28353318640E+04  0.50400001928E-02 0.  1.
    10030    2    1    2    0    0  0.00000000000E+00  0.00000000000E+00 -0.18727585383E+04  0.37979051897E+04  0.33040670828E+04 0.  0.
        5    1    3    3  502    0  0.58496384622E+03 -0.32648540223E+03 -0.26721902337E+04  0.27548862326E+04  0.46999998093E+01 0.  1.
       -5    1    3    3    0  502 -0.58496384622E+03  0.32648540223E+03  0.79943169544E+03  0.10430189571E+04  0.46999998093E+01 0. -1.
</event>
<event>
 5   0  0.9454010E-08  0.3298857E+04  0.7818609E-02  0.8163186E-01
        1   -1    0    0  501    0  0.00000000000E+00  0.00000000000E+00  0.88894834158E+03  0.88894834160E+03  0.50400001928E-02 0. -1.
       -1   -1    0    0    0  501  0.00000000000E+00  0.00000000000E+00 -0.30604869799E+04  0.30604869799E+04  0.50400001928E-02 0.  1.
    10030    2    1    2    0    0  0.00000000000E+00  0.00000000000E+00 -0.21715386383E+04  0.39494353215E+04  0.32988572720E+04 0.  0.
        2    1    3    3  502    0 -0.14174803795E+03 -0.24937837867E+03 -0.30303961060E+04  0.30439419576E+04  0.25500000920E-02 0.  1.
       -2    1    3    3    0  502  0.14174803795E+03  0.24937837867E+03  0.85885746775E+03  0.90549336382E+03  0.25500000920E-02 0. -1.
</event>
<event>
 5   0  0.2824402E-07  0.3306880E+04  0.7818609E-02  0.8161147E-01
       -2   -1    0    0    0  501  0.00000000000E+00  0.00000000000E+00  0.18210204947E+04  0.18210204947E+04  0.25500000920E-02 0. -1.
        2   -1    0    0  501    0  0.00000000000E+00  0.00000000000E+00 -0.15012815235E+04  0.15012815235E+04  0.25500000920E-02 0.  1.
    10030    2    1    2    0    0  0.00000000000E+00  0.00000000000E+00  0.31973897121E+03  0.33223020183E+04  0.33068803563E+04 0.  0.
        1    1    3    3  502    0  0.16099977818E+03  0.77773839786E+02 -0.14915402453E+04  0.15022190260E+04  0.50400001928E-02 0.  1.
       -1    1    3    3    0  502 -0.16099977818E+03 -0.77773839786E+02  0.18112792165E+04  0.18200829923E+04  0.50400001928E-02 0. -1.
</event>
<event>
 5   0  0.2713815E-07  0.3304954E+04  0.7818609E-02  0.8161636E-01
       -2   -1    0    0    0  501  0.00000000000E+00  0.00000000000E+00  0.16960716702E+04  0.16960716702E+04  0.25500000920E-02 0. -1.
        2   -1    0    0  501    0  0.00000000000E+00  0.00000000000E+00 -0.16100025411E+04  0.16100025411E+04  0.25500000920E-02 0.  1.
    10030    2    1    2    0    0  0.00000000000E+00  0.00000000000E+00  0.86069129073E+02  0.33060742113E+04  0.33049536753E+04 0.  0.
        4    1    3    3  502    0 -0.28583087593E+03 -0.67957587104E+03  0.15224394388E+04  0.16915513921E+04  0.12699999809E+01 0. -1.
       -4    1    3    3    0  502  0.28583087593E+03  0.67957587104E+03 -0.14363703098E+04  0.16145228192E+04  0.12699999809E+01 0.  1.
</event>
<event>
 5   0  0.2875829E-07  0.3288729E+04  0.7818609E-02  0.8165769E-01
       -2   -1    0    0    0  501  0.00000000000E+00  0.00000000000E+00  0.16965696324E+04  0.16965696324E+04  0.25500000920E-02 0.  1.
        2   -1    0    0  501    0  0.00000000000E+00  0.00000000000E+00 -0.15937652980E+04  0.15937652980E+04  0.25500000920E-02 0. -1.
    10030    2    1    2    0    0  0.00000000000E+00  0.00000000000E+00  0.10280433436E+03  0.32903349304E+04  0.32887285116E+04 0.  0.
        3    1    3    3  502    0 -0.22169604793E+03 -0.72299944659E+03  0.15122717109E+04  0.16908113660E+04  0.10100000352E+00 0.  1.
       -3    1    3    3    0  502  0.22169604793E+03  0.72299944659E+03 -0.14094673766E+04  0.15995235644E+04  0.10100000352E+00 0. -1.
</event>
<event>
 5   0  0.9283910E-08  0.3302139E+04  0.7818609E-02  0.8162351E-01
        1   -1    0    0  501    0  0.00000000000E+00  0.00000000000E+00  0.11846254226E+04  0.11846254226E+04  0.50400001928E-02 0. -1.
       -1   -1    0    0    0  501  0.00000000000E+00  0.00000000000E+00 -0.23011757302E+04  0.23011757302E+04  0.50400001928E-02 0.  1.
    10030    2    1    2    0    0  0.00000000000E+00  0.00000000000E+00 -0.11165503076E+04  0.34858011529E+04  0.33021394713E+04 0.  0.
        3    1    3    3  502    0  0.36641336777E+03 -0.13321712595E+04  0.39593215777E+03  0.14372547807E+04  0.10100000352E+00 0. -1.
       -3    1    3    3    0  502 -0.36641336777E+03  0.13321712595E+04 -0.15124824653E+04  0.20485463722E+04  0.10100000352E+00 0.  1.
</event>
<event>
 5   0  0.2727168E-07  0.3296347E+04  0.7818609E-02  0.8163825E-01
        2   -1    0    0  501    0  0.00000000000E+00  0.00000000000E+00  0.15744058566E+04  0.15744058566E+04  0.25500000920E-02 0. -1.
       -2   -1    0    0    0  501  0.00000000000E+00  0.00000000000E+00 -0.17253978326E+04  0.17253978326E+04  0.25500000920E-02 0.  1.
    10030    2    1    2    0    0  0.00000000000E+00  0.00000000000E+00 -0.15099197603E+03  0.32998036892E+04  0.32963473437E+04 0.  0.
        2    1    3    3  502    0 -0.14348599058E+04  0.11178694128E+03 -0.87955496359E+03  0.16866938677E+04  0.25500000920E-02 0. -1.
       -2    1    3    3    0  502  0.14348599058E+04 -0.11178694128E+03  0.72856298756E+03  0.16131098215E+04  0.25500000920E-02 0.  1.
</event>
<event>
 5   0  0.9181760E-08  0.3300554E+04  0.7818609E-02  0.8162754E-01
        1   -1    0    0  501    0  0.00000000000E+00  0.00000000000E+00  0.22921803459E+04  0.22921803459E+04  0.50400001928E-02 0.  1.
       -1   -1    0    0    0  501  0.00000000000E+00  0.00000000000E+00 -0.11881328992E+04  0.11881328992E+04  0.50400001928E-02 0. -1.
    10030    2    1    2    0    0  0.00000000000E+00  0.00000000000E+00  0.11040474466E+04  0.34803132451E+04  0.33005544261E+04 0.  0.
        1    1    3    3  502    0 -0.11884272697E+04 -0.36338789349E+02  0.17587899627E+04  0.21229748034E+04  0.50400001928E-02 0.  1.
       -1    1    3    3    0  502  0.11884272697E+04  0.36338789349E+02 -0.65474251607E+03  0.13573384417E+04  0.50400001928E-02 0. -1.
</event>
<event>
 5   0  0.9454010E-08  0.3288617E+04  0.7818609E-02  0.8165798E-01
       -1   -1    0    0    0  501  0.00000000000E+00  0.00000000000E+00  0.12123650574E+04  0.12123650574E+04  0.50400001928E-02 0. -1.
        1   -1    0    0  501    0  0.00000000000E+00  0.00000000000E+00 -0.22301450335E+04  0.22301450335E+04  0.50400001928E-02 0.  1.
    10030    2    1    2    0    0  0.00000000000E+00  0.00000000000E+00 -0.10177799761E+04  0.34425100908E+04  0.32886166766E+04 0.  0.
        2    1    3    3  502    0  0.34937511574E+03  0.14193042049E+04  0.27952343518E+03  0.14881601891E+04  0.25500000920E-02 0. -1.
       -2    1    3    3    0  502 -0.34937511574E+03 -0.14193042049E+04 -0.12973034113E+04  0.19543499018E+04  0.25500000920E-02 0.  1.
</event>
<event>
 5   0  0.2703956E-07  0.3302535E+04  0.7818609E-02  0.8162251E-01
       -2   -1    0    0    0  501  0.00000000000E+00  0.00000000000E+00  0.10864614194E+04  0.10864614194E+04  0.25500000920E-02 0. -1.
        2   -1    0    0  501    0  0.00000000000E+00  0.00000000000E+00 -0.25096923689E+04  0.25096923689E+04  0.25500000920E-02 0.  1.
    10030    2    1    2    0    0  0.00000000000E+00  0.00000000000E+00 -0.14232309495E+04  0.35961537883E+04  0.33025347437E+04 0.  0.
        5    1    3    3  502    0 -0.10072578841E+04  0.11356598601E+04 -0.14192963087E+04  0.20781520312E+04  0.46999998093E+01 0. -1.
       -5    1    3    3    0  502  0.10072578841E+04 -0.11356598601E+04 -0.39346407923E+01  0.15180017570E+04  0.46999998093E+01 0.  1.
</event>
<event>
 5   0  0.9181760E-08  0.3288227E+04  0.7818609E-02  0.8165897E-01
       -1   -1    0    0    0  501  0.00000000000E+00  0.00000000000E+00  0.16037049446E+04  0.16037049446E+04  0.50400001928E-02 0.  1.
        1   -1    0    0  501    0  0.00000000000E+00  0.00000000000E+00 -0.16855405116E+04  0.16855405117E+04  0.50400001928E-02 0. -1.
    10030    2    1    2    0    0  0.00000000000E+00  0.00000000000E+00 -0.81835567012E+02  0.32892454563E+04  0.32882272749E+04 0.  0.
        1    1    3    3  502    0  0.61287441634E+03 -0.17566817491E+03  0.14750168444E+04  0.16069066709E+04  0.50400001928E-02 0.  1.
       -1    1    3    3    0  502 -0.61287441634E+03  0.17566817491E+03 -0.15568524114E+04  0.16823387854E+04  0.50400001928E-02 0. -1.
</event>
<event>
 5   0  0.2713815E-07  0.3291339E+04  0.7818609E-02  0.8165103E-01
        2   -1    0    0  501    0  0.00000000000E+00  0.00000000000E+00  0.22693171094E+04  0.22693171094E+04  0.25500000920E-02 0. -1.
       -2   -1    0    0    0  501  0.00000000000E+00  0.00000000000E+00 -0.11934113873E+04  0.11934113873E+04  0.25500000920E-02 0.  1.
    10030    2    1    2    0    0  0.00000000000E+00  0.00000000000E+00  0.10759057221E+04  0.34627284968E+04  0.32913394719E+04 0.  0.
        4    1    3    3  502    0  0.30398930315E+03  0.47909859488E+03 -0.10872466143E+04  0.12263978854E+04  0.12699999809E+01 0.  1.
       -4    1    3    3    0  502 -0.30398930315E+03 -0.47909859488E+03  0.21631523364E+04  0.22363306114E+04  0.12699999809E+01 0. -1.
</event>
<event>
 5   0  0.2875829E-07  0.3299703E+04  0.7818609E-02  0.8162971E-01
       -2   -1    0    0    0  501  0.00000000000E+00  0.00000000000E+00  0.19879884398E+04  0.19879884398E+04  0.25500000920E-02 0.  1.
        2   -1    0    0  501    0  0.00000000000E+00  0.00000000000E+00 -0.13692286322E+04  0.13692286322E+04  0.25500000920E-02 0. -1.
    10030    2    1    2    0    0  0.00000000000E+00  0.00000000000E+00  0.61875980754E+03  0.33572170720E+04  0.32997034365E+04 0.  0.
        3    1    3    3  502    0  0.10151740292E+04 -0.78263493084E+03  0.13661928304E+04  0.18733869340E+04  0.10100000352E+00 0.  1.
       -3    1    3    3    0  502 -0.10151740292E+04  0.78263493084E+03 -0.74743302286E+03  0.14838301380E+04  0.10100000352E+00 0. -1.
</event>
<event>
 5   0  0.2703956E-07  0.3300340E+04  0.7818609E-02  0.8162809E-01
       -2   -1    0    0    0  501  0.00000000000E+00  0.00000000000E+00  0.16754421057E+04  0.16754421057E+04  0.25500000920E-02 0. -1.
        2   -1    0    0  501    0  0.00000000000E+00  0.00000000000E+00 -0.16252794765E+04  0.16252794765E+04  0.25500000920E-02 0.  1.
    10030    2    1    2    0    0  0.00000000000E+00  0.00000000000E+00  0.50162629134E+02  0.33007215822E+04  0.33003403876E+04 0.  0.
        5    1    3    3  502    0  0.10073039553E+04 -0.10553882412E+04  0.79623066949E+03  0.16620803131E+04  0.46999998093E+01 0. -1.
       -5    1    3    3    0  502 -0.10073039553E+04  0.10553882412E+04 -0.74606804036E+03  0.16386412691E+04  0.46999998093E+01 0.  1.
</event>
<event>
 5   0  0.9283910E-08  0.3303555E+04  0.7818609E-02  0.8161991E-01
        1   -1    0    0  501    0  0.00000000000E+00  0.00000000000E+00  0.13970830095E+04  0.13970830095E+04  0.50400001928E-02 0. -1.
       -1   -1    0    0    0  501  0.00000000000E+00  0.00000000000E+00 -0.19529035224E+04  0.19529035224E+04  0.50400001928E-02 0.  1.
    10030    2    1    2    0    0  0.00000000000E+00  0.00000000000E+00 -0.55582051293E+03  0.33499865319E+04  0.33035546494E+04 0.  0.
        3    1    3    3  502    0 -0.50339806038E+03  0.44498413244E+03 -0.18080746997E+04  0.19288739242E+04  0.10100000352E+00 0.  1.
       -3    1    3    3    0  502  0.50339806038E+03 -0.44498413244E+03  0.12522541868E+04  0.14211126078E+04  0.10100000352E+00 0. -1.
</event>
<event>
 5   0  0.2727168E-07  0.3303273E+04  0.7818609E-02  0.8162063E-01
        2   -1    0    0  501    0  0.00000000000E+00  0.00000000000E+00  0.19245032685E+04  0.19245032685E+04  0.25500000920E-02 0.  1.
       -2   -1    0    0    0  501  0.00000000000E+00  0.00000000000E+00 -0.14174582564E+04  0.14174582564E+04  0.25500000920E-02 0. -1.
    10030    2    1    2    0    0  0.00000000000E+00  0.00000000000E+00  0.50704501211E+03  0.33419615249E+04  0.33032729512E+04 0.  0.
        2    1    3    3  502    0 -0.42742978039E+03 -0.10305747911E+04 -0.97857615626E+03  0.14840457914E+04  0.25500000920E-02 0. -1.
       -2    1    3    3    0  502  0.42742978039E+03  0.10305747911E+04  0.14856211684E+04  0.18579157336E+04  0.25500000920E-02 0.  1.
</event>
<event>
 5   0  0.2713815E-07  0.3297862E+04  0.7818609E-02  0.8163440E-01
       -2   -1    0    0    0  501  0.00000000000E+00  0.00000000000E+00  0.11467989383E+04  0.11467989383E+04  0.25500000920E-02 0. -1.
        2   -1    0    0  501    0  0.00000000000E+00  0.00000000000E+00 -0.23709246871E+04  0.23709246871E+04  0.25500000920E-02 0.  1.
    10030    2    1    2    0    0  0.00000000000E+00  0.00000000000E+00 -0.12241257488E+04  0.35177236253E+04  0.32978622857E+04 0.  0.
        4    1    3    3  502    0  0.13442657251E+04 -0.82351427177E+03 -0.11277680430E+04  0.19383210434E+04  0.12699999809E+01 0.  1.
       -4    1    3    3    0  502 -0.13442657251E+04  0.82351427177E+03 -0.96357705799E+02  0.15794025819E+04  0.12699999809E+01 0. -1.
</event>
<event>
 5   0  0.2713815E-07  0.3288559E+04  0.7818609E-02  0.8165813E-01
       -2   -1    0    0    0  501  0.00000000000E+00  0.00000000000E+00  0.15661259520E+04  0.15661259520E+04  0.25500000920E-02 0.  1.
        2   -1    0    0  501    0  0.00000000000E+00  0.00000000000E+00 -0.17263333138E+04  0.17263333138E+04  0.25500000920E-02 0. -1.
    10030    2    1    2    0    0  0.00000000000E+00  0.00000000000E+00 -0.16020736183E+03  0.32924592657E+04  0.32885592009E+04 0.  0.
        4    1    3    3  502    0 -0.26621442028E+03  0.15696797547E+04 -0.49155230113E+03  0.16662502596E+04  0.12699999809E+01 0. -1.
       -4    1    3    3    0  502  0.26621442028E+03 -0.15696797547E+04  0.33134493930E+03  0.16262090061E+04  0.12699999809E+01 0.  1.
</event>
<event>
 5   0  0.8805125E-08  0.3293520E+04  0.7818609E-02  0.8164546E-01
       -1   -1    0    0    0  501  0.00000000000E+00  0.00000000000E+00  0.16133744911E+04  0.16133744911E+04  0.50400001928E-02 0. -1.
        1   -1    0    0  501    0  0.00000000000E+00  0.00000000000E+00 -0.16808362940E+04  0.16808362940E+04  0.50400001928E-02 0.  1.
    10030    2    1    2    0    0  0.00000000000E+00  0.00000000000E+00 -0.67461802923E+02  0.32942107851E+04  0.32935199410E+04 0.  0.
        4    1    3    3  502    0 -0.82684981573E+03  0.37344338406E+03 -0.14083103367E+04  0.16752552630E+04  0.12699999809E+01 0.  1.
       -4    1    3    3    0  502  0.82684981573E+03 -0.37344338406E+03  0.13408485338E+04  0.16189555220E+04  0.12699999809E+01 0. -1.
</event>
<event>
 5   0  0.9810351E-08  0.3299751E+04  0.7818609E-02  0.8162959E-01
        1   -1    0    0  501    0  0.00000000000E+00  0.00000000000E+00  0.96622292970E+03  0.96622292971E+03  0.50400001928E-02 0.  1.
       -1   -1    0    0    0  501  0.00000000000E+00  0.00000000000E+00 -0.28172470569E+04  0.28172470569E+04  0.50400001928E-02 0. -1.
    10030    2    1    2    0    0  0.00000000000E+00  0.00000000000E+00 -0.18510241272E+04  0.37834699866E+04  0.32997507209E+04 0.  0.
        5    1    3    3  502    0 -0.53075407346E+03  0.11794413326E+04  0.24899563111E+03  0.13171190751E+04  0.46999998093E+01 0.  1.
       -5    1    3    3    0  502  0.53075407346E+03 -0.11794413326E+04 -0.21000197583E+04  0.24663509116E+04  0.46999998093E+01 0. -1.
</event>
<event>
 5   0  0.9181760E-08  0.3300612E+04  0.7818609E-02  0.8162740E-01
        1   -1    0    0  501    0  0.00000000000E+00  0.00000000000E+00  0.31137944806E+04  0.31137944806E+04  0.50400001928E-02 0.  1.
       -1   -1    0    0    0  501  0.00000000000E+00  0.00000000000E+00 -0.87465933543E+03  0.87465933544E+03  0.50400001928E-02 0. -1.
    10030    2    1    2    0    0  0.00000000000E+00  0.00000000000E+00  0.22391351452E+04  0.39884538160E+04  0.33006117076E+04 0.  0.
        1    1    3    3  502    0  0.78568038712E+03 -0.53603392267E+03 -0.51015078777E+03  0.10792960035E+04  0.50400001928E-02 0. -1.
       -1    1    3    3    0  502 -0.78568038712E+03  0.53603392267E+03  0.27492859329E+04  0.29091578125E+04  0.50400001928E-02 0.  1.
</event>
<event>
 5   0  0.8805125E-08  0.3303309E+04  0.7818609E-02  0.8162054E-01
        1   -1    0    0  501    0  0.00000000000E+00  0.00000000000E+00  0.23843750545E+04  0.23843750545E+04  0.50400001928E-02 0.  1.
       -1   -1    0    0    0  501  0.00000000000E+00  0.00000000000E+00 -0.11440999113E+04  0.11440999113E+04  0.50400001928E-02 0. -1.
    10030    2    1    2    0    0  0.00000000000E+00  0.00000000000E+00  0.12402751432E+04  0.35284749658E+04  0.33033094244E+04 0.  0.
        4    1    3    3  502    0 -0.10116885308E+04 -0.53867931982E+02 -0.77321063086E+03  0.12744691954E+04  0.12699999809E+01 0. -1.
       -4    1    3    3    0  502  0.10116885308E+04  0.53867931982E+02  0.20134857741E+04  0.22540057704E+04  0.12699999809E+01 0.  1.
</event>
<event>
 5   0  0.9181760E-08  0.3299576E+04  0.7818609E-02  0.8163003E-01
        1   -1    0    0  501    0  0.00000000000E+00  0.00000000000E+00  0.25669314931E+04  0.25669314932E+04  0.50400001928E-02 0. -1.
       -1   -1    0    0    0  501  0.00000000000E+00  0.00000000000E+00 -0.10603323408E+04  0.10603323408E+04  0.50400001928E-02 0.  1.
    10030    2    1    2    0    0  0.00000000000E+00  0.00000000000E+00  0.15065991524E+04  0.36272638339E+04  0.32995760205E+04 0.  0.
        1    1    3    3  502    0 -0.15879074752E+04 -0.28380884015E+03  0.11337995405E+04  0.19716741631E+04  0.50400001928E-02 0.  1.
       -1    1    3    3    0  502  0.15879074752E+04  0.28380884015E+03  0.37279961190E+03  0.16555896708E+04  0.50400001928E-02 0. -1.
</event>
<event>
 5   0  0.2727168E-07  0.3299644E+04  0.7818609E-02  0.8162986E-01
        2   -1    0    0  501    0  0.00000000000E+00  0.00000000000E+00  0.12489007016E+04  0.12489007016E+04  0.25500000920E-02 0. -1.
       -2   -1    0    0    0  501  0.00000000000E+00  0.00000000000E+00 -0.21794471070E+04  0.21794471070E+04  0.25500000920E-02 0.  1.
    10030    2    1    2    0    0  0.00000000000E+00  0.00000000000E+00 -0.93054640546E+03  0.34283478086E+04  0.32996442360E+04 0.  0.
        2    1    3    3  502    0  0.20608281264E+03  0.12765943271E+04 -0.15298099607E+04  0.20031179989E+04  0.25500000920E-02 0.  1.
       -2    1    3    3    0  502 -0.20608281264E+03 -0.12765943271E+04  0.59926355524E+03  0.14252298097E+04  0.25500000920E-02 0. -1.
</event>
<event>
 5   0  0.8805125E-08  0.3300972E+04  0.7818609E-02  0.8162648E-01
       -1   -1    0    0    0  501  0.00000000000E+00  0.00000000000E+00  0.13838926783E+04  0.13838926783E+04  0.50400001928E-02 0. -1.
        1   -1    0    0  501    0  0.00000000000E+00  0.00000000000E+00 -0.19684356819E+04  0.19684356819E+04  0.50400001928E-02 0.  1.
    10030    2    1    2    0    0  0.00000000000E+00  0.00000000000E+00 -0.58454300360E+03  0.33523283602E+04  0.33009718132E+04 0.  0.
        4    1    3    3  502    0  0.61589318263E+03  0.47614943470E+03  0.11857263569E+04  0.14184467924E+04  0.12699999809E+01 0. -1.
       -4    1    3    3    0  502 -0.61589318263E+03 -0.47614943470E+03 -0.17702693605E+04  0.19338815678E+04  0.12699999809E+01 0.  1.
</event>
<event>
 5   0  0.2727168E-07  0.3296644E+04  0.7818609E-02  0.8163750E-01
       -2   -1    0    0    0  501  0.00000000000E+00  0.00000000000E+00  0.13337399634E+04  0.13337399634E+04  0.25500000920E-02 0.  1.
        2   -1    0    0  501    0  0.00000000000E+00  0.00000000000E+00 -0.20371027096E+04  0.20371027096E+04  0.25500000920E-02 0. -1.
    10030    2    1    2    0    0  0.00000000000E+00  0.00000000000E+00 -0.70336274627E+03  0.33708426730E+04  0.32966439258E+04 0.  0.
        2    1    3    3  502    0 -0.64723132748E+03  0.22460710741E+03 -0.18846271025E+04  0.20052870267E+04  0.25500000920E-02 0. -1.
       -2    1    3    3    0  502  0.64723132748E+03 -0.22460710741E+03  0.11812643562E+04  0.13655556463E+04  0.25500000920E-02 0.  1.
</event>
<event>
 5   0  0.9181760E-08  0.3303068E+04  0.7818609E-02  0.8162115E-01
       -1   -1    0    0    0  501  0.00000000000E+00  0.00000000000E+00  0.11495025665E+04  0.11495025665E+04  0.50400001928E-02 0. -1.
        1   -1    0    0  501    0  0.00000000000E+00  0.00000000000E+00 -0.23728219512E+04  0.23728219512E+04  0.50400001928E-02 0.  1.
    10030    2    1    2    0    0  0.00000000000E+00  0.00000000000E+00 -0.12233193847E+04  0.35223245177E+04  0.33030682238E+04 0.  0.
        1    1    3    3  502    0 -0.83603616158E+03 -0.94965405292E+03 -0.17436132768E+04  0.21542949062E+04  0.50400001928E-02 0.  1.
       -1    1    3    3    0  502  0.83603616158E+03  0.94965405292E+03  0.52029389209E+03  0.13680296115E+04  0.50400001928E-02 0. -1.
</event>
<event>
 5   0  0.9283910E-08  0.3298411E+04  0.7818609E-02  0.8163300E-01
        1   -1    0    0  501    0  0.00000000000E+00  0.00000000000E+00  0.24402163687E+04  0.24402163687E+04  0.50400001928E-02 0. -1.
       -1   -1    0    0    0  501  0.00000000000E+00  0.00000000000E+00 -0.11146056051E+04  0.11146056051E+04  0.50400001928E-02 0.  1.
    10030    2    1    2    0    0  0.00000000000E+00  0.00000000000E+00  0.13256107636E+04  0.35548219739E+04  0.32984110370E+04 0.  0.
        3    1    3    3  502    0  0.71302386552E+02  0.16351805238E+04  0.88097595728E+03  0.18587678777E+04  0.10100000352E+00 0. -1.
       -3    1    3    3    0  502 -0.71302386552E+02 -0.16351805238E+04  0.44463480634E+03  0.16960540961E+04  0.10100000352E+00 0.  1.
</event>
<event>
 5   0  0.2727168E-07  0.3300419E+04  0.7818609E-02  0.8162789E-01
        2   -1    0    0  501    0  0.00000000000E+00  0.00000000000E+00  0.17086248847E+04  0.17086248847E+04  0.25500000920E-02 0. -1.
       -2   -1    0    0    0  501  0.00000000000E+00  0.00000000000E+00 -0.15937913636E+04  0.15937913636E+04  0.25500000920E-02 0.  1.
    10030    2    1    2    0    0  0.00000000000E+00  0.00000000000E+00  0.11483352111E+03  0.33024162483E+04  0.33004191157E+04 0.  0.
        2    1    3    3  502    0  0.90143917077E+03  0.12533511463E+03 -0.13199662876E+04  0.16033129670E+04  0.25500000920E-02 0.  1.
       -2    1    3    3    0  502 -0.90143917077E+03 -0.12533511463E+03  0.14347998087E+04  0.16991032813E+04  0.25500000920E-02 0. -1.
</event>
<event>
 5   0  0.2875829E-07  0.3297324E+04  0.7818609E-02  0.8163577E-01
        2   -1    0    0  501    0  0.00000000000E+00  0.00000000000E+00  0.17525895808E+04  0.17525895808E+04  0.25500000920E-02 0. -1.
       -2   -1    0    0    0  501  0.00000000000E+00  0.00000000000E+00 -0.15508968620E+04  0.15508968620E+04  0.25500000920E-02 0.  1.
    10030    2    1    2    0    0  0.00000000000E+00  0.00000000000E+00  0.20169271877E+03  0.33034864428E+04  0.32973235699E+04 0.  0.
        3    1    3    3  502    0 -0.82468770551E+03 -0.29392054465E+03 -0.12987566659E+04  0.15662911561E+04  0.10100000352E+00 0.  1.
       -3    1    3    3    0  502  0.82468770551E+03  0.29392054465E+03  0.15004493846E+04  0.17371952867E+04  0.10100000352E+00 0. -1.
</event>
<event>
 5   0  0.2703956E-07  0.3297947E+04  0.7818609E-02  0.8163418E-01
       -2   -1    0    0    0  501  0.00000000000E+00  0.00000000000E+00  0.11342932769E+04  0.11342932769E+04  0.25500000920E-02 0. -1.
        2   -1    0    0  501    0  0.00000000000E+00  0.00000000000E+00 -0.23971872013E+04  0.23971872013E+04  0.25500000920E-02 0.  1.
    10030    2    1    2    0    0  0.00000000000E+00  0.00000000000E+00 -0.12628939243E+04  0.35314804782E+04  0.32979468316E+04 0.  0.
        5    1    3    3  502    0 -0.98302754974E+03  0.33644271914E+03 -0.20025688744E+04  0.22560676084E+04  0.46999998093E+01 0.  1.
       -5    1    3    3    0  502  0.98302754974E+03 -0.33644271914E+03  0.73967495008E+03  0.12754128699E+04  0.46999998093E+01 0. -1.
</event>
<event>
 5   0  0.8805125E-08  0.3299701E+04  0.7818609E-02  0.8162972E-01
       -1   -1    0    0    0  501  0.00000000000E+00  0.00000000000E+00  0.21106980950E+04  0.21106980950E+04  0.50400001928E-02 0.  1.
        1   -1    0    0  501    0  0.00000000000E+00  0.00000000000E+00 -0.12896236737E+04  0.12896236738E+04  0.50400001928E-02 0. -1.
    10030    2    1    2    0    0  0.00000000000E+00  0.00000000000E+00  0.82107442128E+03  0.34003217688E+04  0.32997007328E+04 0.  0.
        4    1    3    3  502    0 -0.40216924685E+03  0.14219232095E+04  0.11666690839E+04  0.18827437640E+04  0.12699999809E+01 0.  1.
       -4    1    3    3    0  502  0.40216924685E+03 -0.14219232095E+04 -0.34559466265E+03  0.15175780047E+04  0.12699999809E+01 0. -1.
</event>
<event>
 5   0  0.9181760E-08  0.3307612E+04  0.7818609E-02  0.8160961E-01
        1   -1    0    0  501    0  0.00000000000E+00  0.00000000000E+00  0.23814832935E+04  0.23814832935E+04  0.50400001928E-02 0. -1.
       -1   -1    0    0    0  501  0.00000000000E+00  0.00000000000E+00 -0.11484753709E+04  0.11484753709E+04  0.50400001928E-02 0.  1.
    10030    2    1    2    0    0  0.00000000000E+00  0.00000000000E+00  0.12330079226E+04  0.35299586644E+04  0.33076123768E+04 0.  0.
        1    1    3    3  502    0  0.14014984548E+04  0.99655722123E+01  0.15534607791E+04  0.20922565865E+04  0.50400001928E-02 0. -1.
       -1    1    3    3    0  502 -0.14014984548E+04 -0.99655722123E+01 -0.32045285647E+03  0.14377020779E+04  0.50400001928E-02 0.  1.
</event>
<event>
 5   0  0.9810351E-08  0.3296683E+04  0.7818609E-02  0.8163740E-01
       -1   -1    0    0    0  501  0.00000000000E+00  0.00000000000E+00  0.17602549390E+04  0.17602549390E+04  0.50400001928E-02 0. -1.
        1   -1    0    0  501    0  0.00000000000E+00  0.00000000000E+00 -0.15435433356E+04  0.15435433356E+04  0.50400001928E-02 0.  1.
    10030    2    1    2    0    0  0.00000000000E+00  0.00000000000E+00  0.21671160334E+03  0.33037982746E+04  0.32966830482E+04 0.  0.
        5    1    3    3  502    0  0.52840085293E+02 -0.15254814648E+04  0.73188989745E+03  0.16927996592E+04  0.46999998093E+01 0. -1.
       -5    1    3    3    0  502 -0.52840085293E+02  0.15254814648E+04 -0.51517829411E+03  0.16109986154E+04  0.46999998093E+01 0.  1.
</event>
<event>
 5   0  0.2875829E-07  0.3301518E+04  0.7818609E-02  0.8162509E-01
       -2   -1    0    0    0  501  0.00000000000E+00  0.00000000000E+00  0.24448794763E+04  0.24448794763E+04  0.25500000920E-02 0.  1.
        2   -1    0    0  501    0  0.00000000000E+00  0.00000000000E+00 -0.11145767169E+04  0.11145767169E+04  0.25500000920E-02 0. -1.
    10030    2    1    2    0    0  0.00000000000E+00  0.00000000000E+00  0.13303027594E+04  0.35594561931E+04  0.33015182809E+04 0.  0.
        3    1    3    3  502    0 -0.66046245659E+03 -0.14973172068E+04  0.89847624741E+03  0.18669303821E+04  0.10100000352E+00 0.  1.
       -3    1    3    3    0  502  0.66046245659E+03  0.14973172068E+04  0.43182651196E+03  0.16925258110E+04  0.10100000352E+00 0. -1.
</event>
<event>
 5   0  0.2727168E-07  0.3297021E+04  0.7818609E-02  0.8163654E-01
       -2   -1    0    0    0  501  0.00000000000E+00  0.00000000000E+00  0.15473219816E+04  0.15473219816E+04  0.25500000920E-02 0. -1.
        2   -1    0    0  501    0  0.00000000000E+00  0.00000000000E+00 -0.17563162920E+04  0.17563162920E+04  0.25500000920E-02 0.  1.
    10030    2    1    2    0    0  0.00000000000E+00  0.00000000000E+00 -0.20899431041E+03  0.33036382737E+04  0.32970209616E+04 0.  0.
        2    1    3    3  502    0 -0.27084128892E+01 -0.15831472134E+04  0.35601679746E+03  0.16226861665E+04  0.25500000920E-02 0.  1.
       -2    1    3    3    0  502  0.27084128892E+01  0.15831472134E+04 -0.56501110787E+03  0.16809521072E+04  0.25500000920E-02 0. -1.
</event>
<event>
 5   0  0.9454010E-08  0.3304428E+04  0.7818609E-02  0.8161770E-01
       -1   -1    0    0    0  501  0.00000000000E+00  0.00000000000E+00  0.33435938696E+04  0.33435938696E+04  0.50400001928E-02 0.  1.
        1   -1    0    0  501    0  0.00000000000E+00  0.00000000000E+00 -0.81643034151E+03  0.81643034153E+03  0.50400001928E-02 0. -1.
    10030    2    1    2    0    0  0.00000000000E+00  0.00000000000E+00  0.25271635281E+04  0.41600242111E+04  0.33044282318E+04 0.  0.
        2    1    3    3  502    0 -0.16025333091E+04 -0.94299402856E+02  0.17557004787E+04  0.23789681702E+04  0.25500000920E-02 0. -1.
       -2    1    3    3    0  502  0.16025333091E+04  0.94299402856E+02  0.77146304938E+03  0.17810560409E+04  0.25500000920E-02 0.  1.
</event>
<event>
 5   0  0.9454010E-08  0.3320020E+04  0.7818609E-02  0.8157820E-01
       -1   -1    0    0    0  501  0.00000000000E+00  0.00000000000E+00  0.20896427734E+04  0.20896427734E+04  0.50400001928E-02 0. -1.
        1   -1    0    0  501    0  0.00000000000E+00  0.00000000000E+00 -0.13187105289E+04  0.13187105289E+04  0.50400001928E-02 0.  1.
    10030    2    1    2    0    0  0.00000000000E+00  0.00000000000E+00  0.77093224452E+03  0.34083533024E+04  0.33200204379E+04 0.  0.
        2    1    3    3  502    0 -0.15468452294E+04 -0.28658067280E+02  0.10032087967E+04  0.18439032887E+04  0.25500000920E-02 0. -1.
       -2    1    3    3    0  502  0.15468452294E+04  0.28658067280E+02 -0.23227655214E+03  0.15644500136E+04  0.25500000920E-02 0.  1.
</event>
<event>
 5   0  0.2713815E-07  0.3298519E+04  0.7818609E-02  0.8163272E-01
        2   -1    0    0  501    0  0.00000000000E+00  0.00000000000E+00  0.25239320017E+04  0.25239320017E+04  0.25500000920E-02 0.  1.
       -2   -1    0    0    0  501  0.00000000000E+00  0.00000000000E+00 -0.10777063541E+04  0.10777063541E+04  0.25500000920E-02 0. -1.
    10030    2    1    2    0    0  0.00000000000E+00  0.00000000000E+00  0.14462256476E+04  0.36016383559E+04  0.32985193986E+04 0.  0.
        4    1    3    3  502    0 -0.30285615727E+03  0.10635540231E+04 -0.61292598611E+03  0.12643373321E+04  0.12699999809E+01 0. -1.
       -4    1    3    3    0  502  0.30285615727E+03 -0.10635540231E+04  0.20591516337E+04  0.23373010238E+04  0.12699999809E+01 0.  1.
</event>
<event>
 5   0  0.9283910E-08  0.3294381E+04  0.7818609E-02  0.8164327E-01
        1   -1    0    0  501    0  0.00000000000E+00  0.00000000000E+00  0.22038699191E+04  0.22038699191E+04  0.50400001928E-02 0.  1.
       -1   -1    0    0    0  501  0.00000000000E+00  0.00000000000E+00 -0.12311236555E+04  0.12311236555E+04  0.50400001928E-02 0. -1.
    10030    2    1    2    0    0  0.00000000000E+00  0.00000000000E+00  0.97274626363E+03  0.34349935745E+04  0.32943809075E+04 0.  0.
        3    1    3    3  502    0 -0.14450577771E+04 -0.78704948556E+03  0.56438299399E+03  0.17395881829E+04  0.10100000352E+00 0.  1.
       -3    1    3    3    0  502  0.14450577771E+04  0.78704948556E+03  0.40836326964E+03  0.16954053917E+04  0.10100000352E+00 0. -1.
</event>
<event>
 5   0  0.2824402E-07  0.3293830E+04  0.7818609E-02  0.8164467E-01
        2   -1    0    0  501    0  0.00000000000E+00  0.00000000000E+00  0.10462503342E+04  0.10462503342E+04  0.25500000920E-02 0. -1.
       -2   -1    0    0    0  501  0.00000000000E+00  0.00000000000E+00 -0.25924285903E+04  0.25924285903E+04  0.25500000920E-02 0.  1.
    10030    2    1    2    0    0  0.00000000000E+00  0.00000000000E+00 -0.15461782561E+04  0.36386789245E+04  0.32938301590E+04 0.  0.
        1    1    3    3  502    0 -0.13755699169E+04  0.88622731568E+03 -0.56719504690E+03  0.17318492061E+04  0.50400001928E-02 0. -1.
       -1    1    3    3    0  502  0.13755699169E+04 -0.88622731568E+03 -0.97898320916E+03  0.19068297184E+04  0.50400001928E-02 0.  1.
</event>
<event>
 5   0  0.9454010E-08  0.3333384E+04  0.7818609E-02  0.8154452E-01
        1   -1    0    0  501    0  0.00000000000E+00  0.00000000000E+00  0.30433616231E+04  0.30433616231E+04  0.50400001928E-02 0.  1.
       -1   -1    0    0    0  501  0.00000000000E+00  0.00000000000E+00 -0.91276120681E+03  0.91276120682E+03  0.50400001928E-02 0. -1.
    10030    2    1    2    0    0  0.00000000000E+00  0.00000000000E+00  0.21306004163E+04  0.39561228299E+04  0.33333841230E+04 0.  0.
        2    1    3    3  502    0 -0.69280334053E+03  0.15158194116E+04  0.10811107886E+04  0.19865763248E+04  0.25500000920E-02 0. -1.
       -2    1    3    3    0  502  0.69280334053E+03 -0.15158194116E+04  0.10494896277E+04  0.19695465051E+04  0.25500000920E-02 0.  1.
</event>
<event>
 5   0  0.8805125E-08  0.3295776E+04  0.7818609E-02  0.8163971E-01
       -1   -1    0    0    0  501  0.00000000000E+00  0.00000000000E+00  0.12719526104E+04  0.12719526104E+04  0.50400001928E-02 0.  1.
        1   -1    0    0  501    0  0.00000000000E+00  0.00000000000E+00 -0.21349339292E+04  0.21349339292E+04  0.50400001928E-02 0. -1.
    10030    2    1    2    0    0  0.00000000000E+00  0.00000000000E+00 -0.86298131880E+03  0.34068865396E+04  0.32957759537E+04 0.  0.
        4    1    3    3  502    0  0.46329399296E+02 -0.67635606628E+03  0.11211205786E+04  0.13101591149E+04  0.12699999809E+01 0.  1.
       -4    1    3    3    0  502 -0.46329399296E+02  0.67635606628E+03 -0.19841018974E+04  0.20967274248E+04  0.12699999809E+01 0. -1.
</event>
<event>
 5   0  0.2713815E-07  0.3327973E+04  0.7818609E-02  0.8155814E-01
        2   -1    0    0  501    0  0.00000000000E+00  0.00000000000E+00  0.20416688565E+04  0.20416688565E+04  0.25500000920E-02 0. -1.
       -2   -1    0    0    0  501  0.00000000000E+00  0.00000000000E+00 -0.13561704485E+04  0.13561704485E+04  0.25500000920E-02 0.  1.
    10030    2    1    2    0    0  0.00000000000E+00  0.00000000000E+00  0.68549840805E+03  0.33978393050E+04  0.33279729379E+04 0.  0.
        4    1    3    3  502    0  0.11695682809E+04  0.12598432719E+03  0.15443539357E+04  0.19413378650E+04  0.12699999809E+01 0. -1.
       -4    1    3    3    0  502 -0.11695682809E+04 -0.12598432719E+03 -0.85885552766E+03  0.14565014400E+04  0.12699999809E+01 0.  1.
</event>
<event>
 5   0  0.2727168E-07  0.3299787E+04  0.7818609E-02  0.8162950E-01
       -2   -1    0    0    0  501  0.00000000000E+00  0.00000000000E+00  0.13478321064E+04  0.13478321064E+04  0.25500000920E-02 0. -1.
        2   -1    0    0  501    0  0.00000000000E+00  0.00000000000E+00 -0.20196496778E+04  0.20196496778E+04  0.25500000920E-02 0.  1.
    10030    2    1    2    0    0  0.00000000000E+00  0.00000000000E+00 -0.67181757139E+03  0.33674817842E+04  0.32997870716E+04 0.  0.
        2    1    3    3  502    0 -0.74194569265E+03 -0.14028633298E+04  0.12461345833E+03  0.15918660267E+04  0.25500000920E-02 0.  1.
       -2    1    3    3    0  502  0.74194569265E+03  0.14028633298E+04 -0.79643102971E+03  0.17756157575E+04  0.25500000920E-02 0. -1.
</event>
<event>
 5   0  0.9810351E-08  0.3296050E+04  0.7818609E-02  0.8163901E-01
        1   -1    0    0  501    0  0.00000000000E+00  0.00000000000E+00  0.91375683270E+03  0.91375683271E+03  0.50400001928E-02 0.  1.
       -1   -1    0    0    0  501  0.00000000000E+00  0.00000000000E+00 -0.29723291181E+04  0.29723291181E+04  0.50400001928E-02 0. -1.
    10030    2    1    2    0    0  0.00000000000E+00  0.00000000000E+00 -0.20585722854E+04  0.38860859508E+04  0.32960497816E+04 0.  0.
        5    1    3    3  502    0  0.40905931812E+03  0.10685898291E+04  0.36910006741E+03  0.12022772968E+04  0.46999998093E+01 0.  1.
       -5    1    3    3    0  502 -0.40905931812E+03 -0.10685898291E+04 -0.24276723528E+04  0.26838086540E+04  0.46999998093E+01 0. -1.
</event>
<event>
 5   0  0.2703956E-07  0.3290241E+04  0.7818609E-02  0.8165383E-01
       -2   -1    0    0    0  501  0.00000000000E+00  0.00000000000E+00  0.13696209379E+04  0.13696209379E+04  0.25500000920E-02 0.  1.
        2   -1    0    0  501    0  0.00000000000E+00  0.00000000000E+00 -0.19760373531E+04  0.19760373531E+04  0.25500000920E-02 0. -1.
    10030    2    1    2    0    0  0.00000000000E+00  0.00000000000E+00 -0.60641641517E+03  0.33456582911E+04  0.32902414094E+04 0.  0.
        5    1    3    3  502    0  0.93301530880E+03 -0.76063047252E+03 -0.14433986068E+04  0.18794940570E+04  0.46999998093E+01 0. -1.
       -5    1    3    3    0  502 -0.93301530880E+03  0.76063047252E+03  0.83698219162E+03  0.14661642341E+04  0.46999998093E+01 0.  1.
</event>
<event>
 5   0  0.2727168E-07  0.3305908E+04  0.7818609E-02  0.8161394E-01
       -2   -1    0    0    0  501  0.00000000000E+00  0.00000000000E+00  0.20077901030E+04  0.20077901030E+04  0.25500000920E-02 0.  1.
        2   -1    0    0  501    0  0.00000000000E+00  0.00000000000E+00 -0.13608275732E+04  0.13608275732E+04  0.25500000920E-02 0. -1.
    10030    2    1    2    0    0  0.00000000000E+00  0.00000000000E+00  0.64696252986E+03  0.33686176762E+04  0.33059075204E+04 0.  0.
        2    1    3    3  502    0 -0.13162996455E+04 -0.76168128711E+03 -0.33645602921E+03  0.15575640595E+04  0.25500000920E-02 0.  1.
       -2    1    3    3    0  502  0.13162996455E+04  0.76168128711E+03  0.98341855906E+03  0.18110536166E+04  0.25500000920E-02 0. -1.
</event>
<event>
 5   0  0.9454010E-08  0.3294467E+04  0.7818609E-02  0.8164305E-01
        1   -1    0    0  501    0  0.00000000000E+00  0.00000000000E+00  0.18209116395E+04  0.18209116395E+04  0.50400001928E-02 0.  1.
       -1   -1    0    0    0  501  0.00000000000E+00  0.00000000000E+00 -0.14901207243E+04  0.14901207243E+04  0.50400001928E-02 0. -1.
    10030    2    1    2    0    0  0.00000000000E+00  0.00000000000E+00  0.33079091521E+03  0.33110323638E+04  0.32944669804E+04 0.  0.
        2    1    3    3  502    0 -0.12230071043E+04  0.10915299286E+04  0.32805551146E+03  0.16717668440E+04  0.25500000920E-02 0. -1.
       -2    1    3    3    0  502  0.12230071043E+04 -0.10915299286E+04  0.27354037500E+01  0.16392655198E+04  0.25500000920E-02 0.  1.
</event>
<event>
 5   0  0.9283910E-08  0.3296079E+04  0.7818609E-02  0.8163894E-01
        1   -1    0    0  501    0  0.00000000000E+00  0.00000000000E+00  0.16299016027E+04  0.16299016027E+04  0.50400001928E-02 0. -1.
       -1   -1    0    0    0  501  0.00000000000E+00  0.00000000000E+00 -0.16663790493E+04  0.16663790493E+04  0.50400001928E-02 0.  1.
    10030    2    1    2    0    0  0.00000000000E+00  0.00000000000E+00 -0.36477446600E+02  0.32962806519E+04  0.32960788116E+04 0.  0.
        3    1    3    3  502    0  0.16286396459E+04 -0.19721629800E+03  0.13884574496E+03  0.16464019909E+04  0.10100000352E+00 0.  1.
       -3    1    3    3    0  502 -0.16286396459E+04  0.19721629800E+03 -0.17532319156E+03  0.16498786610E+04  0.10100000352E+00 0. -1.
</event>
<event>
 5   0  0.2824402E-07  0.3302922E+04  0.7818609E-02  0.8162152E-01
       -2   -1    0    0    0  501  0.00000000000E+00  0.00000000000E+00  0.11407109935E+04  0.11407109935E+04  0.25500000920E-02 0.  1.
        2   -1    0    0  501    0  0.00000000000E+00  0.00000000000E+00 -0.23908984160E+04  0.23908984160E+04  0.25500000920E-02 0. -1.
    10030    2    1    2    0    0  0.00000000000E+00  0.00000000000E+00 -0.12501874225E+04  0.35316094095E+04  0.33029224075E+04 0.  0.
        1    1    3    3  502    0  0.82705263259E+03  0.12676833447E+04  0.81159481716E+02  0.15157915361E+04  0.50400001928E-02 0. -1.
       -1    1    3    3    0  502 -0.82705263259E+03 -0.12676833447E+04 -0.13313469042E+04  0.20158178734E+04  0.50400001928E-02 0.  1.
</event>
<event>
 5   0  0.9283910E-08  0.3299551E+04  0.7818609E-02  0.8163010E-01
        1   -1    0    0  501    0  0.00000000000E+00  0.00000000000E+00  0.21089890421E+04  0.21089890421E+04  0.50400001928E-02 0. -1.
       -1   -1    0    0    0  501  0.00000000000E+00  0.00000000000E+00 -0.12905512553E+04  0.12905512553E+04  0.50400001928E-02 0.  1.
    10030    2    1    2    0    0  0.00000000000E+00  0.00000000000E+00  0.81843778676E+03  0.33995402974E+04  0.32995505487E+04 0.  0.
        3    1    3    3  502    0  0.31035002996E+03 -0.16504964492E+03 -0.12515212745E+04  0.12999477055E+04  0.10100000352E+00 0.  1.
       -3    1    3    3    0  502 -0.31035002996E+03  0.16504964492E+03  0.20699590613E+04  0.20995925919E+04  0.10100000352E+00 0. -1.
</event>
<event>
 5   0  0.2727168E-07  0.3284573E+04  0.7818609E-02  0.8166832E-01
       -2   -1    0    0    0  501  0.00000000000E+00  0.00000000000E+00  0.20905537161E+04  0.20905537161E+04  0.25500000920E-02 0.  1.
        2   -1    0    0  501    0  0.00000000000E+00  0.00000000000E+00 -0.12901391240E+04  0.12901391241E+04  0.25500000920E-02 0. -1.
    10030    2    1    2    0    0  0.00000000000E+00  0.00000000000E+00  0.80041459206E+03  0.33806928402E+04  0.32845731169E+04 0.  0.
        2    1    3    3  502    0 -0.75300197487E+03  0.61322934405E+02  0.19010749056E+04  0.20456926146E+04  0.25500000920E-02 0.  1.
       -2    1    3    3    0  502  0.75300197487E+03 -0.61322934405E+02 -0.11006603136E+04  0.13350002256E+04  0.25500000920E-02 0. -1.
</event>
<event>
 5   0  0.2875829E-07  0.3297957E+04  0.7818609E-02  0.8163415E-01
       -2   -1    0    0    0  501  0.00000000000E+00  0.00000000000E+00  0.92348956428E+03  0.92348956428E+03  0.25500000920E-02 0. -1.
        2   -1    0    0  501    0  0.00000000000E+00  0.00000000000E+00 -0.29444085561E+04  0.29444085561E+04  0.25500000920E-02 0.  1.
    10030    2    1    2    0    0  0.00000000000E+00  0.00000000000E+00 -0.20209189918E+04  0.38678981204E+04  0.32979572917E+04 0.  0.
        3    1    3    3  502    0 -0.46800929693E+03 -0.17804389661E+03 -0.28530872678E+04  0.28966945470E+04  0.10100000352E+00 0.  1.
       -3    1    3    3    0  502  0.46800929693E+03  0.17804389661E+03  0.83216827596E+03  0.97120357333E+03  0.10100000352E+00 0. -1.
</event>
<event>
 5   0  0.2824402E-07  0.3298058E+04  0.7818609E-02  0.8163390E-01
        2   -1    0    0  501    0  0.00000000000E+00  0.00000000000E+00  0.24190552805E+04  0.24190552805E+04  0.25500000920E-02 0. -1.
       -2   -1    0    0    0  501  0.00000000000E+00  0.00000000000E+00 -0.11241148698E+04  0.11241148698E+04  0.25500000920E-02 0.  1.
    10030    2    1    2    0    0  0.00000000000E+00  0.00000000000E+00  0.12949404108E+04  0.35431701503E+04  0.32980576173E+04 0.  0.
        1    1    3    3  502    0 -0.11839860227E+04  0.98902229900E+03  0.21677032654E+02  0.15428732624E+04  0.50400001928E-02 0.  1.
       -1    1    3    3    0  502  0.11839860227E+04 -0.98902229900E+03  0.12732633781E+04  0.20002968880E+04  0.50400001928E-02 0. -1.
</event>
<event>
 5   0  0.2703956E-07  0.3301138E+04  0.7818609E-02  0.8162606E-01
        2   -1    0    0  501    0  0.00000000000E+00  0.00000000000E+00  0.20183590411E+04  0.20183590411E+04  0.25500000920E-02 0.  1.
       -2   -1    0    0    0  501  0.00000000000E+00  0.00000000000E+00 -0.13497985508E+04  0.13497985508E+04  0.25500000920E-02 0. -1.
    10030    2    1    2    0    0  0.00000000000E+00  0.00000000000E+00  0.66856049030E+03  0.33681575919E+04  0.33011380514E+04 0.  0.
        5    1    3    3  502    0  0.39845791893E+03  0.15362950151E+04  0.79667511386E+03  0.17758615976E+04  0.46999998093E+01 0.  1.
       -5    1    3    3    0  502 -0.39845791893E+03 -0.15362950151E+04 -0.12811462356E+03  0.15922959943E+04  0.46999998093E+01 0. -1.
</event>
<event>
 5   0  0.8805125E-08  0.3258038E+04  0.7818609E-02  0.8173655E-01
        1   -1    0    0  501    0  0.00000000000E+00  0.00000000000E+00  0.92523219912E+03  0.92523219913E+03  0.50400001928E-02 0. -1.
       -1   -1    0    0    0  501  0.00000000000E+00  0.00000000000E+00 -0.28681484654E+04  0.28681484654E+04  0.50400001928E-02 0.  1.
    10030    2    1    2    0    0  0.00000000000E+00  0.00000000000E+00 -0.19429162662E+04  0.37933806645E+04  0.32580382515E+04 0.  0.
        4    1    3    3  502    0 -0.15037926534E+04  0.35230446098E+03 -0.36849288313E+03  0.15878600050E+04  0.12699999809E+01 0. -1.
       -4    1    3    3    0  502  0.15037926534E+04 -0.35230446098E+03 -0.15744233831E+04  0.22055206596E+04  0.12699999809E+01 0.  1.
</event>
<event>
 5   0  0.9810351E-08  0.3301761E+04  0.7818609E-02  0.8162447E-01
        1   -1    0    0  501    0  0.00000000000E+00  0.00000000000E+00  0.17013209100E+04  0.17013209100E+04  0.50400001928E-02 0. -1.
       -1   -1    0    0    0  501  0.00000000000E+00  0.00000000000E+00 -0.16019356454E+04  0.16019356454E+04  0.50400001928E-02 0.  1.
    10030    2    1    2    0    0  0.00000000000E+00  0.00000000000E+00  0.99385264604E+02  0.33032565553E+04  0.33017611118E+04 0.  0.
        5    1    3    3  502    0  0.86186983347E+03 -0.11370458132E+04  0.88054558243E+03  0.16766261968E+04  0.46999998093E+01 0. -1.
       -5    1    3    3    0  502 -0.86186983347E+03  0.11370458132E+04 -0.78116031783E+03  0.16266303585E+04  0.46999998093E+01 0.  1.
</event>
<event>
 5   0  0.2713815E-07  0.3223399E+04  0.7818609E-02  0.8182665E-01
       -2   -1    0    0    0  501  0.00000000000E+00  0.00000000000E+00  0.11385490341E+04  0.11385490341E+04  0.25500000920E-02 0. -1.
        2   -1    0    0  501    0  0.00000000000E+00  0.00000000000E+00 -0.22814786905E+04  0.22814786905E+04  0.25500000920E-02 0.  1.
    10030    2    1    2    0    0  0.00000000000E+00  0.00000000000E+00 -0.11429296564E+04  0.34200277246E+04  0.32233990503E+04 0.  0.
        4    1    3    3  502    0 -0.12688513695E+04 -0.15428278198E+03  0.47014731346E+03  0.13619203662E+04  0.12699999809E+01 0. -1.
       -4    1    3    3    0  502  0.12688513695E+04  0.15428278198E+03 -0.16130769699E+04  0.20581073583E+04  0.12699999809E+01 0.  1.
</event>
<event>
 5   0  0.8805125E-08  0.3303067E+04  0.7818609E-02  0.8162115E-01
        1   -1    0    0  501    0  0.00000000000E+00  0.00000000000E+00  0.20844366744E+04  0.20844366744E+04  0.50400001928E-02 0. -1.
       -1   -1    0    0    0  501  0.00000000000E+00  0.00000000000E+00 -0.13085373006E+04  0.13085373007E+04  0.50400001928E-02 0.  1.
    10030    2    1    2    0    0  0.00000000000E+00  0.00000000000E+00  0.77589937373E+03  0.33929739750E+04  0.33030671439E+04 0.  0.
        4    1    3    3  502    0 -0.35596345895E+03  0.16121481431E+04  0.43189146758E+03  0.17065355173E+04  0.12699999809E+01 0. -1.
       -4    1    3    3    0  502  0.35596345895E+03 -0.16121481431E+04  0.34400790615E+03  0.16864384577E+04  0.12699999809E+01 0.  1.
</event>
<event>
 5   0  0.9283910E-08  0.3305748E+04  0.7818609E-02  0.8161434E-01
        1   -1    0    0  501    0  0.00000000000E+00  0.00000000000E+00  0.27829408036E+04  0.27829408036E+04  0.50400001928E-02 0. -1.
       -1   -1    0    0    0  501  0.00000000000E+00  0.00000000000E+00 -0.98169262826E+03  0.98169262828E+03  0.50400001928E-02 0.  1.
    10030    2    1    2    0    0  0.00000000000E+00  0.00000000000E+00  0.18012481754E+04  0.37646334319E+04  0.33057480072E+04 0.  0.
        3    1    3    3  502    0 -0.12607697590E+04 -0.74538167495E+02 -0.31364054441E+03  0.13013326726E+04  0.10100000352E+00 0.  1.
       -3    1    3    3    0  502  0.12607697590E+04  0.74538167495E+02  0.21148887198E+04  0.24633007593E+04  0.10100000352E+00 0. -1.
</event>
<event>
 5   0  0.2824402E-07  0.3297833E+04  0.7818609E-02  0.8163447E-01
        2   -1    0    0  501    0  0.00000000000E+00  0.00000000000E+00  0.13799434121E+04  0.13799434121E+04  0.25500000920E-02 0. -1.
       -2   -1    0    0    0  501  0.00000000000E+00  0.00000000000E+00 -0.19703170123E+04  0.19703170123E+04  0.25500000920E-02 0.  1.
    10030    2    1    2    0    0  0.00000000000E+00  0.00000000000E+00 -0.59037360013E+03  0.33502604244E+04  0.32978332165E+04 0.  0.
        1    1    3    3  502    0 -0.14084176861E+03 -0.14967699781E+04  0.39290599512E+03  0.15538764082E+04  0.50400001928E-02 0. -1.
       -1    1    3    3    0  502  0.14084176861E+03  0.14967699781E+04 -0.98327959525E+03  0.17963840162E+04  0.50400001928E-02 0.  1.
</event>
<event>
 5   0  0.9810351E-08  0.3291350E+04  0.7818609E-02  0.8165100E-01
        1   -1    0    0  501    0  0.00000000000E+00  0.00000000000E+00  0.25221347925E+04  0.25221347925E+04  0.50400001928E-02 0. -1.
       -1   -1    0    0    0  501  0.00000000000E+00  0.00000000000E+00 -0.10737913948E+04  0.10737913948E+04  0.50400001928E-02 0.  1.
    10030    2    1    2    0    0  0.00000000000E+00  0.00000000000E+00  0.14483433977E+04  0.35959261872E+04  0.32913502619E+04 0.  0.
        5    1    3    3  502    0 -0.15446380336E+04 -0.11960571069E+02  0.13443013180E+04  0.20477348055E+04  0.46999998093E+01 0. -1.
       -5    1    3    3    0  502  0.15446380336E+04  0.11960571069E+02  0.10404207966E+03  0.15481913817E+04  0.46999998093E+01 0.  1.
</event>
<event>
 5   0  0.2713815E-07  0.3308969E+04  0.7818609E-02  0.8160617E-01
        2   -1    0    0  501    0  0.00000000000E+00  0.00000000000E+00  0.25822154010E+04  0.25822154010E+04  0.25500000920E-02 0.  1.
       -2   -1    0    0    0  501  0.00000000000E+00  0.00000000000E+00 -0.10600661886E+04  0.10600661886E+04  0.25500000920E-02 0. -1.
    10030    2    1    2    0    0  0.00000000000E+00  0.00000000000E+00  0.15221492124E+04  0.36422815896E+04  0.33089691677E+04 0.  0.
        4    1    3    3  502    0 -0.98715374435E+03 -0.74219034743E+03  0.19728771420E+04  0.23275662949E+04  0.12699999809E+01 0.  1.
       -4    1    3    3    0  502  0.98715374435E+03  0.74219034743E+03 -0.45072792954E+03  0.13147152947E+04  0.12699999809E+01 0. -1.
</event>
<event>
 5   0  0.2824402E-07  0.3296138E+04  0.7818609E-02  0.8163879E-01
        2   -1    0    0  501    0  0.00000000000E+00  0.00000000000E+00  0.26882095234E+04  0.26882095234E+04  0.25500000920E-02 0.  1.
       -2   -1    0    0    0  501  0.00000000000E+00  0.00000000000E+00 -0.10103869255E+04  0.10103869255E+04  0.25500000920E-02 0. -1.
    10030    2    1    2    0    0  0.00000000000E+00  0.00000000000E+00  0.16778225978E+04  0.36985964489E+04  0.32961381982E+04 0.  0.
        1    1    3    3  502    0  0.68098089912E+02 -0.28639332225E+03 -0.98064675428E+03  0.10238781869E+04  0.50400001928E-02 0. -1.
       -1    1    3    3    0  502 -0.68098089912E+02  0.28639332225E+03  0.26584693521E+04  0.26747182620E+04  0.50400001928E-02 0.  1.
</event>
<event>
 5   0  0.2875829E-07  0.3303660E+04  0.7818609E-02  0.8161965E-01
        2   -1    0    0  501    0  0.00000000000E+00  0.00000000000E+00  0.14572516523E+04  0.14572516523E+04  0.25500000920E-02 0. -1.
       -2   -1    0    0    0  501  0.00000000000E+00  0.00000000000E+00 -0.18723887411E+04  0.18723887411E+04  0.25500000920E-02 0.  1.
    10030    2    1    2    0    0  0.00000000000E+00  0.00000000000E+00 -0.41513708884E+03  0.33296403934E+04  0.33036595386E+04 0.  0.
        3    1    3    3  502    0 -0.20498318200E+03 -0.28947092622E+03  0.14184167395E+04  0.14620935603E+04  0.10100000352E+00 0. -1.
       -3    1    3    3    0  502  0.20498318200E+03  0.28947092622E+03 -0.18335538283E+04  0.18675468331E+04  0.10100000352E+00 0.  1.
</event>
<event>
 5   0  0.2727168E-07  0.3297929E+04  0.7818609E-02  0.8163423E-01
       -2   -1    0    0    0  501  0.00000000000E+00  0.00000000000E+00  0.14149210168E+04  0.14149210168E+04  0.25500000920E-02 0.  1.
        2   -1    0    0  501    0  0.00000000000E+00  0.00000000000E+00 -0.19217215506E+04  0.19217215506E+04  0.25500000920E-02 0. -1.
    10030    2    1    2    0    0  0.00000000000E+00  0.00000000000E+00 -0.50680053383E+03  0.33366425674E+04  0.32979291747E+04 0.  0.
        2    1    3    3  502    0  0.81275904002E+03 -0.77619669327E+03 -0.14742237478E+04  0.18537513918E+04  0.25500000920E-02 0. -1.
       -2    1    3    3    0  502 -0.81275904002E+03  0.77619669327E+03  0.96742321400E+03  0.14828911756E+04  0.25500000920E-02 0.  1.
</event>
<event>
 5   0  0.2824402E-07  0.3300813E+04  0.7818609E-02  0.8162688E-01
        2   -1    0    0  501    0  0.00000000000E+00  0.00000000000E+00  0.21276640860E+04  0.21276640860E+04  0.25500000920E-02 0. -1.
       -2   -1    0    0    0  501  0.00000000000E+00  0.00000000000E+00 -0.12802031094E+04  0.12802031094E+04  0.25500000920E-02 0.  1.
    10030    2    1    2    0    0  0.00000000000E+00  0.00000000000E+00  0.84746097658E+03  0.34078671954E+04  0.33008133414E+04 0.  0.
        1    1    3    3  502    0 -0.13351674862E+04 -0.81479293171E+03  0.96738485431E+03  0.18391283789E+04  0.50400001928E-02 0. -1.
       -1    1    3    3    0  502  0.13351674862E+04  0.81479293171E+03 -0.11992387773E+03  0.15687388165E+04  0.50400001928E-02 0.  1.
</event>
<event>
 5   0  0.2703956E-07  0.3305030E+04  0.7818609E-02  0.8161617E-01
        2   -1    0    0  501    0  0.00000000000E+00  0.00000000000E+00  0.24470358546E+04  0.24470358546E+04  0.25500000920E-02 0. -1.
       -2   -1    0    0    0  501  0.00000000000E+00  0.00000000000E+00 -0.11159644458E+04  0.11159644458E+04  0.25500000920E-02 0.  1.
    10030    2    1    2    0    0  0.00000000000E+00  0.00000000000E+00  0.13310714088E+04  0.35630003004E+04  0.33050295075E+04 0.  0.
        5    1    3    3  502    0 -0.97247244957E+02  0.64041632861E+03 -0.97338751307E+03  0.11692285667E+04  0.46999998093E+01 0.  1.
       -5    1    3    3    0  502  0.97247244957E+02 -0.64041632861E+03  0.23044589218E+04  0.23937717337E+04  0.46999998093E+01 0. -1.
</event>
<event>
 5   0  0.2727168E-07  0.3292266E+04  0.7818609E-02  0.8164866E-01
       -2   -1    0    0    0  501  0.00000000000E+00  0.00000000000E+00  0.85876906455E+03  0.85876906455E+03  0.25500000920E-02 0.  1.
        2   -1    0    0  501    0  0.00000000000E+00  0.00000000000E+00 -0.31553932790E+04  0.31553932790E+04  0.25500000920E-02 0. -1.
    10030    2    1    2    0    0  0.00000000000E+00  0.00000000000E+00 -0.22966242144E+04  0.40141623435E+04  0.32922661706E+04 0.  0.
        2    1    3    3  502    0 -0.10313261392E+04  0.10155906236E+04 -0.19237292628E+03  0.14601593279E+04  0.25500000920E-02 0.  1.
       -2    1    3    3    0  502  0.10313261392E+04 -0.10155906236E+04 -0.21042512882E+04  0.25540030156E+04  0.25500000920E-02 0. -1.
</event>
<event>
 5   0  0.9283910E-08  0.3298462E+04  0.7818609E-02  0.8163287E-01
       -1   -1    0    0    0  501  0.00000000000E+00  0.00000000000E+00  0.12592105506E+04  0.12592105506E+04  0.50400001928E-02 0.  1.
        1   -1    0    0  501    0  0.00000000000E+00  0.00000000000E+00 -0.21600540361E+04  0.21600540361E+04  0.50400001928E-02 0. -1.
    10030    2    1    2    0    0  0.00000000000E+00  0.00000000000E+00 -0.90084348552E+03  0.34192645867E+04  0.32984619641E+04 0.  0.
        3    1    3    3  502    0 -0.10273638234E+04 -0.10221335855E+04 -0.12664820474E+04  0.19246325048E+04  0.10100000352E+00 0. -1.
       -3    1    3    3    0  502  0.10273638234E+04  0.10221335855E+04  0.36563856186E+03  0.14946320819E+04  0.10100000352E+00 0.  1.
</event>
<event>
 5   0  0.9181760E-08  0.3301434E+04  0.7818609E-02  0.8162531E-01
        1   -1    0    0  501    0  0.00000000000E+00  0.00000000000E+00  0.13820628449E+04  0.13820628449E+04  0.50400001928E-02 0. -1.
       -1   -1    0    0    0  501  0.00000000000E+00  0.00000000000E+00 -0.19715941014E+04  0.19715941014E+04  0.50400001928E-02 0.  1.
    10030    2    1    2    0    0  0.00000000000E+00  0.00000000000E+00 -0.58953125654E+03  0.33536569463E+04  0.33014342052E+04 0.  0.
        1    1    3    3  502    0  0.15979302261E+04  0.29841479524E+03 -0.31098139293E+01  0.16255590018E+04  0.50400001928E-02 0.  1.
       -1    1    3    3    0  502 -0.15979302261E+04 -0.29841479524E+03 -0.58642144261E+03  0.17280979445E+04  0.50400001928E-02 0. -1.
</event>
<event>
 5   0  0.2727168E-07  0.3296296E+04  0.7818609E-02  0.8163839E-01
        2   -1    0    0  501    0  0.00000000000E+00  0.00000000000E+00  0.21843867387E+04  0.21843867387E+04  0.25500000920E-02 0. -1.
       -2   -1    0    0    0  501  0.00000000000E+00  0.00000000000E+00 -0.12435486295E+04  0.12435486295E+04  0.25500000920E-02 0.  1.
    10030    2    1    2    0    0  0.00000000000E+00  0.00000000000E+00  0.94083810922E+03  0.34279353682E+04  0.32962955785E+04 0.  0.
        2    1    3    3  502    0  0.13963423184E+04 -0.38556547770E+03  0.12879160062E+04  0.19383395592E+04  0.25500000920E-02 0. -1.
       -2    1    3    3    0  502 -0.13963423184E+04  0.38556547770E+03 -0.34707789693E+03  0.14895958090E+04  0.25500000920E-02 0.  1.
</event>
<event>
 5   0  0.2703956E-07  0.3304946E+04  0.7818609E-02  0.8161638E-01
        2   -1    0    0  501    0  0.00000000000E+00  0.00000000000E+00  0.23286482087E+04  0.23286482087E+04  0.25500000920E-02 0.  1.
       -2   -1    0    0    0  501  0.00000000000E+00  0.00000000000E+00 -0.11726401055E+04  0.11726401055E+04  0.25500000920E-02 0. -1.
    10030    2    1    2    0    0  0.00000000000E+00  0.00000000000E+00  0.11560081032E+04  0.35012883142E+04  0.33049455555E+04 0.  0.
        5    1    3    3  502    0 -0.82576420148E+03  0.30041297329E+03 -0.90460426003E+03  0.12611365621E+04  0.46999998093E+01 0. -1.
       -5    1    3    3    0  502  0.82576420148E+03 -0.30041297329E+03  0.20606123632E+04  0.22401517521E+04  0.46999998093E+01 0.  1.
</event>
<event>
 5   0  0.2703956E-07  0.3292894E+04  0.7818609E-02  0.8164706E-01
       -2   -1    0    0    0  501  0.00000000000E+00  0.00000000000E+00  0.29156217699E+04  0.29156217699E+04  0.25500000920E-02 0.  1.
        2   -1    0    0  501    0  0.00000000000E+00  0.00000000000E+00 -0.92974576978E+03  0.92974576978E+03  0.25500000920E-02 0. -1.
    10030    2    1    2    0    0  0.00000000000E+00  0.00000000000E+00  0.19858760001E+04  0.38453675397E+04  0.32928935646E+04 0.  0.
        5    1    3    3  502    0  0.12415179935E+04 -0.97136295178E+03  0.15479113612E+04  0.22092905161E+04  0.46999998093E+01 0.  1.
       -5    1    3    3    0  502 -0.12415179935E+04  0.97136295178E+03  0.43796463893E+03  0.16360770236E+04  0.46999998093E+01 0. -1.
</event>
<event>
 5   0  0.8805125E-08  0.3269027E+04  0.7818609E-02  0.8170822E-01
       -1   -1    0    0    0  501  0.00000000000E+00  0.00000000000E+00  0.91642184916E+03  0.91642184917E+03  0.50400001928E-02 0.  1.
        1   -1    0    0  501    0  0.00000000000E+00  0.00000000000E+00 -0.29152882557E+04  0.29152882557E+04  0.50400001928E-02 0. -1.
    10030    2    1    2    0    0  0.00000000000E+00  0.00000000000E+00 -0.19988664066E+04  0.38317101049E+04  0.32690266773E+04 0.  0.
        4    1    3    3  502    0 -0.16339979422E+04  0.14507398971E+02 -0.95445500536E+03  0.18923915319E+04  0.12699999809E+01 0.  1.
       -4    1    3    3    0  502  0.16339979422E+04 -0.14507398971E+02 -0.10444114012E+04  0.19393185730E+04  0.12699999809E+01 0. -1.
</event>
<event>
 5   0  0.8805125E-08  0.3293950E+04  0.7818609E-02  0.8164437E-01
        3   -1    0    0  501    0  0.00000000000E+00  0.00000000000E+00  0.26540258516E+04  0.26540258535E+04  0.10100000352E+00 0.  1.
       -3   -1    0    0    0  501  0.00000000000E+00  0.00000000000E+00 -0.10220422726E+04  0.10220422776E+04  0.10100000352E+00 0. -1.
    10030    2    1    2    0    0  0.00000000000E+00  0.00000000000E+00  0.16319835789E+04  0.36760681311E+04  0.32939499848E+04 0.  0.
        2    1    3    3  502    0  0.36269287709E+03 -0.13990126663E+04  0.16973851271E+04  0.22293269911E+04  0.25500000920E-02 0.  1.
       -2    1    3    3    0  502 -0.36269287709E+03  0.13990126663E+04 -0.65401548167E+02  0.14467411400E+04  0.25500000920E-02 0. -1.
</event>
<event>
 5   0  0.2824402E-07  0.3304251E+04  0.7818609E-02  0.8161815E-01
        2   -1    0    0  501    0  0.00000000000E+00  0.00000000000E+00  0.14816989907E+04  0.14816989907E+04  0.25500000920E-02 0. -1.
       -2   -1    0    0    0  501  0.00000000000E+00  0.00000000000E+00 -0.18421546765E+04  0.18421546765E+04  0.25500000920E-02 0.  1.
    10030    2    1    2    0    0  0.00000000000E+00  0.00000000000E+00 -0.36045568580E+03  0.33238536673E+04  0.33042510347E+04 0.  0.
        1    1    3    3  502    0 -0.10978452461E+04  0.11113199504E+04 -0.72121244650E+03  0.17205939700E+04  0.50400001928E-02 0.  1.
       -1    1    3    3    0  502  0.10978452461E+04 -0.11113199504E+04  0.36075676071E+03  0.16032596973E+04  0.50400001928E-02 0. -1.
</event>
<event>
 5   0  0.2713815E-07  0.3301264E+04  0.7818609E-02  0.8162574E-01
        2   -1    0    0  501    0  0.00000000000E+00  0.00000000000E+00  0.27010891241E+04  0.27010891241E+04  0.25500000920E-02 0. -1.
       -2   -1    0    0    0  501  0.00000000000E+00  0.00000000000E+00 -0.10086987951E+04  0.10086987951E+04  0.25500000920E-02 0.  1.
    10030    2    1    2    0    0  0.00000000000E+00  0.00000000000E+00  0.16923903290E+04  0.37097879192E+04  0.33012636034E+04 0.  0.
        4    1    3    3  502    0 -0.88405189405E+02  0.14298828907E+03  0.26914434269E+04  0.26966887958E+04  0.12699999809E+01 0. -1.
       -4    1    3    3    0  502  0.88405189405E+02 -0.14298828907E+03 -0.99905309791E+03  0.10130991233E+04  0.12699999809E+01 0.  1.
</event>
<event>
 5   0  0.2727168E-07  0.3295711E+04  0.7818609E-02  0.8163987E-01
        2   -1    0    0  501    0  0.00000000000E+00  0.00000000000E+00  0.22043348070E+04  0.22043348070E+04  0.25500000920E-02 0. -1.
       -2   -1    0    0    0  501  0.00000000000E+00  0.00000000000E+00 -0.12318584386E+04  0.12318584386E+04  0.25500000920E-02 0.  1.
    10030    2    1    2    0    0  0.00000000000E+00  0.00000000000E+00  0.97247636843E+03  0.34361932456E+04  0.32957114155E+04 0.  0.
        2    1    3    3  502    0  0.64945702746E+03  0.52711309545E+03  0.19665410945E+04  0.21370368557E+04  0.25500000920E-02 0. -1.
       -2    1    3    3    0  502 -0.64945702746E+03 -0.52711309545E+03 -0.99406472611E+03  0.12991563900E+04  0.25500000920E-02 0.  1.
</event>
<event>
 5   0  0.2727168E-07  0.3338896E+04  0.7818609E-02  0.8153068E-01
       -2   -1    0    0    0  501  0.00000000000E+00  0.00000000000E+00  0.11982527603E+04  0.11982527603E+04  0.25500000920E-02 0.  1.
        2   -1    0    0  501    0  0.00000000000E+00  0.00000000000E+00 -0.23259340630E+04  0.23259340630E+04  0.25500000920E-02 0. -1.
    10030    2    1    2    0    0  0.00000000000E+00  0.00000000000E+00 -0.11276813027E+04  0.35241868233E+04  0.33388961716E+04 0.  0.
        2    1    3    3  502    0 -0.85785154464E+03 -0.14320638354E+04 -0.54435512883E+03  0.17558583678E+04  0.25500000920E-02 0. -1.
       -2    1    3    3    0  502  0.85785154464E+03  0.14320638354E+04 -0.58332617385E+03  0.17683284555E+04  0.25500000920E-02 0.  1.
</event>
<event>
 5   0  0.9454010E-08  0.3300881E+04  0.7818609E-02  0.8162671E-01
       -1   -1    0    0    0  501  0.00000000000E+00  0.00000000000E+00  0.17492898162E+04  0.17492898162E+04  0.50400001928E-02 0. -1.
        1   -1    0    0  501    0  0.00000000000E+00  0.00000000000E+00 -0.15571771013E+04  0.15571771013E+04  0.50400001928E-02 0.  1.
    10030    2    1    2    0    0  0.00000000000E+00  0.00000000000E+00  0.19211271485E+03  0.33064669175E+04  0.33008811219E+04 0.  0.
        2    1    3    3  502    0  0.36584899591E+03  0.31308782805E+03  0.16773615095E+04  0.17451106296E+04  0.25500000920E-02 0. -1.
       -2    1    3    3    0  502 -0.36584899591E+03 -0.31308782805E+03 -0.14852487946E+04  0.15613562879E+04  0.25500000920E-02 0.  1.
</event>
<event>
 5   0  0.9283910E-08  0.3292963E+04  0.7818609E-02  0.8164688E-01
       -1   -1    0    0    0  501  0.00000000000E+00  0.00000000000E+00  0.20105744434E+04  0.20105744434E+04  0.50400001928E-02 0.  1.
        1   -1    0    0  501    0  0.00000000000E+00  0.00000000000E+00 -0.13483219366E+04  0.13483219366E+04  0.50400001928E-02 0. -1.
    10030    2    1    2    0    0  0.00000000000E+00  0.00000000000E+00  0.66225250673E+03  0.33588963800E+04  0.32929631806E+04 0.  0.
        3    1    3    3  502    0 -0.45941547767E+03  0.14701831819E+04  0.92449572139E+03  0.17964391219E+04  0.10100000352E+00 0. -1.
       -3    1    3    3    0  502  0.45941547767E+03 -0.14701831819E+04 -0.26224321467E+03  0.15624572581E+04  0.10100000352E+00 0.  1.
</event>
<event>
 5   0  0.2703956E-07  0.3294048E+04  0.7818609E-02  0.8164411E-01
       -2   -1    0    0    0  501  0.00000000000E+00  0.00000000000E+00  0.17163066464E+04  0.17163066464E+04  0.25500000920E-02 0. -1.
        2   -1    0    0  501    0  0.00000000000E+00  0.00000000000E+00 -0.15805384044E+04  0.15805384044E+04  0.25500000920E-02 0.  1.
    10030    2    1    2    0    0  0.00000000000E+00  0.00000000000E+00  0.13576824196E+03  0.32968450508E+04  0.32940483107E+04 0.  0.
        5    1    3    3  502    0  0.15498820423E+04 -0.51604683067E+03 -0.14259850339E+03  0.16397545852E+04  0.46999998093E+01 0.  1.
       -5    1    3    3    0  502 -0.15498820423E+04  0.51604683067E+03  0.27836674536E+03  0.16570904656E+04  0.46999998093E+01 0. -1.
</event>
<event>
 5   0  0.2824402E-07  0.3300596E+04  0.7818609E-02  0.8162744E-01
       -2   -1    0    0    0  501  0.00000000000E+00  0.00000000000E+00  0.10866520116E+04  0.10866520116E+04  0.25500000920E-02 0. -1.
        2   -1    0    0  501    0  0.00000000000E+00  0.00000000000E+00 -0.25063067513E+04  0.25063067513E+04  0.25500000920E-02 0.  1.
    10030    2    1    2    0    0  0.00000000000E+00  0.00000000000E+00 -0.14196547397E+04  0.35929587629E+04  0.33005958692E+04 0.  0.
        1    1    3    3  502    0  0.13781769366E+04  0.90648597987E+03 -0.65655622426E+03  0.17754308141E+04  0.50400001928E-02 0.  1.
       -1    1    3    3    0  502 -0.13781769366E+04 -0.90648597987E+03 -0.76309851548E+03  0.18175279488E+04  0.50400001928E-02 0. -1.
</event>
<event>
 5   0  0.8805125E-08  0.3295876E+04  0.7818609E-02  0.8163946E-01
        1   -1    0    0  501    0  0.00000000000E+00  0.00000000000E+00  0.18818612485E+04  0.18818612485E+04  0.50400001928E-02 0.  1.
       -1   -1    0    0    0  501  0.00000000000E+00  0.00000000000E+00 -0.14430924075E+04  0.14430924075E+04  0.50400001928E-02 0. -1.
    10030    2    1    2    0    0  0.00000000000E+00  0.00000000000E+00  0.43876884100E+03  0.33249536561E+04  0.32958760170E+04 0.  0.
        4    1    3    3  502    0 -0.15231657508E+04  0.16387318067E+03 -0.39327049587E+03  0.15816294192E+04  0.12699999809E+01 0. -1.
       -4    1    3    3    0  502  0.15231657508E+04 -0.16387318067E+03  0.83203933687E+03  0.17433242369E+04  0.12699999809E+01 0.  1.
</event>
<event>
 5   0  0.9283910E-08  0.3305631E+04  0.7818609E-02  0.8161464E-01
        1   -1    0    0  501    0  0.00000000000E+00  0.00000000000E+00  0.25164564987E+04  0.25164564987E+04  0.50400001928E-02 0.  1.
       -1   -1    0    0    0  501  0.00000000000E+00  0.00000000000E+00 -0.10855738086E+04  0.10855738086E+04  0.50400001928E-02 0. -1.
    10030    2    1    2    0    0  0.00000000000E+00  0.00000000000E+00  0.14308826901E+04  0.36020303073E+04  0.33056311140E+04 0.  0.
        3    1    3    3  502    0  0.10640333891E+04 -0.65175456489E+03 -0.46565098969E+03  0.13318340439E+04  0.10100000352E+00 0. -1.
       -3    1    3    3    0  502 -0.10640333891E+04  0.65175456489E+03  0.18965336798E+04  0.22701962635E+04  0.10100000352E+00 0.  1.
</event>
<event>
 5   0  0.2703956E-07  0.3304979E+04  0.7818609E-02  0.8161630E-01
       -2   -1    0    0    0  501  0.00000000000E+00  0.00000000000E+00  0.18291500801E+04  0.18291500801E+04  0.25500000920E-02 0. -1.
        2   -1    0    0  501    0  0.00000000000E+00  0.00000000000E+00 -0.14928906657E+04  0.14928906657E+04  0.25500000920E-02 0.  1.
    10030    2    1    2    0    0  0.00000000000E+00  0.00000000000E+00  0.33625941439E+03  0.33220407459E+04  0.33049787175E+04 0.  0.
        5    1    3    3  502    0  0.12824542883E+04  0.87421734712E+03 -0.40203230449E+03  0.16033081536E+04  0.46999998093E+01 0.  1.
       -5    1    3    3    0  502 -0.12824542883E+04 -0.87421734712E+03  0.73829171888E+03  0.17187325923E+04  0.46999998093E+01 0. -1.
</event>
<event>
 5   0  0.8805125E-08  0.3298864E+04  0.7818609E-02  0.8163185E-01
        4   -1    0    0  501    0  0.00000000000E+00  0.00000000000E+00  0.14776524906E+04  0.14776530364E+04  0.12699999809E+01 0. -1.
       -4   -1    0    0    0  501  0.00000000000E+00  0.00000000000E+00 -0.18411800476E+04  0.18411804857E+04  0.12699999809E+01 0.  1.
    10030    2    1    2    0    0  0.00000000000E+00  0.00000000000E+00 -0.36352755701E+03  0.33188335220E+04  0.32988639957E+04 0.  0.
        5    1    3    3  502    0  0.12988875141E+04 -0.28731301358E+03  0.79930408474E+03  0.15519557506E+04  0.46999998093E+01 0. -1.
       -5    1    3    3    0  502 -0.12988875141E+04  0.28731301358E+03 -0.11628316417E+04  0.17668777714E+04  0.46999998093E+01 0.  1.
</event>
<event>
 5   0  0.2727168E-07  0.3295062E+04  0.7818609E-02  0.8164153E-01
        2   -1    0    0  501    0  0.00000000000E+00  0.00000000000E+00  0.10800475690E+04  0.10800475690E+04  0.25500000920E-02 0.  1.
       -2   -1    0    0    0  501  0.00000000000E+00  0.00000000000E+00 -0.25131834195E+04  0.25131834195E+04  0.25500000920E-02 0. -1.
    10030    2    1    2    0    0  0.00000000000E+00  0.00000000000E+00 -0.14331358505E+04  0.35932309884E+04  0.32950615427E+04 0.  0.
        2    1    3    3  502    0 -0.13956196731E+04 -0.15784819064E+03  0.22257573905E+03  0.14220444025E+04  0.25500000920E-02 0.  1.
       -2    1    3    3    0  502  0.13956196731E+04  0.15784819064E+03 -0.16557115896E+04  0.21711865859E+04  0.25500000920E-02 0. -1.
</event>
<event>
 5   0  0.2713815E-07  0.3301952E+04  0.7818609E-02  0.8162399E-01
        2   -1    0    0  501    0  0.00000000000E+00  0.00000000000E+00  0.14737566686E+04  0.14737566686E+04  0.25500000920E-02 0. -1.
       -2   -1    0    0    0  501  0.00000000000E+00  0.00000000000E+00 -0.18495059857E+04  0.18495059857E+04  0.25500000920E-02 0.  1.
    10030    2    1    2    0    0  0.00000000000E+00  0.00000000000E+00 -0.37574931709E+03  0.33232626543E+04  0.33019520167E+04 0.  0.
        4    1    3    3  502    0 -0.14245967181E+04 -0.37894627548E+03 -0.93607287676E+03  0.17462274000E+04  0.12699999809E+01 0.  1.
       -4    1    3    3    0  502  0.14245967181E+04  0.37894627548E+03  0.56032355967E+03  0.15770352543E+04  0.12699999809E+01 0. -1.
</event>
<event>
 5   0  0.9181760E-08  0.3376391E+04  0.7818609E-02  0.8143725E-01
        1   -1    0    0  501    0  0.00000000000E+00  0.00000000000E+00  0.16301080502E+04  0.16301080502E+04  0.50400001928E-02 0.  1.
       -1   -1    0    0    0  501  0.00000000000E+00  0.00000000000E+00 -0.17483525346E+04  0.17483525346E+04  0.50400001928E-02 0. -1.
    10030    2    1    2    0    0  0.00000000000E+00  0.00000000000E+00 -0.11824448443E+03  0.33784605848E+04  0.33763907009E+04 0.  0.
        1    1    3    3  502    0 -0.80725332708E+03  0.11280920611E+04 -0.10218731533E+04  0.17229261081E+04  0.50400001928E-02 0. -1.
       -1    1    3    3    0  502  0.80725332708E+03 -0.11280920611E+04  0.90362866887E+03  0.16555344767E+04  0.50400001928E-02 0.  1.
</event>
<event>
 5   0  0.9181760E-08  0.3300561E+04  0.7818609E-02  0.8162753E-01
       -1   -1    0    0    0  501  0.00000000000E+00  0.00000000000E+00  0.19241705720E+04  0.19241705720E+04  0.50400001928E-02 0.  1.
        1   -1    0    0  501    0  0.00000000000E+00  0.00000000000E+00 -0.14153765713E+04  0.14153765713E+04  0.50400001928E-02 0. -1.
    10030    2    1    2    0    0  0.00000000000E+00  0.00000000000E+00  0.50879400064E+03  0.33395471433E+04  0.33005611322E+04 0.  0.
        1    1    3    3  502    0  0.14719792874E+04 -0.59387835446E+03  0.71140840862E+03  0.17394011747E+04  0.50400001928E-02 0. -1.
       -1    1    3    3    0  502 -0.14719792874E+04  0.59387835446E+03 -0.20261440798E+03  0.16001459686E+04  0.50400001928E-02 0.  1.
</event>
<event>
 5   0  0.9810351E-08  0.3294306E+04  0.7818609E-02  0.8164346E-01
        1   -1    0    0  501    0  0.00000000000E+00  0.00000000000E+00  0.24751541808E+04  0.24751541808E+04  0.50400001928E-02 0. -1.
       -1   -1    0    0    0  501  0.00000000000E+00  0.00000000000E+00 -0.10961388365E+04  0.10961388365E+04  0.50400001928E-02 0.  1.
    10030    2    1    2    0    0  0.00000000000E+00  0.00000000000E+00  0.13790153444E+04  0.35712930173E+04  0.32943057684E+04 0.  0.
        5    1    3    3  502    0 -0.25173573563E+02  0.22514759201E+03 -0.10791609233E+04  0.11026946701E+04  0.46999998093E+01 0.  1.
       -5    1    3    3    0  502  0.25173573563E+02 -0.22514759201E+03  0.24581762677E+04  0.24685983472E+04  0.46999998093E+01 0. -1.
</event>
<event>
 5   0  0.2824402E-07  0.3296046E+04  0.7818609E-02  0.8163902E-01
       -2   -1    0    0    0  501  0.00000000000E+00  0.00000000000E+00  0.17110428668E+04  0.17110428668E+04  0.25500000920E-02 0. -1.
        2   -1    0    0  501    0  0.00000000000E+00  0.00000000000E+00 -0.15873238979E+04  0.15873238979E+04  0.25500000920E-02 0.  1.
    10030    2    1    2    0    0  0.00000000000E+00  0.00000000000E+00  0.12371896893E+03  0.32983667647E+04  0.32960456507E+04 0.  0.
        1    1    3    3  502    0 -0.27828913292E+03  0.13194017575E+04  0.10100040934E+04  0.16847474909E+04  0.50400001928E-02 0. -1.
       -1    1    3    3    0  502  0.27828913292E+03 -0.13194017575E+04 -0.88628512452E+03  0.16136192739E+04  0.50400001928E-02 0.  1.
</event>
<event>
 5   0  0.2713815E-07  0.3317756E+04  0.7818609E-02  0.8158392E-01
        2   -1    0    0  501    0  0.00000000000E+00  0.00000000000E+00  0.35790113793E+04  0.35790113793E+04  0.25500000920E-02 0. -1.
       -2   -1    0    0    0  501  0.00000000000E+00  0.00000000000E+00 -0.76889287829E+03  0.76889287830E+03  0.25500000920E-02 0.  1.
    10030    2    1    2    0    0  0.00000000000E+00  0.00000000000E+00  0.28101185010E+04  0.43479042576E+04  0.33177560856E+04 0.  0.
        4    1    3    3  502    0  0.89907965063E+03 -0.92927522543E+03  0.27669522554E+04  0.30541648710E+04  0.12699999809E+01 0. -1.
       -4    1    3    3    0  502 -0.89907965063E+03  0.92927522543E+03  0.43166245631E+02  0.12937393866E+04  0.12699999809E+01 0.  1.
</event>
<event>
 5   0  0.8805125E-08  0.3256964E+04  0.7818609E-02  0.8173933E-01
        1   -1    0    0  501    0  0.00000000000E+00  0.00000000000E+00  0.18215165862E+04  0.18215165862E+04  0.50400001928E-02 0.  1.
       -1   -1    0    0    0  501  0.00000000000E+00  0.00000000000E+00 -0.14559041154E+04  0.14559041154E+04  0.50400001928E-02 0. -1.
    10030    2    1    2    0    0  0.00000000000E+00  0.00000000000E+00  0.36561247086E+03  0.32774207016E+04  0.32569639201E+04 0.  0.
        4    1    3    3  502    0 -0.82747664490E+03 -0.13237825020E+04 -0.28360706339E+03  0.15866796431E+04  0.12699999809E+01 0.  1.
       -4    1    3    3    0  502  0.82747664490E+03  0.13237825020E+04  0.64921953425E+03  0.16907410585E+04  0.12699999809E+01 0. -1.
</event>
<event>
 5   0  0.9810351E-08  0.3288659E+04  0.7818609E-02  0.8165787E-01
        1   -1    0    0  501    0  0.00000000000E+00  0.00000000000E+00  0.24658090161E+04  0.24658090161E+04  0.50400001928E-02 0.  1.
       -1   -1    0    0    0  501  0.00000000000E+00  0.00000000000E+00 -0.10965241144E+04  0.10965241144E+04  0.50400001928E-02 0. -1.
    10030    2    1    2    0    0  0.00000000000E+00  0.00000000000E+00  0.13692849017E+04  0.35623331305E+04  0.32886587222E+04 0.  0.
        5    1    3    3  502    0  0.15807346291E+04  0.20851213718E+03  0.11200874242E+04  0.19485423288E+04  0.46999998093E+01 0. -1.
       -5    1    3    3    0  502 -0.15807346291E+04 -0.20851213718E+03  0.24919747745E+03  0.16137908018E+04  0.46999998093E+01 0.  1.
</event>
<event>
 5   0  0.2824402E-07  0.3293775E+04  0.7818609E-02  0.8164481E-01
        2   -1    0    0  501    0  0.00000000000E+00  0.00000000000E+00  0.18030311831E+04  0.18030311831E+04  0.25500000920E-02 0.  1.
       -2   -1    0    0    0  501  0.00000000000E+00  0.00000000000E+00 -0.15042661438E+04  0.15042661438E+04  0.25500000920E-02 0. -1.
    10030    2    1    2    0    0  0.00000000000E+00  0.00000000000E+00  0.29876503932E+03  0.33072973269E+04  0.32937751987E+04 0.  0.
        1    1    3    3  502    0 -0.13060967716E+04 -0.42977017732E+03  0.10595515956E+04  0.17358688792E+04  0.50400001928E-02 0.  1.
       -1    1    3    3    0  502  0.13060967716E+04  0.42977017732E+03 -0.76078655624E+03  0.15714284477E+04  0.50400001928E-02 0. -1.
</event>
<event>
 5   0  0.9283910E-08  0.3304293E+04  0.7818609E-02  0.8161804E-01
       -1   -1    0    0    0  501  0.00000000000E+00  0.00000000000E+00  0.19450073192E+04  0.19450073193E+04  0.50400001928E-02 0. -1.
        1   -1    0    0  501    0  0.00000000000E+00  0.00000000000E+00 -0.14033821497E+04  0.14033821497E+04  0.50400001928E-02 0.  1.
    10030    2    1    2    0    0  0.00000000000E+00  0.00000000000E+00  0.54162516955E+03  0.33483894690E+04  0.33042932999E+04 0.  0.
        3    1    3    3  502    0  0.67262959226E+03  0.19905861392E+03  0.17866134986E+04  0.19193860226E+04  0.10100000352E+00 0. -1.
       -3    1    3    3    0  502 -0.67262959226E+03 -0.19905861392E+03 -0.12449883290E+04  0.14290034464E+04  0.10100000352E+00 0.  1.
</event>
<event>
 5   0  0.2727168E-07  0.3300212E+04  0.7818609E-02  0.8162841E-01
        2   -1    0    0  501    0  0.00000000000E+00  0.00000000000E+00  0.24774013906E+04  0.24774013906E+04  0.25500000920E-02 0.  1.
       -2   -1    0    0    0  501  0.00000000000E+00  0.00000000000E+00 -0.10990748175E+04  0.10990748175E+04  0.25500000920E-02 0. -1.
    10030    2    1    2    0    0  0.00000000000E+00  0.00000000000E+00  0.13783265731E+04  0.35764762082E+04  0.33002118001E+04 0.  0.
        2    1    3    3  502    0 -0.21794453800E+03 -0.15574204381E+04  0.12307925597E+04  0.19969748540E+04  0.25500000920E-02 0.  1.
       -2    1    3    3    0  502  0.21794453800E+03  0.15574204381E+04  0.14753401338E+03  0.15795013541E+04  0.25500000920E-02 0. -1.
</event>
<event>
 5   0  0.2727168E-07  0.3297372E+04  0.7818609E-02  0.8163565E-01
        2   -1    0    0  501    0  0.00000000000E+00  0.00000000000E+00  0.19713487993E+04  0.19713487993E+04  0.25500000920E-02 0. -1.
       -2   -1    0    0    0  501  0.00000000000E+00  0.00000000000E+00 -0.13788350083E+04  0.13788350083E+04  0.25500000920E-02 0.  1.
    10030    2    1    2    0    0  0.00000000000E+00  0.00000000000E+00  0.59251379095E+03  0.33501838076E+04  0.32973715217E+04 0.  0.
        2    1    3    3  502    0 -0.66551594255E+03  0.65565825834E+03 -0.10839428816E+04  0.14309896548E+04  0.25500000920E-02 0.  1.
       -2    1    3    3    0  502  0.66551594255E+03 -0.65565825834E+03  0.16764566725E+04  0.19191941529E+04  0.25500000920E-02 0. -1.
</event>
<event>
 5   0  0.2713815E-07  0.3297087E+04  0.7818609E-02  0.8163637E-01
       -2   -1    0    0    0  501  0.00000000000E+00  0.00000000000E+00  0.14263190116E+04  0.14263190116E+04  0.25500000920E-02 0. -1.
        2   -1    0    0  501    0  0.00000000000E+00  0.00000000000E+00 -0.19053910487E+04  0.19053910487E+04  0.25500000920E-02 0.  1.
    10030    2    1    2    0    0  0.00000000000E+00  0.00000000000E+00 -0.47907203709E+03  0.33317100602E+04  0.32970868822E+04 0.  0.
        4    1    3    3  502    0 -0.12701398713E+04 -0.58732981759E+03  0.64109833827E+03  0.15392271761E+04  0.12699999809E+01 0.  1.
       -4    1    3    3    0  502  0.12701398713E+04  0.58732981759E+03 -0.11201703754E+04  0.17924828842E+04  0.12699999809E+01 0. -1.
</event>
<event>
 5   0  0.2703956E-07  0.3293340E+04  0.7818609E-02  0.8164592E-01
        2   -1    0    0  501    0  0.00000000000E+00  0.00000000000E+00  0.16125133884E+04  0.16125133884E+04  0.25500000920E-02 0. -1.
       -2   -1    0    0    0  501  0.00000000000E+00  0.00000000000E+00 -0.16815504955E+04  0.16815504955E+04  0.25500000920E-02 0.  1.
    10030    2    1    2    0    0  0.00000000000E+00  0.00000000000E+00 -0.69037107092E+02  0.32940638838E+04  0.32933403633E+04 0.  0.
        5    1    3    3  502    0  0.17418288538E+03  0.34969654981E+03  0.15654807258E+04  0.16134991006E+04  0.46999998093E+01 0. -1.
       -5    1    3    3    0  502 -0.17418288538E+03 -0.34969654981E+03 -0.16345178329E+04  0.16805647833E+04  0.46999998093E+01 0.  1.
</event>
<event>
 5   0  0.2824402E-07  0.3306115E+04  0.7818609E-02  0.8161341E-01
       -2   -1    0    0    0  501  0.00000000000E+00  0.00000000000E+00  0.87365999940E+03  0.87365999940E+03  0.25500000920E-02 0. -1.
        2   -1    0    0  501    0  0.00000000000E+00  0.00000000000E+00 -0.31277605373E+04  0.31277605373E+04  0.25500000920E-02 0.  1.
    10030    2    1    2    0    0  0.00000000000E+00  0.00000000000E+00 -0.22541005379E+04  0.40014205367E+04  0.33061151034E+04 0.  0.
        1    1    3    3  502    0  0.32226523880E+03  0.14366848631E+04 -0.21756051553E+03  0.14883718816E+04  0.50400001928E-02 0. -1.
       -1    1    3    3    0  502 -0.32226523880E+03 -0.14366848631E+04 -0.20365400224E+04  0.25130486551E+04  0.50400001928E-02 0.  1.
</event>
<event>
 5   0  0.2703956E-07  0.3334306E+04  0.7818609E-02  0.8154221E-01
        2   -1    0    0  501    0  0.00000000000E+00  0.00000000000E+00  0.22320934549E+04  0.22320934549E+04  0.25500000920E-02 0. -1.
       -2   -1    0    0    0  501  0.00000000000E+00  0.00000000000E+00 -0.12451982954E+04  0.12451982954E+04  0.25500000920E-02 0.  1.
    10030    2    1    2    0    0  0.00000000000E+00  0.00000000000E+00  0.98689515949E+03  0.34772917502E+04  0.33343059038E+04 0.  0.
        5    1    3    3  502    0  0.15669021215E+03 -0.64490746688E+03  0.20883837896E+04  0.21913070086E+04  0.46999998093E+01 0. -1.
       -5    1    3    3    0  502 -0.15669021215E+03  0.64490746688E+03 -0.11014886301E+04  0.12859847416E+04  0.46999998093E+01 0.  1.
</event>
<event>
 5   0  0.8805125E-08  0.3304396E+04  0.7818609E-02  0.8161778E-01
       -1   -1    0    0    0  501  0.00000000000E+00  0.00000000000E+00  0.17750582314E+04  0.17750582314E+04  0.50400001928E-02 0.  1.
        1   -1    0    0  501    0  0.00000000000E+00  0.00000000000E+00 -0.15378415910E+04  0.15378415910E+04  0.50400001928E-02 0. -1.
    10030    2    1    2    0    0  0.00000000000E+00  0.00000000000E+00  0.23721664038E+03  0.33128998224E+04  0.33043960868E+04 0.  0.
        4    1    3    3  502    0 -0.17213710529E+03  0.10401313842E+04  0.13939874869E+04  0.17477720692E+04  0.12699999809E+01 0.  1.
       -4    1    3    3    0  502  0.17213710529E+03 -0.10401313842E+04 -0.11567708465E+04  0.15651277532E+04  0.12699999809E+01 0. -1.
</event>
<event>
 5   0  0.9810351E-08  0.3299262E+04  0.7818609E-02  0.8163083E-01
       -1   -1    0    0    0  501  0.00000000000E+00  0.00000000000E+00  0.15431062337E+04  0.15431062337E+04  0.50400001928E-02 0. -1.
        1   -1    0    0  501    0  0.00000000000E+00  0.00000000000E+00 -0.17635095902E+04  0.17635095902E+04  0.50400001928E-02 0.  1.
    10030    2    1    2    0    0  0.00000000000E+00  0.00000000000E+00 -0.22040335654E+03  0.33066158239E+04  0.32992621247E+04 0.  0.
        5    1    3    3  502    0 -0.77960808898E+03 -0.20736156579E+03  0.13319193181E+04  0.15571829537E+04  0.46999998093E+01 0. -1.
       -5    1    3    3    0  502  0.77960808898E+03  0.20736156579E+03 -0.15523226746E+04  0.17494328702E+04  0.46999998093E+01 0.  1.
</event>
<event>
 5   0  0.2713815E-07  0.3293897E+04  0.7818609E-02  0.8164450E-01
       -2   -1    0    0    0  501  0.00000000000E+00  0.00000000000E+00  0.25590271304E+04  0.25590271304E+04  0.25500000920E-02 0. -1.
        2   -1    0    0  501    0  0.00000000000E+00  0.00000000000E+00 -0.10599496232E+04  0.10599496232E+04  0.25500000920E-02 0.  1.
    10030    2    1    2    0    0  0.00000000000E+00  0.00000000000E+00  0.14990775072E+04  0.36189767536E+04  0.32938972921E+04 0.  0.
        4    1    3    3  502    0 -0.13940739991E+04  0.67178382555E+03  0.13688172394E+04  0.20660101817E+04  0.12699999809E+01 0. -1.
       -4    1    3    3    0  502  0.13940739991E+04 -0.67178382555E+03  0.13026026772E+03  0.15529665719E+04  0.12699999809E+01 0.  1.
</event>
<event>
 5   0  0.2727168E-07  0.3300764E+04  0.7818609E-02  0.8162701E-01
        2   -1    0    0  501    0  0.00000000000E+00  0.00000000000E+00  0.19081174218E+04  0.19081174218E+04  0.25500000920E-02 0.  1.
       -2   -1    0    0    0  501  0.00000000000E+00  0.00000000000E+00 -0.14274596990E+04  0.14274596990E+04  0.25500000920E-02 0. -1.
    10030    2    1    2    0    0  0.00000000000E+00  0.00000000000E+00  0.48065772276E+03  0.33355771208E+04  0.33007639846E+04 0.  0.
        2    1    3    3  502    0 -0.71060843186E+03  0.13271353386E+04 -0.44319855894E+03  0.15692920420E+04  0.25500000920E-02 0.  1.
       -2    1    3    3    0  502  0.71060843186E+03 -0.13271353386E+04  0.92385628169E+03  0.17662850788E+04  0.25500000920E-02 0. -1.
</event>
<event>
 5   0  0.9810351E-08  0.3297829E+04  0.7818609E-02  0.8163448E-01
        1   -1    0    0  501    0  0.00000000000E+00  0.00000000000E+00  0.20081829625E+04  0.20081829625E+04  0.50400001928E-02 0.  1.
       -1   -1    0    0    0  501  0.00000000000E+00  0.00000000000E+00 -0.13539200214E+04  0.13539200215E+04  0.50400001928E-02 0. -1.
    10030    2    1    2    0    0  0.00000000000E+00  0.00000000000E+00  0.65426294103E+03  0.33621029839E+04  0.32978290554E+04 0.  0.
        5    1    3    3  502    0 -0.13474273569E+04 -0.37476134134E+03  0.12175905594E+04  0.18543342216E+04  0.46999998093E+01 0.  1.
       -5    1    3    3    0  502  0.13474273569E+04  0.37476134134E+03 -0.56332761836E+03  0.15077687623E+04  0.46999998093E+01 0. -1.
</event>
<event>
 5   0  0.8805125E-08  0.3305829E+04  0.7818609E-02  0.8161414E-01
        1   -1    0    0  501    0  0.00000000000E+00  0.00000000000E+00  0.15557271200E+04  0.15557271200E+04  0.50400001928E-02 0.  1.
       -1   -1    0    0    0  501  0.00000000000E+00  0.00000000000E+00 -0.17561730145E+04  0.17561730145E+04  0.50400001928E-02 0. -1.
    10030    2    1    2    0    0  0.00000000000E+00  0.00000000000E+00 -0.20044589453E+03  0.33119001346E+04  0.33058287833E+04 0.  0.
        4    1    3    3  502    0 -0.29745468391E+03 -0.16199065154E+04  0.39847868677E+02  0.16474725713E+04  0.12699999809E+01 0. -1.
       -4    1    3    3    0  502  0.29745468391E+03  0.16199065154E+04 -0.24029376321E+03  0.16644275632E+04  0.12699999809E+01 0.  1.
</event>
<event>
 5   0  0.2703956E-07  0.3296266E+04  0.7818609E-02  0.8163846E-01
        2   -1    0    0  501    0  0.00000000000E+00  0.00000000000E+00  0.22650988079E+04  0.22650988079E+04  0.25500000920E-02 0.  1.
       -2   -1    0    0    0  501  0.00000000000E+00  0.00000000000E+00 -0.11992155408E+04  0.11992155408E+04  0.25500000920E-02 0. -1.
    10030    2    1    2    0    0  0.00000000000E+00  0.00000000000E+00  0.10658832671E+04  0.34643143488E+04  0.32962655791E+04 0.  0.
        5    1    3    3  502    0  0.13268275366E+04  0.52509830213E+03  0.13996797392E+04  0.19988309086E+04  0.46999998093E+01 0.  1.
       -5    1    3    3    0  502 -0.13268275366E+04 -0.52509830213E+03 -0.33379647210E+03  0.14654834402E+04  0.46999998093E+01 0. -1.
</event>
<event>
 5   0  0.9454010E-08  0.3296155E+04  0.7818609E-02  0.8163874E-01
       -1   -1    0    0    0  501  0.00000000000E+00  0.00000000000E+00  0.17406855630E+04  0.17406855631E+04  0.50400001928E-02 0.  1.
        1   -1    0    0  501    0  0.00000000000E+00  0.00000000000E+00 -0.15603965601E+04  0.15603965601E+04  0.50400001928E-02 0. -1.
    10030    2    1    2    0    0  0.00000000000E+00  0.00000000000E+00  0.18028900297E+03  0.33010821231E+04  0.32961551934E+04 0.  0.
        2    1    3    3  502    0 -0.15710110703E+04  0.21007774543E+03  0.54242924692E+03  0.16752426481E+04  0.25500000920E-02 0.  1.
       -2    1    3    3    0  502  0.15710110703E+04 -0.21007774543E+03 -0.36214024395E+03  0.16258394750E+04  0.25500000920E-02 0. -1.
</event>
<event>
 5   0  0.9283910E-08  0.3303998E+04  0.7818609E-02  0.8161879E-01
        1   -1    0    0  501    0  0.00000000000E+00  0.00000000000E+00  0.19902460402E+04  0.19902460402E+04  0.50400001928E-02 0. -1.
       -1   -1    0    0    0  501  0.00000000000E+00  0.00000000000E+00 -0.13712378846E+04  0.13712378846E+04  0.50400001928E-02 0.  1.
    10030    2    1    2    0    0  0.00000000000E+00  0.00000000000E+00  0.61900815561E+03  0.33614839248E+04  0.33039980448E+04 0.  0.
        3    1    3    3  502    0 -0.50897281809E+03 -0.65741725646E+03 -0.11428662310E+04  0.14132919058E+04  0.10100000352E+00 0.  1.
       -3    1    3    3    0  502  0.50897281809E+03  0.65741725646E+03  0.17618743866E+04  0.19481920191E+04  0.10100000352E+00 0. -1.
</event>
<event>
 5   0  0.9181760E-08  0.3299993E+04  0.7818609E-02  0.8162897E-01
        1   -1    0    0  501    0  0.00000000000E+00  0.00000000000E+00  0.20629444418E+04  0.20629444418E+04  0.50400001928E-02 0. -1.
       -1   -1    0    0    0  501  0.00000000000E+00  0.00000000000E+00 -0.13197098378E+04  0.13197098378E+04  0.50400001928E-02 0.  1.
    10030    2    1    2    0    0  0.00000000000E+00  0.00000000000E+00  0.74323460399E+03  0.33826542796E+04  0.32999927725E+04 0.  0.
        1    1    3    3  502    0  0.25799297510E+02 -0.94316608008E+03 -0.10158993397E+04  0.13864628833E+04  0.50400001928E-02 0.  1.
       -1    1    3    3    0  502 -0.25799297510E+02  0.94316608008E+03  0.17591339437E+04  0.19961913962E+04  0.50400001928E-02 0. -1.
</event>
<event>
 5   0  0.2824402E-07  0.3298113E+04  0.7818609E-02  0.8163376E-01
       -2   -1    0    0    0  501  0.00000000000E+00  0.00000000000E+00  0.25088119213E+04  0.25088119213E+04  0.25500000920E-02 0. -1.
        2   -1    0    0  501    0  0.00000000000E+00  0.00000000000E+00 -0.10839345868E+04  0.10839345868E+04  0.25500000920E-02 0.  1.
    10030    2    1    2    0    0  0.00000000000E+00  0.00000000000E+00  0.14248773345E+04  0.35927465082E+04  0.32981134082E+04 0.  0.
        1    1    3    3  502    0  0.44437353042E+03 -0.15592135355E+04  0.10406398361E+04  0.19265372959E+04  0.50400001928E-02 0. -1.
       -1    1    3    3    0  502 -0.44437353042E+03  0.15592135355E+04  0.38423749837E+03  0.16662092123E+04  0.50400001928E-02 0.  1.
</event>
<event>
 5   0  0.2875829E-07  0.3358583E+04  0.7818609E-02  0.8148147E-01
       -2   -1    0    0    0  501  0.00000000000E+00  0.00000000000E+00  0.18840339247E+04  0.18840339247E+04  0.25500000920E-02 0.  1.
        2   -1    0    0  501    0  0.00000000000E+00  0.00000000000E+00 -0.14967988470E+04  0.14967988470E+04  0.25500000920E-02 0. -1.
    10030    2    1    2    0    0  0.00000000000E+00  0.00000000000E+00  0.38723507770E+03  0.33808327717E+04  0.33585829191E+04 0.  0.
        3    1    3    3  502    0  0.72887753831E+02 -0.72697544231E+02 -0.14936195849E+04  0.14971629945E+04  0.10100000352E+00 0. -1.
       -3    1    3    3    0  502 -0.72887753831E+02  0.72697544231E+02  0.18808546626E+04  0.18836697772E+04  0.10100000352E+00 0.  1.
</event>
<event>
 5   0  0.2703956E-07  0.3295919E+04  0.7818609E-02  0.8163935E-01
       -2   -1    0    0    0  501  0.00000000000E+00  0.00000000000E+00  0.11600275961E+04  0.11600275961E+04  0.25500000920E-02 0.  1.
        2   -1    0    0  501    0  0.00000000000E+00  0.00000000000E+00 -0.23411260485E+04  0.23411260485E+04  0.25500000920E-02 0. -1.
    10030    2    1    2    0    0  0.00000000000E+00  0.00000000000E+00 -0.11810984524E+04  0.35011536447E+04  0.32959191873E+04 0.  0.
        5    1    3    3  502    0 -0.71974879023E+03 -0.12066162878E+04 -0.15054508190E+04  0.20592147643E+04  0.46999998093E+01 0. -1.
       -5    1    3    3    0  502  0.71974879023E+03  0.12066162878E+04  0.32435236661E+03  0.14419388804E+04  0.46999998093E+01 0.  1.
</event>
<event>
 5   0  0.2713815E-07  0.3307741E+04  0.7818609E-02  0.8160928E-01
        2   -1    0    0  501    0  0.00000000000E+00  0.00000000000E+00  0.13282437830E+04  0.13282437830E+04  0.25500000920E-02 0.  1.
       -2   -1    0    0    0  501  0.00000000000E+00  0.00000000000E+00 -0.20593268006E+04  0.20593268007E+04  0.25500000920E-02 0. -1.
    10030    2    1    2    0    0  0.00000000000E+00  0.00000000000E+00 -0.73108301762E+03  0.33875705837E+04  0.33077412355E+04 0.  0.
        4    1    3    3  502    0 -0.65777735326E+03  0.73308704808E+03  0.99513106189E+03  0.14001339614E+04  0.12699999809E+01 0.  1.
       -4    1    3    3    0  502  0.65777735326E+03 -0.73308704808E+03 -0.17262140795E+04  0.19874366223E+04  0.12699999809E+01 0. -1.
</event>
<event>
 5   0  0.2824402E-07  0.3295931E+04  0.7818609E-02  0.8163932E-01
        2   -1    0    0  501    0  0.00000000000E+00  0.00000000000E+00  0.17541067066E+04  0.17541067066E+04  0.25500000920E-02 0. -1.
       -2   -1    0    0    0  501  0.00000000000E+00  0.00000000000E+00 -0.15482467137E+04  0.15482467137E+04  0.25500000920E-02 0.  1.
    10030    2    1    2    0    0  0.00000000000E+00  0.00000000000E+00  0.20585999286E+03  0.33023534203E+04  0.32959307905E+04 0.  0.
        1    1    3    3  502    0  0.78940359175E+02  0.14720041965E+04 -0.63522945870E+03  0.16051617987E+04  0.50400001928E-02 0.  1.
       -1    1    3    3    0  502 -0.78940359175E+02 -0.14720041965E+04  0.84108945156E+03  0.16971916216E+04  0.50400001928E-02 0. -1.
</event>
<event>
 5   0  0.9454010E-08  0.3298720E+04  0.7818609E-02  0.8163221E-01
        1   -1    0    0  501    0  0.00000000000E+00  0.00000000000E+00  0.25752546063E+04  0.25752546063E+04  0.50400001928E-02 0.  1.
       -1   -1    0    0    0  501  0.00000000000E+00  0.00000000000E+00 -0.10563573274E+04  0.10563573274E+04  0.50400001928E-02 0. -1.
    10030    2    1    2    0    0  0.00000000000E+00  0.00000000000E+00  0.15188972789E+04  0.36316119337E+04  0.32987204024E+04 0.  0.
        2    1    3    3  502    0  0.14288436645E+03 -0.15390931242E+04  0.13929921725E+04  0.20807812907E+04  0.25500000920E-02 0. -1.
       -2    1    3    3    0  502 -0.14288436645E+03  0.15390931242E+04  0.12590510640E+03  0.15508306429E+04  0.25500000920E-02 0.  1.
</event>
<event>
 5   0  0.9283910E-08  0.3309252E+04  0.7818609E-02  0.8160545E-01
       -1   -1    0    0    0  501  0.00000000000E+00  0.00000000000E+00  0.15955243906E+04  0.15955243906E+04  0.50400001928E-02 0. -1.
        1   -1    0    0  501    0  0.00000000000E+00  0.00000000000E+00 -0.17159168715E+04  0.17159168715E+04  0.50400001928E-02 0.  1.
    10030    2    1    2    0    0  0.00000000000E+00  0.00000000000E+00 -0.12039248097E+03  0.33114412621E+04  0.33092520126E+04 0.  0.
        3    1    3    3  502    0 -0.10631202459E+04 -0.12765240136E+03  0.12020927650E+04  0.16098281954E+04  0.10100000352E+00 0. -1.
       -3    1    3    3    0  502  0.10631202459E+04  0.12765240136E+03 -0.13224852459E+04  0.17016130667E+04  0.10100000352E+00 0.  1.
</event>
<event>
 5   0  0.2875829E-07  0.3301321E+04  0.7818609E-02  0.8162559E-01
       -2   -1    0    0    0  501  0.00000000000E+00  0.00000000000E+00  0.10885016821E+04  0.10885016821E+04  0.25500000920E-02 0. -1.
        2   -1    0    0  501    0  0.00000000000E+00  0.00000000000E+00 -0.25031467329E+04  0.25031467329E+04  0.25500000920E-02 0.  1.
    10030    2    1    2    0    0  0.00000000000E+00  0.00000000000E+00 -0.14146450507E+04  0.35916484150E+04  0.33013206021E+04 0.  0.
        3    1    3    3  502    0 -0.91223678668E+03 -0.12272156897E+04 -0.31005958384E+02  0.15294429325E+04  0.10100000352E+00 0. -1.
       -3    1    3    3    0  502  0.91223678668E+03  0.12272156897E+04 -0.13836390924E+04  0.20622054825E+04  0.10100000352E+00 0.  1.
</event>
<event>
 5   0  0.2875829E-07  0.3302479E+04  0.7818609E-02  0.8162265E-01
        2   -1    0    0  501    0  0.00000000000E+00  0.00000000000E+00  0.14856800794E+04  0.14856800794E+04  0.25500000920E-02 0. -1.
       -2   -1    0    0    0  501  0.00000000000E+00  0.00000000000E+00 -0.18352487568E+04  0.18352487568E+04  0.25500000920E-02 0.  1.
    10030    2    1    2    0    0  0.00000000000E+00  0.00000000000E+00 -0.34956867746E+03  0.33209288362E+04  0.33024793829E+04 0.  0.
        3    1    3    3  502    0 -0.91215831739E+03  0.13045072938E+03 -0.15526736196E+04  0.18055042420E+04  0.10100000352E+00 0.  1.
       -3    1    3    3    0  502  0.91215831739E+03 -0.13045072938E+03  0.12031049421E+04  0.15154245942E+04  0.10100000352E+00 0. -1.
</event>
<event>
 5   0  0.8805125E-08  0.3299681E+04  0.7818609E-02  0.8162977E-01
       -1   -1    0    0    0  501  0.00000000000E+00  0.00000000000E+00  0.18283415281E+04  0.18283415281E+04  0.50400001928E-02 0. -1.
        1   -1    0    0  501    0  0.00000000000E+00  0.00000000000E+00 -0.14887662710E+04  0.14887662710E+04  0.50400001928E-02 0.  1.
    10030    2    1    2    0    0  0.00000000000E+00  0.00000000000E+00  0.33957525708E+03  0.33171077991E+04  0.32996807111E+04 0.  0.
        4    1    3    3  502    0  0.28549606325E+03  0.12608795702E+04  0.12002115533E+04  0.17640393074E+04  0.12699999809E+01 0. -1.
       -4    1    3    3    0  502 -0.28549606325E+03 -0.12608795702E+04 -0.86063629619E+03  0.15530684917E+04  0.12699999809E+01 0.  1.
</event>
<event>
 5   0  0.9181760E-08  0.3301310E+04  0.7818609E-02  0.8162562E-01
       -1   -1    0    0    0  501  0.00000000000E+00  0.00000000000E+00  0.20445595090E+04  0.20445595090E+04  0.50400001928E-02 0. -1.
        1   -1    0    0  501    0  0.00000000000E+00  0.00000000000E+00 -0.13326403876E+04  0.13326403876E+04  0.50400001928E-02 0.  1.
    10030    2    1    2    0    0  0.00000000000E+00  0.00000000000E+00  0.71191912143E+03  0.33771998966E+04  0.33013103923E+04 0.  0.
        1    1    3    3  502    0 -0.13394083015E+04  0.94990351447E+03  0.52814784415E+03  0.17248975129E+04  0.50400001928E-02 0.  1.
       -1    1    3    3    0  502  0.13394083015E+04 -0.94990351447E+03  0.18377127729E+03  0.16523023837E+04  0.50400001928E-02 0. -1.
</event>
<event>
 5   0  0.2703956E-07  0.3304256E+04  0.7818609E-02  0.8161813E-01
       -2   -1    0    0    0  501  0.00000000000E+00  0.00000000000E+00  0.91517759048E+03  0.91517759048E+03  0.25500000920E-02 0. -1.
        2   -1    0    0  501    0  0.00000000000E+00  0.00000000000E+00 -0.29825104355E+04  0.29825104355E+04  0.25500000920E-02 0.  1.
    10030    2    1    2    0    0  0.00000000000E+00  0.00000000000E+00 -0.20673328450E+04  0.38976880260E+04  0.33042558702E+04 0.  0.
        5    1    3    3  502    0  0.13720849948E+04  0.92025569882E+03 -0.10288258060E+04  0.19462765511E+04  0.46999998093E+01 0. -1.
       -5    1    3    3    0  502 -0.13720849948E+04 -0.92025569882E+03 -0.10385070390E+04  0.19514114749E+04  0.46999998093E+01 0.  1.
</event>
<event>
 5   0  0.9181760E-08  0.3301081E+04  0.7818609E-02  0.8162620E-01
       -1   -1    0    0    0  501  0.00000000000E+00  0.00000000000E+00  0.23492604273E+04  0.23492604274E+04  0.50400001928E-02 0. -1.
        1   -1    0    0  501    0  0.00000000000E+00  0.00000000000E+00 -0.11596344614E+04  0.11596344614E+04  0.50400001928E-02 0.  1.
    10030    2    1    2    0    0  0.00000000000E+00  0.00000000000E+00  0.11896259659E+04  0.35088948888E+04  0.33010806415E+04 0.  0.
        1    1    3    3  502    0  0.29847637585E+03  0.77905187442E+02  0.23183472558E+04  0.23387798878E+04  0.50400001928E-02 0. -1.
       -1    1    3    3    0  502 -0.29847637585E+03 -0.77905187442E+02 -0.11287212899E+04  0.11701150010E+04  0.50400001928E-02 0.  1.
</event>
<event>
 5   0  0.9181760E-08  0.3390059E+04  0.7818609E-02  0.8140350E-01
       -1   -1    0    0    0  501  0.00000000000E+00  0.00000000000E+00  0.11799542807E+04  0.11799542807E+04  0.50400001928E-02 0. -1.
        1   -1    0    0  501    0  0.00000000000E+00  0.00000000000E+00 -0.24349464191E+04  0.24349464191E+04  0.50400001928E-02 0.  1.
    10030    2    1    2    0    0  0.00000000000E+00  0.00000000000E+00 -0.12549921384E+04  0.36149006998E+04  0.33900592623E+04 0.  0.
        1    1    3    3  502    0  0.12261482382E+04 -0.62982311660E+03 -0.16793306950E+04  0.21726178319E+04  0.50400001928E-02 0.  1.
       -1    1    3    3    0  502 -0.12261482382E+04  0.62982311660E+03  0.42433855664E+03  0.14422828679E+04  0.50400001928E-02 0. -1.
</event>
<event>
 5   0  0.2713815E-07  0.3299660E+04  0.7818609E-02  0.8162982E-01
        2   -1    0    0  501    0  0.00000000000E+00  0.00000000000E+00  0.21462626908E+04  0.21462626908E+04  0.25500000920E-02 0.  1.
       -2   -1    0    0    0  501  0.00000000000E+00  0.00000000000E+00 -0.12682226219E+04  0.12682226219E+04  0.25500000920E-02 0. -1.
    10030    2    1    2    0    0  0.00000000000E+00  0.00000000000E+00  0.87804006885E+03  0.34144853127E+04  0.32996599201E+04 0.  0.
        4    1    3    3  502    0  0.50724986679E+03 -0.15000820932E+04  0.91815391481E+03  0.18304526593E+04  0.12699999809E+01 0. -1.
       -4    1    3    3    0  502 -0.50724986679E+03  0.15000820932E+04 -0.40113845958E+02  0.15840326534E+04  0.12699999809E+01 0.  1.
</event>
<event>
 5   0  0.9283910E-08  0.3298071E+04  0.7818609E-02  0.8163386E-01
       -1   -1    0    0    0  501  0.00000000000E+00  0.00000000000E+00  0.16028558823E+04  0.16028558823E+04  0.50400001928E-02 0. -1.
        1   -1    0    0  501    0  0.00000000000E+00  0.00000000000E+00 -0.16965452018E+04  0.16965452018E+04  0.50400001928E-02 0.  1.
    10030    2    1    2    0    0  0.00000000000E+00  0.00000000000E+00 -0.93689319457E+02  0.32994010841E+04  0.32980706217E+04 0.  0.
        3    1    3    3  502    0 -0.67463154523E+03  0.13388441405E+04 -0.73391578479E+03  0.16692105151E+04  0.10100000352E+00 0.  1.
       -3    1    3    3    0  502  0.67463154523E+03 -0.13388441405E+04  0.64022646534E+03  0.16301905691E+04  0.10100000352E+00 0. -1.
</event>
<event>
 5   0  0.9283910E-08  0.3289014E+04  0.7818609E-02  0.8165696E-01
        1   -1    0    0  501    0  0.00000000000E+00  0.00000000000E+00  0.23786639464E+04  0.23786639464E+04  0.50400001928E-02 0. -1.
       -1   -1    0    0    0  501  0.00000000000E+00  0.00000000000E+00 -0.11369421707E+04  0.11369421707E+04  0.50400001928E-02 0.  1.
    10030    2    1    2    0    0  0.00000000000E+00  0.00000000000E+00  0.12417217757E+04  0.35156061171E+04  0.32890140471E+04 0.  0.
        3    1    3    3  502    0  0.62185056494E+03  0.87263926360E+03  0.19542841159E+04  0.22287718199E+04  0.10100000352E+00 0. -1.
       -3    1    3    3    0  502 -0.62185056494E+03 -0.87263926360E+03 -0.71256234015E+03  0.12868342971E+04  0.10100000352E+00 0.  1.
</event>
<event>
 5   0  0.9181760E-08  0.3295799E+04  0.7818609E-02  0.8163965E-01
       -1   -1    0    0    0  501  0.00000000000E+00  0.00000000000E+00  0.15396533985E+04  0.15396533985E+04  0.50400001928E-02 0. -1.
        1   -1    0    0  501    0  0.00000000000E+00  0.00000000000E+00 -0.17637562788E+04  0.17637562788E+04  0.50400001928E-02 0.  1.
    10030    2    1    2    0    0  0.00000000000E+00  0.00000000000E+00 -0.22410288025E+03  0.33034096773E+04  0.32957993561E+04 0.  0.
        1    1    3    3  502    0 -0.10159634687E+04  0.12031275905E+04 -0.59884313787E+03  0.16847287237E+04  0.50400001928E-02 0.  1.
       -1    1    3    3    0  502  0.10159634687E+04 -0.12031275905E+04  0.37474025763E+03  0.16186809536E+04  0.50400001928E-02 0. -1.
</event>
<event>
 5   0  0.9810351E-08  0.3300452E+04  0.7818609E-02  0.8162780E-01
       -1   -1    0    0    0  501  0.00000000000E+00  0.00000000000E+00  0.19717605548E+04  0.19717605548E+04  0.50400001928E-02 0. -1.
        1   -1    0    0  501    0  0.00000000000E+00  0.00000000000E+00 -0.13811237015E+04  0.13811237015E+04  0.50400001928E-02 0.  1.
    10030    2    1    2    0    0  0.00000000000E+00  0.00000000000E+00  0.59063685333E+03  0.33528842563E+04  0.33004516272E+04 0.  0.
        5    1    3    3  502    0 -0.74841626407E+02 -0.15964576013E+04  0.71287744371E+03  0.17499984233E+04  0.46999998093E+01 0. -1.
       -5    1    3    3    0  502  0.74841626407E+02  0.15964576013E+04 -0.12224059038E+03  0.16028858330E+04  0.46999998093E+01 0.  1.
</event>
<event>
 5   0  0.9810351E-08  0.3283082E+04  0.7818609E-02  0.8167214E-01
        1   -1    0    0  501    0  0.00000000000E+00  0.00000000000E+00  0.16407817625E+04  0.16407817625E+04  0.50400001928E-02 0.  1.
       -1   -1    0    0    0  501  0.00000000000E+00  0.00000000000E+00 -0.16423003230E+04  0.16423003230E+04  0.50400001928E-02 0. -1.
    10030    2    1    2    0    0  0.00000000000E+00  0.00000000000E+00 -0.15185605194E+01  0.32830820856E+04  0.32830817344E+04 0.  0.
        5    1    3    3  502    0 -0.84691639648E+02  0.85898351037E+03  0.13955248602E+04  0.16408952039E+04  0.46999998093E+01 0.  1.
       -5    1    3    3    0  502  0.84691639648E+02 -0.85898351037E+03 -0.13970434207E+04  0.16421868816E+04  0.46999998093E+01 0. -1.
</event>
<event>
 5   0  0.9454010E-08  0.3292848E+04  0.7818609E-02  0.8164717E-01
        1   -1    0    0  501    0  0.00000000000E+00  0.00000000000E+00  0.14389571630E+04  0.14389571630E+04  0.50400001928E-02 0.  1.
       -1   -1    0    0    0  501  0.00000000000E+00  0.00000000000E+00 -0.18838036478E+04  0.18838036478E+04  0.50400001928E-02 0. -1.
    10030    2    1    2    0    0  0.00000000000E+00  0.00000000000E+00 -0.44484648479E+03  0.33227608109E+04  0.32928484647E+04 0.  0.
        2    1    3    3  502    0 -0.94715970706E+03  0.10789433450E+04 -0.10356488797E+04  0.17702538955E+04  0.25500000920E-02 0. -1.
       -2    1    3    3    0  502  0.94715970706E+03 -0.10789433450E+04  0.59080239494E+03  0.15525069154E+04  0.25500000920E-02 0.  1.
</event>
<event>
 5   0  0.9454010E-08  0.3298213E+04  0.7818609E-02  0.8163350E-01
       -1   -1    0    0    0  501  0.00000000000E+00  0.00000000000E+00  0.10247717715E+04  0.10247717716E+04  0.50400001928E-02 0. -1.
        1   -1    0    0  501    0  0.00000000000E+00  0.00000000000E+00 -0.26538129351E+04  0.26538129351E+04  0.50400001928E-02 0.  1.
    10030    2    1    2    0    0  0.00000000000E+00  0.00000000000E+00 -0.16290411636E+04  0.36785847067E+04  0.32982132029E+04 0.  0.
        2    1    3    3  502    0 -0.94428535060E+03 -0.34053082804E+03  0.64477519595E+03  0.11930511814E+04  0.25500000920E-02 0. -1.
       -2    1    3    3    0  502  0.94428535060E+03  0.34053082804E+03 -0.22738163595E+04  0.24855335253E+04  0.25500000920E-02 0.  1.
</event>
<event>
 5   0  0.9454010E-08  0.3299209E+04  0.7818609E-02  0.8163097E-01
       -1   -1    0    0    0  501  0.00000000000E+00  0.00000000000E+00  0.16567296514E+04  0.16567296514E+04  0.50400001928E-02 0.  1.
        1   -1    0    0  501    0  0.00000000000E+00  0.00000000000E+00 -0.16425096083E+04  0.16425096083E+04  0.50400001928E-02 0. -1.
    10030    2    1    2    0    0  0.00000000000E+00  0.00000000000E+00  0.14220043151E+02  0.32992392597E+04  0.32992086146E+04 0.  0.
        2    1    3    3  502    0 -0.15459388162E+04 -0.48731758052E+03  0.31336296497E+03  0.16509396099E+04  0.25500000920E-02 0.  1.
       -2    1    3    3    0  502  0.15459388162E+04  0.48731758052E+03 -0.29914292181E+03  0.16482996498E+04  0.25500000920E-02 0. -1.
</event>
<event>
 5   0  0.2703956E-07  0.3306026E+04  0.7818609E-02  0.8161364E-01
       -2   -1    0    0    0  501  0.00000000000E+00  0.00000000000E+00  0.15854920419E+04  0.15854920420E+04  0.25500000920E-02 0.  1.
        2   -1    0    0  501    0  0.00000000000E+00  0.00000000000E+00 -0.17234097380E+04  0.17234097380E+04  0.25500000920E-02 0. -1.
    10030    2    1    2    0    0  0.00000000000E+00  0.00000000000E+00 -0.13791769604E+03  0.33089017799E+04  0.33060262701E+04 0.  0.
        5    1    3    3  502    0 -0.60890452256E+03  0.84170532088E+03 -0.13558445661E+04  0.17080893250E+04  0.46999998093E+01 0. -1.
       -5    1    3    3    0  502  0.60890452256E+03 -0.84170532088E+03  0.12179268701E+04  0.16008124549E+04  0.46999998093E+01 0.  1.
</event>
<event>
 5   0  0.9181760E-08  0.3302012E+04  0.7818609E-02  0.8162384E-01
       -1   -1    0    0    0  501  0.00000000000E+00  0.00000000000E+00  0.22332639183E+04  0.22332639183E+04  0.50400001928E-02 0.  1.
        1   -1    0    0  501    0  0.00000000000E+00  0.00000000000E+00 -0.12205547822E+04  0.12205547822E+04  0.50400001928E-02 0. -1.
    10030    2    1    2    0    0  0.00000000000E+00  0.00000000000E+00  0.10127091361E+04  0.34538187005E+04  0.33020120868E+04 0.  0.
        1    1    3    3  502    0  0.53798198221E+03 -0.38475809889E+03  0.20886326754E+04  0.21908559653E+04  0.50400001928E-02 0.  1.
       -1    1    3    3    0  502 -0.53798198221E+03  0.38475809889E+03 -0.10759235394E+04  0.12629627352E+04  0.50400001928E-02 0. -1.
</event>
<event>
 5   0  0.2703956E-07  0.3307991E+04  0.7818609E-02  0.8160865E-01
        2   -1    0    0  501    0  0.00000000000E+00  0.00000000000E+00  0.13733419347E+04  0.13733419347E+04  0.25500000920E-02 0.  1.
       -2   -1    0    0    0  501  0.00000000000E+00  0.00000000000E+00 -0.19920028225E+04  0.19920028225E+04  0.25500000920E-02 0. -1.
    10030    2    1    2    0    0  0.00000000000E+00  0.00000000000E+00 -0.61866088783E+03  0.33653447572E+04  0.33079909373E+04 0.  0.
        5    1    3    3  502    0 -0.15826733186E+04  0.26078411477E+03  0.10116981365E+03  0.16072089500E+04  0.46999998093E+01 0. -1.
       -5    1    3    3    0  502  0.15826733186E+04 -0.26078411477E+03 -0.71983070148E+03  0.17581358072E+04  0.46999998093E+01 0.  1.
</event>
<event>
 5   0  0.8805125E-08  0.3312190E+04  0.7818609E-02  0.8159801E-01
       -1   -1    0    0    0  501  0.00000000000E+00  0.00000000000E+00  0.11594808339E+04  0.11594808339E+04  0.50400001928E-02 0. -1.
        1   -1    0    0  501    0  0.00000000000E+00  0.00000000000E+00 -0.23654126298E+04  0.23654126298E+04  0.50400001928E-02 0.  1.
    10030    2    1    2    0    0  0.00000000000E+00  0.00000000000E+00 -0.12059317959E+04  0.35248934637E+04  0.33121899755E+04 0.  0.
        4    1    3    3  502    0  0.10237003730E+04  0.67421534874E+03  0.58215497927E+03  0.13569947763E+04  0.12699999809E+01 0. -1.
       -4    1    3    3    0  502 -0.10237003730E+04 -0.67421534874E+03 -0.17880867752E+04  0.21678986874E+04  0.12699999809E+01 0.  1.
</event>
<event>
 5   0  0.2713815E-07  0.3296556E+04  0.7818609E-02  0.8163772E-01
        2   -1    0    0  501    0  0.00000000000E+00  0.00000000000E+00  0.19774427173E+04  0.19774427173E+04  0.25500000920E-02 0. -1.
       -2   -1    0    0    0  501  0.00000000000E+00  0.00000000000E+00 -0.13739056830E+04  0.13739056830E+04  0.25500000920E-02 0.  1.
    10030    2    1    2    0    0  0.00000000000E+00  0.00000000000E+00  0.60353703431E+03  0.33513484003E+04  0.32965556493E+04 0.  0.
        4    1    3    3  502    0  0.64394564674E+03  0.59792250510E+03  0.17194506637E+04  0.19309814903E+04  0.12699999809E+01 0. -1.
       -4    1    3    3    0  502 -0.64394564674E+03 -0.59792250510E+03 -0.11159136294E+04  0.14203669101E+04  0.12699999809E+01 0.  1.
</event>
<event>
 5   0  0.2824402E-07  0.3299903E+04  0.7818609E-02  0.8162920E-01
        2   -1    0    0  501    0  0.00000000000E+00  0.00000000000E+00  0.19897415288E+04  0.19897415288E+04  0.25500000920E-02 0. -1.
       -2   -1    0    0    0  501  0.00000000000E+00  0.00000000000E+00 -0.13681875607E+04  0.13681875607E+04  0.25500000920E-02 0.  1.
    10030    2    1    2    0    0  0.00000000000E+00  0.00000000000E+00  0.62155396803E+03  0.33579290895E+04  0.32999027917E+04 0.  0.
        1    1    3    3  502    0 -0.11235326258E+04  0.32263652625E+02  0.15398962242E+04  0.19064749896E+04  0.50400001928E-02 0. -1.
       -1    1    3    3    0  502  0.11235326258E+04 -0.32263652625E+02 -0.91834225618E+03  0.14514540999E+04  0.50400001928E-02 0.  1.
</event>
<event>
 5   0  0.9283910E-08  0.3300603E+04  0.7818609E-02  0.8162742E-01
        1   -1    0    0  501    0  0.00000000000E+00  0.00000000000E+00  0.20380795045E+04  0.20380795045E+04  0.50400001928E-02 0. -1.
       -1   -1    0    0    0  501  0.00000000000E+00  0.00000000000E+00 -0.13363042220E+04  0.13363042220E+04  0.50400001928E-02 0.  1.
    10030    2    1    2    0    0  0.00000000000E+00  0.00000000000E+00  0.70177528254E+03  0.33743837266E+04  0.33006025188E+04 0.  0.
        3    1    3    3  502    0  0.29381911363E+03  0.92548177302E+03  0.17151260917E+04  0.19709144336E+04  0.10100000352E+00 0. -1.
       -3    1    3    3    0  502 -0.29381911363E+03 -0.92548177302E+03 -0.10133508092E+04  0.14034692930E+04  0.10100000352E+00 0.  1.
</event>
<event>
 5   0  0.2875829E-07  0.3296851E+04  0.7818609E-02  0.8163697E-01
        2   -1    0    0  501    0  0.00000000000E+00  0.00000000000E+00  0.16145221674E+04  0.16145221674E+04  0.25500000920E-02 0. -1.
       -2   -1    0    0    0  501  0.00000000000E+00  0.00000000000E+00 -0.16830407832E+04  0.16830407832E+04  0.25500000920E-02 0.  1.
    10030    2    1    2    0    0  0.00000000000E+00  0.00000000000E+00 -0.68518615841E+02  0.32975629506E+04  0.32968510146E+04 0.  0.
        3    1    3    3  502    0 -0.33967221209E+03 -0.15869115262E+04  0.25501109650E+03  0.16427708523E+04  0.10100000352E+00 0. -1.
       -3    1    3    3    0  502  0.33967221209E+03  0.15869115262E+04 -0.32352971234E+03  0.16547920983E+04  0.10100000352E+00 0.  1.
</event>
<event>
 5   0  0.8805125E-08  0.3301847E+04  0.7818609E-02  0.8162425E-01
        1   -1    0    0  501    0  0.00000000000E+00  0.00000000000E+00  0.19444368480E+04  0.19444368480E+04  0.50400001928E-02 0.  1.
       -1   -1    0    0    0  501  0.00000000000E+00  0.00000000000E+00 -0.14017164676E+04  0.14017164676E+04  0.50400001928E-02 0. -1.
    10030    2    1    2    0    0  0.00000000000E+00  0.00000000000E+00  0.54272038039E+03  0.33461533156E+04  0.33018474526E+04 0.  0.
        4    1    3    3  502    0  0.12753199927E+04  0.68566804523E+03 -0.53235530543E+03  0.15427201743E+04  0.12699999809E+01 0. -1.
       -4    1    3    3    0  502 -0.12753199927E+04 -0.68566804523E+03  0.10750756858E+04  0.18034331413E+04  0.12699999809E+01 0.  1.
</event>
<event>
 5   0  0.2727168E-07  0.3299792E+04  0.7818609E-02  0.8162948E-01
        2   -1    0    0  501    0  0.00000000000E+00  0.00000000000E+00  0.23131884909E+04  0.23131884909E+04  0.25500000920E-02 0.  1.
       -2   -1    0    0    0  501  0.00000000000E+00  0.00000000000E+00 -0.11767982300E+04  0.11767982300E+04  0.25500000920E-02 0. -1.
    10030    2    1    2    0    0  0.00000000000E+00  0.00000000000E+00  0.11363902609E+04  0.34899867209E+04  0.32997915824E+04 0.  0.
        2    1    3    3  502    0  0.29424644429E+03  0.93905869093E+03  0.19688152294E+04  0.22010555655E+04  0.25500000920E-02 0.  1.
       -2    1    3    3    0  502 -0.29424644429E+03 -0.93905869093E+03 -0.83242496855E+03  0.12889311554E+04  0.25500000920E-02 0. -1.
</event>
<event>
 5   0  0.8805125E-08  0.3303480E+04  0.7818609E-02  0.8162011E-01
       -1   -1    0    0    0  501  0.00000000000E+00  0.00000000000E+00  0.11239201342E+04  0.11239201342E+04  0.50400001928E-02 0.  1.
        1   -1    0    0  501    0  0.00000000000E+00  0.00000000000E+00 -0.24274364356E+04  0.24274364356E+04  0.50400001928E-02 0. -1.
    10030    2    1    2    0    0  0.00000000000E+00  0.00000000000E+00 -0.13035163014E+04  0.35513565698E+04  0.33034797923E+04 0.  0.
        4    1    3    3  502    0 -0.11416143035E+03 -0.15974842246E+04 -0.21739291338E+03  0.16162456409E+04  0.12699999809E+01 0.  1.
       -4    1    3    3    0  502  0.11416143035E+03  0.15974842246E+04 -0.10861233880E+04  0.19351109289E+04  0.12699999809E+01 0. -1.
</event>
<event>
 5   0  0.8805125E-08  0.3233962E+04  0.7818609E-02  0.8179905E-01
       -1   -1    0    0    0  501  0.00000000000E+00  0.00000000000E+00  0.19238681737E+04  0.19238681737E+04  0.50400001928E-02 0.  1.
        1   -1    0    0  501    0  0.00000000000E+00  0.00000000000E+00 -0.13590467920E+04  0.13590467921E+04  0.50400001928E-02 0. -1.
    10030    2    1    2    0    0  0.00000000000E+00  0.00000000000E+00  0.56482138161E+03  0.32829149657E+04  0.32339615766E+04 0.  0.
        4    1    3    3  502    0 -0.15703498205E+04  0.30627832516E+03  0.44729166190E+02  0.16005646762E+04  0.12699999809E+01 0. -1.
       -4    1    3    3    0  502  0.15703498205E+04 -0.30627832516E+03  0.52009221542E+03  0.16823502896E+04  0.12699999809E+01 0.  1.
</event>
<event>
 5   0  0.9454010E-08  0.3300239E+04  0.7818609E-02  0.8162835E-01
        1   -1    0    0  501    0  0.00000000000E+00  0.00000000000E+00  0.20013659989E+04  0.20013659989E+04  0.50400001928E-02 0. -1.
       -1   -1    0    0    0  501  0.00000000000E+00  0.00000000000E+00 -0.13605179059E+04  0.13605179059E+04  0.50400001928E-02 0.  1.
    10030    2    1    2    0    0  0.00000000000E+00  0.00000000000E+00  0.64084809304E+03  0.33618839048E+04  0.33002389476E+04 0.  0.
        2    1    3    3  502    0 -0.13424248543E+02  0.48196511158E+02  0.20005931894E+04  0.20012186847E+04  0.25500000920E-02 0. -1.
       -2    1    3    3    0  502  0.13424248543E+02 -0.48196511158E+02 -0.13597450964E+04  0.13606652202E+04  0.25500000920E-02 0.  1.
</event>
<event>
 5   0  0.2727168E-07  0.3304480E+04  0.7818609E-02  0.8161756E-01
        2   -1    0    0  501    0  0.00000000000E+00  0.00000000000E+00  0.23269583474E+04  0.23269583474E+04  0.25500000920E-02 0. -1.
       -2   -1    0    0    0  501  0.00000000000E+00  0.00000000000E+00 -0.11731608786E+04  0.11731608786E+04  0.25500000920E-02 0.  1.
    10030    2    1    2    0    0  0.00000000000E+00  0.00000000000E+00  0.11537974688E+04  0.35001192260E+04  0.33044796863E+04 0.  0.
        2    1    3    3  502    0 -0.13080404530E+04  0.31704706571E+03 -0.43817488407E+03  0.14154454767E+04  0.25500000920E-02 0.  1.
       -2    1    3    3    0  502  0.13080404530E+04 -0.31704706571E+03  0.15919723529E+04  0.20846737493E+04  0.25500000920E-02 0. -1.
</event>
<event>
 5   0  0.2824402E-07  0.3294433E+04  0.7818609E-02  0.8164313E-01
        2   -1    0    0  501    0  0.00000000000E+00  0.00000000000E+00  0.17114134837E+04  0.17114134837E+04  0.25500000920E-02 0.  1.
       -2   -1    0    0    0  501  0.00000000000E+00  0.00000000000E+00 -0.15854277373E+04  0.15854277373E+04  0.25500000920E-02 0. -1.
    10030    2    1    2    0    0  0.00000000000E+00  0.00000000000E+00  0.12598574639E+03  0.32968412210E+04  0.32944331270E+04 0.  0.
        1    1    3    3  502    0 -0.20633489322E+03  0.56052136426E+03 -0.14732396872E+04  0.15897149002E+04  0.50400001928E-02 0. -1.
       -1    1    3    3    0  502  0.20633489322E+03 -0.56052136426E+03  0.15992254336E+04  0.17071263209E+04  0.50400001928E-02 0.  1.
</event>
<event>
 5   0  0.9454010E-08  0.3342732E+04  0.7818609E-02  0.8152107E-01
        1   -1    0    0  501    0  0.00000000000E+00  0.00000000000E+00  0.25595766180E+04  0.25595766180E+04  0.50400001928E-02 0. -1.
       -1   -1    0    0    0  501  0.00000000000E+00  0.00000000000E+00 -0.10913773921E+04  0.10913773921E+04  0.50400001928E-02 0.  1.
    10030    2    1    2    0    0  0.00000000000E+00  0.00000000000E+00  0.14681992259E+04  0.36509540101E+04  0.33427318494E+04 0.  0.
        2    1    3    3  502    0  0.16190230223E+04  0.33077372423E+03  0.46035581651E+03  0.17153933313E+04  0.25500000920E-02 0. -1.
       -2    1    3    3    0  502 -0.16190230223E+04 -0.33077372423E+03  0.10078434094E+04  0.19355606788E+04  0.25500000920E-02 0.  1.
</event>
<event>
 5   0  0.2824402E-07  0.3330812E+04  0.7818609E-02  0.8155099E-01
       -2   -1    0    0    0  501  0.00000000000E+00  0.00000000000E+00  0.12312968431E+04  0.12312968431E+04  0.25500000920E-02 0. -1.
        2   -1    0    0  501    0  0.00000000000E+00  0.00000000000E+00 -0.22525659646E+04  0.22525659646E+04  0.25500000920E-02 0.  1.
    10030    2    1    2    0    0  0.00000000000E+00  0.00000000000E+00 -0.10212691215E+04  0.34838628077E+04  0.33308121298E+04 0.  0.
        1    1    3    3  502    0  0.10478559398E+04  0.11261283236E+04  0.15698169605E+03  0.15462245389E+04  0.50400001928E-02 0. -1.
       -1    1    3    3    0  502 -0.10478559398E+04 -0.11261283236E+04 -0.11782508175E+04  0.19376382688E+04  0.50400001928E-02 0.  1.
</event>
<event>
 5   0  0.9181760E-08  0.3299355E+04  0.7818609E-02  0.8163060E-01
        1   -1    0    0  501    0  0.00000000000E+00  0.00000000000E+00  0.19765191968E+04  0.19765191968E+04  0.50400001928E-02 0.  1.
       -1   -1    0    0    0  501  0.00000000000E+00  0.00000000000E+00 -0.13768830491E+04  0.13768830491E+04  0.50400001928E-02 0. -1.
    10030    2    1    2    0    0  0.00000000000E+00  0.00000000000E+00  0.59963614770E+03  0.33534022460E+04  0.32993549542E+04 0.  0.
        1    1    3    3  502    0  0.35545553979E+03 -0.89865774271E+03  0.16586940019E+04  0.19196875192E+04  0.50400001928E-02 0.  1.
       -1    1    3    3    0  502 -0.35545553979E+03  0.89865774271E+03 -0.10590578542E+04  0.14337147268E+04  0.50400001928E-02 0. -1.
</event>
<event>
 5   0  0.2703956E-07  0.3300664E+04  0.7818609E-02  0.8162726E-01
        2   -1    0    0  501    0  0.00000000000E+00  0.00000000000E+00  0.18603548276E+04  0.18603548276E+04  0.25500000920E-02 0. -1.
       -2   -1    0    0    0  501  0.00000000000E+00  0.00000000000E+00 -0.14640196892E+04  0.14640196892E+04  0.25500000920E-02 0.  1.
    10030    2    1    2    0    0  0.00000000000E+00  0.00000000000E+00  0.39633513842E+03  0.33243745167E+04  0.33006642340E+04 0.  0.
        5    1    3    3  502    0 -0.18504981330E+03 -0.64882692004E+03  0.17150923020E+04  0.18430364891E+04  0.46999998093E+01 0. -1.
       -5    1    3    3    0  502  0.18504981330E+03  0.64882692004E+03 -0.13187571636E+04  0.14813380277E+04  0.46999998093E+01 0.  1.
</event>
<event>
 5   0  0.2713815E-07  0.3299525E+04  0.7818609E-02  0.8163016E-01
        2   -1    0    0  501    0  0.00000000000E+00  0.00000000000E+00  0.21078440200E+04  0.21078440200E+04  0.25500000920E-02 0.  1.
       -2   -1    0    0    0  501  0.00000000000E+00  0.00000000000E+00 -0.12912322955E+04  0.12912322955E+04  0.25500000920E-02 0. -1.
    10030    2    1    2    0    0  0.00000000000E+00  0.00000000000E+00  0.81661172446E+03  0.33990763155E+04  0.32995249794E+04 0.  0.
        4    1    3    3  502    0 -0.62669835363E+03  0.14907187329E+04  0.74484489311E+03  0.17803900401E+04  0.12699999809E+01 0.  1.
       -4    1    3    3    0  502  0.62669835363E+03 -0.14907187329E+04  0.71766831349E+02  0.16186862754E+04  0.12699999809E+01 0. -1.
</event>
<event>
 5   0  0.2713815E-07  0.3288837E+04  0.7818609E-02  0.8165742E-01
       -2   -1    0    0    0  501  0.00000000000E+00  0.00000000000E+00  0.15277403271E+04  0.15277403271E+04  0.25500000920E-02 0. -1.
        2   -1    0    0  501    0  0.00000000000E+00  0.00000000000E+00 -0.17700076617E+04  0.17700076617E+04  0.25500000920E-02 0.  1.
    10030    2    1    2    0    0  0.00000000000E+00  0.00000000000E+00 -0.24226733462E+03  0.32977479887E+04  0.32888369275E+04 0.  0.
        4    1    3    3  502    0  0.23193803916E+03 -0.14825897950E+04 -0.79544570812E+03  0.16984119765E+04  0.12699999809E+01 0.  1.
       -4    1    3    3    0  502 -0.23193803916E+03  0.14825897950E+04  0.55317837349E+03  0.15993360123E+04  0.12699999809E+01 0. -1.
</event>
<event>
 5   0  0.9454010E-08  0.3293997E+04  0.7818609E-02  0.8164424E-01
        1   -1    0    0  501    0  0.00000000000E+00  0.00000000000E+00  0.24492987507E+04  0.24492987507E+04  0.50400001928E-02 0. -1.
       -1   -1    0    0    0  501  0.00000000000E+00  0.00000000000E+00 -0.11075024187E+04  0.11075024187E+04  0.50400001928E-02 0.  1.
    10030    2    1    2    0    0  0.00000000000E+00  0.00000000000E+00  0.13417963321E+04  0.35568011694E+04  0.32939971405E+04 0.  0.
        2    1    3    3  502    0 -0.16826538115E+03  0.32795844969E+03  0.24041880016E+04  0.24322808082E+04  0.25500000920E-02 0. -1.
       -2    1    3    3    0  502  0.16826538115E+03 -0.32795844969E+03 -0.10623916695E+04  0.11245203612E+04  0.25500000920E-02 0.  1.
</event>
<event>
 5   0  0.9283910E-08  0.3283177E+04  0.7818609E-02  0.8167189E-01
        1   -1    0    0  501    0  0.00000000000E+00  0.00000000000E+00  0.15844087895E+04  0.15844087895E+04  0.50400001928E-02 0. -1.
       -1   -1    0    0    0  501  0.00000000000E+00  0.00000000000E+00 -0.17008315479E+04  0.17008315479E+04  0.50400001928E-02 0.  1.
    10030    2    1    2    0    0  0.00000000000E+00  0.00000000000E+00 -0.11642275839E+03  0.32852403374E+04  0.32831767871E+04 0.  0.
        3    1    3    3  502    0 -0.12899062516E+04 -0.90581838196E+03 -0.51724513557E+03  0.16588874644E+04  0.10100000352E+00 0.  1.
       -3    1    3    3    0  502  0.12899062516E+04  0.90581838196E+03  0.40082237718E+03  0.16263528730E+04  0.10100000352E+00 0. -1.
</event>
<event>
 5   0  0.9810351E-08  0.3291330E+04  0.7818609E-02  0.8165105E-01
       -1   -1    0    0    0  501  0.00000000000E+00  0.00000000000E+00  0.12827591948E+04  0.12827591948E+04  0.50400001928E-02 0. -1.
        1   -1    0    0  501    0  0.00000000000E+00  0.00000000000E+00 -0.21112411682E+04  0.21112411682E+04  0.50400001928E-02 0.  1.
    10030    2    1    2    0    0  0.00000000000E+00  0.00000000000E+00 -0.82848197337E+03  0.33940003630E+04  0.32913304428E+04 0.  0.
        5    1    3    3  502    0  0.94471148394E+03 -0.13329571292E+04 -0.21075989155E+03  0.16473300574E+04  0.46999998093E+01 0. -1.
       -5    1    3    3    0  502 -0.94471148394E+03  0.13329571292E+04 -0.61772208182E+03  0.17466703056E+04  0.46999998093E+01 0.  1.
</event>
<event>
 5   0  0.2713815E-07  0.3306106E+04  0.7818609E-02  0.8161343E-01
       -2   -1    0    0    0  501  0.00000000000E+00  0.00000000000E+00  0.14620436745E+04  0.14620436745E+04  0.25500000920E-02 0. -1.
        2   -1    0    0  501    0  0.00000000000E+00  0.00000000000E+00 -0.18690170910E+04  0.18690170910E+04  0.25500000920E-02 0.  1.
    10030    2    1    2    0    0  0.00000000000E+00  0.00000000000E+00 -0.40697341652E+03  0.33310607654E+04  0.33061062387E+04 0.  0.
        4    1    3    3  502    0  0.50841803823E+03  0.10173563801E+04 -0.14121580738E+04  0.18132001941E+04  0.12699999809E+01 0.  1.
       -4    1    3    3    0  502 -0.50841803823E+03 -0.10173563801E+04  0.10051846573E+04  0.15178605713E+04  0.12699999809E+01 0. -1.
</event>
<event>
 5   0  0.2703956E-07  0.3288406E+04  0.7818609E-02  0.8165852E-01
       -2   -1    0    0    0  501  0.00000000000E+00  0.00000000000E+00  0.18196405905E+04  0.18196405905E+04  0.25500000920E-02 0.  1.
        2   -1    0    0  501    0  0.00000000000E+00  0.00000000000E+00 -0.14856800583E+04  0.14856800583E+04  0.25500000920E-02 0. -1.
    10030    2    1    2    0    0  0.00000000000E+00  0.00000000000E+00  0.33396053221E+03  0.33053206488E+04  0.32884061420E+04 0.  0.
        5    1    3    3  502    0 -0.75500612555E+03  0.12800636518E+04 -0.54004700515E+03  0.15812242282E+04  0.46999998093E+01 0. -1.
       -5    1    3    3    0  502  0.75500612555E+03 -0.12800636518E+04  0.87400753736E+03  0.17240964206E+04  0.46999998093E+01 0.  1.
</event>
<event>
 5   0  0.2824402E-07  0.3302065E+04  0.7818609E-02  0.8162370E-01
       -2   -1    0    0    0  501  0.00000000000E+00  0.00000000000E+00  0.16419692878E+04  0.16419692878E+04  0.25500000920E-02 0. -1.
        2   -1    0    0  501    0  0.00000000000E+00  0.00000000000E+00 -0.16601460080E+04  0.16601460080E+04  0.25500000920E-02 0.  1.
    10030    2    1    2    0    0  0.00000000000E+00  0.00000000000E+00 -0.18176720164E+02  0.33021152958E+04  0.33020652679E+04 0.  0.
        1    1    3    3  502    0  0.81960057944E+03  0.84357955457E+03  0.11496082629E+04  0.16446795229E+04  0.50400001928E-02 0. -1.
       -1    1    3    3    0  502 -0.81960057944E+03 -0.84357955457E+03 -0.11677849831E+04  0.16574357729E+04  0.50400001928E-02 0.  1.
</event>
<event>
 5   0  0.2824402E-07  0.3302143E+04  0.7818609E-02  0.8162350E-01
       -2   -1    0    0    0  501  0.00000000000E+00  0.00000000000E+00  0.14020959796E+04  0.14020959796E+04  0.25500000920E-02 0. -1.
        2   -1    0    0  501    0  0.00000000000E+00  0.00000000000E+00 -0.19442588738E+04  0.19442588738E+04  0.25500000920E-02 0.  1.
    10030    2    1    2    0    0  0.00000000000E+00  0.00000000000E+00 -0.54216289411E+03  0.33463548534E+04  0.33021432739E+04 0.  0.
        1    1    3    3  502    0  0.58362416973E+03  0.10409245808E+04 -0.14273648508E+04  0.18605137924E+04  0.50400001928E-02 0.  1.
       -1    1    3    3    0  502 -0.58362416973E+03 -0.10409245808E+04  0.88520195668E+03  0.14858410610E+04  0.50400001928E-02 0. -1.
</event>
<event>
 5   0  0.8805125E-08  0.3338266E+04  0.7818609E-02  0.8153226E-01
        3   -1    0    0  501    0  0.00000000000E+00  0.00000000000E+00  0.17812728897E+04  0.17812728926E+04  0.10100000352E+00 0.  1.
       -3   -1    0    0    0  501  0.00000000000E+00  0.00000000000E+00 -0.15640524792E+04  0.15640524824E+04  0.10100000352E+00 0. -1.
    10030    2    1    2    0    0  0.00000000000E+00  0.00000000000E+00  0.21722041055E+03  0.33453253750E+04  0.33382655913E+04 0.  0.
        3    1    3    3  502    0 -0.98494254015E+03 -0.11875092397E+04  0.74691429101E+03  0.17141093810E+04  0.10100000352E+00 0. -1.
       -3    1    3    3    0  502  0.98494254015E+03  0.11875092397E+04 -0.52969388046E+03  0.16312159940E+04  0.10100000352E+00 0.  1.
</event>
<event>
 5   0  0.8805125E-08  0.3305601E+04  0.7818609E-02  0.8161472E-01
       -3   -1    0    0    0  501  0.00000000000E+00  0.00000000000E+00  0.11930125678E+04  0.11930125721E+04  0.10100000352E+00 0. -1.
        3   -1    0    0  501    0  0.00000000000E+00  0.00000000000E+00 -0.22897906054E+04  0.22897906076E+04  0.10100000352E+00 0.  1.
    10030    2    1    2    0    0  0.00000000000E+00  0.00000000000E+00 -0.10967780376E+04  0.34828031797E+04  0.33056006904E+04 0.  0.
        5    1    3    3  502    0  0.15500275310E+04 -0.22949861109E+03 -0.11023817485E+04  0.19158607905E+04  0.46999998093E+01 0.  1.
       -5    1    3    3    0  502 -0.15500275310E+04  0.22949861109E+03  0.56037108838E+01  0.15669423891E+04  0.46999998093E+01 0. -1.
</event>
<event>
 5   0  0.2713815E-07  0.3294871E+04  0.7818609E-02  0.8164202E-01
        2   -1    0    0  501    0  0.00000000000E+00  0.00000000000E+00  0.24509766980E+04  0.24509766980E+04  0.25500000920E-02 0.  1.
       -2   -1    0    0    0  501  0.00000000000E+00  0.00000000000E+00 -0.11073317621E+04  0.11073317621E+04  0.25500000920E-02 0. -1.
    10030    2    1    2    0    0  0.00000000000E+00  0.00000000000E+00  0.13436449360E+04  0.35583084601E+04  0.32948713758E+04 0.  0.
        4    1    3    3  502    0  0.64987448030E+03  0.11638260219E+04 -0.37367916670E+03  0.13843646853E+04  0.12699999809E+01 0. -1.
       -4    1    3    3    0  502 -0.64987448030E+03 -0.11638260219E+04  0.17173241027E+04  0.21739437748E+04  0.12699999809E+01 0.  1.
</event>
<event>
 5   0  0.8805125E-08  0.3301766E+04  0.7818609E-02  0.8162446E-01
        1   -1    0    0  501    0  0.00000000000E+00  0.00000000000E+00  0.13870375216E+04  0.13870375216E+04  0.50400001928E-02 0.  1.
       -1   -1    0    0    0  501  0.00000000000E+00  0.00000000000E+00 -0.19649179349E+04  0.19649179349E+04  0.50400001928E-02 0. -1.
    10030    2    1    2    0    0  0.00000000000E+00  0.00000000000E+00 -0.57788041334E+03  0.33519554565E+04  0.33017661350E+04 0.  0.
        4    1    3    3  502    0 -0.14577767134E+03  0.27727615964E+03  0.13565871902E+04  0.13922871886E+04  0.12699999809E+01 0.  1.
       -4    1    3    3    0  502  0.14577767134E+03 -0.27727615964E+03 -0.19344676035E+04  0.19596682679E+04  0.12699999809E+01 0. -1.
</event>
<event>
 5   0  0.2713815E-07  0.3300792E+04  0.7818609E-02  0.8162694E-01
        2   -1    0    0  501    0  0.00000000000E+00  0.00000000000E+00  0.17061022883E+04  0.17061022883E+04  0.25500000920E-02 0.  1.
       -2   -1    0    0    0  501  0.00000000000E+00  0.00000000000E+00 -0.15965081417E+04  0.15965081417E+04  0.25500000920E-02 0. -1.
    10030    2    1    2    0    0  0.00000000000E+00  0.00000000000E+00  0.10959414667E+03  0.33026104300E+04  0.33007915377E+04 0.  0.
        4    1    3    3  502    0  0.88563038346E+02  0.13667598803E+04 -0.86654073323E+03  0.16207314514E+04  0.12699999809E+01 0. -1.
       -4    1    3    3    0  502 -0.88563038346E+02 -0.13667598803E+04  0.97613487990E+03  0.16818789787E+04  0.12699999809E+01 0.  1.
</event>
<event>
 5   0  0.9283910E-08  0.3312604E+04  0.7818609E-02  0.8159696E-01
        1   -1    0    0  501    0  0.00000000000E+00  0.00000000000E+00  0.16546072210E+04  0.16546072210E+04  0.50400001928E-02 0. -1.
       -1   -1    0    0    0  501  0.00000000000E+00  0.00000000000E+00 -0.16579988386E+04  0.16579988386E+04  0.50400001928E-02 0.  1.
    10030    2    1    2    0    0  0.00000000000E+00  0.00000000000E+00 -0.33916175403E+01  0.33126060596E+04  0.33126043234E+04 0.  0.
        3    1    3    3  502    0 -0.55113653905E+03  0.14310826297E+04 -0.62746595303E+03  0.16569437257E+04  0.10100000352E+00 0.  1.
       -3    1    3    3    0  502  0.55113653905E+03 -0.14310826297E+04  0.62407433549E+03  0.16556623339E+04  0.10100000352E+00 0. -1.
</event>
<event>
 5   0  0.8805125E-08  0.3294013E+04  0.7818609E-02  0.8164420E-01
        1   -1    0    0  501    0  0.00000000000E+00  0.00000000000E+00  0.12182744331E+04  0.12182744331E+04  0.50400001928E-02 0. -1.
       -1   -1    0    0    0  501  0.00000000000E+00  0.00000000000E+00 -0.22266173720E+04  0.22266173720E+04  0.50400001928E-02 0.  1.
    10030    2    1    2    0    0  0.00000000000E+00  0.00000000000E+00 -0.10083429389E+04  0.34448918051E+04  0.32940133677E+04 0.  0.
        4    1    3    3  502    0  0.38627917943E+03  0.53423062463E+03  0.10742702848E+04  0.12604254133E+04  0.12699999809E+01 0. -1.
       -4    1    3    3    0  502 -0.38627917943E+03 -0.53423062463E+03 -0.20826132236E+04  0.21844663918E+04  0.12699999809E+01 0.  1.
</event>
<event>
 5   0  0.9454010E-08  0.3309638E+04  0.7818609E-02  0.8160447E-01
       -1   -1    0    0    0  501  0.00000000000E+00  0.00000000000E+00  0.22374221373E+04  0.22374221373E+04  0.50400001928E-02 0.  1.
        1   -1    0    0  501    0  0.00000000000E+00  0.00000000000E+00 -0.12239199713E+04  0.12239199713E+04  0.50400001928E-02 0. -1.
    10030    2    1    2    0    0  0.00000000000E+00  0.00000000000E+00  0.10135021660E+04  0.34613421087E+04  0.33096378280E+04 0.  0.
        2    1    3    3  502    0 -0.59333200089E+03 -0.86355766257E+03 -0.83283969662E+03  0.13384306706E+04  0.25500000920E-02 0. -1.
       -2    1    3    3    0  502  0.59333200089E+03  0.86355766257E+03  0.18463418627E+04  0.21229114380E+04  0.25500000920E-02 0.  1.
</event>
<event>
 5   0  0.2824402E-07  0.3301998E+04  0.7818609E-02  0.8162387E-01
        2   -1    0    0  501    0  0.00000000000E+00  0.00000000000E+00  0.16191864360E+04  0.16191864360E+04  0.25500000920E-02 0. -1.
       -2   -1    0    0    0  501  0.00000000000E+00  0.00000000000E+00 -0.16834368361E+04  0.16834368361E+04  0.25500000920E-02 0.  1.
    10030    2    1    2    0    0  0.00000000000E+00  0.00000000000E+00 -0.64250400076E+02  0.33026232721E+04  0.33019982380E+04 0.  0.
        1    1    3    3  502    0 -0.70063853846E+03  0.41504907382E+03 -0.14685857605E+04  0.16792570474E+04  0.50400001928E-02 0.  1.
       -1    1    3    3    0  502  0.70063853846E+03 -0.41504907382E+03  0.14043353604E+04  0.16233662248E+04  0.50400001928E-02 0. -1.
</event>
<event>
 5   0  0.9283910E-08  0.3295718E+04  0.7818609E-02  0.8163986E-01
       -1   -1    0    0    0  501  0.00000000000E+00  0.00000000000E+00  0.15004167091E+04  0.15004167091E+04  0.50400001928E-02 0. -1.
        1   -1    0    0  501    0  0.00000000000E+00  0.00000000000E+00 -0.18097900727E+04  0.18097900727E+04  0.50400001928E-02 0.  1.
    10030    2    1    2    0    0  0.00000000000E+00  0.00000000000E+00 -0.30937336367E+03  0.33102067818E+04  0.32957179886E+04 0.  0.
        3    1    3    3  502    0 -0.16100719524E+03  0.19209997134E+03 -0.17905313870E+04  0.18079901476E+04  0.10100000352E+00 0.  1.
       -3    1    3    3    0  502  0.16100719524E+03 -0.19209997134E+03  0.14811580233E+04  0.15022166342E+04  0.10100000352E+00 0. -1.
</event>
<event>
 5   0  0.2824402E-07  0.3296701E+04  0.7818609E-02  0.8163735E-01
       -2   -1    0    0    0  501  0.00000000000E+00  0.00000000000E+00  0.12381365929E+04  0.12381365929E+04  0.25500000920E-02 0.  1.
        2   -1    0    0  501    0  0.00000000000E+00  0.00000000000E+00 -0.21944741885E+04  0.21944741885E+04  0.25500000920E-02 0. -1.
    10030    2    1    2    0    0  0.00000000000E+00  0.00000000000E+00 -0.95633759552E+03  0.34326107814E+04  0.32967006506E+04 0.  0.
        1    1    3    3  502    0  0.43010783555E+03 -0.76912618403E+03 -0.19286199192E+04  0.21204062417E+04  0.50400001928E-02 0. -1.
       -1    1    3    3    0  502 -0.43010783555E+03  0.76912618403E+03  0.97228232364E+03  0.13122045397E+04  0.50400001928E-02 0.  1.
</event>
<event>
 5   0  0.2727168E-07  0.3296727E+04  0.7818609E-02  0.8163729E-01
        2   -1    0    0  501    0  0.00000000000E+00  0.00000000000E+00  0.17995947076E+04  0.17995947076E+04  0.25500000920E-02 0.  1.
       -2   -1    0    0    0  501  0.00000000000E+00  0.00000000000E+00 -0.15098409094E+04  0.15098409094E+04  0.25500000920E-02 0. -1.
    10030    2    1    2    0    0  0.00000000000E+00  0.00000000000E+00  0.28975379820E+03  0.33094356170E+04  0.32967266856E+04 0.  0.
        2    1    3    3  502    0  0.69117404975E+03  0.84549184117E+03  0.13843527841E+04  0.17632386825E+04  0.25500000920E-02 0.  1.
       -2    1    3    3    0  502 -0.69117404975E+03 -0.84549184117E+03 -0.10945989859E+04  0.15461969346E+04  0.25500000920E-02 0. -1.
</event>
<event>
 5   0  0.2713815E-07  0.3305555E+04  0.7818609E-02  0.8161483E-01
        2   -1    0    0  501    0  0.00000000000E+00  0.00000000000E+00  0.98091737538E+03  0.98091737539E+03  0.25500000920E-02 0.  1.
       -2   -1    0    0    0  501  0.00000000000E+00  0.00000000000E+00 -0.27848146653E+04  0.27848146653E+04  0.25500000920E-02 0. -1.
    10030    2    1    2    0    0  0.00000000000E+00  0.00000000000E+00 -0.18038972899E+04  0.37657320407E+04  0.33055547749E+04 0.  0.
        4    1    3    3  502    0 -0.74344833245E+03 -0.86868602154E+03  0.45765396746E+03  0.12315760609E+04  0.12699999809E+01 0.  1.
       -4    1    3    3    0  502  0.74344833245E+03  0.86868602154E+03 -0.22615512573E+04  0.25341559797E+04  0.12699999809E+01 0. -1.
</event>
<event>
 5   0  0.8805125E-08  0.3307460E+04  0.7818609E-02  0.8161000E-01
        1   -1    0    0  501    0  0.00000000000E+00  0.00000000000E+00  0.23050315591E+04  0.23050315591E+04  0.50400001928E-02 0. -1.
       -1   -1    0    0    0  501  0.00000000000E+00  0.00000000000E+00 -0.11864576079E+04  0.11864576079E+04  0.50400001928E-02 0.  1.
    10030    2    1    2    0    0  0.00000000000E+00  0.00000000000E+00  0.11185739512E+04  0.34914891670E+04  0.33074595869E+04 0.  0.
        4    1    3    3  502    0 -0.67171433877E+03  0.32944999577E+03  0.21161631984E+04  0.22445235012E+04  0.12699999809E+01 0. -1.
       -4    1    3    3    0  502  0.67171433877E+03 -0.32944999577E+03 -0.99758924713E+03  0.12469656657E+04  0.12699999809E+01 0.  1.
</event>
<event>
 5   0  0.9181760E-08  0.3308631E+04  0.7818609E-02  0.8160703E-01
       -1   -1    0    0    0  501  0.00000000000E+00  0.00000000000E+00  0.16889788840E+04  0.16889788840E+04  0.50400001928E-02 0. -1.
        1   -1    0    0  501    0  0.00000000000E+00  0.00000000000E+00 -0.16203631308E+04  0.16203631308E+04  0.50400001928E-02 0.  1.
    10030    2    1    2    0    0  0.00000000000E+00  0.00000000000E+00  0.68615753113E+02  0.33093420148E+04  0.33086306003E+04 0.  0.
        1    1    3    3  502    0  0.19398690763E+03 -0.16269995001E+04 -0.19377803526E+03  0.16499418840E+04  0.50400001928E-02 0. -1.
       -1    1    3    3    0  502 -0.19398690763E+03  0.16269995001E+04  0.26239378838E+03  0.16594001308E+04  0.50400001928E-02 0.  1.
</event>
<event>
 5   0  0.2713815E-07  0.3307466E+04  0.7818609E-02  0.8160998E-01
       -2   -1    0    0    0  501  0.00000000000E+00  0.00000000000E+00  0.20211482007E+04  0.20211482007E+04  0.25500000920E-02 0. -1.
        2   -1    0    0  501    0  0.00000000000E+00  0.00000000000E+00 -0.13531081249E+04  0.13531081249E+04  0.25500000920E-02 0.  1.
    10030    2    1    2    0    0  0.00000000000E+00  0.00000000000E+00  0.66804007573E+03  0.33742563256E+04  0.33074655264E+04 0.  0.
        4    1    3    3  502    0  0.83638712483E+03  0.71102720187E+03 -0.92777773949E+03  0.14373156408E+04  0.12699999809E+01 0.  1.
       -4    1    3    3    0  502 -0.83638712483E+03 -0.71102720187E+03  0.15958178152E+04  0.19369406849E+04  0.12699999809E+01 0. -1.
</event>
<event>
 5   0  0.2703956E-07  0.3304584E+04  0.7818609E-02  0.8161730E-01
        2   -1    0    0  501    0  0.00000000000E+00  0.00000000000E+00  0.28455229230E+04  0.28455229230E+04  0.25500000920E-02 0. -1.
       -2   -1    0    0    0  501  0.00000000000E+00  0.00000000000E+00 -0.95942580455E+03  0.95942580455E+03  0.25500000920E-02 0.  1.
    10030    2    1    2    0    0  0.00000000000E+00  0.00000000000E+00  0.18860971184E+04  0.38049487275E+04  0.33045835561E+04 0.  0.
        5    1    3    3  502    0  0.10341974770E+04 -0.12862421918E+04  0.10327011175E+04  0.19469147607E+04  0.46999998093E+01 0. -1.
       -5    1    3    3    0  502 -0.10341974770E+04  0.12862421918E+04  0.85339600089E+03  0.18580339668E+04  0.46999998093E+01 0.  1.
</event>
<event>
 5   0  0.9454010E-08  0.3302163E+04  0.7818609E-02  0.8162345E-01
       -1   -1    0    0    0  501  0.00000000000E+00  0.00000000000E+00  0.13577351560E+04  0.13577351560E+04  0.50400001928E-02 0.  1.
        1   -1    0    0  501    0  0.00000000000E+00  0.00000000000E+00 -0.20078072856E+04  0.20078072856E+04  0.50400001928E-02 0. -1.
    10030    2    1    2    0    0  0.00000000000E+00  0.00000000000E+00 -0.65007212960E+03  0.33655424416E+04  0.33021632534E+04 0.  0.
        2    1    3    3  502    0  0.74855519348E+03  0.11098695873E+04 -0.13099824009E+04  0.18730187584E+04  0.25500000920E-02 0. -1.
       -2    1    3    3    0  502 -0.74855519348E+03 -0.11098695873E+04  0.65991027134E+03  0.14925236832E+04  0.25500000920E-02 0.  1.
</event>
<event>
 5   0  0.9283910E-08  0.3288443E+04  0.7818609E-02  0.8165842E-01
       -1   -1    0    0    0  501  0.00000000000E+00  0.00000000000E+00  0.15793461491E+04  0.15793461491E+04  0.50400001928E-02 0.  1.
        1   -1    0    0  501    0  0.00000000000E+00  0.00000000000E+00 -0.17117619757E+04  0.17117619757E+04  0.50400001928E-02 0. -1.
    10030    2    1    2    0    0  0.00000000000E+00  0.00000000000E+00 -0.13241582656E+03  0.32911081249E+04  0.32884432089E+04 0.  0.
        3    1    3    3  502    0 -0.99753909231E+03  0.55450957764E+03  0.11183472890E+04  0.15978941709E+04  0.10100000352E+00 0.  1.
       -3    1    3    3    0  502  0.99753909231E+03 -0.55450957764E+03 -0.12507631156E+04  0.16932139539E+04  0.10100000352E+00 0. -1.
</event>
<event>
 5   0  0.2727168E-07  0.3303207E+04  0.7818609E-02  0.8162080E-01
       -2   -1    0    0    0  501  0.00000000000E+00  0.00000000000E+00  0.21869456756E+04  0.21869456756E+04  0.25500000920E-02 0. -1.
        2   -1    0    0  501    0  0.00000000000E+00  0.00000000000E+00 -0.12473076091E+04  0.12473076091E+04  0.25500000920E-02 0.  1.
    10030    2    1    2    0    0  0.00000000000E+00  0.00000000000E+00  0.93963806651E+03  0.34342532848E+04  0.33032069157E+04 0.  0.
        2    1    3    3  502    0  0.14764815940E+04  0.68449842298E+03  0.76251590421E+03  0.17972107536E+04  0.25500000920E-02 0. -1.
       -2    1    3    3    0  502 -0.14764815940E+04 -0.68449842298E+03  0.17712216230E+03  0.16370425312E+04  0.25500000920E-02 0.  1.
</event>
<event>
 5   0  0.2713815E-07  0.3299069E+04  0.7818609E-02  0.8163132E-01
       -2   -1    0    0    0  501  0.00000000000E+00  0.00000000000E+00  0.12806773774E+04  0.12806773774E+04  0.25500000920E-02 0. -1.
        2   -1    0    0  501    0  0.00000000000E+00  0.00000000000E+00 -0.21246293526E+04  0.21246293526E+04  0.25500000920E-02 0.  1.
    10030    2    1    2    0    0  0.00000000000E+00  0.00000000000E+00 -0.84395197523E+03  0.34053067300E+04  0.32990694125E+04 0.  0.
        4    1    3    3  502    0 -0.54780341295E+03 -0.10405401279E+04 -0.16160116884E+04  0.19985764251E+04  0.12699999809E+01 0.  1.
       -4    1    3    3    0  502  0.54780341295E+03  0.10405401279E+04  0.77205971319E+03  0.14067303049E+04  0.12699999809E+01 0. -1.
</event>
<event>
 5   0  0.9181760E-08  0.3226741E+04  0.7818609E-02  0.8181790E-01
       -1   -1    0    0    0  501  0.00000000000E+00  0.00000000000E+00  0.89650131529E+03  0.89650131530E+03  0.50400001928E-02 0. -1.
        1   -1    0    0  501    0  0.00000000000E+00  0.00000000000E+00 -0.29034700602E+04  0.29034700602E+04  0.50400001928E-02 0.  1.
    10030    2    1    2    0    0  0.00000000000E+00  0.00000000000E+00 -0.20069687450E+04  0.37999713755E+04  0.32267412217E+04 0.  0.
        1    1    3    3  502    0  0.10477934032E+03  0.45569318380E+03 -0.28219259213E+04  0.28604022258E+04  0.50400001928E-02 0.  1.
       -1    1    3    3    0  502 -0.10477934032E+03 -0.45569318380E+03  0.81495717634E+03  0.93956914977E+03  0.50400001928E-02 0. -1.
</event>
<event>
 5   0  0.9181760E-08  0.3298869E+04  0.7818609E-02  0.8163183E-01
       -1   -1    0    0    0  501  0.00000000000E+00  0.00000000000E+00  0.18735206611E+04  0.18735206611E+04  0.50400001928E-02 0.  1.
        1   -1    0    0  501    0  0.00000000000E+00  0.00000000000E+00 -0.14521507194E+04  0.14521507194E+04  0.50400001928E-02 0. -1.
    10030    2    1    2    0    0  0.00000000000E+00  0.00000000000E+00  0.42136994171E+03  0.33256713805E+04  0.32988691249E+04 0.  0.
        1    1    3    3  502    0 -0.12236778906E+04  0.61255666415E+03  0.11390474580E+04  0.17804612769E+04  0.50400001928E-02 0.  1.
       -1    1    3    3    0  502  0.12236778906E+04 -0.61255666415E+03 -0.71767751632E+03  0.15452101036E+04  0.50400001928E-02 0. -1.
</event>
<event>
 5   0  0.2875829E-07  0.3302637E+04  0.7818609E-02  0.8162225E-01
        2   -1    0    0  501    0  0.00000000000E+00  0.00000000000E+00  0.19268228814E+04  0.19268228814E+04  0.25500000920E-02 0. -1.
       -2   -1    0    0    0  501  0.00000000000E+00  0.00000000000E+00 -0.14152063634E+04  0.14152063634E+04  0.25500000920E-02 0.  1.
    10030    2    1    2    0    0  0.00000000000E+00  0.00000000000E+00  0.51161651806E+03  0.33420292448E+04  0.33026365243E+04 0.  0.
        3    1    3    3  502    0  0.10617439321E+04  0.12634339332E+04  0.19779636221E+03  0.16621338370E+04  0.10100000352E+00 0.  1.
       -3    1    3    3    0  502 -0.10617439321E+04 -0.12634339332E+04  0.31382015585E+03  0.16798954078E+04  0.10100000352E+00 0. -1.
</event>
<event>
 5   0  0.8805125E-08  0.3298211E+04  0.7818609E-02  0.8163351E-01
        1   -1    0    0  501    0  0.00000000000E+00  0.00000000000E+00  0.21610044386E+04  0.21610044386E+04  0.50400001928E-02 0.  1.
       -1   -1    0    0    0  501  0.00000000000E+00  0.00000000000E+00 -0.12584651614E+04  0.12584651614E+04  0.50400001928E-02 0. -1.
    10030    2    1    2    0    0  0.00000000000E+00  0.00000000000E+00  0.90253927716E+03  0.34194696000E+04  0.32982109087E+04 0.  0.
        4    1    3    3  502    0  0.79773432046E+03  0.44954885634E+03  0.18732157711E+04  0.20850451214E+04  0.12699999809E+01 0.  1.
       -4    1    3    3    0  502 -0.79773432046E+03 -0.44954885634E+03 -0.97067649393E+03  0.13344244786E+04  0.12699999809E+01 0. -1.
</event>
<event>
 5   0  0.9283910E-08  0.3314797E+04  0.7818609E-02  0.8159141E-01
       -1   -1    0    0    0  501  0.00000000000E+00  0.00000000000E+00  0.10823969650E+04  0.10823969650E+04  0.50400001928E-02 0.  1.
        1   -1    0    0  501    0  0.00000000000E+00  0.00000000000E+00 -0.25378574481E+04  0.25378574481E+04  0.50400001928E-02 0. -1.
    10030    2    1    2    0    0  0.00000000000E+00  0.00000000000E+00 -0.14554604832E+04  0.36202544131E+04  0.33147966450E+04 0.  0.
        3    1    3    3  502    0  0.92260076068E+03  0.11199493340E+04 -0.16024668865E+04  0.21617998999E+04  0.10100000352E+00 0.  1.
       -3    1    3    3    0  502 -0.92260076068E+03 -0.11199493340E+04  0.14700640335E+03  0.14584545133E+04  0.10100000352E+00 0. -1.
</event>
<event>
 5   0  0.9181760E-08  0.3306511E+04  0.7818609E-02  0.8161241E-01
        1   -1    0    0  501    0  0.00000000000E+00  0.00000000000E+00  0.16783720197E+04  0.16783720197E+04  0.50400001928E-02 0.  1.
       -1   -1    0    0    0  501  0.00000000000E+00  0.00000000000E+00 -0.16285152263E+04  0.16285152263E+04  0.50400001928E-02 0. -1.
    10030    2    1    2    0    0  0.00000000000E+00  0.00000000000E+00  0.49856793356E+02  0.33068872460E+04  0.33065113879E+04 0.  0.
        1    1    3    3  502    0  0.15025039867E+04  0.47212729670E+03 -0.47795276066E+03  0.16458618580E+04  0.50400001928E-02 0. -1.
       -1    1    3    3    0  502 -0.15025039867E+04 -0.47212729670E+03  0.52780955402E+03  0.16610253880E+04  0.50400001928E-02 0.  1.
</event>
<event>
 5   0  0.9283910E-08  0.3302710E+04  0.7818609E-02  0.8162206E-01
       -1   -1    0    0    0  501  0.00000000000E+00  0.00000000000E+00  0.14755747281E+04  0.14755747281E+04  0.50400001928E-02 0.  1.
        1   -1    0    0  501    0  0.00000000000E+00  0.00000000000E+00 -0.18480756508E+04  0.18480756509E+04  0.50400001928E-02 0. -1.
    10030    2    1    2    0    0  0.00000000000E+00  0.00000000000E+00 -0.37250092278E+03  0.33236503789E+04  0.33027102361E+04 0.  0.
        3    1    3    3  502    0 -0.53337289557E+03 -0.70586740742E+03  0.12169496318E+04  0.15045603541E+04  0.10100000352E+00 0.  1.
       -3    1    3    3    0  502  0.53337289557E+03  0.70586740742E+03 -0.15894505546E+04  0.18190900248E+04  0.10100000352E+00 0. -1.
</event>
<event>
 5   0  0.8805125E-08  0.3298050E+04  0.7818609E-02  0.8163392E-01
        4   -1    0    0  501    0  0.00000000000E+00  0.00000000000E+00  0.15685907112E+04  0.15685912253E+04  0.12699999809E+01 0. -1.
       -4   -1    0    0    0  501  0.00000000000E+00  0.00000000000E+00 -0.17335829623E+04  0.17335834275E+04  0.12699999809E+01 0.  1.
    10030    2    1    2    0    0  0.00000000000E+00  0.00000000000E+00 -0.16499225107E+03  0.33021746528E+04  0.32980501807E+04 0.  0.
        2    1    3    3  502    0 -0.25846060000E+02  0.70072607524E+03 -0.15768768525E+04  0.17257536496E+04  0.25500000920E-02 0.  1.
       -2    1    3    3    0  502  0.25846060000E+02 -0.70072607524E+03  0.14118846014E+04  0.15764210031E+04  0.25500000920E-02 0. -1.
</event>
<event>
 5   0  0.8805125E-08  0.3305042E+04  0.7818609E-02  0.8161614E-01
        1   -1    0    0  501    0  0.00000000000E+00  0.00000000000E+00  0.12056759345E+04  0.12056759346E+04  0.50400001928E-02 0.  1.
       -1   -1    0    0    0  501  0.00000000000E+00  0.00000000000E+00 -0.22649745332E+04  0.22649745332E+04  0.50400001928E-02 0. -1.
    10030    2    1    2    0    0  0.00000000000E+00  0.00000000000E+00 -0.10592985987E+04  0.34706504678E+04  0.33050417771E+04 0.  0.
        4    1    3    3  502    0 -0.13153815147E+04 -0.82186585320E+03  0.69125560485E+02  0.15525694722E+04  0.12699999809E+01 0.  1.
       -4    1    3    3    0  502  0.13153815147E+04  0.82186585320E+03 -0.11284241592E+04  0.19180809956E+04  0.12699999809E+01 0. -1.
</event>
<event>
 5   0  0.9181760E-08  0.3295888E+04  0.7818609E-02  0.8163943E-01
       -1   -1    0    0    0  501  0.00000000000E+00  0.00000000000E+00  0.12585536555E+04  0.12585536555E+04  0.50400001928E-02 0. -1.
        1   -1    0    0  501    0  0.00000000000E+00  0.00000000000E+00 -0.21578092213E+04  0.21578092213E+04  0.50400001928E-02 0.  1.
    10030    2    1    2    0    0  0.00000000000E+00  0.00000000000E+00 -0.89925556583E+03  0.34163628768E+04  0.32958875487E+04 0.  0.
        1    1    3    3  502    0 -0.50797773586E+03  0.14773437125E+04 -0.99333217141E+03  0.18512953918E+04  0.50400001928E-02 0.  1.
       -1    1    3    3    0  502  0.50797773586E+03 -0.14773437125E+04  0.94076605586E+02  0.15650674850E+04  0.50400001928E-02 0. -1.
</event>
<event>
 5   0  0.9283910E-08  0.3297877E+04  0.7818609E-02  0.8163436E-01
        1   -1    0    0  501    0  0.00000000000E+00  0.00000000000E+00  0.15978585701E+04  0.15978585701E+04  0.50400001928E-02 0.  1.
       -1   -1    0    0    0  501  0.00000000000E+00  0.00000000000E+00 -0.17016508792E+04  0.17016508792E+04  0.50400001928E-02 0. -1.
    10030    2    1    2    0    0  0.00000000000E+00  0.00000000000E+00 -0.10379230908E+03  0.32995094493E+04  0.32978765535E+04 0.  0.
        3    1    3    3  502    0  0.69059221901E+03 -0.11857633466E+04  0.86291159541E+03  0.16209777170E+04  0.10100000352E+00 0.  1.
       -3    1    3    3    0  502 -0.69059221901E+03  0.11857633466E+04 -0.96670390448E+03  0.16785317323E+04  0.10100000352E+00 0. -1.
</event>
<event>
 5   0  0.2703956E-07  0.3297096E+04  0.7818609E-02  0.8163635E-01
        2   -1    0    0  501    0  0.00000000000E+00  0.00000000000E+00  0.96856209913E+03  0.96856209914E+03  0.25500000920E-02 0. -1.
       -2   -1    0    0    0  501  0.00000000000E+00  0.00000000000E+00 -0.28059227630E+04  0.28059227630E+04  0.25500000920E-02 0.  1.
    10030    2    1    2    0    0  0.00000000000E+00  0.00000000000E+00 -0.18373606639E+04  0.37744848622E+04  0.32970959594E+04 0.  0.
        5    1    3    3  502    0  0.52200981823E+02 -0.10552873806E+04  0.52998072544E+03  0.11820567066E+04  0.46999998093E+01 0. -1.
       -5    1    3    3    0  502 -0.52200981823E+02  0.10552873806E+04 -0.23673413894E+04  0.25924281556E+04  0.46999998093E+01 0.  1.
</event>
<event>
 5   0  0.2713815E-07  0.3301311E+04  0.7818609E-02  0.8162562E-01
       -2   -1    0    0    0  501  0.00000000000E+00  0.00000000000E+00  0.15530029496E+04  0.15530029496E+04  0.25500000920E-02 0.  1.
        2   -1    0    0  501    0  0.00000000000E+00  0.00000000000E+00 -0.17544479183E+04  0.17544479183E+04  0.25500000920E-02 0. -1.
    10030    2    1    2    0    0  0.00000000000E+00  0.00000000000E+00 -0.20144496863E+03  0.33074508679E+04  0.33013105228E+04 0.  0.
        4    1    3    3  502    0  0.97476876047E+03 -0.10939404633E+04 -0.86225555552E+03  0.17001076817E+04  0.12699999809E+01 0. -1.
       -4    1    3    3    0  502 -0.97476876047E+03  0.10939404633E+04  0.66081058689E+03  0.16073431862E+04  0.12699999809E+01 0.  1.
</event>
<event>
 5   0  0.9810351E-08  0.3297268E+04  0.7818609E-02  0.8163591E-01
        1   -1    0    0  501    0  0.00000000000E+00  0.00000000000E+00  0.16461767306E+04  0.16461767306E+04  0.50400001928E-02 0.  1.
       -1   -1    0    0    0  501  0.00000000000E+00  0.00000000000E+00 -0.16510950203E+04  0.16510950203E+04  0.50400001928E-02 0. -1.
    10030    2    1    2    0    0  0.00000000000E+00  0.00000000000E+00 -0.49182897264E+01  0.32972717509E+04  0.32972680828E+04 0.  0.
        5    1    3    3  502    0 -0.13105072399E+04 -0.54365375885E+03  0.83717473111E+03  0.16473834574E+04  0.46999998093E+01 0.  1.
       -5    1    3    3    0  502  0.13105072399E+04  0.54365375885E+03 -0.84209302084E+03  0.16498882935E+04  0.46999998093E+01 0. -1.
</event>
<event>
 5   0  0.2713815E-07  0.3301180E+04  0.7818609E-02  0.8162595E-01
        2   -1    0    0  501    0  0.00000000000E+00  0.00000000000E+00  0.12261338113E+04  0.12261338113E+04  0.25500000920E-02 0.  1.
       -2   -1    0    0    0  501  0.00000000000E+00  0.00000000000E+00 -0.22219826651E+04  0.22219826651E+04  0.25500000920E-02 0. -1.
    10030    2    1    2    0    0  0.00000000000E+00  0.00000000000E+00 -0.99584885381E+03  0.34481164764E+04  0.33011804397E+04 0.  0.
        4    1    3    3  502    0  0.16035179121E+03  0.76858526755E+03 -0.20144475773E+04  0.21620445566E+04  0.12699999809E+01 0. -1.
       -4    1    3    3    0  502 -0.16035179121E+03 -0.76858526755E+03  0.10185987235E+04  0.12860719198E+04  0.12699999809E+01 0.  1.
</event>
<event>
 5   0  0.9283910E-08  0.3294030E+04  0.7818609E-02  0.8164416E-01
        1   -1    0    0  501    0  0.00000000000E+00  0.00000000000E+00  0.77800845730E+03  0.77800845732E+03  0.50400001928E-02 0. -1.
       -1   -1    0    0    0  501  0.00000000000E+00  0.00000000000E+00 -0.34866698157E+04  0.34866698157E+04  0.50400001928E-02 0.  1.
    10030    2    1    2    0    0  0.00000000000E+00  0.00000000000E+00 -0.27086613584E+04  0.42646782730E+04  0.32940301180E+04 0.  0.
        3    1    3    3  502    0  0.72878856844E+03  0.14417473436E+04 -0.93904575511E+03  0.18685756930E+04  0.10100000352E+00 0. -1.
       -3    1    3    3    0  502 -0.72878856844E+03 -0.14417473436E+04 -0.17696156033E+04  0.23961025800E+04  0.10100000352E+00 0.  1.
</event>
<event>
 5   0  0.2727168E-07  0.3301657E+04  0.7818609E-02  0.8162474E-01
       -2   -1    0    0    0  501  0.00000000000E+00  0.00000000000E+00  0.13386012471E+04  0.13386012471E+04  0.25500000920E-02 0.  1.
        2   -1    0    0  501    0  0.00000000000E+00  0.00000000000E+00 -0.20358818673E+04  0.20358818673E+04  0.25500000920E-02 0. -1.
    10030    2    1    2    0    0  0.00000000000E+00  0.00000000000E+00 -0.69728062019E+03  0.33744831144E+04  0.33016565578E+04 0.  0.
        2    1    3    3  502    0  0.12268545182E+04  0.10971015602E+04 -0.47964785747E+03  0.17143120805E+04  0.25500000920E-02 0.  1.
       -2    1    3    3    0  502 -0.12268545182E+04 -0.10971015602E+04 -0.21763276272E+03  0.16601710338E+04  0.25500000920E-02 0. -1.
</event>
<event>
 5   0  0.2824402E-07  0.3303931E+04  0.7818609E-02  0.8161896E-01
       -2   -1    0    0    0  501  0.00000000000E+00  0.00000000000E+00  0.18292393658E+04  0.18292393658E+04  0.25500000920E-02 0. -1.
        2   -1    0    0  501    0  0.00000000000E+00  0.00000000000E+00 -0.14918715110E+04  0.14918715110E+04  0.25500000920E-02 0.  1.
    10030    2    1    2    0    0  0.00000000000E+00  0.00000000000E+00  0.33736785480E+03  0.33211108767E+04  0.33039310505E+04 0.  0.
        1    1    3    3  502    0 -0.43803995356E+03  0.15891955163E+04  0.60566724737E+02  0.16495725865E+04  0.50400001928E-02 0.  1.
       -1    1    3    3    0  502  0.43803995356E+03 -0.15891955163E+04  0.27680113006E+03  0.16715382902E+04  0.50400001928E-02 0. -1.
</event>
<event>
 5   0  0.8805125E-08  0.3300008E+04  0.7818609E-02  0.8162893E-01
       -1   -1    0    0    0  501  0.00000000000E+00  0.00000000000E+00  0.12821135071E+04  0.12821135071E+04  0.50400001928E-02 0.  1.
        1   -1    0    0  501    0  0.00000000000E+00  0.00000000000E+00 -0.21234569472E+04  0.21234569472E+04  0.50400001928E-02 0. -1.
    10030    2    1    2    0    0  0.00000000000E+00  0.00000000000E+00 -0.84134344013E+03  0.34055704544E+04  0.33000077781E+04 0.  0.
        4    1    3    3  502    0 -0.28622444357E+03  0.16190535944E+04 -0.56386268762E+03  0.17381604405E+04  0.12699999809E+01 0.  1.
       -4    1    3    3    0  502  0.28622444357E+03 -0.16190535944E+04 -0.27748075251E+03  0.16674100139E+04  0.12699999809E+01 0. -1.
</event>
<event>
 5   0  0.2824402E-07  0.3300623E+04  0.7818609E-02  0.8162737E-01
       -2   -1    0    0    0  501  0.00000000000E+00  0.00000000000E+00  0.85954703013E+03  0.85954703013E+03  0.25500000920E-02 0. -1.
        2   -1    0    0  501    0  0.00000000000E+00  0.00000000000E+00 -0.31685618299E+04  0.31685618299E+04  0.25500000920E-02 0.  1.
    10030    2    1    2    0    0  0.00000000000E+00  0.00000000000E+00 -0.23090147998E+04  0.40281088601E+04  0.33006229174E+04 0.  0.
        1    1    3    3  502    0  0.30898310812E+03  0.16187779637E+04 -0.12610068788E+04  0.20751026493E+04  0.50400001928E-02 0. -1.
       -1    1    3    3    0  502 -0.30898310812E+03 -0.16187779637E+04 -0.10480079210E+04  0.19530062108E+04  0.50400001928E-02 0.  1.
</event>
<event>
 5   0  0.9454010E-08  0.3288460E+04  0.7818609E-02  0.8165838E-01
        1   -1    0    0  501    0  0.00000000000E+00  0.00000000000E+00  0.15924938953E+04  0.15924938953E+04  0.50400001928E-02 0. -1.
       -1   -1    0    0    0  501  0.00000000000E+00  0.00000000000E+00 -0.16976471950E+04  0.16976471950E+04  0.50400001928E-02 0.  1.
    10030    2    1    2    0    0  0.00000000000E+00  0.00000000000E+00 -0.10515329977E+03  0.32901410903E+04  0.32884603050E+04 0.  0.
        2    1    3    3  502    0  0.93769323031E+03  0.61060526149E+03 -0.12579269920E+04  0.16835936852E+04  0.25500000920E-02 0.  1.
       -2    1    3    3    0  502 -0.93769323031E+03 -0.61060526149E+03  0.11527736922E+04  0.16065474051E+04  0.25500000920E-02 0. -1.
</event>
<event>
 5   0  0.2713815E-07  0.3299732E+04  0.7818609E-02  0.8162964E-01
        2   -1    0    0  501    0  0.00000000000E+00  0.00000000000E+00  0.21268367341E+04  0.21268367341E+04  0.25500000920E-02 0. -1.
       -2   -1    0    0    0  501  0.00000000000E+00  0.00000000000E+00 -0.12798618700E+04  0.12798618700E+04  0.25500000920E-02 0.  1.
    10030    2    1    2    0    0  0.00000000000E+00  0.00000000000E+00  0.84697486411E+03  0.34066986042E+04  0.32997316496E+04 0.  0.
        4    1    3    3  502    0  0.12632955729E+04  0.12555415961E+03 -0.66441547710E+03  0.14328744155E+04  0.12699999809E+01 0.  1.
       -4    1    3    3    0  502 -0.12632955729E+04 -0.12555415961E+03  0.15113903412E+04  0.19738241887E+04  0.12699999809E+01 0. -1.
</event>
<event>
 5   0  0.2875829E-07  0.3303600E+04  0.7818609E-02  0.8161980E-01
       -2   -1    0    0    0  501  0.00000000000E+00  0.00000000000E+00  0.11124926484E+04  0.11124926484E+04  0.25500000920E-02 0. -1.
        2   -1    0    0  501    0  0.00000000000E+00  0.00000000000E+00 -0.24525487845E+04  0.24525487845E+04  0.25500000920E-02 0.  1.
    10030    2    1    2    0    0  0.00000000000E+00  0.00000000000E+00 -0.13400561361E+04  0.35650414330E+04  0.33035995476E+04 0.  0.
        3    1    3    3  502    0 -0.12484106300E+04  0.10072519899E+04 -0.24468208901E+03  0.16226382860E+04  0.10100000352E+00 0. -1.
       -3    1    3    3    0  502  0.12484106300E+04 -0.10072519899E+04 -0.10953740471E+04  0.19424031470E+04  0.10100000352E+00 0.  1.
</event>
<event>
 5   0  0.9454010E-08  0.3301599E+04  0.7818609E-02  0.8162489E-01
       -1   -1    0    0    0  501  0.00000000000E+00  0.00000000000E+00  0.17971503846E+04  0.17971503846E+04  0.50400001928E-02 0.  1.
        1   -1    0    0  501    0  0.00000000000E+00  0.00000000000E+00 -0.15163662753E+04  0.15163662753E+04  0.50400001928E-02 0. -1.
    10030    2    1    2    0    0  0.00000000000E+00  0.00000000000E+00  0.28078410927E+03  0.33135166599E+04  0.33015985431E+04 0.  0.
        2    1    3    3  502    0 -0.15506001086E+04 -0.26846310241E+03 -0.36011158566E+03  0.16143461488E+04  0.25500000920E-02 0. -1.
       -2    1    3    3    0  502  0.15506001086E+04  0.26846310241E+03  0.64089569493E+03  0.16991705111E+04  0.25500000920E-02 0.  1.
</event>
<event>
 5   0  0.8805125E-08  0.3307023E+04  0.7818609E-02  0.8161111E-01
       -1   -1    0    0    0  501  0.00000000000E+00  0.00000000000E+00  0.18847695446E+04  0.18847695446E+04  0.50400001928E-02 0. -1.
        1   -1    0    0  501    0  0.00000000000E+00  0.00000000000E+00 -0.14506286610E+04  0.14506286610E+04  0.50400001928E-02 0.  1.
    10030    2    1    2    0    0  0.00000000000E+00  0.00000000000E+00  0.43414088360E+03  0.33353982056E+04  0.33070232662E+04 0.  0.
        4    1    3    3  502    0 -0.15269795064E+03  0.16321963011E+04 -0.92683452467E+00  0.16393242209E+04  0.12699999809E+01 0.  1.
       -4    1    3    3    0  502  0.15269795064E+03 -0.16321963011E+04  0.43506771812E+03  0.16960739847E+04  0.12699999809E+01 0. -1.
</event>
<event>
 5   0  0.9283910E-08  0.3300715E+04  0.7818609E-02  0.8162714E-01
       -1   -1    0    0    0  501  0.00000000000E+00  0.00000000000E+00  0.16618699769E+04  0.16618699769E+04  0.50400001928E-02 0.  1.
        1   -1    0    0  501    0  0.00000000000E+00  0.00000000000E+00 -0.16389244273E+04  0.16389244273E+04  0.50400001928E-02 0. -1.
    10030    2    1    2    0    0  0.00000000000E+00  0.00000000000E+00  0.22945549622E+02  0.33007944042E+04  0.33007146500E+04 0.  0.
        3    1    3    3  502    0  0.98987575067E+03 -0.11427276851E+04  0.67330348770E+03  0.16549979338E+04  0.10100000352E+00 0.  1.
       -3    1    3    3    0  502 -0.98987575067E+03  0.11427276851E+04 -0.65035793807E+03  0.16457964704E+04  0.10100000352E+00 0. -1.
</event>
<event>
 5   0  0.9283910E-08  0.3306774E+04  0.7818609E-02  0.8161174E-01
        1   -1    0    0  501    0  0.00000000000E+00  0.00000000000E+00  0.10239355256E+04  0.10239355256E+04  0.50400001928E-02 0. -1.
       -1   -1    0    0    0  501  0.00000000000E+00  0.00000000000E+00 -0.26697860080E+04  0.26697860080E+04  0.50400001928E-02 0.  1.
    10030    2    1    2    0    0  0.00000000000E+00  0.00000000000E+00 -0.16458504824E+04  0.36937215336E+04  0.33067741013E+04 0.  0.
        3    1    3    3  502    0 -0.41819100747E+03 -0.13324014697E+03  0.95767491134E+03  0.10534599667E+04  0.10100000352E+00 0. -1.
       -3    1    3    3    0  502  0.41819100747E+03  0.13324014697E+03 -0.26035253937E+04  0.26402615669E+04  0.10100000352E+00 0.  1.
</event>
<event>
 5   0  0.2875829E-07  0.3302140E+04  0.7818609E-02  0.8162351E-01
        2   -1    0    0  501    0  0.00000000000E+00  0.00000000000E+00  0.17712592648E+04  0.17712592648E+04  0.25500000920E-02 0.  1.
       -2   -1    0    0    0  501  0.00000000000E+00  0.00000000000E+00 -0.15390359119E+04  0.15390359119E+04  0.25500000920E-02 0. -1.
    10030    2    1    2    0    0  0.00000000000E+00  0.00000000000E+00  0.23222335290E+03  0.33102951766E+04  0.33021396807E+04 0.  0.
        3    1    3    3  502    0 -0.96926355399E+03 -0.57017695587E+03  0.13280051652E+04  0.17401641667E+04  0.10100000352E+00 0.  1.
       -3    1    3    3    0  502  0.96926355399E+03  0.57017695587E+03 -0.10957818123E+04  0.15701310100E+04  0.10100000352E+00 0. -1.
</event>
<event>
 5   0  0.2703956E-07  0.3304499E+04  0.7818609E-02  0.8161752E-01
       -2   -1    0    0    0  501  0.00000000000E+00  0.00000000000E+00  0.17466707242E+04  0.17466707242E+04  0.25500000920E-02 0. -1.
        2   -1    0    0  501    0  0.00000000000E+00  0.00000000000E+00 -0.15629322089E+04  0.15629322089E+04  0.25500000920E-02 0.  1.
    10030    2    1    2    0    0  0.00000000000E+00  0.00000000000E+00  0.18373851538E+03  0.33096029331E+04  0.33044987113E+04 0.  0.
        5    1    3    3  502    0  0.48562203242E+03  0.15408095795E+04 -0.25505129364E+03  0.16355415528E+04  0.46999998093E+01 0.  1.
       -5    1    3    3    0  502 -0.48562203242E+03 -0.15408095795E+04  0.43878980902E+03  0.16740613803E+04  0.46999998093E+01 0. -1.
</event>
<event>
 5   0  0.2727168E-07  0.3293861E+04  0.7818609E-02  0.8164459E-01
       -2   -1    0    0    0  501  0.00000000000E+00  0.00000000000E+00  0.12807572022E+04  0.12807572022E+04  0.25500000920E-02 0. -1.
        2   -1    0    0  501    0  0.00000000000E+00  0.00000000000E+00 -0.21177947468E+04  0.21177947468E+04  0.25500000920E-02 0.  1.
    10030    2    1    2    0    0  0.00000000000E+00  0.00000000000E+00 -0.83703754456E+03  0.33985519490E+04  0.32938614875E+04 0.  0.
        2    1    3    3  502    0 -0.10163226470E+04 -0.67489736510E+03  0.72298202681E+03  0.14181329935E+04  0.25500000920E-02 0. -1.
       -2    1    3    3    0  502  0.10163226470E+04  0.67489736510E+03 -0.15600195714E+04  0.19804189555E+04  0.25500000920E-02 0.  1.
</event>
<event>
 5   0  0.9283910E-08  0.3315474E+04  0.7818609E-02  0.8158969E-01
        1   -1    0    0  501    0  0.00000000000E+00  0.00000000000E+00  0.19430850052E+04  0.19430850052E+04  0.50400001928E-02 0.  1.
       -1   -1    0    0    0  501  0.00000000000E+00  0.00000000000E+00 -0.14142933873E+04  0.14142933873E+04  0.50400001928E-02 0. -1.
    10030    2    1    2    0    0  0.00000000000E+00  0.00000000000E+00  0.52879161795E+03  0.33573783925E+04  0.33154741886E+04 0.  0.
        3    1    3    3  502    0 -0.16143754815E+04  0.34348161641E+03  0.10783105648E+03  0.16540300369E+04  0.10100000352E+00 0.  1.
       -3    1    3    3    0  502  0.16143754815E+04 -0.34348161641E+03  0.42096056148E+03  0.17033483556E+04  0.10100000352E+00 0. -1.
</event>
<event>
 5   0  0.2727168E-07  0.3300591E+04  0.7818609E-02  0.8162745E-01
       -2   -1    0    0    0  501  0.00000000000E+00  0.00000000000E+00  0.23148527694E+04  0.23148527694E+04  0.25500000920E-02 0.  1.
        2   -1    0    0  501    0  0.00000000000E+00  0.00000000000E+00 -0.11765218381E+04  0.11765218381E+04  0.25500000920E-02 0. -1.
    10030    2    1    2    0    0  0.00000000000E+00  0.00000000000E+00  0.11383309313E+04  0.34913746075E+04  0.33005907563E+04 0.  0.
        2    1    3    3  502    0  0.45343226444E+03  0.10795883074E+04  0.17992966456E+04  0.21467603850E+04  0.25500000920E-02 0.  1.
       -2    1    3    3    0  502 -0.45343226444E+03 -0.10795883074E+04 -0.66096571429E+03  0.13446142225E+04  0.25500000920E-02 0. -1.
</event>
<event>
 5   0  0.9181760E-08  0.3299892E+04  0.7818609E-02  0.8162923E-01
       -1   -1    0    0    0  501  0.00000000000E+00  0.00000000000E+00  0.18332855637E+04  0.18332855637E+04  0.50400001928E-02 0.  1.
        1   -1    0    0  501    0  0.00000000000E+00  0.00000000000E+00 -0.14849415076E+04  0.14849415076E+04  0.50400001928E-02 0. -1.
    10030    2    1    2    0    0  0.00000000000E+00  0.00000000000E+00  0.34834405614E+03  0.33182270713E+04  0.32998920157E+04 0.  0.
        1    1    3    3  502    0 -0.74968925275E+03 -0.11581281497E+04 -0.73585752102E+03  0.15635795720E+04  0.50400001928E-02 0. -1.
       -1    1    3    3    0  502  0.74968925275E+03  0.11581281497E+04  0.10842015772E+04  0.17546474993E+04  0.50400001928E-02 0.  1.
</event>
<event>
 5   0  0.9810351E-08  0.3294194E+04  0.7818609E-02  0.8164374E-01
        1   -1    0    0  501    0  0.00000000000E+00  0.00000000000E+00  0.23922795468E+04  0.23922795468E+04  0.50400001928E-02 0.  1.
       -1   -1    0    0    0  501  0.00000000000E+00  0.00000000000E+00 -0.11340351041E+04  0.11340351041E+04  0.50400001928E-02 0. -1.
    10030    2    1    2    0    0  0.00000000000E+00  0.00000000000E+00  0.12582444426E+04  0.35263146509E+04  0.32941942778E+04 0.  0.
        5    1    3    3  502    0 -0.10741726267E+04 -0.91723420152E+03 -0.27777041750E+03  0.14395637906E+04  0.46999998093E+01 0. -1.
       -5    1    3    3    0  502  0.10741726267E+04  0.91723420152E+03  0.15360148601E+04  0.20867508603E+04  0.46999998093E+01 0.  1.
</event>
<event>
 5   0  0.2713815E-07  0.3311150E+04  0.7818609E-02  0.8160064E-01
       -2   -1    0    0    0  501  0.00000000000E+00  0.00000000000E+00  0.12159205690E+04  0.12159205691E+04  0.25500000920E-02 0. -1.
        2   -1    0    0  501    0  0.00000000000E+00  0.00000000000E+00 -0.22542003082E+04  0.22542003082E+04  0.25500000920E-02 0.  1.
    10030    2    1    2    0    0  0.00000000000E+00  0.00000000000E+00 -0.10382797392E+04  0.34701208773E+04  0.33111499643E+04 0.  0.
        4    1    3    3  502    0 -0.71937828976E+03  0.73331064732E+03  0.84153062998E+03  0.13279401505E+04  0.12699999809E+01 0. -1.
       -4    1    3    3    0  502  0.71937828976E+03 -0.73331064732E+03 -0.18798103691E+04  0.21421807267E+04  0.12699999809E+01 0.  1.
</event>
<event>
 5   0  0.9283910E-08  0.3291055E+04  0.7818609E-02  0.8165175E-01
       -1   -1    0    0    0  501  0.00000000000E+00  0.00000000000E+00  0.16100382524E+04  0.16100382524E+04  0.50400001928E-02 0.  1.
        1   -1    0    0  501    0  0.00000000000E+00  0.00000000000E+00 -0.16817992830E+04  0.16817992830E+04  0.50400001928E-02 0. -1.
    10030    2    1    2    0    0  0.00000000000E+00  0.00000000000E+00 -0.71761030560E+02  0.32918375355E+04  0.32910552585E+04 0.  0.
        3    1    3    3  502    0  0.62003581432E+03  0.85323795727E+02  0.14863342436E+04  0.16127349612E+04  0.10100000352E+00 0.  1.
       -3    1    3    3    0  502 -0.62003581432E+03 -0.85323795727E+02 -0.15580952742E+04  0.16791025742E+04  0.10100000352E+00 0. -1.
</event>
<event>
 5   0  0.9181760E-08  0.3290084E+04  0.7818609E-02  0.8165423E-01
       -1   -1    0    0    0  501  0.00000000000E+00  0.00000000000E+00  0.10452134385E+04  0.10452134385E+04  0.50400001928E-02 0. -1.
        1   -1    0    0  501    0  0.00000000000E+00  0.00000000000E+00 -0.25891007854E+04  0.25891007854E+04  0.50400001928E-02 0.  1.
    10030    2    1    2    0    0  0.00000000000E+00  0.00000000000E+00 -0.15438873470E+04  0.36343142239E+04  0.32900838497E+04 0.  0.
        1    1    3    3  502    0  0.78360478570E+03 -0.18875167623E+03 -0.23560334397E+04  0.24900918104E+04  0.50400001928E-02 0.  1.
       -1    1    3    3    0  502 -0.78360478570E+03  0.18875167623E+03  0.81214609274E+03  0.11442224134E+04  0.50400001928E-02 0. -1.
</event>
<event>
 5   0  0.9454010E-08  0.3294731E+04  0.7818609E-02  0.8164237E-01
        1   -1    0    0  501    0  0.00000000000E+00  0.00000000000E+00  0.18701150478E+04  0.18701150478E+04  0.50400001928E-02 0. -1.
       -1   -1    0    0    0  501  0.00000000000E+00  0.00000000000E+00 -0.14511472637E+04  0.14511472637E+04  0.50400001928E-02 0.  1.
    10030    2    1    2    0    0  0.00000000000E+00  0.00000000000E+00  0.41896778405E+03  0.33212623115E+04  0.32947305410E+04 0.  0.
        2    1    3    3  502    0  0.13241432179E+04 -0.75019978497E+03 -0.42619499258E+03  0.15804420744E+04  0.25500000920E-02 0.  1.
       -2    1    3    3    0  502 -0.13241432179E+04  0.75019978497E+03  0.84516277662E+03  0.17408202371E+04  0.25500000920E-02 0. -1.
</event>
<event>
 5   0  0.8805125E-08  0.3290966E+04  0.7818609E-02  0.8165198E-01
        1   -1    0    0  501    0  0.00000000000E+00  0.00000000000E+00  0.13457606283E+04  0.13457606283E+04  0.50400001928E-02 0.  1.
       -1   -1    0    0    0  501  0.00000000000E+00  0.00000000000E+00 -0.20119580377E+04  0.20119580377E+04  0.50400001928E-02 0. -1.
    10030    2    1    2    0    0  0.00000000000E+00  0.00000000000E+00 -0.66619740944E+03  0.33577186660E+04  0.32909657627E+04 0.  0.
        4    1    3    3  502    0  0.77085843080E+03 -0.48516659735E+03 -0.17312979912E+04  0.19562729090E+04  0.12699999809E+01 0. -1.
       -4    1    3    3    0  502 -0.77085843080E+03  0.48516659735E+03  0.10651005817E+04  0.14014457569E+04  0.12699999809E+01 0.  1.
</event>
<event>
 5   0  0.8805125E-08  0.3302325E+04  0.7818609E-02  0.8162304E-01
        3   -1    0    0  501    0  0.00000000000E+00  0.00000000000E+00  0.15526284668E+04  0.15526284701E+04  0.10100000352E+00 0.  1.
       -3   -1    0    0    0  501  0.00000000000E+00  0.00000000000E+00 -0.17559497184E+04  0.17559497213E+04  0.10100000352E+00 0. -1.
    10030    2    1    2    0    0  0.00000000000E+00  0.00000000000E+00 -0.20332125161E+03  0.33085781914E+04  0.33023249563E+04 0.  0.
        3    1    3    3  502    0  0.13566500286E+04 -0.31612475400E+03 -0.98985121767E+03  0.17088708563E+04  0.10100000352E+00 0. -1.
       -3    1    3    3    0  502 -0.13566500286E+04  0.31612475400E+03  0.78652996606E+03  0.15997073351E+04  0.10100000352E+00 0.  1.
</event>
<event>
 5   0  0.2824402E-07  0.3274592E+04  0.7818609E-02  0.8169391E-01
       -2   -1    0    0    0  501  0.00000000000E+00  0.00000000000E+00  0.11589843729E+04  0.11589843729E+04  0.25500000920E-02 0. -1.
        2   -1    0    0  501    0  0.00000000000E+00  0.00000000000E+00 -0.23130067178E+04  0.23130067178E+04  0.25500000920E-02 0.  1.
    10030    2    1    2    0    0  0.00000000000E+00  0.00000000000E+00 -0.11540223448E+04  0.34719910907E+04  0.32745922741E+04 0.  0.
        1    1    3    3  502    0  0.50572380185E+03  0.13652999357E+04 -0.13711178771E+04  0.19999411770E+04  0.50400001928E-02 0.  1.
       -1    1    3    3    0  502 -0.50572380185E+03 -0.13652999357E+04  0.21709553232E+03  0.14720499137E+04  0.50400001928E-02 0. -1.
</event>
<event>
 5   0  0.9454010E-08  0.3304043E+04  0.7818609E-02  0.8161867E-01
       -1   -1    0    0    0  501  0.00000000000E+00  0.00000000000E+00  0.28049387913E+04  0.28049387913E+04  0.50400001928E-02 0. -1.
        1   -1    0    0  501    0  0.00000000000E+00  0.00000000000E+00 -0.97298900047E+03  0.97298900048E+03  0.50400001928E-02 0.  1.
    10030    2    1    2    0    0  0.00000000000E+00  0.00000000000E+00  0.18319497908E+04  0.37779277918E+04  0.33040427303E+04 0.  0.
        2    1    3    3  502    0 -0.93073113790E+03 -0.44918116660E+03  0.23896864130E+04  0.26035793293E+04  0.25500000920E-02 0. -1.
       -2    1    3    3    0  502  0.93073113790E+03  0.44918116660E+03 -0.55773662221E+03  0.11743484624E+04  0.25500000920E-02 0.  1.
</event>
<event>
 5   0  0.2875829E-07  0.3299329E+04  0.7818609E-02  0.8163066E-01
       -2   -1    0    0    0  501  0.00000000000E+00  0.00000000000E+00  0.16182610567E+04  0.16182610567E+04  0.25500000920E-02 0. -1.
        2   -1    0    0  501    0  0.00000000000E+00  0.00000000000E+00 -0.16816777542E+04  0.16816777542E+04  0.25500000920E-02 0.  1.
    10030    2    1    2    0    0  0.00000000000E+00  0.00000000000E+00 -0.63416697506E+02  0.32999388110E+04  0.32993293983E+04 0.  0.
        3    1    3    3  502    0  0.79999885268E+03 -0.20063481193E+03 -0.14606573392E+04  0.16774302862E+04  0.10100000352E+00 0.  1.
       -3    1    3    3    0  502 -0.79999885268E+03  0.20063481193E+03  0.13972406417E+04  0.16225085248E+04  0.10100000352E+00 0. -1.
</event>
<event>
 5   0  0.8805125E-08  0.3294810E+04  0.7818609E-02  0.8164217E-01
       -1   -1    0    0    0  501  0.00000000000E+00  0.00000000000E+00  0.16631193600E+04  0.16631193600E+04  0.50400001928E-02 0. -1.
        1   -1    0    0  501    0  0.00000000000E+00  0.00000000000E+00 -0.16318387585E+04  0.16318387585E+04  0.50400001928E-02 0.  1.
    10030    2    1    2    0    0  0.00000000000E+00  0.00000000000E+00  0.31280601543E+02  0.32949581185E+04  0.32948096344E+04 0.  0.
        4    1    3    3  502    0 -0.47963282055E+03  0.72479511282E+02  0.15900809973E+04  0.16624259722E+04  0.12699999809E+01 0. -1.
       -4    1    3    3    0  502  0.47963282055E+03 -0.72479511282E+02 -0.15588003957E+04  0.16325321463E+04  0.12699999809E+01 0.  1.
</event>
<event>
 5   0  0.2824402E-07  0.3301088E+04  0.7818609E-02  0.8162619E-01
       -2   -1    0    0    0  501  0.00000000000E+00  0.00000000000E+00  0.11066095540E+04  0.11066095540E+04  0.25500000920E-02 0. -1.
        2   -1    0    0  501    0  0.00000000000E+00  0.00000000000E+00 -0.24618400541E+04  0.24618400541E+04  0.25500000920E-02 0.  1.
    10030    2    1    2    0    0  0.00000000000E+00  0.00000000000E+00 -0.13552305000E+04  0.35684496081E+04  0.33010881384E+04 0.  0.
        1    1    3    3  502    0  0.56315838477E+03 -0.13392721177E+04 -0.15243145866E+04  0.21057853951E+04  0.50400001928E-02 0.  1.
       -1    1    3    3    0  502 -0.56315838477E+03  0.13392721177E+04  0.16908408654E+03  0.14626642129E+04  0.50400001928E-02 0. -1.
</event>
<event>
 5   0  0.9283910E-08  0.3301696E+04  0.7818609E-02  0.8162464E-01
       -1   -1    0    0    0  501  0.00000000000E+00  0.00000000000E+00  0.12307942767E+04  0.12307942767E+04  0.50400001928E-02 0.  1.
        1   -1    0    0  501    0  0.00000000000E+00  0.00000000000E+00 -0.22142604397E+04  0.22142604397E+04  0.50400001928E-02 0. -1.
    10030    2    1    2    0    0  0.00000000000E+00  0.00000000000E+00 -0.98346616292E+03  0.34450547164E+04  0.33016959741E+04 0.  0.
        3    1    3    3  502    0 -0.18881453824E+03 -0.66498952872E+03 -0.20559710137E+04  0.21690732635E+04  0.10100000352E+00 0. -1.
       -3    1    3    3    0  502  0.18881453824E+03  0.66498952872E+03  0.10725048507E+04  0.12759814529E+04  0.10100000352E+00 0.  1.
</event>
<event>
 5   0  0.2713815E-07  0.3299847E+04  0.7818609E-02  0.8162934E-01
        2   -1    0    0  501    0  0.00000000000E+00  0.00000000000E+00  0.17714244316E+04  0.17714244316E+04  0.25500000920E-02 0.  1.
       -2   -1    0    0    0  501  0.00000000000E+00  0.00000000000E+00 -0.15367559274E+04  0.15367559274E+04  0.25500000920E-02 0. -1.
    10030    2    1    2    0    0  0.00000000000E+00  0.00000000000E+00  0.23466850419E+03  0.33081803590E+04  0.32998466602E+04 0.  0.
        4    1    3    3  502    0 -0.36841566778E+03  0.52977223224E+03 -0.14050054470E+04  0.15461017565E+04  0.12699999809E+01 0. -1.
       -4    1    3    3    0  502  0.36841566778E+03 -0.52977223224E+03  0.16396739512E+04  0.17620786025E+04  0.12699999809E+01 0.  1.
</event>
<event>
 5   0  0.2713815E-07  0.3302909E+04  0.7818609E-02  0.8162156E-01
        2   -1    0    0  501    0  0.00000000000E+00  0.00000000000E+00  0.28399803252E+04  0.28399803252E+04  0.25500000920E-02 0. -1.
       -2   -1    0    0    0  501  0.00000000000E+00  0.00000000000E+00 -0.96032432018E+03  0.96032432018E+03  0.25500000920E-02 0.  1.
    10030    2    1    2    0    0  0.00000000000E+00  0.00000000000E+00  0.18796560050E+04  0.38003046454E+04  0.33029091269E+04 0.  0.
        4    1    3    3  502    0  0.33470292786E+03  0.15446966334E+04  0.14906567652E+04  0.21725958998E+04  0.12699999809E+01 0. -1.
       -4    1    3    3    0  502 -0.33470292786E+03 -0.15446966334E+04  0.38899923979E+03  0.16277087456E+04  0.12699999809E+01 0.  1.
</event>
<event>
 5   0  0.2703956E-07  0.3319420E+04  0.7818609E-02  0.8157971E-01
       -2   -1    0    0    0  501  0.00000000000E+00  0.00000000000E+00  0.15636827130E+04  0.15636827130E+04  0.25500000920E-02 0. -1.
        2   -1    0    0  501    0  0.00000000000E+00  0.00000000000E+00 -0.17616346355E+04  0.17616346355E+04  0.25500000920E-02 0.  1.
    10030    2    1    2    0    0  0.00000000000E+00  0.00000000000E+00 -0.19795192254E+03  0.33253173485E+04  0.33194202060E+04 0.  0.
        5    1    3    3  502    0  0.47086700058E+03 -0.32775426990E+01 -0.16933086443E+04  0.17575672759E+04  0.46999998093E+01 0.  1.
       -5    1    3    3    0  502 -0.47086700058E+03  0.32775426990E+01  0.14953567218E+04  0.15677500725E+04  0.46999998093E+01 0. -1.
</event>
<event>
 5   0  0.2727168E-07  0.3304914E+04  0.7818609E-02  0.8161646E-01
        2   -1    0    0  501    0  0.00000000000E+00  0.00000000000E+00  0.14779182952E+04  0.14779182952E+04  0.25500000920E-02 0.  1.
       -2   -1    0    0    0  501  0.00000000000E+00  0.00000000000E+00 -0.18476083112E+04  0.18476083112E+04  0.25500000920E-02 0. -1.
    10030    2    1    2    0    0  0.00000000000E+00  0.00000000000E+00 -0.36969001597E+03  0.33255266064E+04  0.33049139931E+04 0.  0.
        2    1    3    3  502    0 -0.14374427328E+04  0.38769186807E+03 -0.90630184263E+03  0.17429657554E+04  0.25500000920E-02 0. -1.
       -2    1    3    3    0  502  0.14374427328E+04 -0.38769186807E+03  0.53661182667E+03  0.15825608510E+04  0.25500000920E-02 0.  1.
</event>
<event>
 5   0  0.2875829E-07  0.3305817E+04  0.7818609E-02  0.8161417E-01
       -2   -1    0    0    0  501  0.00000000000E+00  0.00000000000E+00  0.21887323473E+04  0.21887323473E+04  0.25500000920E-02 0. -1.
        2   -1    0    0  501    0  0.00000000000E+00  0.00000000000E+00 -0.12482597159E+04  0.12482597159E+04  0.25500000920E-02 0.  1.
    10030    2    1    2    0    0  0.00000000000E+00  0.00000000000E+00  0.94047263134E+03  0.34369920632E+04  0.33058169448E+04 0.  0.
        3    1    3    3  502    0 -0.11554224000E+04 -0.11698822417E+04  0.29477655135E+03  0.16704845427E+04  0.10100000352E+00 0.  1.
       -3    1    3    3    0  502  0.11554224000E+04  0.11698822417E+04  0.64569607999E+03  0.17665075205E+04  0.10100000352E+00 0. -1.
</event>
<event>
 5   0  0.2875829E-07  0.3206827E+04  0.7818609E-02  0.8187016E-01
        2   -1    0    0  501    0  0.00000000000E+00  0.00000000000E+00  0.30520408513E+04  0.30520408513E+04  0.25500000920E-02 0.  1.
       -2   -1    0    0    0  501  0.00000000000E+00  0.00000000000E+00 -0.84236590423E+03  0.84236590423E+03  0.25500000920E-02 0. -1.
    10030    2    1    2    0    0  0.00000000000E+00  0.00000000000E+00  0.22096749470E+04  0.38944067555E+04  0.32068271867E+04 0.  0.
        3    1    3    3  502    0  0.49901553679E+03  0.14031036917E+04  0.18265887754E+04  0.23567229451E+04  0.10100000352E+00 0.  1.
       -3    1    3    3    0  502 -0.49901553679E+03 -0.14031036917E+04  0.38308617165E+03  0.15376838104E+04  0.10100000352E+00 0. -1.
</event>
<event>
 5   0  0.2727168E-07  0.3294425E+04  0.7818609E-02  0.8164315E-01
        2   -1    0    0  501    0  0.00000000000E+00  0.00000000000E+00  0.11390810979E+04  0.11390810979E+04  0.25500000920E-02 0. -1.
       -2   -1    0    0    0  501  0.00000000000E+00  0.00000000000E+00 -0.23820158808E+04  0.23820158808E+04  0.25500000920E-02 0.  1.
    10030    2    1    2    0    0  0.00000000000E+00  0.00000000000E+00 -0.12429347829E+04  0.35210969787E+04  0.32944251485E+04 0.  0.
        2    1    3    3  502    0  0.13058034897E+04  0.90047175740E+03 -0.14667610429E+03  0.15929488438E+04  0.25500000920E-02 0. -1.
       -2    1    3    3    0  502 -0.13058034897E+04 -0.90047175740E+03 -0.10962586786E+04  0.19281481349E+04  0.25500000920E-02 0.  1.
</event>
<event>
 5   0  0.9454010E-08  0.3303336E+04  0.7818609E-02  0.8162047E-01
        1   -1    0    0  501    0  0.00000000000E+00  0.00000000000E+00  0.21575249055E+04  0.21575249055E+04  0.50400001928E-02 0.  1.
       -1   -1    0    0    0  501  0.00000000000E+00  0.00000000000E+00 -0.12644148114E+04  0.12644148114E+04  0.50400001928E-02 0. -1.
    10030    2    1    2    0    0  0.00000000000E+00  0.00000000000E+00  0.89311009412E+03  0.34219397169E+04  0.33033355545E+04 0.  0.
        2    1    3    3  502    0  0.15773670200E+04  0.19191681288E+03  0.91338792894E+03  0.18328110344E+04  0.25500000920E-02 0.  1.
       -2    1    3    3    0  502 -0.15773670200E+04 -0.19191681288E+03 -0.20277834824E+02  0.15891286825E+04  0.25500000920E-02 0. -1.
</event>
<event>
 5   0  0.2875829E-07  0.3306096E+04  0.7818609E-02  0.8161346E-01
       -2   -1    0    0    0  501  0.00000000000E+00  0.00000000000E+00  0.13475791010E+04  0.13475791010E+04  0.25500000920E-02 0. -1.
        2   -1    0    0  501    0  0.00000000000E+00  0.00000000000E+00 -0.20277606260E+04  0.20277606260E+04  0.25500000920E-02 0.  1.
    10030    2    1    2    0    0  0.00000000000E+00  0.00000000000E+00 -0.68018152501E+03  0.33753397270E+04  0.33060960914E+04 0.  0.
        3    1    3    3  502    0 -0.95873797201E+03  0.75175370128E+03  0.80056289827E+03  0.14578110614E+04  0.10100000352E+00 0. -1.
       -3    1    3    3    0  502  0.95873797201E+03 -0.75175370128E+03 -0.14807444233E+04  0.19175286657E+04  0.10100000352E+00 0.  1.
</event>
<event>
 5   0  0.9181760E-08  0.3309428E+04  0.7818609E-02  0.8160501E-01
        1   -1    0    0  501    0  0.00000000000E+00  0.00000000000E+00  0.11387159452E+04  0.11387159452E+04  0.50400001928E-02 0.  1.
       -1   -1    0    0    0  501  0.00000000000E+00  0.00000000000E+00 -0.24045313544E+04  0.24045313544E+04  0.50400001928E-02 0. -1.
    10030    2    1    2    0    0  0.00000000000E+00  0.00000000000E+00 -0.12658154093E+04  0.35432472996E+04  0.33094278623E+04 0.  0.
        1    1    3    3  502    0 -0.64924854078E+03 -0.47341480642E+03 -0.21816327469E+04  0.23249014364E+04  0.50400001928E-02 0. -1.
       -1    1    3    3    0  502  0.64924854078E+03  0.47341480642E+03  0.91581733758E+03  0.12183458632E+04  0.50400001928E-02 0.  1.
</event>
<event>
 5   0  0.2824402E-07  0.3298750E+04  0.7818609E-02  0.8163214E-01
        2   -1    0    0  501    0  0.00000000000E+00  0.00000000000E+00  0.11636973300E+04  0.11636973300E+04  0.25500000920E-02 0. -1.
       -2   -1    0    0    0  501  0.00000000000E+00  0.00000000000E+00 -0.23377535653E+04  0.23377535653E+04  0.25500000920E-02 0.  1.
    10030    2    1    2    0    0  0.00000000000E+00  0.00000000000E+00 -0.11740562352E+04  0.35014508953E+04  0.32987498130E+04 0.  0.
        1    1    3    3  502    0 -0.26027778326E+03 -0.26633715147E+03 -0.22925464497E+04  0.23225953644E+04  0.50400001928E-02 0.  1.
       -1    1    3    3    0  502  0.26027778326E+03  0.26633715147E+03  0.11184902145E+04  0.11788555309E+04  0.50400001928E-02 0. -1.
</event>
<event>
 5   0  0.2727168E-07  0.3300674E+04  0.7818609E-02  0.8162724E-01
       -2   -1    0    0    0  501  0.00000000000E+00  0.00000000000E+00  0.10204686448E+04  0.10204686448E+04  0.25500000920E-02 0. -1.
        2   -1    0    0  501    0  0.00000000000E+00  0.00000000000E+00 -0.26689815696E+04  0.26689815696E+04  0.25500000920E-02 0.  1.
    10030    2    1    2    0    0  0.00000000000E+00  0.00000000000E+00 -0.16485129248E+04  0.36894502145E+04  0.33006738739E+04 0.  0.
        2    1    3    3  502    0 -0.13092517101E+04  0.49881123897E+02 -0.19459398527E+04  0.23459134846E+04  0.25500000920E-02 0.  1.
       -2    1    3    3    0  502  0.13092517101E+04 -0.49881123897E+02  0.29742692788E+03  0.13435367298E+04  0.25500000920E-02 0. -1.
</event>
<event>
 5   0  0.8805125E-08  0.3299832E+04  0.7818609E-02  0.8162938E-01
       -1   -1    0    0    0  501  0.00000000000E+00  0.00000000000E+00  0.30489817932E+04  0.30489817932E+04  0.50400001928E-02 0.  1.
        1   -1    0    0  501    0  0.00000000000E+00  0.00000000000E+00 -0.89283019173E+03  0.89283019175E+03  0.50400001928E-02 0. -1.
    10030    2    1    2    0    0  0.00000000000E+00  0.00000000000E+00  0.21561516015E+04  0.39418119850E+04  0.32998321164E+04 0.  0.
        4    1    3    3  502    0 -0.16021617576E+04 -0.34650748499E+03  0.85385775564E+03  0.18482598341E+04  0.12699999809E+01 0. -1.
       -4    1    3    3    0  502  0.16021617576E+04  0.34650748499E+03  0.13022938458E+04  0.20935521509E+04  0.12699999809E+01 0.  1.
</event>
<event>
 5   0  0.2703956E-07  0.3297058E+04  0.7818609E-02  0.8163644E-01
       -2   -1    0    0    0  501  0.00000000000E+00  0.00000000000E+00  0.24065270403E+04  0.24065270403E+04  0.25500000920E-02 0. -1.
        2   -1    0    0  501    0  0.00000000000E+00  0.00000000000E+00 -0.11292824152E+04  0.11292824152E+04  0.25500000920E-02 0.  1.
    10030    2    1    2    0    0  0.00000000000E+00  0.00000000000E+00  0.12772446251E+04  0.35358094555E+04  0.32970584881E+04 0.  0.
        5    1    3    3  502    0 -0.76760947862E+03 -0.11113425632E+04  0.16522202633E+04  0.21340479125E+04  0.46999998093E+01 0. -1.
       -5    1    3    3    0  502  0.76760947862E+03  0.11113425632E+04 -0.37497563822E+03  0.14017615431E+04  0.46999998093E+01 0.  1.
</event>
<event>
 5   0  0.9283910E-08  0.3301634E+04  0.7818609E-02  0.8162480E-01
        1   -1    0    0  501    0  0.00000000000E+00  0.00000000000E+00  0.20940372427E+04  0.20940372427E+04  0.50400001928E-02 0.  1.
       -1   -1    0    0    0  501  0.00000000000E+00  0.00000000000E+00 -0.13014078106E+04  0.13014078107E+04  0.50400001928E-02 0. -1.
    10030    2    1    2    0    0  0.00000000000E+00  0.00000000000E+00  0.79262943206E+03  0.33954450534E+04  0.33016337916E+04 0.  0.
        3    1    3    3  502    0  0.90494233148E+03 -0.13237557905E+04  0.79982310728E+03  0.17919171380E+04  0.10100000352E+00 0.  1.
       -3    1    3    3    0  502 -0.90494233148E+03  0.13237557905E+04 -0.71936752211E+01  0.16035279154E+04  0.10100000352E+00 0. -1.
</event>
<event>
 5   0  0.9283910E-08  0.3288511E+04  0.7818609E-02  0.8165825E-01
        1   -1    0    0  501    0  0.00000000000E+00  0.00000000000E+00  0.25221344332E+04  0.25221344332E+04  0.50400001928E-02 0. -1.
       -1   -1    0    0    0  501  0.00000000000E+00  0.00000000000E+00 -0.10719397210E+04  0.10719397210E+04  0.50400001928E-02 0.  1.
    10030    2    1    2    0    0  0.00000000000E+00  0.00000000000E+00  0.14501947122E+04  0.35940741543E+04  0.32885109583E+04 0.  0.
        3    1    3    3  502    0  0.82227680759E+03  0.14178591672E+04  0.58212832082E+03  0.17393496366E+04  0.10100000352E+00 0.  1.
       -3    1    3    3    0  502 -0.82227680759E+03 -0.14178591672E+04  0.86806639138E+03  0.18547245176E+04  0.10100000352E+00 0. -1.
</event>
<event>
 5   0  0.8805125E-08  0.3292012E+04  0.7818609E-02  0.8164931E-01
       -1   -1    0    0    0  501  0.00000000000E+00  0.00000000000E+00  0.14454492496E+04  0.14454492496E+04  0.50400001928E-02 0. -1.
        1   -1    0    0  501    0  0.00000000000E+00  0.00000000000E+00 -0.18743903506E+04  0.18743903506E+04  0.50400001928E-02 0.  1.
    10030    2    1    2    0    0  0.00000000000E+00  0.00000000000E+00 -0.42894110101E+03  0.33198396002E+04  0.32920122271E+04 0.  0.
        4    1    3    3  502    0  0.12260330272E+04 -0.38401156793E+03 -0.12521057875E+04  0.17939878440E+04  0.12699999809E+01 0.  1.
       -4    1    3    3    0  502 -0.12260330272E+04  0.38401156793E+03  0.82316468653E+03  0.15258517563E+04  0.12699999809E+01 0. -1.
</event>
<event>
 5   0  0.2713815E-07  0.3314293E+04  0.7818609E-02  0.8159268E-01
       -2   -1    0    0    0  501  0.00000000000E+00  0.00000000000E+00  0.10347010047E+04  0.10347010047E+04  0.25500000920E-02 0. -1.
        2   -1    0    0  501    0  0.00000000000E+00  0.00000000000E+00 -0.26540364735E+04  0.26540364735E+04  0.25500000920E-02 0.  1.
    10030    2    1    2    0    0  0.00000000000E+00  0.00000000000E+00 -0.16193354688E+04  0.36887374781E+04  0.33142928087E+04 0.  0.
        4    1    3    3  502    0  0.72028678014E+03  0.13732687611E+04 -0.14600249974E+04  0.21298720013E+04  0.12699999809E+01 0.  1.
       -4    1    3    3    0  502 -0.72028678014E+03 -0.13732687611E+04 -0.15931047138E+03  0.15588654769E+04  0.12699999809E+01 0. -1.
</event>
<event>
 5   0  0.2727168E-07  0.3289073E+04  0.7818609E-02  0.8165681E-01
       -2   -1    0    0    0  501  0.00000000000E+00  0.00000000000E+00  0.13128382099E+04  0.13128382099E+04  0.25500000920E-02 0. -1.
        2   -1    0    0  501    0  0.00000000000E+00  0.00000000000E+00 -0.20600406329E+04  0.20600406329E+04  0.25500000920E-02 0.  1.
    10030    2    1    2    0    0  0.00000000000E+00  0.00000000000E+00 -0.74720242300E+03  0.33728788427E+04  0.32890728521E+04 0.  0.
        2    1    3    3  502    0  0.50024150451E+03 -0.15053721351E+04 -0.81837267680E+03  0.17849707746E+04  0.25500000920E-02 0. -1.
       -2    1    3    3    0  502 -0.50024150451E+03  0.15053721351E+04  0.71170253802E+02  0.15879080682E+04  0.25500000920E-02 0.  1.
</event>
<event>
 5   0  0.2713815E-07  0.3299193E+04  0.7818609E-02  0.8163101E-01
       -2   -1    0    0    0  501  0.00000000000E+00  0.00000000000E+00  0.15022236463E+04  0.15022236463E+04  0.25500000920E-02 0.  1.
        2   -1    0    0  501    0  0.00000000000E+00  0.00000000000E+00 -0.18114275093E+04  0.18114275093E+04  0.25500000920E-02 0. -1.
    10030    2    1    2    0    0  0.00000000000E+00  0.00000000000E+00 -0.30920386302E+03  0.33136511556E+04  0.32991933790E+04 0.  0.
        4    1    3    3  502    0  0.52625102640E+03 -0.15455803502E+02 -0.17247788974E+04  0.18033421424E+04  0.12699999809E+01 0. -1.
       -4    1    3    3    0  502 -0.52625102640E+03  0.15455803502E+02  0.14155750344E+04  0.15103090132E+04  0.12699999809E+01 0.  1.
</event>
<event>
 5   0  0.2824402E-07  0.3298160E+04  0.7818609E-02  0.8163364E-01
       -2   -1    0    0    0  501  0.00000000000E+00  0.00000000000E+00  0.10409782187E+04  0.10409782187E+04  0.25500000920E-02 0. -1.
        2   -1    0    0  501    0  0.00000000000E+00  0.00000000000E+00 -0.26124123993E+04  0.26124123993E+04  0.25500000920E-02 0.  1.
    10030    2    1    2    0    0  0.00000000000E+00  0.00000000000E+00 -0.15714341806E+04  0.36533906180E+04  0.32981597329E+04 0.  0.
        1    1    3    3  502    0  0.23746329919E+03  0.11179836274E+04  0.53109687802E+03  0.12602936576E+04  0.50400001928E-02 0. -1.
       -1    1    3    3    0  502 -0.23746329919E+03 -0.11179836274E+04 -0.21025310586E+04  0.23930969604E+04  0.50400001928E-02 0.  1.
</event>
<event>
 5   0  0.2875829E-07  0.3298726E+04  0.7818609E-02  0.8163220E-01
        2   -1    0    0  501    0  0.00000000000E+00  0.00000000000E+00  0.22429343387E+04  0.22429343387E+04  0.25500000920E-02 0.  1.
       -2   -1    0    0    0  501  0.00000000000E+00  0.00000000000E+00 -0.12128745893E+04  0.12128745893E+04  0.25500000920E-02 0. -1.
    10030    2    1    2    0    0  0.00000000000E+00  0.00000000000E+00  0.10300597494E+04  0.34558089280E+04  0.32987258540E+04 0.  0.
        3    1    3    3  502    0 -0.16339547564E+04  0.11859174562E+03  0.71524828098E+03  0.17875827986E+04  0.10100000352E+00 0.  1.
       -3    1    3    3    0  502  0.16339547564E+04 -0.11859174562E+03  0.31481146845E+03  0.16682261295E+04  0.10100000352E+00 0. -1.
</event>
<event>
 5   0  0.9181760E-08  0.3303105E+04  0.7818609E-02  0.8162106E-01
        1   -1    0    0  501    0  0.00000000000E+00  0.00000000000E+00  0.17085335440E+04  0.17085335440E+04  0.50400001928E-02 0. -1.
       -1   -1    0    0    0  501  0.00000000000E+00  0.00000000000E+00 -0.15964720267E+04  0.15964720267E+04  0.50400001928E-02 0.  1.
    10030    2    1    2    0    0  0.00000000000E+00  0.00000000000E+00  0.11206151731E+03  0.33050055708E+04  0.33031052116E+04 0.  0.
        1    1    3    3  502    0 -0.12148131033E+04  0.57288197241E+03 -0.90559520614E+03  0.16198973140E+04  0.50400001928E-02 0.  1.
       -1    1    3    3    0  502  0.12148131033E+04 -0.57288197241E+03  0.10176567235E+04  0.16851082568E+04  0.50400001928E-02 0. -1.
</event>
<event>
 5   0  0.2727168E-07  0.3297566E+04  0.7818609E-02  0.8163515E-01
       -2   -1    0    0    0  501  0.00000000000E+00  0.00000000000E+00  0.12592604727E+04  0.12592604727E+04  0.25500000920E-02 0.  1.
        2   -1    0    0  501    0  0.00000000000E+00  0.00000000000E+00 -0.21587949764E+04  0.21587949764E+04  0.25500000920E-02 0. -1.
    10030    2    1    2    0    0  0.00000000000E+00  0.00000000000E+00 -0.89953450369E+03  0.34180554490E+04  0.32975658795E+04 0.  0.
        2    1    3    3  502    0 -0.63505075653E+03  0.32418521233E+01 -0.20269371976E+04  0.21240937776E+04  0.25500000920E-02 0. -1.
       -2    1    3    3    0  502  0.63505075653E+03 -0.32418521233E+01  0.11274026939E+04  0.12939616715E+04  0.25500000920E-02 0.  1.
</event>
<event>
 5   0  0.8805125E-08  0.3296625E+04  0.7818609E-02  0.8163755E-01
        1   -1    0    0  501    0  0.00000000000E+00  0.00000000000E+00  0.15148195555E+04  0.15148195556E+04  0.50400001928E-02 0. -1.
       -1   -1    0    0    0  501  0.00000000000E+00  0.00000000000E+00 -0.17935694190E+04  0.17935694190E+04  0.50400001928E-02 0.  1.
    10030    2    1    2    0    0  0.00000000000E+00  0.00000000000E+00 -0.27874986348E+03  0.33083889746E+04  0.32966249591E+04 0.  0.
        4    1    3    3  502    0  0.12297142808E+03  0.13095925066E+03  0.15049652829E+04  0.15156498319E+04  0.12699999809E+01 0. -1.
       -4    1    3    3    0  502 -0.12297142808E+03 -0.13095925066E+03 -0.17837151463E+04  0.17927391427E+04  0.12699999809E+01 0.  1.
</event>
<event>
 5   0  0.2713815E-07  0.3336912E+04  0.7818609E-02  0.8153566E-01
       -2   -1    0    0    0  501  0.00000000000E+00  0.00000000000E+00  0.16468182209E+04  0.16468182209E+04  0.25500000920E-02 0. -1.
        2   -1    0    0  501    0  0.00000000000E+00  0.00000000000E+00 -0.16903782860E+04  0.16903782860E+04  0.25500000920E-02 0.  1.
    10030    2    1    2    0    0  0.00000000000E+00  0.00000000000E+00 -0.43560065037E+02  0.33371965069E+04  0.33369122024E+04 0.  0.
        4    1    3    3  502    0  0.92140120175E+03 -0.55666533090E+03 -0.12965994612E+04  0.16852383335E+04  0.12699999809E+01 0.  1.
       -4    1    3    3    0  502 -0.92140120175E+03  0.55666533090E+03  0.12530393962E+04  0.16519581733E+04  0.12699999809E+01 0. -1.
</event>
<event>
 5   0  0.2713815E-07  0.3296200E+04  0.7818609E-02  0.8163863E-01
       -2   -1    0    0    0  501  0.00000000000E+00  0.00000000000E+00  0.19517554551E+04  0.19517554551E+04  0.25500000920E-02 0.  1.
        2   -1    0    0  501    0  0.00000000000E+00  0.00000000000E+00 -0.13916876157E+04  0.13916876157E+04  0.25500000920E-02 0. -1.
    10030    2    1    2    0    0  0.00000000000E+00  0.00000000000E+00  0.56006783940E+03  0.33434430707E+04  0.32962001733E+04 0.  0.
        4    1    3    3  502    0  0.36005099591E+02 -0.14840209575E+04  0.10062688929E+04  0.17933748262E+04  0.12699999809E+01 0.  1.
       -4    1    3    3    0  502 -0.36005099591E+02  0.14840209575E+04 -0.44620105351E+03  0.15500682445E+04  0.12699999809E+01 0. -1.
</event>
<event>
 5   0  0.9181760E-08  0.3301766E+04  0.7818609E-02  0.8162446E-01
       -1   -1    0    0    0  501  0.00000000000E+00  0.00000000000E+00  0.14448441971E+04  0.14448441971E+04  0.50400001928E-02 0.  1.
        1   -1    0    0  501    0  0.00000000000E+00  0.00000000000E+00 -0.18863032684E+04  0.18863032684E+04  0.50400001928E-02 0. -1.
    10030    2    1    2    0    0  0.00000000000E+00  0.00000000000E+00 -0.44145907124E+03  0.33311474655E+04  0.33017657890E+04 0.  0.
        1    1    3    3  502    0  0.11890036097E+04  0.65794889354E+03  0.72504943803E+03  0.15402347282E+04  0.50400001928E-02 0.  1.
       -1    1    3    3    0  502 -0.11890036097E+04 -0.65794889354E+03 -0.11665085093E+04  0.17909127373E+04  0.50400001928E-02 0. -1.
</event>
<event>
 5   0  0.9283910E-08  0.3279437E+04  0.7818609E-02  0.8168147E-01
       -1   -1    0    0    0  501  0.00000000000E+00  0.00000000000E+00  0.16368544441E+04  0.16368544441E+04  0.50400001928E-02 0. -1.
        1   -1    0    0  501    0  0.00000000000E+00  0.00000000000E+00 -0.16425878902E+04  0.16425878902E+04  0.50400001928E-02 0.  1.
    10030    2    1    2    0    0  0.00000000000E+00  0.00000000000E+00 -0.57334460603E+01  0.32794423343E+04  0.32794373224E+04 0.  0.
        3    1    3    3  502    0  0.95740723834E+03  0.13261985365E+04 -0.11795859882E+03  0.16399223822E+04  0.10100000352E+00 0.  1.
       -3    1    3    3    0  502 -0.95740723834E+03 -0.13261985365E+04  0.11222515276E+03  0.16395199521E+04  0.10100000352E+00 0. -1.
</event>
<event>
 5   0  0.2875829E-07  0.3300793E+04  0.7818609E-02  0.8162694E-01
        2   -1    0    0  501    0  0.00000000000E+00  0.00000000000E+00  0.23812856698E+04  0.23812856698E+04  0.25500000920E-02 0. -1.
       -2   -1    0    0    0  501  0.00000000000E+00  0.00000000000E+00 -0.11438392929E+04  0.11438392929E+04  0.25500000920E-02 0.  1.
    10030    2    1    2    0    0  0.00000000000E+00  0.00000000000E+00  0.12374463768E+04  0.35251249627E+04  0.33007927029E+04 0.  0.
        3    1    3    3  502    0 -0.80768456191E+03 -0.11992174050E+04  0.14686308938E+04  0.20609108298E+04  0.10100000352E+00 0.  1.
       -3    1    3    3    0  502  0.80768456191E+03  0.11992174050E+04 -0.23118451701E+03  0.14642141329E+04  0.10100000352E+00 0. -1.
</event>
<event>
 5   0  0.9810351E-08  0.3296126E+04  0.7818609E-02  0.8163882E-01
        1   -1    0    0  501    0  0.00000000000E+00  0.00000000000E+00  0.21823153145E+04  0.21823153146E+04  0.50400001928E-02 0. -1.
       -1   -1    0    0    0  501  0.00000000000E+00  0.00000000000E+00 -0.12446009112E+04  0.12446009112E+04  0.50400001928E-02 0.  1.
    10030    2    1    2    0    0  0.00000000000E+00  0.00000000000E+00  0.93771440337E+03  0.34269162257E+04  0.32961259861E+04 0.  0.
        5    1    3    3  502    0 -0.45598009413E+03  0.78798976366E+03  0.18971383078E+04  0.21042817213E+04  0.46999998093E+01 0. -1.
       -5    1    3    3    0  502  0.45598009413E+03 -0.78798976366E+03 -0.95942390442E+03  0.13226345044E+04  0.46999998093E+01 0.  1.
</event>
<event>
 5   0  0.8805125E-08  0.3298356E+04  0.7818609E-02  0.8163314E-01
        1   -1    0    0  501    0  0.00000000000E+00  0.00000000000E+00  0.24339382331E+04  0.24339382331E+04  0.50400001928E-02 0. -1.
       -1   -1    0    0    0  501  0.00000000000E+00  0.00000000000E+00 -0.11174436744E+04  0.11174436744E+04  0.50400001928E-02 0.  1.
    10030    2    1    2    0    0  0.00000000000E+00  0.00000000000E+00  0.13164945586E+04  0.35513819075E+04  0.32983564892E+04 0.  0.
        4    1    3    3  502    0  0.48673178710E+03  0.77055706495E+03 -0.82164362634E+03  0.12270965262E+04  0.12699999809E+01 0.  1.
       -4    1    3    3    0  502 -0.48673178710E+03 -0.77055706495E+03  0.21381381850E+04  0.23242853813E+04  0.12699999809E+01 0. -1.
</event>
<event>
 5   0  0.2713815E-07  0.3295343E+04  0.7818609E-02  0.8164081E-01
        2   -1    0    0  501    0  0.00000000000E+00  0.00000000000E+00  0.24211978068E+04  0.24211978068E+04  0.25500000920E-02 0.  1.
       -2   -1    0    0    0  501  0.00000000000E+00  0.00000000000E+00 -0.11212722914E+04  0.11212722914E+04  0.25500000920E-02 0. -1.
    10030    2    1    2    0    0  0.00000000000E+00  0.00000000000E+00  0.12999255154E+04  0.35424700982E+04  0.32953433890E+04 0.  0.
        4    1    3    3  502    0  0.70114285604E+03  0.64157511817E+02  0.22513421589E+04  0.23588685042E+04  0.12699999809E+01 0.  1.
       -4    1    3    3    0  502 -0.70114285604E+03 -0.64157511817E+02 -0.95141664347E+03  0.11836015940E+04  0.12699999809E+01 0. -1.
</event>
<event>
 5   0  0.2824402E-07  0.3298212E+04  0.7818609E-02  0.8163351E-01
        2   -1    0    0  501    0  0.00000000000E+00  0.00000000000E+00  0.17655162586E+04  0.17655162586E+04  0.25500000920E-02 0.  1.
       -2   -1    0    0    0  501  0.00000000000E+00  0.00000000000E+00 -0.15403711765E+04  0.15403711765E+04  0.25500000920E-02 0. -1.
    10030    2    1    2    0    0  0.00000000000E+00  0.00000000000E+00  0.22514508219E+03  0.33058874351E+04  0.32982118527E+04 0.  0.
        1    1    3    3  502    0  0.95951097917E+02  0.97425487733E+03  0.14427521880E+04  0.17435346441E+04  0.50400001928E-02 0.  1.
       -1    1    3    3    0  502 -0.95951097917E+02 -0.97425487733E+03 -0.12176071059E+04  0.15623527910E+04  0.50400001928E-02 0. -1.
</event>
<event>
 5   0  0.9454010E-08  0.3299905E+04  0.7818609E-02  0.8162919E-01
        1   -1    0    0  501    0  0.00000000000E+00  0.00000000000E+00  0.16282730860E+04  0.16282730860E+04  0.50400001928E-02 0. -1.
       -1   -1    0    0    0  501  0.00000000000E+00  0.00000000000E+00 -0.16719208340E+04  0.16719208340E+04  0.50400001928E-02 0.  1.
    10030    2    1    2    0    0  0.00000000000E+00  0.00000000000E+00 -0.43647748002E+02  0.33001939200E+04  0.32999052688E+04 0.  0.
        2    1    3    3  502    0  0.55406907760E+03  0.67926277058E+03 -0.14197849218E+04  0.16685861315E+04  0.25500000920E-02 0.  1.
       -2    1    3    3    0  502 -0.55406907760E+03 -0.67926277058E+03  0.13761371738E+04  0.16316077884E+04  0.25500000920E-02 0. -1.
</event>
<event>
 5   0  0.2727168E-07  0.3314533E+04  0.7818609E-02  0.8159207E-01
       -2   -1    0    0    0  501  0.00000000000E+00  0.00000000000E+00  0.14196153214E+04  0.14196153214E+04  0.25500000920E-02 0.  1.
        2   -1    0    0  501    0  0.00000000000E+00  0.00000000000E+00 -0.19347018986E+04  0.19347018986E+04  0.25500000920E-02 0. -1.
    10030    2    1    2    0    0  0.00000000000E+00  0.00000000000E+00 -0.51508657723E+03  0.33543172200E+04  0.33145331240E+04 0.  0.
        2    1    3    3  502    0 -0.24729303246E+03 -0.72322866918E+03  0.12305893464E+04  0.14486420163E+04  0.25500000920E-02 0.  1.
       -2    1    3    3    0  502  0.24729303246E+03  0.72322866918E+03 -0.17456759236E+04  0.19056752037E+04  0.25500000920E-02 0. -1.
</event>
<event>
 5   0  0.2824402E-07  0.3315777E+04  0.7818609E-02  0.8158892E-01
       -2   -1    0    0    0  501  0.00000000000E+00  0.00000000000E+00  0.25499658857E+04  0.25499658857E+04  0.25500000920E-02 0.  1.
        2   -1    0    0  501    0  0.00000000000E+00  0.00000000000E+00 -0.10778946950E+04  0.10778946950E+04  0.25500000920E-02 0. -1.
    10030    2    1    2    0    0  0.00000000000E+00  0.00000000000E+00  0.14720711907E+04  0.36278605808E+04  0.33157772547E+04 0.  0.
        1    1    3    3  502    0  0.15275891605E+04  0.29124827330E+03  0.13647890840E+04  0.20690585887E+04  0.50400001928E-02 0.  1.
       -1    1    3    3    0  502 -0.15275891605E+04 -0.29124827330E+03  0.10728210670E+03  0.15588019920E+04  0.50400001928E-02 0. -1.
</event>
<event>
 5   0  0.2875829E-07  0.3276498E+04  0.7818609E-02  0.8168901E-01
       -2   -1    0    0    0  501  0.00000000000E+00  0.00000000000E+00  0.16706730013E+04  0.16706730013E+04  0.25500000920E-02 0. -1.
        2   -1    0    0  501    0  0.00000000000E+00  0.00000000000E+00 -0.16064543260E+04  0.16064543260E+04  0.25500000920E-02 0.  1.
    10030    2    1    2    0    0  0.00000000000E+00  0.00000000000E+00  0.64218675305E+02  0.32771273273E+04  0.32764980514E+04 0.  0.
        3    1    3    3  502    0 -0.87212496361E+03  0.80218719483E+03 -0.10993698853E+04  0.16163911663E+04  0.10100000352E+00 0.  1.
       -3    1    3    3    0  502  0.87212496361E+03 -0.80218719483E+03  0.11635885606E+04  0.16607361609E+04  0.10100000352E+00 0. -1.
</event>
<event>
 5   0  0.2727168E-07  0.3303590E+04  0.7818609E-02  0.8161982E-01
        2   -1    0    0  501    0  0.00000000000E+00  0.00000000000E+00  0.17652194986E+04  0.17652194986E+04  0.25500000920E-02 0.  1.
       -2   -1    0    0    0  501  0.00000000000E+00  0.00000000000E+00 -0.15456587653E+04  0.15456587653E+04  0.25500000920E-02 0. -1.
    10030    2    1    2    0    0  0.00000000000E+00  0.00000000000E+00  0.21956073332E+03  0.33108782638E+04  0.33035901626E+04 0.  0.
        2    1    3    3  502    0 -0.66415388581E+03  0.12570741234E+04  0.95252264397E+03  0.17113255456E+04  0.25500000920E-02 0.  1.
       -2    1    3    3    0  502  0.66415388581E+03 -0.12570741234E+04 -0.73296191065E+03  0.15995527182E+04  0.25500000920E-02 0. -1.
</event>
<event>
 5   0  0.9810351E-08  0.3304233E+04  0.7818609E-02  0.8161819E-01
       -1   -1    0    0    0  501  0.00000000000E+00  0.00000000000E+00  0.76975355638E+03  0.76975355640E+03  0.50400001928E-02 0.  1.
        1   -1    0    0  501    0  0.00000000000E+00  0.00000000000E+00 -0.35459262704E+04  0.35459262704E+04  0.50400001928E-02 0. -1.
    10030    2    1    2    0    0  0.00000000000E+00  0.00000000000E+00 -0.27761727141E+04  0.43156798268E+04  0.33042332589E+04 0.  0.
        5    1    3    3  502    0  0.58887076117E+03 -0.65613728508E+03 -0.32129848438E+04  0.33317530831E+04  0.46999998093E+01 0. -1.
       -5    1    3    3    0  502 -0.58887076117E+03  0.65613728508E+03  0.43681212979E+03  0.98392674370E+03  0.46999998093E+01 0.  1.
</event>
<event>
 5   0  0.2713815E-07  0.3304892E+04  0.7818609E-02  0.8161652E-01
       -2   -1    0    0    0  501  0.00000000000E+00  0.00000000000E+00  0.15976372304E+04  0.15976372304E+04  0.25500000920E-02 0.  1.
        2   -1    0    0  501    0  0.00000000000E+00  0.00000000000E+00 -0.17091348516E+04  0.17091348516E+04  0.25500000920E-02 0. -1.
    10030    2    1    2    0    0  0.00000000000E+00  0.00000000000E+00 -0.11149762123E+03  0.33067720820E+04  0.33048918111E+04 0.  0.
        4    1    3    3  502    0  0.13301702451E+04 -0.13329198941E+03 -0.10276181741E+04  0.16861554970E+04  0.12699999809E+01 0. -1.
       -4    1    3    3    0  502 -0.13301702451E+04  0.13329198941E+03  0.91612055282E+03  0.16206165850E+04  0.12699999809E+01 0.  1.
</event>
<event>
 5   0  0.9283910E-08  0.3300816E+04  0.7818609E-02  0.8162688E-01
       -1   -1    0    0    0  501  0.00000000000E+00  0.00000000000E+00  0.14462688364E+04  0.14462688364E+04  0.50400001928E-02 0. -1.
        1   -1    0    0  501    0  0.00000000000E+00  0.00000000000E+00 -0.18833612450E+04  0.18833612450E+04  0.50400001928E-02 0.  1.
    10030    2    1    2    0    0  0.00000000000E+00  0.00000000000E+00 -0.43709240861E+03  0.33296300814E+04  0.33008160666E+04 0.  0.
        3    1    3    3  502    0 -0.95169790199E+03 -0.52798911953E+03  0.10329878786E+04  0.15005217008E+04  0.10100000352E+00 0. -1.
       -3    1    3    3    0  502  0.95169790199E+03  0.52798911953E+03 -0.14700802872E+04  0.18291083806E+04  0.10100000352E+00 0.  1.
</event>
<event>
 5   0  0.9283910E-08  0.3302813E+04  0.7818609E-02  0.8162180E-01
        1   -1    0    0  501    0  0.00000000000E+00  0.00000000000E+00  0.14211337471E+04  0.14211337471E+04  0.50400001928E-02 0. -1.
       -1   -1    0    0    0  501  0.00000000000E+00  0.00000000000E+00 -0.19189915535E+04  0.19189915535E+04  0.50400001928E-02 0.  1.
    10030    2    1    2    0    0  0.00000000000E+00  0.00000000000E+00 -0.49785780635E+03  0.33401253006E+04  0.33028131386E+04 0.  0.
        3    1    3    3  502    0  0.13292939863E+04 -0.34755118120E+02 -0.12392326224E+04  0.18176710162E+04  0.10100000352E+00 0.  1.
       -3    1    3    3    0  502 -0.13292939863E+04  0.34755118120E+02  0.74137481608E+03  0.15224542845E+04  0.10100000352E+00 0. -1.
</event>
<event>
 5   0  0.2875829E-07  0.3296682E+04  0.7818609E-02  0.8163740E-01
        2   -1    0    0  501    0  0.00000000000E+00  0.00000000000E+00  0.10075112494E+04  0.10075112494E+04  0.25500000920E-02 0.  1.
       -2   -1    0    0    0  501  0.00000000000E+00  0.00000000000E+00 -0.26967725586E+04  0.26967725586E+04  0.25500000920E-02 0. -1.
    10030    2    1    2    0    0  0.00000000000E+00  0.00000000000E+00 -0.16892613092E+04  0.37042838079E+04  0.32966823867E+04 0.  0.
        3    1    3    3  502    0 -0.12057006472E+04  0.22283449524E+03 -0.20825021440E+04  0.24166473580E+04  0.10100000352E+00 0. -1.
       -3    1    3    3    0  502  0.12057006472E+04 -0.22283449524E+03  0.39324083477E+03  0.12876364500E+04  0.10100000352E+00 0.  1.
</event>
<event>
 5   0  0.9283910E-08  0.3295071E+04  0.7818609E-02  0.8164151E-01
       -1   -1    0    0    0  501  0.00000000000E+00  0.00000000000E+00  0.11857463729E+04  0.11857463729E+04  0.50400001928E-02 0.  1.
        1   -1    0    0  501    0  0.00000000000E+00  0.00000000000E+00 -0.22891687649E+04  0.22891687649E+04  0.50400001928E-02 0. -1.
    10030    2    1    2    0    0  0.00000000000E+00  0.00000000000E+00 -0.11034223920E+04  0.34749151379E+04  0.32950712041E+04 0.  0.
        3    1    3    3  502    0  0.15117101806E+04  0.16722493982E+03  0.11621473436E+03  0.15253647844E+04  0.10100000352E+00 0.  1.
       -3    1    3    3    0  502 -0.15117101806E+04 -0.16722493982E+03 -0.12196371264E+04  0.19495503535E+04  0.10100000352E+00 0. -1.
</event>
<event>
 5   0  0.8805125E-08  0.3297562E+04  0.7818609E-02  0.8163516E-01
        1   -1    0    0  501    0  0.00000000000E+00  0.00000000000E+00  0.18808858312E+04  0.18808858312E+04  0.50400001928E-02 0. -1.
       -1   -1    0    0    0  501  0.00000000000E+00  0.00000000000E+00 -0.14453186631E+04  0.14453186631E+04  0.50400001928E-02 0.  1.
    10030    2    1    2    0    0  0.00000000000E+00  0.00000000000E+00  0.43556716809E+03  0.33262044943E+04  0.32975623694E+04 0.  0.
        4    1    3    3  502    0 -0.40822014556E+03 -0.12948595778E+04 -0.72584877562E+03  0.15395333940E+04  0.12699999809E+01 0.  1.
       -4    1    3    3    0  502  0.40822014556E+03  0.12948595778E+04  0.11614159437E+04  0.17866711003E+04  0.12699999809E+01 0. -1.
</event>
<event>
 5   0  0.9810351E-08  0.3283133E+04  0.7818609E-02  0.8167200E-01
        1   -1    0    0  501    0  0.00000000000E+00  0.00000000000E+00  0.22476811473E+04  0.22476811473E+04  0.50400001928E-02 0. -1.
       -1   -1    0    0    0  501  0.00000000000E+00  0.00000000000E+00 -0.11988982867E+04  0.11988982867E+04  0.50400001928E-02 0.  1.
    10030    2    1    2    0    0  0.00000000000E+00  0.00000000000E+00  0.10487828607E+04  0.34465794340E+04  0.32831333062E+04 0.  0.
        5    1    3    3  502    0  0.15174392667E+04  0.21981061499E+03  0.11399087831E+04  0.19105896364E+04  0.46999998093E+01 0. -1.
       -5    1    3    3    0  502 -0.15174392667E+04 -0.21981061499E+03 -0.91125922448E+02  0.15359897976E+04  0.46999998093E+01 0.  1.
</event>
<event>
 5   0  0.8805125E-08  0.3300356E+04  0.7818609E-02  0.8162805E-01
       -1   -1    0    0    0  501  0.00000000000E+00  0.00000000000E+00  0.16998672653E+04  0.16998672653E+04  0.50400001928E-02 0. -1.
        1   -1    0    0  501    0  0.00000000000E+00  0.00000000000E+00 -0.16019411067E+04  0.16019411067E+04  0.50400001928E-02 0.  1.
    10030    2    1    2    0    0  0.00000000000E+00  0.00000000000E+00  0.97926158564E+02  0.33018083720E+04  0.33003558889E+04 0.  0.
        4    1    3    3  502    0 -0.13137594524E+04 -0.94942305416E+03 -0.26055569224E+03  0.16417243728E+04  0.12699999809E+01 0. -1.
       -4    1    3    3    0  502  0.13137594524E+04  0.94942305416E+03  0.35848185081E+03  0.16600839993E+04  0.12699999809E+01 0.  1.
</event>
<event>
 5   0  0.2875829E-07  0.3304193E+04  0.7818609E-02  0.8161829E-01
        2   -1    0    0  501    0  0.00000000000E+00  0.00000000000E+00  0.23251346094E+04  0.23251346094E+04  0.25500000920E-02 0. -1.
       -2   -1    0    0    0  501  0.00000000000E+00  0.00000000000E+00 -0.11738776926E+04  0.11738776926E+04  0.25500000920E-02 0.  1.
    10030    2    1    2    0    0  0.00000000000E+00  0.00000000000E+00  0.11512569169E+04  0.34990123020E+04  0.33041934872E+04 0.  0.
        3    1    3    3  502    0 -0.13208530551E+04 -0.93849600804E+03  0.23413019187E+03  0.16371452310E+04  0.10100000352E+00 0.  1.
       -3    1    3    3    0  502  0.13208530551E+04  0.93849600804E+03  0.91712672498E+03  0.18618670710E+04  0.10100000352E+00 0. -1.
</event>
<event>
 5   0  0.9181760E-08  0.3300259E+04  0.7818609E-02  0.8162829E-01
        1   -1    0    0  501    0  0.00000000000E+00  0.00000000000E+00  0.25037985038E+04  0.25037985038E+04  0.50400001928E-02 0. -1.
       -1   -1    0    0    0  501  0.00000000000E+00  0.00000000000E+00 -0.10875188246E+04  0.10875188246E+04  0.50400001928E-02 0.  1.
    10030    2    1    2    0    0  0.00000000000E+00  0.00000000000E+00  0.14162796792E+04  0.35913173283E+04  0.33002593872E+04 0.  0.
        1    1    3    3  502    0 -0.53378152424E+03  0.13573030783E+04 -0.13176826059E+03  0.14644306868E+04  0.50400001928E-02 0. -1.
       -1    1    3    3    0  502  0.53378152424E+03 -0.13573030783E+04  0.15480479398E+04  0.21268866415E+04  0.50400001928E-02 0.  1.
</event>
<event>
 5   0  0.2875829E-07  0.3302859E+04  0.7818609E-02  0.8162168E-01
        2   -1    0    0  501    0  0.00000000000E+00  0.00000000000E+00  0.21195550769E+04  0.21195550769E+04  0.25500000920E-02 0.  1.
       -2   -1    0    0    0  501  0.00000000000E+00  0.00000000000E+00 -0.12866938947E+04  0.12866938947E+04  0.25500000920E-02 0. -1.
    10030    2    1    2    0    0  0.00000000000E+00  0.00000000000E+00  0.83286118219E+03  0.34062489716E+04  0.33028585056E+04 0.  0.
        3    1    3    3  502    0 -0.14892194115E+04  0.46579727737E+03  0.97417122381E+03  0.18394975245E+04  0.10100000352E+00 0. -1.
       -3    1    3    3    0  502  0.14892194115E+04 -0.46579727737E+03 -0.14131004162E+03  0.15667514471E+04  0.10100000352E+00 0.  1.
</event>
<event>
 5   0  0.2713815E-07  0.3301189E+04  0.7818609E-02  0.8162593E-01
        2   -1    0    0  501    0  0.00000000000E+00  0.00000000000E+00  0.16670084393E+04  0.16670084393E+04  0.25500000920E-02 0. -1.
       -2   -1    0    0    0  501  0.00000000000E+00  0.00000000000E+00 -0.16343423596E+04  0.16343423596E+04  0.25500000920E-02 0.  1.
    10030    2    1    2    0    0  0.00000000000E+00  0.00000000000E+00  0.32666079673E+02  0.33013507988E+04  0.33011891834E+04 0.  0.
        4    1    3    3  502    0  0.96901977907E+03  0.11102563031E+04 -0.72720352929E+03  0.16433182822E+04  0.12699999809E+01 0.  1.
       -4    1    3    3    0  502 -0.96901977907E+03 -0.11102563031E+04  0.75986960896E+03  0.16580325166E+04  0.12699999809E+01 0. -1.
</event>
<event>
 5   0  0.8805125E-08  0.3292826E+04  0.7818609E-02  0.8164723E-01
        1   -1    0    0  501    0  0.00000000000E+00  0.00000000000E+00  0.20838548347E+04  0.20838548347E+04  0.50400001928E-02 0.  1.
       -1   -1    0    0    0  501  0.00000000000E+00  0.00000000000E+00 -0.13007988994E+04  0.13007988994E+04  0.50400001928E-02 0. -1.
    10030    2    1    2    0    0  0.00000000000E+00  0.00000000000E+00  0.78305593524E+03  0.33846537341E+04  0.32928261876E+04 0.  0.
        4    1    3    3  502    0 -0.72432129544E+03 -0.12162196022E+04 -0.47265742184E+03  0.14923934170E+04  0.12699999809E+01 0. -1.
       -4    1    3    3    0  502  0.72432129544E+03  0.12162196022E+04  0.12557133571E+04  0.18922603171E+04  0.12699999809E+01 0.  1.
</event>
<event>
 5   0  0.9181760E-08  0.3299673E+04  0.7818609E-02  0.8162979E-01
        1   -1    0    0  501    0  0.00000000000E+00  0.00000000000E+00  0.23316099504E+04  0.23316099504E+04  0.50400001928E-02 0. -1.
       -1   -1    0    0    0  501  0.00000000000E+00  0.00000000000E+00 -0.11674167630E+04  0.11674167631E+04  0.50400001928E-02 0.  1.
    10030    2    1    2    0    0  0.00000000000E+00  0.00000000000E+00  0.11641931874E+04  0.34990267135E+04  0.32996730389E+04 0.  0.
        1    1    3    3  502    0  0.10143179306E+04 -0.12127397761E+04  0.82032030151E+02  0.15831323011E+04  0.50400001928E-02 0.  1.
       -1    1    3    3    0  502 -0.10143179306E+04  0.12127397761E+04  0.10821611572E+04  0.19158944123E+04  0.50400001928E-02 0. -1.
</event>
<event>
 5   0  0.2727168E-07  0.3298151E+04  0.7818609E-02  0.8163366E-01
       -2   -1    0    0    0  501  0.00000000000E+00  0.00000000000E+00  0.17258016166E+04  0.17258016166E+04  0.25500000920E-02 0.  1.
        2   -1    0    0  501    0  0.00000000000E+00  0.00000000000E+00 -0.15757609623E+04  0.15757609623E+04  0.25500000920E-02 0. -1.
    10030    2    1    2    0    0  0.00000000000E+00  0.00000000000E+00  0.15004065430E+03  0.33015625789E+04  0.32981514921E+04 0.  0.
        2    1    3    3  502    0  0.59811162419E+03 -0.11759867553E+04  0.10653708037E+04  0.16957881097E+04  0.25500000920E-02 0.  1.
       -2    1    3    3    0  502 -0.59811162419E+03  0.11759867553E+04 -0.91533014944E+03  0.16057744692E+04  0.25500000920E-02 0. -1.
</event>
<event>
 5   0  0.2875829E-07  0.3287963E+04  0.7818609E-02  0.8165965E-01
        2   -1    0    0  501    0  0.00000000000E+00  0.00000000000E+00  0.18732220043E+04  0.18732220043E+04  0.25500000920E-02 0.  1.
       -2   -1    0    0    0  501  0.00000000000E+00  0.00000000000E+00 -0.14427946675E+04  0.14427946675E+04  0.25500000920E-02 0. -1.
    10030    2    1    2    0    0  0.00000000000E+00  0.00000000000E+00  0.43042733680E+03  0.33160166717E+04  0.32879627241E+04 0.  0.
        3    1    3    3  502    0  0.14133046872E+04 -0.65823519632E+03  0.74117172987E+03  0.17262790203E+04  0.10100000352E+00 0.  1.
       -3    1    3    3    0  502 -0.14133046872E+04  0.65823519632E+03 -0.31074439307E+03  0.15897376515E+04  0.10100000352E+00 0. -1.
</event>
<event>
 5   0  0.8805125E-08  0.3305820E+04  0.7818609E-02  0.8161416E-01
        1   -1    0    0  501    0  0.00000000000E+00  0.00000000000E+00  0.20648752010E+04  0.20648752010E+04  0.50400001928E-02 0.  1.
       -1   -1    0    0    0  501  0.00000000000E+00  0.00000000000E+00 -0.13231363476E+04  0.13231363476E+04  0.50400001928E-02 0. -1.
    10030    2    1    2    0    0  0.00000000000E+00  0.00000000000E+00  0.74173885339E+03  0.33880115486E+04  0.33058199780E+04 0.  0.
        4    1    3    3  502    0 -0.76222950170E+03 -0.55245141552E+02  0.18729363698E+04  0.20228539486E+04  0.12699999809E+01 0.  1.
       -4    1    3    3    0  502  0.76222950170E+03  0.55245141552E+02 -0.11311975164E+04  0.13651576001E+04  0.12699999809E+01 0. -1.
</event>
<event>
 5   0  0.9454010E-08  0.3311268E+04  0.7818609E-02  0.8160034E-01
        1   -1    0    0  501    0  0.00000000000E+00  0.00000000000E+00  0.18779023679E+04  0.18779023679E+04  0.50400001928E-02 0. -1.
       -1   -1    0    0    0  501  0.00000000000E+00  0.00000000000E+00 -0.14596733811E+04  0.14596733811E+04  0.50400001928E-02 0.  1.
    10030    2    1    2    0    0  0.00000000000E+00  0.00000000000E+00  0.41822898678E+03  0.33375757490E+04  0.33112680947E+04 0.  0.
        2    1    3    3  502    0  0.35443342927E+03  0.63429784554E+03  0.17086056459E+04  0.18566879291E+04  0.25500000920E-02 0. -1.
       -2    1    3    3    0  502 -0.35443342927E+03 -0.63429784554E+03 -0.12903766591E+04  0.14808878199E+04  0.25500000920E-02 0.  1.
</event>
<event>
 5   0  0.9181760E-08  0.3300363E+04  0.7818609E-02  0.8162803E-01
        1   -1    0    0  501    0  0.00000000000E+00  0.00000000000E+00  0.16262131346E+04  0.16262131346E+04  0.50400001928E-02 0.  1.
       -1   -1    0    0    0  501  0.00000000000E+00  0.00000000000E+00 -0.16745031677E+04  0.16745031677E+04  0.50400001928E-02 0. -1.
    10030    2    1    2    0    0  0.00000000000E+00  0.00000000000E+00 -0.48290033083E+02  0.33007163023E+04  0.33003630378E+04 0.  0.
        1    1    3    3  502    0  0.33890802203E+03 -0.11795095722E+04  0.10791491922E+04  0.16342167718E+04  0.50400001928E-02 0.  1.
       -1    1    3    3    0  502 -0.33890802203E+03  0.11795095722E+04 -0.11274392253E+04  0.16664995305E+04  0.50400001928E-02 0. -1.
</event>
<event>
 5   0  0.2727168E-07  0.3319363E+04  0.7818609E-02  0.8157986E-01
       -2   -1    0    0    0  501  0.00000000000E+00  0.00000000000E+00  0.14209037765E+04  0.14209037765E+04  0.25500000920E-02 0. -1.
        2   -1    0    0  501    0  0.00000000000E+00  0.00000000000E+00 -0.19385848292E+04  0.19385848292E+04  0.25500000920E-02 0.  1.
    10030    2    1    2    0    0  0.00000000000E+00  0.00000000000E+00 -0.51768105267E+03  0.33594886057E+04  0.33193628937E+04 0.  0.
        2    1    3    3  502    0 -0.36654665308E+03 -0.15908924581E+04  0.43513559315E+02  0.16331529910E+04  0.25500000920E-02 0. -1.
       -2    1    3    3    0  502  0.36654665308E+03  0.15908924581E+04 -0.56119461198E+03  0.17263356147E+04  0.25500000920E-02 0.  1.
</event>
<event>
 5   0  0.9810351E-08  0.3303452E+04  0.7818609E-02  0.8162018E-01
        1   -1    0    0  501    0  0.00000000000E+00  0.00000000000E+00  0.29125826291E+04  0.29125826291E+04  0.50400001928E-02 0. -1.
       -1   -1    0    0    0  501  0.00000000000E+00  0.00000000000E+00 -0.93669407492E+03  0.93669407493E+03  0.50400001928E-02 0.  1.
    10030    2    1    2    0    0  0.00000000000E+00  0.00000000000E+00  0.19758885542E+04  0.38492767041E+04  0.33034520680E+04 0.  0.
        5    1    3    3  502    0  0.49943143858E+03  0.14942582860E+04  0.41008346112E+03  0.16280141652E+04  0.46999998093E+01 0.  1.
       -5    1    3    3    0  502 -0.49943143858E+03 -0.14942582860E+04  0.15658050931E+04  0.22212625389E+04  0.46999998093E+01 0. -1.
</event>
<event>
 5   0  0.9283910E-08  0.3304938E+04  0.7818609E-02  0.8161640E-01
       -1   -1    0    0    0  501  0.00000000000E+00  0.00000000000E+00  0.17907688197E+04  0.17907688197E+04  0.50400001928E-02 0.  1.
        1   -1    0    0  501    0  0.00000000000E+00  0.00000000000E+00 -0.15248498711E+04  0.15248498711E+04  0.50400001928E-02 0. -1.
    10030    2    1    2    0    0  0.00000000000E+00  0.00000000000E+00  0.26591894862E+03  0.33156186909E+04  0.33049378838E+04 0.  0.
        3    1    3    3  502    0  0.12399641419E+04 -0.10035229052E+04  0.56572847412E+03  0.16925182454E+04  0.10100000352E+00 0.  1.
       -3    1    3    3    0  502 -0.12399641419E+04  0.10035229052E+04 -0.29980952550E+03  0.16231004455E+04  0.10100000352E+00 0. -1.
</event>
<event>
 5   0  0.2875829E-07  0.3293151E+04  0.7818609E-02  0.8164640E-01
       -2   -1    0    0    0  501  0.00000000000E+00  0.00000000000E+00  0.14317167992E+04  0.14317167992E+04  0.25500000920E-02 0.  1.
        2   -1    0    0  501    0  0.00000000000E+00  0.00000000000E+00 -0.18936778940E+04  0.18936778940E+04  0.25500000920E-02 0. -1.
    10030    2    1    2    0    0  0.00000000000E+00  0.00000000000E+00 -0.46196109485E+03  0.33253946932E+04  0.32931507424E+04 0.  0.
        3    1    3    3  502    0 -0.10866774612E+04  0.92373761790E+03 -0.10618683686E+04  0.17781235991E+04  0.10100000352E+00 0.  1.
       -3    1    3    3    0  502  0.10866774612E+04 -0.92373761790E+03  0.59990727371E+03  0.15472710941E+04  0.10100000352E+00 0. -1.
</event>
<event>
 5   0  0.2875829E-07  0.3286457E+04  0.7818609E-02  0.8166350E-01
        2   -1    0    0  501    0  0.00000000000E+00  0.00000000000E+00  0.20829113570E+04  0.20829113570E+04  0.25500000920E-02 0.  1.
       -2   -1    0    0    0  501  0.00000000000E+00  0.00000000000E+00 -0.12963585241E+04  0.12963585241E+04  0.25500000920E-02 0. -1.
    10030    2    1    2    0    0  0.00000000000E+00  0.00000000000E+00  0.78655283290E+03  0.33792698810E+04  0.32864569935E+04 0.  0.
        3    1    3    3  502    0 -0.72415376720E+03 -0.32852887534E+03  0.18718962879E+04  0.20337958657E+04  0.10100000352E+00 0.  1.
       -3    1    3    3    0  502  0.72415376720E+03  0.32852887534E+03 -0.10853434550E+04  0.13454740153E+04  0.10100000352E+00 0. -1.
</event>
<event>
 5   0  0.9181760E-08  0.3287923E+04  0.7818609E-02  0.8165975E-01
        1   -1    0    0  501    0  0.00000000000E+00  0.00000000000E+00  0.24528424828E+04  0.24528424828E+04  0.50400001928E-02 0.  1.
       -1   -1    0    0    0  501  0.00000000000E+00  0.00000000000E+00 -0.11018274027E+04  0.11018274027E+04  0.50400001928E-02 0. -1.
    10030    2    1    2    0    0  0.00000000000E+00  0.00000000000E+00  0.13510150801E+04  0.35546698855E+04  0.32879227863E+04 0.  0.
        1    1    3    3  502    0  0.51349872998E+03 -0.30452884263E+03  0.23315035363E+04  0.24067254728E+04  0.50400001928E-02 0.  1.
       -1    1    3    3    0  502 -0.51349872998E+03  0.30452884263E+03 -0.98048845626E+03  0.11479444127E+04  0.50400001928E-02 0. -1.
</event>
<event>
 5   0  0.2824402E-07  0.3295460E+04  0.7818609E-02  0.8164051E-01
       -2   -1    0    0    0  501  0.00000000000E+00  0.00000000000E+00  0.94921649947E+03  0.94921649948E+03  0.25500000920E-02 0.  1.
        2   -1    0    0  501    0  0.00000000000E+00  0.00000000000E+00 -0.28602692132E+04  0.28602692132E+04  0.25500000920E-02 0. -1.
    10030    2    1    2    0    0  0.00000000000E+00  0.00000000000E+00 -0.19110527137E+04  0.38094857127E+04  0.32954603503E+04 0.  0.
        1    1    3    3  502    0  0.84486756714E+03  0.71958731651E+02  0.67765489236E+03  0.10854471052E+04  0.50400001928E-02 0.  1.
       -1    1    3    3    0  502 -0.84486756714E+03 -0.71958731651E+02 -0.25887076061E+04  0.27240386075E+04  0.50400001928E-02 0. -1.
</event>
<event>
 5   0  0.8805125E-08  0.3292876E+04  0.7818609E-02  0.8164710E-01
       -1   -1    0    0    0  501  0.00000000000E+00  0.00000000000E+00  0.14551348012E+04  0.14551348012E+04  0.50400001928E-02 0. -1.
        1   -1    0    0  501    0  0.00000000000E+00  0.00000000000E+00 -0.18628918580E+04  0.18628918580E+04  0.50400001928E-02 0.  1.
    10030    2    1    2    0    0  0.00000000000E+00  0.00000000000E+00 -0.40775705675E+03  0.33180266592E+04  0.32928764164E+04 0.  0.
        4    1    3    3  502    0  0.10119082124E+04 -0.12979875503E+04 -0.24924740728E+03  0.16645887762E+04  0.12699999809E+01 0. -1.
       -4    1    3    3    0  502 -0.10119082124E+04  0.12979875503E+04 -0.15850964947E+03  0.16534378830E+04  0.12699999809E+01 0.  1.
</event>
<event>
 5   0  0.9181760E-08  0.3287916E+04  0.7818609E-02  0.8165977E-01
        1   -1    0    0  501    0  0.00000000000E+00  0.00000000000E+00  0.17647066011E+04  0.17647066011E+04  0.50400001928E-02 0.  1.
       -1   -1    0    0    0  501  0.00000000000E+00  0.00000000000E+00 -0.15314712931E+04  0.15314712931E+04  0.50400001928E-02 0. -1.
    10030    2    1    2    0    0  0.00000000000E+00  0.00000000000E+00  0.23323530804E+03  0.32961778942E+04  0.32879157534E+04 0.  0.
        1    1    3    3  502    0 -0.13908679036E+04 -0.23953782737E+03 -0.72853436144E+03  0.15882865648E+04  0.50400001928E-02 0. -1.
       -1    1    3    3    0  502  0.13908679036E+04  0.23953782737E+03  0.96176966947E+03  0.17078913294E+04  0.50400001928E-02 0.  1.
</event>
<event>
 5   0  0.9454010E-08  0.3304796E+04  0.7818609E-02  0.8161676E-01
        1   -1    0    0  501    0  0.00000000000E+00  0.00000000000E+00  0.17430976317E+04  0.17430976317E+04  0.50400001928E-02 0.  1.
       -1   -1    0    0    0  501  0.00000000000E+00  0.00000000000E+00 -0.15664180810E+04  0.15664180810E+04  0.50400001928E-02 0. -1.
    10030    2    1    2    0    0  0.00000000000E+00  0.00000000000E+00  0.17667955070E+03  0.33095157128E+04  0.33047963008E+04 0.  0.
        2    1    3    3  502    0  0.15452912240E+04 -0.67570900203E+02  0.67048640744E+03  0.16858359398E+04  0.25500000920E-02 0.  1.
       -2    1    3    3    0  502 -0.15452912240E+04  0.67570900203E+02 -0.49380685673E+03  0.16236797730E+04  0.25500000920E-02 0. -1.
</event>
<event>
 5   0  0.2824402E-07  0.3302943E+04  0.7818609E-02  0.8162147E-01
        2   -1    0    0  501    0  0.00000000000E+00  0.00000000000E+00  0.24277580119E+04  0.24277580119E+04  0.25500000920E-02 0. -1.
       -2   -1    0    0    0  501  0.00000000000E+00  0.00000000000E+00 -0.11234063891E+04  0.11234063892E+04  0.25500000920E-02 0.  1.
    10030    2    1    2    0    0  0.00000000000E+00  0.00000000000E+00  0.13043516227E+04  0.35511644010E+04  0.33029434521E+04 0.  0.
        1    1    3    3  502    0 -0.11377755675E+04  0.46808092861E+03 -0.53231021971E+03  0.13405175000E+04  0.50400001928E-02 0.  1.
       -1    1    3    3    0  502  0.11377755675E+04 -0.46808092861E+03  0.18366618425E+04  0.22106469011E+04  0.50400001928E-02 0. -1.
</event>
<event>
 5   0  0.8805125E-08  0.3304644E+04  0.7818609E-02  0.8161715E-01
        1   -1    0    0  501    0  0.00000000000E+00  0.00000000000E+00  0.12752735001E+04  0.12752735001E+04  0.50400001928E-02 0. -1.
       -1   -1    0    0    0  501  0.00000000000E+00  0.00000000000E+00 -0.21408483637E+04  0.21408483637E+04  0.50400001928E-02 0.  1.
    10030    2    1    2    0    0  0.00000000000E+00  0.00000000000E+00 -0.86557486359E+03  0.34161218637E+04  0.33046435123E+04 0.  0.
        4    1    3    3  502    0  0.65729839600E+03  0.11322695149E+04  0.60922969202E+03  0.14440352718E+04  0.12699999809E+01 0. -1.
       -4    1    3    3    0  502 -0.65729839600E+03 -0.11322695149E+04 -0.14748045556E+04  0.19720865919E+04  0.12699999809E+01 0.  1.
</event>
<event>
 5   0  0.9454010E-08  0.3296879E+04  0.7818609E-02  0.8163690E-01
        1   -1    0    0  501    0  0.00000000000E+00  0.00000000000E+00  0.10042545318E+04  0.10042545318E+04  0.50400001928E-02 0. -1.
       -1   -1    0    0    0  501  0.00000000000E+00  0.00000000000E+00 -0.27058405131E+04  0.27058405131E+04  0.50400001928E-02 0.  1.
    10030    2    1    2    0    0  0.00000000000E+00  0.00000000000E+00 -0.17015859813E+04  0.37100950449E+04  0.32968788862E+04 0.  0.
        2    1    3    3  502    0 -0.10451401026E+04  0.12351705962E+04 -0.12055653763E+04  0.20177591810E+04  0.25500000920E-02 0.  1.
       -2    1    3    3    0  502  0.10451401026E+04 -0.12351705962E+04 -0.49602060498E+03  0.16923358639E+04  0.25500000920E-02 0. -1.
</event>
<event>
 5   0  0.2727168E-07  0.3296740E+04  0.7818609E-02  0.8163725E-01
        2   -1    0    0  501    0  0.00000000000E+00  0.00000000000E+00  0.11738004828E+04  0.11738004828E+04  0.25500000920E-02 0. -1.
       -2   -1    0    0    0  501  0.00000000000E+00  0.00000000000E+00 -0.23148091441E+04  0.23148091441E+04  0.25500000920E-02 0.  1.
    10030    2    1    2    0    0  0.00000000000E+00  0.00000000000E+00 -0.11410086612E+04  0.34886096269E+04  0.32967402634E+04 0.  0.
        2    1    3    3  502    0 -0.13105773312E+04  0.97546382867E+03 -0.33870914426E+03  0.16684922854E+04  0.25500000920E-02 0. -1.
       -2    1    3    3    0  502  0.13105773312E+04 -0.97546382867E+03 -0.80229951698E+03  0.18201173415E+04  0.25500000920E-02 0.  1.
</event>
<event>
 5   0  0.9283910E-08  0.3294183E+04  0.7818609E-02  0.8164377E-01
       -1   -1    0    0    0  501  0.00000000000E+00  0.00000000000E+00  0.11795682968E+04  0.11795682968E+04  0.50400001928E-02 0. -1.
        1   -1    0    0  501    0  0.00000000000E+00  0.00000000000E+00 -0.22999176018E+04  0.22999176018E+04  0.50400001928E-02 0.  1.
    10030    2    1    2    0    0  0.00000000000E+00  0.00000000000E+00 -0.11203493050E+04  0.34794858986E+04  0.32941826837E+04 0.  0.
        3    1    3    3  502    0  0.59260892646E+03  0.14849489695E+04 -0.14211898047E+03  0.16051344482E+04  0.10100000352E+00 0. -1.
       -3    1    3    3    0  502 -0.59260892646E+03 -0.14849489695E+04 -0.97823032453E+03  0.18743514505E+04  0.10100000352E+00 0.  1.
</event>
<event>
 5   0  0.2703956E-07  0.3305238E+04  0.7818609E-02  0.8161564E-01
        2   -1    0    0  501    0  0.00000000000E+00  0.00000000000E+00  0.16698106824E+04  0.16698106824E+04  0.25500000920E-02 0. -1.
       -2   -1    0    0    0  501  0.00000000000E+00  0.00000000000E+00 -0.16356045166E+04  0.16356045166E+04  0.25500000920E-02 0.  1.
    10030    2    1    2    0    0  0.00000000000E+00  0.00000000000E+00  0.34206165773E+02  0.33054151990E+04  0.33052382026E+04 0.  0.
        5    1    3    3  502    0 -0.69743734130E+03  0.13159032956E+04 -0.69925048291E+03  0.16452943980E+04  0.46999998093E+01 0.  1.
       -5    1    3    3    0  502  0.69743734130E+03 -0.13159032956E+04  0.73345664868E+03  0.16601208010E+04  0.46999998093E+01 0. -1.
</event>
<event>
 5   0  0.9283910E-08  0.3303765E+04  0.7818609E-02  0.8161938E-01
       -1   -1    0    0    0  501  0.00000000000E+00  0.00000000000E+00  0.20088793523E+04  0.20088793523E+04  0.50400001928E-02 0. -1.
        1   -1    0    0  501    0  0.00000000000E+00  0.00000000000E+00 -0.13583274593E+04  0.13583274594E+04  0.50400001928E-02 0.  1.
    10030    2    1    2    0    0  0.00000000000E+00  0.00000000000E+00  0.65055189295E+03  0.33672068117E+04  0.33037651168E+04 0.  0.
        3    1    3    3  502    0  0.71816597415E+02  0.28281675545E+03  0.19824048209E+04  0.20037644136E+04  0.10100000352E+00 0. -1.
       -3    1    3    3    0  502 -0.71816597415E+02 -0.28281675545E+03 -0.13318529280E+04  0.13634423981E+04  0.10100000352E+00 0.  1.
</event>
<event>
 5   0  0.2727168E-07  0.3298414E+04  0.7818609E-02  0.8163299E-01
        2   -1    0    0  501    0  0.00000000000E+00  0.00000000000E+00  0.20275415334E+04  0.20275415334E+04  0.25500000920E-02 0.  1.
       -2   -1    0    0    0  501  0.00000000000E+00  0.00000000000E+00 -0.13414685966E+04  0.13414685966E+04  0.25500000920E-02 0. -1.
    10030    2    1    2    0    0  0.00000000000E+00  0.00000000000E+00  0.68607293682E+03  0.33690101300E+04  0.32984137372E+04 0.  0.
        2    1    3    3  502    0  0.43218062560E+03  0.11261604223E+04  0.14917703468E+04  0.19184358623E+04  0.25500000920E-02 0.  1.
       -2    1    3    3    0  502 -0.43218062560E+03 -0.11261604223E+04 -0.80569741002E+03  0.14505742678E+04  0.25500000920E-02 0. -1.
</event>
<event>
 5   0  0.2727168E-07  0.3300792E+04  0.7818609E-02  0.8162694E-01
        2   -1    0    0  501    0  0.00000000000E+00  0.00000000000E+00  0.25400504199E+04  0.25400504199E+04  0.25500000920E-02 0.  1.
       -2   -1    0    0    0  501  0.00000000000E+00  0.00000000000E+00 -0.10723434295E+04  0.10723434295E+04  0.25500000920E-02 0. -1.
    10030    2    1    2    0    0  0.00000000000E+00  0.00000000000E+00  0.14677069904E+04  0.36123938494E+04  0.33007916496E+04 0.  0.
        2    1    3    3  502    0 -0.35937150248E+03  0.13996454495E+04 -0.13868860235E+03  0.14516851551E+04  0.25500000920E-02 0. -1.
       -2    1    3    3    0  502  0.35937150248E+03 -0.13996454495E+04  0.16063955928E+04  0.21607086943E+04  0.25500000920E-02 0.  1.
</event>
<event>
 5   0  0.9181760E-08  0.3296576E+04  0.7818609E-02  0.8163767E-01
       -1   -1    0    0    0  501  0.00000000000E+00  0.00000000000E+00  0.21494131183E+04  0.21494131184E+04  0.50400001928E-02 0. -1.
        1   -1    0    0  501    0  0.00000000000E+00  0.00000000000E+00 -0.12639976609E+04  0.12639976609E+04  0.50400001928E-02 0.  1.
    10030    2    1    2    0    0  0.00000000000E+00  0.00000000000E+00  0.88541545748E+03  0.34134107792E+04  0.32965758926E+04 0.  0.
        1    1    3    3  502    0 -0.32576227407E+02  0.29572027145E+03 -0.12359662965E+04  0.12712688055E+04  0.50400001928E-02 0.  1.
       -1    1    3    3    0  502  0.32576227407E+02 -0.29572027145E+03  0.21213817540E+04  0.21421419738E+04  0.50400001928E-02 0. -1.
</event>
<event>
 5   0  0.2875829E-07  0.3299170E+04  0.7818609E-02  0.8163107E-01
       -2   -1    0    0    0  501  0.00000000000E+00  0.00000000000E+00  0.11598317583E+04  0.11598317583E+04  0.25500000920E-02 0.  1.
        2   -1    0    0  501    0  0.00000000000E+00  0.00000000000E+00 -0.23461430539E+04  0.23461430539E+04  0.25500000920E-02 0. -1.
    10030    2    1    2    0    0  0.00000000000E+00  0.00000000000E+00 -0.11863112957E+04  0.35059748122E+04  0.32991703341E+04 0.  0.
        3    1    3    3  502    0 -0.63750722887E+03  0.47280976265E+03  0.94357721195E+03  0.12330054759E+04  0.10100000352E+00 0.  1.
       -3    1    3    3    0  502  0.63750722887E+03 -0.47280976265E+03 -0.21298885076E+04  0.22729693363E+04  0.10100000352E+00 0. -1.
</event>
<event>
 5   0  0.2727168E-07  0.3299802E+04  0.7818609E-02  0.8162946E-01
        2   -1    0    0  501    0  0.00000000000E+00  0.00000000000E+00  0.20613416718E+04  0.20613416718E+04  0.25500000920E-02 0. -1.
       -2   -1    0    0    0  501  0.00000000000E+00  0.00000000000E+00 -0.13205831977E+04  0.13205831977E+04  0.25500000920E-02 0.  1.
    10030    2    1    2    0    0  0.00000000000E+00  0.00000000000E+00  0.74075847407E+03  0.33819248695E+04  0.32998019192E+04 0.  0.
        2    1    3    3  502    0  0.17744685197E+03  0.17494072877E+03  0.20419453515E+04  0.20570932070E+04  0.25500000920E-02 0. -1.
       -2    1    3    3    0  502 -0.17744685197E+03 -0.17494072877E+03 -0.13011868775E+04  0.13248316625E+04  0.25500000920E-02 0.  1.
</event>
<event>
 5   0  0.9283910E-08  0.3299431E+04  0.7818609E-02  0.8163040E-01
        1   -1    0    0  501    0  0.00000000000E+00  0.00000000000E+00  0.12084793635E+04  0.12084793635E+04  0.50400001928E-02 0.  1.
       -1   -1    0    0    0  501  0.00000000000E+00  0.00000000000E+00 -0.22520544352E+04  0.22520544352E+04  0.50400001928E-02 0. -1.
    10030    2    1    2    0    0  0.00000000000E+00  0.00000000000E+00 -0.10435750717E+04  0.34605337988E+04  0.32994310482E+04 0.  0.
        3    1    3    3  502    0 -0.70943629325E+03  0.42212170901E+03  0.97626510449E+03  0.12785070027E+04  0.10100000352E+00 0.  1.
       -3    1    3    3    0  502  0.70943629325E+03 -0.42212170901E+03 -0.20198401762E+04  0.21820267961E+04  0.10100000352E+00 0. -1.
</event>
<event>
 5   0  0.9283910E-08  0.3299587E+04  0.7818609E-02  0.8163001E-01
       -1   -1    0    0    0  501  0.00000000000E+00  0.00000000000E+00  0.14866476042E+04  0.14866476043E+04  0.50400001928E-02 0. -1.
        1   -1    0    0  501    0  0.00000000000E+00  0.00000000000E+00 -0.18308426714E+04  0.18308426714E+04  0.50400001928E-02 0.  1.
    10030    2    1    2    0    0  0.00000000000E+00  0.00000000000E+00 -0.34419506713E+03  0.33174902756E+04  0.32995865627E+04 0.  0.
        3    1    3    3  502    0  0.91121084948E+03  0.75712311128E+02  0.12085908752E+04  0.15154964468E+04  0.10100000352E+00 0. -1.
       -3    1    3    3    0  502 -0.91121084948E+03 -0.75712311128E+02 -0.15527859424E+04  0.18019938289E+04  0.10100000352E+00 0.  1.
</event>
<event>
 5   0  0.8805125E-08  0.3298534E+04  0.7818609E-02  0.8163268E-01
       -1   -1    0    0    0  501  0.00000000000E+00  0.00000000000E+00  0.24327992073E+04  0.24327992073E+04  0.50400001928E-02 0.  1.
        1   -1    0    0  501    0  0.00000000000E+00  0.00000000000E+00 -0.11180873922E+04  0.11180873922E+04  0.50400001928E-02 0. -1.
    10030    2    1    2    0    0  0.00000000000E+00  0.00000000000E+00  0.13147118151E+04  0.35508865996E+04  0.32985342936E+04 0.  0.
        4    1    3    3  502    0  0.27078856221E+03  0.13834274788E+04  0.15789357512E+04  0.21166572121E+04  0.12699999809E+01 0.  1.
       -4    1    3    3    0  502 -0.27078856221E+03 -0.13834274788E+04 -0.26422393614E+03  0.14342293874E+04  0.12699999809E+01 0. -1.
</event>
<event>
 5   0  0.2875829E-07  0.3300952E+04  0.7818609E-02  0.8162653E-01
       -2   -1    0    0    0  501  0.00000000000E+00  0.00000000000E+00  0.11544091995E+04  0.11544091995E+04  0.25500000920E-02 0. -1.
        2   -1    0    0  501    0  0.00000000000E+00  0.00000000000E+00 -0.23597106093E+04  0.23597106093E+04  0.25500000920E-02 0.  1.
    10030    2    1    2    0    0  0.00000000000E+00  0.00000000000E+00 -0.12053014098E+04  0.35141198088E+04  0.33009523690E+04 0.  0.
        3    1    3    3  502    0 -0.55041697102E+03 -0.14463738251E+03 -0.22519534113E+04  0.23227511686E+04  0.10100000352E+00 0.  1.
       -3    1    3    3    0  502  0.55041697102E+03  0.14463738251E+03  0.10466520015E+04  0.11913686402E+04  0.10100000352E+00 0. -1.
</event>
<event>
 5   0  0.2727168E-07  0.3296816E+04  0.7818609E-02  0.8163706E-01
        2   -1    0    0  501    0  0.00000000000E+00  0.00000000000E+00  0.13469256828E+04  0.13469256828E+04  0.25500000920E-02 0.  1.
       -2   -1    0    0    0  501  0.00000000000E+00  0.00000000000E+00 -0.20173711145E+04  0.20173711145E+04  0.25500000920E-02 0. -1.
    10030    2    1    2    0    0  0.00000000000E+00  0.00000000000E+00 -0.67044543168E+03  0.33642967974E+04  0.32968160191E+04 0.  0.
        2    1    3    3  502    0 -0.14360380720E+04 -0.80413165956E+03 -0.42883864748E+03  0.17008044143E+04  0.25500000920E-02 0.  1.
       -2    1    3    3    0  502  0.14360380720E+04  0.80413165956E+03 -0.24160678420E+03  0.16634923830E+04  0.25500000920E-02 0. -1.
</event>
<event>
 5   0  0.2713815E-07  0.3303520E+04  0.7818609E-02  0.8162000E-01
        2   -1    0    0  501    0  0.00000000000E+00  0.00000000000E+00  0.21974927397E+04  0.21974927397E+04  0.25500000920E-02 0. -1.
       -2   -1    0    0    0  501  0.00000000000E+00  0.00000000000E+00 -0.12415566685E+04  0.12415566685E+04  0.25500000920E-02 0.  1.
    10030    2    1    2    0    0  0.00000000000E+00  0.00000000000E+00  0.95593607122E+03  0.34390494081E+04  0.33035204040E+04 0.  0.
        4    1    3    3  502    0 -0.48979956558E+03  0.89524161967E+03  0.18300791905E+04  0.20953645574E+04  0.12699999809E+01 0. -1.
       -4    1    3    3    0  502  0.48979956558E+03 -0.89524161967E+03 -0.87414311932E+03  0.13436848507E+04  0.12699999809E+01 0.  1.
</event>
<event>
 5   0  0.9454010E-08  0.3299685E+04  0.7818609E-02  0.8162976E-01
       -1   -1    0    0    0  501  0.00000000000E+00  0.00000000000E+00  0.13233618736E+04  0.13233618736E+04  0.50400001928E-02 0. -1.
        1   -1    0    0  501    0  0.00000000000E+00  0.00000000000E+00 -0.20568673557E+04  0.20568673557E+04  0.50400001928E-02 0.  1.
    10030    2    1    2    0    0  0.00000000000E+00  0.00000000000E+00 -0.73350548211E+03  0.33802292294E+04  0.32996847350E+04 0.  0.
        2    1    3    3  502    0 -0.15334761965E+03  0.10665060119E+04  0.91315665890E+03  0.14123758882E+04  0.25500000920E-02 0. -1.
       -2    1    3    3    0  502  0.15334761965E+03 -0.10665060119E+04 -0.16466621410E+04  0.19678533412E+04  0.25500000920E-02 0.  1.
</event>
<event>
 5   0  0.2875829E-07  0.3296119E+04  0.7818609E-02  0.8163884E-01
        2   -1    0    0  501    0  0.00000000000E+00  0.00000000000E+00  0.19721313203E+04  0.19721313203E+04  0.25500000920E-02 0. -1.
       -2   -1    0    0    0  501  0.00000000000E+00  0.00000000000E+00 -0.13772410141E+04  0.13772410141E+04  0.25500000920E-02 0.  1.
    10030    2    1    2    0    0  0.00000000000E+00  0.00000000000E+00  0.59489030618E+03  0.33493723344E+04  0.32961190146E+04 0.  0.
        3    1    3    3  502    0  0.81943375890E+03  0.92220076298E+03 -0.81299302690E+03  0.14774584950E+04  0.10100000352E+00 0.  1.
       -3    1    3    3    0  502 -0.81943375890E+03 -0.92220076298E+03  0.14078833331E+04  0.18719138394E+04  0.10100000352E+00 0. -1.
</event>
<event>
 5   0  0.2727168E-07  0.3287602E+04  0.7818609E-02  0.8166057E-01
        2   -1    0    0  501    0  0.00000000000E+00  0.00000000000E+00  0.18866768598E+04  0.18866768598E+04  0.25500000920E-02 0. -1.
       -2   -1    0    0    0  501  0.00000000000E+00  0.00000000000E+00 -0.14321908150E+04  0.14321908150E+04  0.25500000920E-02 0.  1.
    10030    2    1    2    0    0  0.00000000000E+00  0.00000000000E+00  0.45448604480E+03  0.33188676749E+04  0.32876017214E+04 0.  0.
        2    1    3    3  502    0 -0.17856229312E+03 -0.12918379673E+04  0.12374352020E+04  0.17977696475E+04  0.25500000920E-02 0. -1.
       -2    1    3    3    0  502  0.17856229312E+03  0.12918379673E+04 -0.78294915716E+03  0.15210980274E+04  0.25500000920E-02 0.  1.
</event>
<event>
 5   0  0.9181760E-08  0.3309882E+04  0.7818609E-02  0.8160385E-01
        1   -1    0    0  501    0  0.00000000000E+00  0.00000000000E+00  0.85716963474E+03  0.85716963475E+03  0.50400001928E-02 0. -1.
       -1   -1    0    0    0  501  0.00000000000E+00  0.00000000000E+00 -0.31952013818E+04  0.31952013818E+04  0.50400001928E-02 0.  1.
    10030    2    1    2    0    0  0.00000000000E+00  0.00000000000E+00 -0.23380317470E+04  0.40523710165E+04  0.33098819323E+04 0.  0.
        1    1    3    3  502    0 -0.15471541586E+04 -0.11955531592E+03 -0.46478938272E+03  0.16198792037E+04  0.50400001928E-02 0.  1.
       -1    1    3    3    0  502  0.15471541586E+04  0.11955531592E+03 -0.18732423643E+04  0.24324918129E+04  0.50400001928E-02 0. -1.
</event>
<event>
 5   0  0.9810351E-08  0.3301605E+04  0.7818609E-02  0.8162487E-01
        1   -1    0    0  501    0  0.00000000000E+00  0.00000000000E+00  0.22997972598E+04  0.22997972598E+04  0.50400001928E-02 0. -1.
       -1   -1    0    0    0  501  0.00000000000E+00  0.00000000000E+00 -0.11849519627E+04  0.11849519628E+04  0.50400001928E-02 0.  1.
    10030    2    1    2    0    0  0.00000000000E+00  0.00000000000E+00  0.11148452971E+04  0.34847492226E+04  0.33016052320E+04 0.  0.
        5    1    3    3  502    0  0.58005927747E+03 -0.33708398779E+03  0.21494122169E+04  0.22516858902E+04  0.46999998093E+01 0. -1.
       -5    1    3    3    0  502 -0.58005927747E+03  0.33708398779E+03 -0.10345669198E+04  0.12330633324E+04  0.46999998093E+01 0.  1.
</event>
<event>
 5   0  0.8805125E-08  0.3302368E+04  0.7818609E-02  0.8162293E-01
        1   -1    0    0  501    0  0.00000000000E+00  0.00000000000E+00  0.23266689749E+04  0.23266689749E+04  0.50400001928E-02 0.  1.
       -1   -1    0    0    0  501  0.00000000000E+00  0.00000000000E+00 -0.11718075068E+04  0.11718075069E+04  0.50400001928E-02 0. -1.
    10030    2    1    2    0    0  0.00000000000E+00  0.00000000000E+00  0.11548614681E+04  0.34984764818E+04  0.33023677389E+04 0.  0.
        4    1    3    3  502    0  0.90426367049E+03  0.24806035015E+03  0.20172504466E+04  0.22245286468E+04  0.12699999809E+01 0.  1.
       -4    1    3    3    0  502 -0.90426367049E+03 -0.24806035015E+03 -0.86238897853E+03  0.12739478350E+04  0.12699999809E+01 0. -1.
</event>
<event>
 5   0  0.9283910E-08  0.3298076E+04  0.7818609E-02  0.8163385E-01
        1   -1    0    0  501    0  0.00000000000E+00  0.00000000000E+00  0.13057548668E+04  0.13057548668E+04  0.50400001928E-02 0. -1.
       -1   -1    0    0    0  501  0.00000000000E+00  0.00000000000E+00 -0.20825700344E+04  0.20825700344E+04  0.50400001928E-02 0.  1.
    10030    2    1    2    0    0  0.00000000000E+00  0.00000000000E+00 -0.77681516762E+03  0.33883249012E+04  0.32980757771E+04 0.  0.
        3    1    3    3  502    0  0.88587473692E+03 -0.94826021249E+02  0.10372096504E+04  0.13673221614E+04  0.10100000352E+00 0. -1.
       -3    1    3    3    0  502 -0.88587473692E+03  0.94826021249E+02 -0.18140248180E+04  0.20210027399E+04  0.10100000352E+00 0.  1.
</event>
<event>
 5   0  0.2875829E-07  0.3320390E+04  0.7818609E-02  0.8157727E-01
        2   -1    0    0  501    0  0.00000000000E+00  0.00000000000E+00  0.12001576155E+04  0.12001576155E+04  0.25500000920E-02 0.  1.
       -2   -1    0    0    0  501  0.00000000000E+00  0.00000000000E+00 -0.22965708648E+04  0.22965708648E+04  0.25500000920E-02 0. -1.
    10030    2    1    2    0    0  0.00000000000E+00  0.00000000000E+00 -0.10964132493E+04  0.34967284802E+04  0.33203897439E+04 0.  0.
        3    1    3    3  502    0  0.96526984052E+03  0.13161516232E+04 -0.86805689204E+03  0.18486545752E+04  0.10100000352E+00 0. -1.
       -3    1    3    3    0  502 -0.96526984052E+03 -0.13161516232E+04 -0.22835635727E+03  0.16480739050E+04  0.10100000352E+00 0.  1.
</event>
<event>
 5   0  0.8805125E-08  0.3302568E+04  0.7818609E-02  0.8162242E-01
        1   -1    0    0  501    0  0.00000000000E+00  0.00000000000E+00  0.21916869728E+04  0.21916869728E+04  0.50400001928E-02 0.  1.
       -1   -1    0    0    0  501  0.00000000000E+00  0.00000000000E+00 -0.12441276081E+04  0.12441276082E+04  0.50400001928E-02 0. -1.
    10030    2    1    2    0    0  0.00000000000E+00  0.00000000000E+00  0.94755936468E+03  0.34358145810E+04  0.33025676504E+04 0.  0.
        4    1    3    3  502    0 -0.64129312221E+03 -0.73729879212E+03  0.18586016935E+04  0.20998257655E+04  0.12699999809E+01 0.  1.
       -4    1    3    3    0  502  0.64129312221E+03  0.73729879212E+03 -0.91104232879E+03  0.13359888155E+04  0.12699999809E+01 0. -1.
</event>
<event>
 5   0  0.2824402E-07  0.3314237E+04  0.7818609E-02  0.8159282E-01
        2   -1    0    0  501    0  0.00000000000E+00  0.00000000000E+00  0.24634589803E+04  0.24634589803E+04  0.25500000920E-02 0. -1.
       -2   -1    0    0    0  501  0.00000000000E+00  0.00000000000E+00 -0.11147100047E+04  0.11147100047E+04  0.25500000920E-02 0.  1.
    10030    2    1    2    0    0  0.00000000000E+00  0.00000000000E+00  0.13487489756E+04  0.35781689850E+04  0.33142373914E+04 0.  0.
        1    1    3    3  502    0 -0.14617529171E+04 -0.11218536602E+03  0.15083783686E+04  0.21034525072E+04  0.50400001928E-02 0.  1.
       -1    1    3    3    0  502  0.14617529171E+04  0.11218536602E+03 -0.15962939304E+03  0.14747164779E+04  0.50400001928E-02 0. -1.
</event>
<event>
 5   0  0.9454010E-08  0.3301872E+04  0.7818609E-02  0.8162419E-01
        1   -1    0    0  501    0  0.00000000000E+00  0.00000000000E+00  0.26022958764E+04  0.26022958764E+04  0.50400001928E-02 0. -1.
       -1   -1    0    0    0  501  0.00000000000E+00  0.00000000000E+00 -0.10473785660E+04  0.10473785661E+04  0.50400001928E-02 0.  1.
    10030    2    1    2    0    0  0.00000000000E+00  0.00000000000E+00  0.15549173103E+04  0.36496744424E+04  0.33018715441E+04 0.  0.
        2    1    3    3  502    0 -0.69757921605E+03 -0.11009857788E+04 -0.34259133452E+03  0.13476480514E+04  0.25500000920E-02 0.  1.
       -2    1    3    3    0  502  0.69757921605E+03  0.11009857788E+04  0.18975086448E+04  0.23020263911E+04  0.25500000920E-02 0. -1.
</event>
<event>
 5   0  0.9283910E-08  0.3304000E+04  0.7818609E-02  0.8161878E-01
       -1   -1    0    0    0  501  0.00000000000E+00  0.00000000000E+00  0.20319602988E+04  0.20319602988E+04  0.50400001928E-02 0. -1.
        1   -1    0    0  501    0  0.00000000000E+00  0.00000000000E+00 -0.13430893178E+04  0.13430893178E+04  0.50400001928E-02 0.  1.
    10030    2    1    2    0    0  0.00000000000E+00  0.00000000000E+00  0.68887098094E+03  0.33750496166E+04  0.33040001039E+04 0.  0.
        3    1    3    3  502    0 -0.31191560966E+03 -0.15336196045E+04  0.88479447190E+03  0.17978158155E+04  0.10100000352E+00 0. -1.
       -3    1    3    3    0  502  0.31191560966E+03  0.15336196045E+04 -0.19592349096E+03  0.15772338011E+04  0.10100000352E+00 0.  1.
</event>
<event>
 5   0  0.2713815E-07  0.3303680E+04  0.7818609E-02  0.8161960E-01
       -2   -1    0    0    0  501  0.00000000000E+00  0.00000000000E+00  0.14918520961E+04  0.14918520961E+04  0.25500000920E-02 0. -1.
        2   -1    0    0  501    0  0.00000000000E+00  0.00000000000E+00 -0.18289856449E+04  0.18289856449E+04  0.25500000920E-02 0.  1.
    10030    2    1    2    0    0  0.00000000000E+00  0.00000000000E+00 -0.33713354881E+03  0.33208377410E+04  0.33036804131E+04 0.  0.
        4    1    3    3  502    0  0.11685682417E+04 -0.80913409882E+03  0.67742439515E+03  0.15745333116E+04  0.12699999809E+01 0. -1.
       -4    1    3    3    0  502 -0.11685682417E+04  0.80913409882E+03 -0.10145579440E+04  0.17463044293E+04  0.12699999809E+01 0.  1.
</event>
<event>
 5   0  0.8805125E-08  0.3298655E+04  0.7818609E-02  0.8163238E-01
       -1   -1    0    0    0  501  0.00000000000E+00  0.00000000000E+00  0.13423839670E+04  0.13423839670E+04  0.50400001928E-02 0. -1.
        1   -1    0    0  501    0  0.00000000000E+00  0.00000000000E+00 -0.20264557466E+04  0.20264557466E+04  0.50400001928E-02 0.  1.
    10030    2    1    2    0    0  0.00000000000E+00  0.00000000000E+00 -0.68407177963E+03  0.33688397136E+04  0.32986553043E+04 0.  0.
        4    1    3    3  502    0  0.12024061365E+04  0.10398157291E+04 -0.79102937848E+03  0.17755918332E+04  0.12699999809E+01 0.  1.
       -4    1    3    3    0  502 -0.12024061365E+04 -0.10398157291E+04  0.10695759884E+03  0.15932478804E+04  0.12699999809E+01 0. -1.
</event>
<event>
 5   0  0.2727168E-07  0.3287957E+04  0.7818609E-02  0.8165966E-01
        2   -1    0    0  501    0  0.00000000000E+00  0.00000000000E+00  0.27280339334E+04  0.27280339334E+04  0.25500000920E-02 0. -1.
       -2   -1    0    0    0  501  0.00000000000E+00  0.00000000000E+00 -0.99070080014E+03  0.99070080015E+03  0.25500000920E-02 0.  1.
    10030    2    1    2    0    0  0.00000000000E+00  0.00000000000E+00  0.17373331333E+04  0.37187347335E+04  0.32879570561E+04 0.  0.
        2    1    3    3  502    0  0.14329034963E+04 -0.57226418472E+03  0.22690378924E+03  0.15595461058E+04  0.25500000920E-02 0.  1.
       -2    1    3    3    0  502 -0.14329034963E+04  0.57226418472E+03  0.15104293440E+04  0.21591886277E+04  0.25500000920E-02 0. -1.
</event>
<event>
 5   0  0.9810351E-08  0.3306513E+04  0.7818609E-02  0.8161240E-01
        1   -1    0    0  501    0  0.00000000000E+00  0.00000000000E+00  0.22501724655E+04  0.22501724655E+04  0.50400001928E-02 0.  1.
       -1   -1    0    0    0  501  0.00000000000E+00  0.00000000000E+00 -0.12146880756E+04  0.12146880756E+04  0.50400001928E-02 0. -1.
    10030    2    1    2    0    0  0.00000000000E+00  0.00000000000E+00  0.10354843900E+04  0.34648605411E+04  0.33065133672E+04 0.  0.
        5    1    3    3  502    0  0.81174863085E+03  0.12912321621E+04 -0.15079094963E+03  0.15326370531E+04  0.46999998093E+01 0. -1.
       -5    1    3    3    0  502 -0.81174863085E+03 -0.12912321621E+04  0.11862753396E+04  0.19322234880E+04  0.46999998093E+01 0.  1.
</event>
<event>
 5   0  0.2875829E-07  0.3297962E+04  0.7818609E-02  0.8163414E-01
        2   -1    0    0  501    0  0.00000000000E+00  0.00000000000E+00  0.25911441638E+04  0.25911441638E+04  0.25500000920E-02 0.  1.
       -2   -1    0    0    0  501  0.00000000000E+00  0.00000000000E+00 -0.10493966204E+04  0.10493966204E+04  0.25500000920E-02 0. -1.
    10030    2    1    2    0    0  0.00000000000E+00  0.00000000000E+00  0.15417475435E+04  0.36405407842E+04  0.32979617514E+04 0.  0.
        3    1    3    3  502    0 -0.13356297642E+04 -0.75765057846E+03  0.10744829621E+03  0.15393136173E+04  0.10100000352E+00 0. -1.
       -3    1    3    3    0  502  0.13356297642E+04  0.75765057846E+03  0.14342992472E+04  0.21012271669E+04  0.10100000352E+00 0.  1.
</event>
<event>
 5   0  0.9454010E-08  0.3299771E+04  0.7818609E-02  0.8162954E-01
        1   -1    0    0  501    0  0.00000000000E+00  0.00000000000E+00  0.14421544647E+04  0.14421544648E+04  0.50400001928E-02 0. -1.
       -1   -1    0    0    0  501  0.00000000000E+00  0.00000000000E+00 -0.18875387187E+04  0.18875387188E+04  0.50400001928E-02 0.  1.
    10030    2    1    2    0    0  0.00000000000E+00  0.00000000000E+00 -0.44538425400E+03  0.33296931835E+04  0.32997711379E+04 0.  0.
        2    1    3    3  502    0  0.85105049939E+03 -0.58195753441E+03  0.10770722959E+04  0.14909883484E+04  0.25500000920E-02 0. -1.
       -2    1    3    3    0  502 -0.85105049939E+03  0.58195753441E+03 -0.15224565499E+04  0.18387048351E+04  0.25500000920E-02 0.  1.
</event>
<event>
 5   0  0.2727168E-07  0.3298699E+04  0.7818609E-02  0.8163227E-01
        2   -1    0    0  501    0  0.00000000000E+00  0.00000000000E+00  0.17646946374E+04  0.17646946374E+04  0.25500000920E-02 0.  1.
       -2   -1    0    0    0  501  0.00000000000E+00  0.00000000000E+00 -0.15415432649E+04  0.15415432649E+04  0.25500000920E-02 0. -1.
    10030    2    1    2    0    0  0.00000000000E+00  0.00000000000E+00  0.22315137252E+03  0.33062379023E+04  0.32986986118E+04 0.  0.
        2    1    3    3  502    0  0.10969976983E+03 -0.16144662936E+04 -0.20824243061E+03  0.16315331325E+04  0.25500000920E-02 0. -1.
       -2    1    3    3    0  502 -0.10969976983E+03  0.16144662936E+04  0.43139380313E+03  0.16747047698E+04  0.25500000920E-02 0.  1.
</event>
<event>
 5   0  0.2824402E-07  0.3301563E+04  0.7818609E-02  0.8162498E-01
        2   -1    0    0  501    0  0.00000000000E+00  0.00000000000E+00  0.16809197661E+04  0.16809197661E+04  0.25500000920E-02 0. -1.
       -2   -1    0    0    0  501  0.00000000000E+00  0.00000000000E+00 -0.16211835012E+04  0.16211835012E+04  0.25500000920E-02 0.  1.
    10030    2    1    2    0    0  0.00000000000E+00  0.00000000000E+00  0.59736264862E+02  0.33021032673E+04  0.33015628975E+04 0.  0.
        1    1    3    3  502    0  0.76513649593E+03  0.12796208275E+04 -0.67891990489E+03  0.16382293969E+04  0.50400001928E-02 0.  1.
       -1    1    3    3    0  502 -0.76513649593E+03 -0.12796208275E+04  0.73865616975E+03  0.16638738704E+04  0.50400001928E-02 0. -1.
</event>
<event>
 5   0  0.9283910E-08  0.3304594E+04  0.7818609E-02  0.8161727E-01
       -1   -1    0    0    0  501  0.00000000000E+00  0.00000000000E+00  0.18617371932E+04  0.18617371933E+04  0.50400001928E-02 0. -1.
        1   -1    0    0  501    0  0.00000000000E+00  0.00000000000E+00 -0.14664182425E+04  0.14664182425E+04  0.50400001928E-02 0.  1.
    10030    2    1    2    0    0  0.00000000000E+00  0.00000000000E+00  0.39531895076E+03  0.33281554357E+04  0.33045940041E+04 0.  0.
        3    1    3    3  502    0 -0.45793728152E+03 -0.35190968318E+03  0.17567728103E+04  0.18492695034E+04  0.10100000352E+00 0. -1.
       -3    1    3    3    0  502  0.45793728152E+03  0.35190968318E+03 -0.13614538596E+04  0.14788859323E+04  0.10100000352E+00 0.  1.
</event>
<event>
 5   0  0.8805125E-08  0.3298704E+04  0.7818609E-02  0.8163225E-01
        1   -1    0    0  501    0  0.00000000000E+00  0.00000000000E+00  0.21437818004E+04  0.21437818004E+04  0.50400001928E-02 0.  1.
       -1   -1    0    0    0  501  0.00000000000E+00  0.00000000000E+00 -0.12689550546E+04  0.12689550546E+04  0.50400001928E-02 0. -1.
    10030    2    1    2    0    0  0.00000000000E+00  0.00000000000E+00  0.87482674587E+03  0.34127368550E+04  0.32987044436E+04 0.  0.
        4    1    3    3  502    0 -0.37038870659E+03 -0.10531412587E+04  0.16934953508E+04  0.20283546092E+04  0.12699999809E+01 0.  1.
       -4    1    3    3    0  502  0.37038870659E+03  0.10531412587E+04 -0.81866860491E+03  0.13843822458E+04  0.12699999809E+01 0. -1.
</event>
<event>
 5   0  0.2727168E-07  0.3302665E+04  0.7818609E-02  0.8162217E-01
        2   -1    0    0  501    0  0.00000000000E+00  0.00000000000E+00  0.24305415554E+04  0.24305415554E+04  0.25500000920E-02 0. -1.
       -2   -1    0    0    0  501  0.00000000000E+00  0.00000000000E+00 -0.11219309628E+04  0.11219309628E+04  0.25500000920E-02 0.  1.
    10030    2    1    2    0    0  0.00000000000E+00  0.00000000000E+00  0.13086105926E+04  0.35524725182E+04  0.33026654856E+04 0.  0.
        2    1    3    3  502    0  0.15780900847E+04  0.68303611631E+02  0.11722516671E+04  0.19670301650E+04  0.25500000920E-02 0. -1.
       -2    1    3    3    0  502 -0.15780900847E+04 -0.68303611631E+02  0.13635892549E+03  0.15854423532E+04  0.25500000920E-02 0.  1.
</event>
<event>
 5   0  0.2713815E-07  0.3302107E+04  0.7818609E-02  0.8162360E-01
        2   -1    0    0  501    0  0.00000000000E+00  0.00000000000E+00  0.19054992847E+04  0.19054992847E+04  0.25500000920E-02 0. -1.
       -2   -1    0    0    0  501  0.00000000000E+00  0.00000000000E+00 -0.14305841255E+04  0.14305841255E+04  0.25500000920E-02 0.  1.
    10030    2    1    2    0    0  0.00000000000E+00  0.00000000000E+00  0.47491515920E+03  0.33360834101E+04  0.33021066171E+04 0.  0.
        4    1    3    3  502    0 -0.74358468414E+03  0.55468779191E+03  0.16172994338E+04  0.18644719897E+04  0.12699999809E+01 0. -1.
       -4    1    3    3    0  502  0.74358468414E+03 -0.55468779191E+03 -0.11423842746E+04  0.14716114204E+04  0.12699999809E+01 0.  1.
</event>
<event>
 5   0  0.2875829E-07  0.3291845E+04  0.7818609E-02  0.8164974E-01
        2   -1    0    0  501    0  0.00000000000E+00  0.00000000000E+00  0.13952103038E+04  0.13952103038E+04  0.25500000920E-02 0. -1.
       -2   -1    0    0    0  501  0.00000000000E+00  0.00000000000E+00 -0.19416863471E+04  0.19416863471E+04  0.25500000920E-02 0.  1.
    10030    2    1    2    0    0  0.00000000000E+00  0.00000000000E+00 -0.54647604331E+03  0.33368966510E+04  0.32918449528E+04 0.  0.
        3    1    3    3  502    0  0.15905630999E+04  0.42223191316E+03 -0.24299644337E+03  0.16634957304E+04  0.10100000352E+00 0.  1.
       -3    1    3    3    0  502 -0.15905630999E+04 -0.42223191316E+03 -0.30347959994E+03  0.16734009206E+04  0.10100000352E+00 0. -1.
</event>
<event>
 5   0  0.2703956E-07  0.3304035E+04  0.7818609E-02  0.8161869E-01
        2   -1    0    0  501    0  0.00000000000E+00  0.00000000000E+00  0.21265675244E+04  0.21265675244E+04  0.25500000920E-02 0. -1.
       -2   -1    0    0    0  501  0.00000000000E+00  0.00000000000E+00 -0.12833646300E+04  0.12833646300E+04  0.25500000920E-02 0.  1.
    10030    2    1    2    0    0  0.00000000000E+00  0.00000000000E+00  0.84320289438E+03  0.34099321544E+04  0.33040348328E+04 0.  0.
        5    1    3    3  502    0 -0.70272092011E+02  0.15125758067E+04  0.11033144054E+04  0.18735390322E+04  0.46999998093E+01 0. -1.
       -5    1    3    3    0  502  0.70272092011E+02 -0.15125758067E+04 -0.26011151101E+03  0.15363931222E+04  0.46999998093E+01 0.  1.
</event>
<event>
 5   0  0.8805125E-08  0.3296510E+04  0.7818609E-02  0.8163784E-01
        1   -1    0    0  501    0  0.00000000000E+00  0.00000000000E+00  0.20437910584E+04  0.20437910584E+04  0.50400001928E-02 0. -1.
       -1   -1    0    0    0  501  0.00000000000E+00  0.00000000000E+00 -0.13292670458E+04  0.13292670458E+04  0.50400001928E-02 0.  1.
    10030    2    1    2    0    0  0.00000000000E+00  0.00000000000E+00  0.71452401262E+03  0.33730581042E+04  0.32965097315E+04 0.  0.
        4    1    3    3  502    0 -0.79866231288E+03  0.87077111779E+02 -0.11153583977E+04  0.13745798928E+04  0.12699999809E+01 0.  1.
       -4    1    3    3    0  502  0.79866231288E+03 -0.87077111779E+02  0.18298824103E+04  0.19984782115E+04  0.12699999809E+01 0. -1.
</event>
<event>
 5   0  0.9810351E-08  0.3307412E+04  0.7818609E-02  0.8161012E-01
       -1   -1    0    0    0  501  0.00000000000E+00  0.00000000000E+00  0.23347476959E+04  0.23347476959E+04  0.50400001928E-02 0. -1.
        1   -1    0    0  501    0  0.00000000000E+00  0.00000000000E+00 -0.11713231143E+04  0.11713231143E+04  0.50400001928E-02 0.  1.
    10030    2    1    2    0    0  0.00000000000E+00  0.00000000000E+00  0.11634245817E+04  0.35060708102E+04  0.33074122466E+04 0.  0.
        5    1    3    3  502    0 -0.67186589262E+03  0.59784799986E+03  0.20528344962E+04  0.22412000284E+04  0.46999998093E+01 0. -1.
       -5    1    3    3    0  502  0.67186589262E+03 -0.59784799986E+03 -0.88940991451E+03  0.12648707818E+04  0.46999998093E+01 0.  1.
</event>
<event>
 5   0  0.9181760E-08  0.3313519E+04  0.7818609E-02  0.8159464E-01
       -1   -1    0    0    0  501  0.00000000000E+00  0.00000000000E+00  0.13963044823E+04  0.13963044823E+04  0.50400001928E-02 0. -1.
        1   -1    0    0  501    0  0.00000000000E+00  0.00000000000E+00 -0.19657971988E+04  0.19657971988E+04  0.50400001928E-02 0.  1.
    10030    2    1    2    0    0  0.00000000000E+00  0.00000000000E+00 -0.56949271646E+03  0.33621016811E+04  0.33135186374E+04 0.  0.
        1    1    3    3  502    0  0.11430103592E+04  0.31893133925E+03  0.88834586413E+03  0.14823455248E+04  0.50400001928E-02 0. -1.
       -1    1    3    3    0  502 -0.11430103592E+04 -0.31893133925E+03 -0.14578385806E+04  0.18797561564E+04  0.50400001928E-02 0.  1.
</event>
<event>
 5   0  0.2713815E-07  0.3297712E+04  0.7818609E-02  0.8163478E-01
       -2   -1    0    0    0  501  0.00000000000E+00  0.00000000000E+00  0.14620901846E+04  0.14620901846E+04  0.25500000920E-02 0. -1.
        2   -1    0    0  501    0  0.00000000000E+00  0.00000000000E+00 -0.18594793335E+04  0.18594793335E+04  0.25500000920E-02 0.  1.
    10030    2    1    2    0    0  0.00000000000E+00  0.00000000000E+00 -0.39738914892E+03  0.33215695181E+04  0.32977122263E+04 0.  0.
        4    1    3    3  502    0  0.10423075038E+03 -0.16428799018E+04 -0.29321615644E+03  0.16720932235E+04  0.12699999809E+01 0. -1.
       -4    1    3    3    0  502 -0.10423075038E+03  0.16428799018E+04 -0.10417299248E+03  0.16494762945E+04  0.12699999809E+01 0.  1.
</event>
<event>
 5   0  0.2713815E-07  0.3300481E+04  0.7818609E-02  0.8162773E-01
       -2   -1    0    0    0  501  0.00000000000E+00  0.00000000000E+00  0.18629678142E+04  0.18629678142E+04  0.25500000920E-02 0.  1.
        2   -1    0    0  501    0  0.00000000000E+00  0.00000000000E+00 -0.14618043247E+04  0.14618043247E+04  0.25500000920E-02 0. -1.
    10030    2    1    2    0    0  0.00000000000E+00  0.00000000000E+00  0.40116348952E+03  0.33247721388E+04  0.33004814240E+04 0.  0.
        4    1    3    3  502    0  0.78364785556E+03  0.14275515697E+04  0.46953990995E+03  0.16948382771E+04  0.12699999809E+01 0. -1.
       -4    1    3    3    0  502 -0.78364785556E+03 -0.14275515697E+04 -0.68376420424E+02  0.16299338617E+04  0.12699999809E+01 0.  1.
</event>
<event>
 5   0  0.8805125E-08  0.3303558E+04  0.7818609E-02  0.8161991E-01
       -3   -1    0    0    0  501  0.00000000000E+00  0.00000000000E+00  0.27435912414E+04  0.27435912432E+04  0.10100000352E+00 0.  1.
        3   -1    0    0  501    0  0.00000000000E+00  0.00000000000E+00 -0.99445351383E+03  0.99445351896E+03  0.10100000352E+00 0. -1.
    10030    2    1    2    0    0  0.00000000000E+00  0.00000000000E+00  0.17491377276E+04  0.37380447622E+04  0.33035580598E+04 0.  0.
        5    1    3    3  502    0 -0.24426708131E+03  0.14842409346E+04  0.16467556173E+04  0.22303505805E+04  0.46999998093E+01 0.  1.
       -5    1    3    3    0  502  0.24426708131E+03 -0.14842409346E+04  0.10238211029E+03  0.15076941817E+04  0.46999998093E+01 0. -1.
</event>
<event>
 5   0  0.2727168E-07  0.3300748E+04  0.7818609E-02  0.8162705E-01
       -2   -1    0    0    0  501  0.00000000000E+00  0.00000000000E+00  0.11155162190E+04  0.11155162190E+04  0.25500000920E-02 0. -1.
        2   -1    0    0  501    0  0.00000000000E+00  0.00000000000E+00 -0.24416802537E+04  0.24416802537E+04  0.25500000920E-02 0.  1.
    10030    2    1    2    0    0  0.00000000000E+00  0.00000000000E+00 -0.13261640348E+04  0.35571964727E+04  0.33007477483E+04 0.  0.
        2    1    3    3  502    0  0.52902886774E+03 -0.20261426016E+03  0.10074515954E+04  0.11558039619E+04  0.25500000920E-02 0. -1.
       -2    1    3    3    0  502 -0.52902886774E+03  0.20261426016E+03 -0.23336156302E+04  0.24013925108E+04  0.25500000920E-02 0.  1.
</event>
<event>
 5   0  0.9454010E-08  0.3286304E+04  0.7818609E-02  0.8166389E-01
        1   -1    0    0  501    0  0.00000000000E+00  0.00000000000E+00  0.13797733331E+04  0.13797733331E+04  0.50400001928E-02 0. -1.
       -1   -1    0    0    0  501  0.00000000000E+00  0.00000000000E+00 -0.19568056525E+04  0.19568056525E+04  0.50400001928E-02 0.  1.
    10030    2    1    2    0    0  0.00000000000E+00  0.00000000000E+00 -0.57703231941E+03  0.33365789855E+04  0.32863038553E+04 0.  0.
        2    1    3    3  502    0  0.99290755188E+03  0.10605596700E+04 -0.10679162543E+04  0.18030799612E+04  0.25500000920E-02 0.  1.
       -2    1    3    3    0  502 -0.99290755188E+03 -0.10605596700E+04  0.49088393489E+03  0.15334990244E+04  0.25500000920E-02 0. -1.
</event>
<event>
 5   0  0.9283910E-08  0.3297910E+04  0.7818609E-02  0.8163428E-01
       -1   -1    0    0    0  501  0.00000000000E+00  0.00000000000E+00  0.12430073333E+04  0.12430073333E+04  0.50400001928E-02 0.  1.
        1   -1    0    0  501    0  0.00000000000E+00  0.00000000000E+00 -0.21874785018E+04  0.21874785018E+04  0.50400001928E-02 0. -1.
    10030    2    1    2    0    0  0.00000000000E+00  0.00000000000E+00 -0.94447116852E+03  0.34304858351E+04  0.32979095313E+04 0.  0.
        3    1    3    3  502    0  0.29802263274E+03 -0.80247178593E+02  0.12126942437E+04  0.12513530430E+04  0.10100000352E+00 0.  1.
       -3    1    3    3    0  502 -0.29802263274E+03  0.80247178593E+02 -0.21571654123E+04  0.21791327920E+04  0.10100000352E+00 0. -1.
</event>
<event>
 5   0  0.2703956E-07  0.3296473E+04  0.7818609E-02  0.8163793E-01
        2   -1    0    0  501    0  0.00000000000E+00  0.00000000000E+00  0.16716968823E+04  0.16716968823E+04  0.25500000920E-02 0.  1.
       -2   -1    0    0    0  501  0.00000000000E+00  0.00000000000E+00 -0.16251054312E+04  0.16251054312E+04  0.25500000920E-02 0. -1.
    10030    2    1    2    0    0  0.00000000000E+00  0.00000000000E+00  0.46591451104E+02  0.32968023134E+04  0.32964730744E+04 0.  0.
        5    1    3    3  502    0  0.29847285155E+03 -0.82206718952E+03  0.14204968484E+04  0.16681468441E+04  0.46999998093E+01 0.  1.
       -5    1    3    3    0  502 -0.29847285155E+03  0.82206718952E+03 -0.13739053973E+04  0.16286554693E+04  0.46999998093E+01 0. -1.
</event>
<event>
 5   0  0.2824402E-07  0.3299074E+04  0.7818609E-02  0.8163131E-01
        2   -1    0    0  501    0  0.00000000000E+00  0.00000000000E+00  0.16017590998E+04  0.16017590998E+04  0.25500000920E-02 0. -1.
       -2   -1    0    0    0  501  0.00000000000E+00  0.00000000000E+00 -0.16987404072E+04  0.16987404072E+04  0.25500000920E-02 0.  1.
    10030    2    1    2    0    0  0.00000000000E+00  0.00000000000E+00 -0.96981307402E+02  0.33004995071E+04  0.32990743584E+04 0.  0.
        1    1    3    3  502    0 -0.15803176012E+03 -0.86851216265E+03  0.13455550449E+04  0.16092873555E+04  0.50400001928E-02 0. -1.
       -1    1    3    3    0  502  0.15803176012E+03  0.86851216265E+03 -0.14425363523E+04  0.16912121515E+04  0.50400001928E-02 0.  1.
</event>
<event>
 5   0  0.8805125E-08  0.3294708E+04  0.7818609E-02  0.8164243E-01
        1   -1    0    0  501    0  0.00000000000E+00  0.00000000000E+00  0.16366236826E+04  0.16366236826E+04  0.50400001928E-02 0. -1.
       -1   -1    0    0    0  501  0.00000000000E+00  0.00000000000E+00 -0.16581542926E+04  0.16581542926E+04  0.50400001928E-02 0.  1.
    10030    2    1    2    0    0  0.00000000000E+00  0.00000000000E+00 -0.21530609998E+02  0.32947779753E+04  0.32947076257E+04 0.  0.
        4    1    3    3  502    0 -0.50556573669E+03 -0.15541816286E+04 -0.21739915089E+03  0.16487392919E+04  0.12699999809E+01 0.  1.
       -4    1    3    3    0  502  0.50556573669E+03  0.15541816286E+04  0.19586854090E+03  0.16460386834E+04  0.12699999809E+01 0. -1.
</event>
<event>
 5   0  0.8805125E-08  0.3299574E+04  0.7818609E-02  0.8163004E-01
       -1   -1    0    0    0  501  0.00000000000E+00  0.00000000000E+00  0.21816093214E+04  0.21816093214E+04  0.50400001928E-02 0. -1.
        1   -1    0    0  501    0  0.00000000000E+00  0.00000000000E+00 -0.12476101420E+04  0.12476101420E+04  0.50400001928E-02 0.  1.
    10030    2    1    2    0    0  0.00000000000E+00  0.00000000000E+00  0.93399917945E+03  0.34292194635E+04  0.32995744667E+04 0.  0.
        4    1    3    3  502    0  0.20660920026E+03 -0.95990278924E+02  0.21651823244E+04  0.21771351833E+04  0.12699999809E+01 0. -1.
       -4    1    3    3    0  502 -0.20660920026E+03  0.95990278924E+02 -0.12311831450E+04  0.12520842802E+04  0.12699999809E+01 0.  1.
</event>
<event>
 5   0  0.9810351E-08  0.3301988E+04  0.7818609E-02  0.8162390E-01
       -1   -1    0    0    0  501  0.00000000000E+00  0.00000000000E+00  0.19566633265E+04  0.19566633265E+04  0.50400001928E-02 0.  1.
        1   -1    0    0  501    0  0.00000000000E+00  0.00000000000E+00 -0.13930765574E+04  0.13930765574E+04  0.50400001928E-02 0. -1.
    10030    2    1    2    0    0  0.00000000000E+00  0.00000000000E+00  0.56358676907E+03  0.33497398839E+04  0.33019883773E+04 0.  0.
        5    1    3    3  502    0  0.91667871306E+03  0.10976306817E+02 -0.11111398910E+04  0.14405118152E+04  0.46999998093E+01 0. -1.
       -5    1    3    3    0  502 -0.91667871306E+03 -0.10976306817E+02  0.16747266601E+04  0.19092280687E+04  0.46999998093E+01 0.  1.
</event>
<event>
 5   0  0.2713815E-07  0.3301742E+04  0.7818609E-02  0.8162452E-01
       -2   -1    0    0    0  501  0.00000000000E+00  0.00000000000E+00  0.17245118837E+04  0.17245118837E+04  0.25500000920E-02 0. -1.
        2   -1    0    0  501    0  0.00000000000E+00  0.00000000000E+00 -0.15803752361E+04  0.15803752361E+04  0.25500000920E-02 0.  1.
    10030    2    1    2    0    0  0.00000000000E+00  0.00000000000E+00  0.14413664762E+03  0.33048871198E+04  0.33017424947E+04 0.  0.
        4    1    3    3  502    0  0.86799841875E+03 -0.11485373698E+04 -0.73667082425E+03  0.16171718712E+04  0.12699999809E+01 0. -1.
       -4    1    3    3    0  502 -0.86799841875E+03  0.11485373698E+04  0.88080747188E+03  0.16877152486E+04  0.12699999809E+01 0.  1.
</event>
<event>
 5   0  0.8805125E-08  0.3298307E+04  0.7818609E-02  0.8163326E-01
        3   -1    0    0  501    0  0.00000000000E+00  0.00000000000E+00  0.13491662969E+04  0.13491663007E+04  0.10100000352E+00 0.  1.
       -3   -1    0    0    0  501  0.00000000000E+00  0.00000000000E+00 -0.20158430347E+04  0.20158430372E+04  0.10100000352E+00 0. -1.
    10030    2    1    2    0    0  0.00000000000E+00  0.00000000000E+00 -0.66667673776E+03  0.33650093379E+04  0.32983071373E+04 0.  0.
        2    1    3    3  502    0  0.59743433791E+03  0.12654094402E+04 -0.12236364804E+04  0.18588908186E+04  0.25500000920E-02 0. -1.
       -2    1    3    3    0  502 -0.59743433791E+03 -0.12654094402E+04  0.55695974261E+03  0.15061185193E+04  0.25500000920E-02 0.  1.
</event>
<event>
 5   0  0.2875829E-07  0.3302636E+04  0.7818609E-02  0.8162225E-01
        2   -1    0    0  501    0  0.00000000000E+00  0.00000000000E+00  0.11839066804E+04  0.11839066804E+04  0.25500000920E-02 0. -1.
       -2   -1    0    0    0  501  0.00000000000E+00  0.00000000000E+00 -0.23032656772E+04  0.23032656772E+04  0.25500000920E-02 0.  1.
    10030    2    1    2    0    0  0.00000000000E+00  0.00000000000E+00 -0.11193589968E+04  0.34871723576E+04  0.33026362936E+04 0.  0.
        3    1    3    3  502    0 -0.48335313704E+03  0.19762159845E+03 -0.22137907874E+04  0.22745448362E+04  0.10100000352E+00 0.  1.
       -3    1    3    3    0  502  0.48335313704E+03 -0.19762159845E+03  0.10944317906E+04  0.12126275214E+04  0.10100000352E+00 0. -1.
</event>
<event>
 5   0  0.2875829E-07  0.3300694E+04  0.7818609E-02  0.8162719E-01
        2   -1    0    0  501    0  0.00000000000E+00  0.00000000000E+00  0.23411064634E+04  0.23411064634E+04  0.25500000920E-02 0. -1.
       -2   -1    0    0    0  501  0.00000000000E+00  0.00000000000E+00 -0.11634005618E+04  0.11634005618E+04  0.25500000920E-02 0.  1.
    10030    2    1    2    0    0  0.00000000000E+00  0.00000000000E+00  0.11777059016E+04  0.35045070251E+04  0.33006936087E+04 0.  0.
        3    1    3    3  502    0 -0.52732564848E+03  0.44893335638E+03  0.21793620396E+04  0.22867514967E+04  0.10100000352E+00 0. -1.
       -3    1    3    3    0  502  0.52732564848E+03 -0.44893335638E+03 -0.10016561380E+04  0.12177555284E+04  0.10100000352E+00 0.  1.
</event>
<event>
 5   0  0.9810351E-08  0.3302311E+04  0.7818609E-02  0.8162308E-01
        1   -1    0    0  501    0  0.00000000000E+00  0.00000000000E+00  0.23585960756E+04  0.23585960756E+04  0.50400001928E-02 0.  1.
       -1   -1    0    0    0  501  0.00000000000E+00  0.00000000000E+00 -0.11559056529E+04  0.11559056529E+04  0.50400001928E-02 0. -1.
    10030    2    1    2    0    0  0.00000000000E+00  0.00000000000E+00  0.12026904227E+04  0.35145017285E+04  0.33023110312E+04 0.  0.
        5    1    3    3  502    0 -0.79671477734E+03 -0.11817663673E+04 -0.28586727894E+03  0.14536396990E+04  0.46999998093E+01 0. -1.
       -5    1    3    3    0  502  0.79671477734E+03  0.11817663673E+04  0.14885577016E+04  0.20608620295E+04  0.46999998093E+01 0.  1.
</event>
<event>
 5   0  0.2875829E-07  0.3289943E+04  0.7818609E-02  0.8165459E-01
        2   -1    0    0  501    0  0.00000000000E+00  0.00000000000E+00  0.18417911885E+04  0.18417911885E+04  0.25500000920E-02 0.  1.
       -2   -1    0    0    0  501  0.00000000000E+00  0.00000000000E+00 -0.14691847940E+04  0.14691847940E+04  0.25500000920E-02 0. -1.
    10030    2    1    2    0    0  0.00000000000E+00  0.00000000000E+00  0.37260639448E+03  0.33109759826E+04  0.32899432262E+04 0.  0.
        3    1    3    3  502    0  0.68226165833E+02  0.16133941820E+04 -0.12912678086E+03  0.16199905345E+04  0.10100000352E+00 0. -1.
       -3    1    3    3    0  502 -0.68226165833E+02 -0.16133941820E+04  0.50173317534E+03  0.16909854481E+04  0.10100000352E+00 0.  1.
</event>
<event>
 5   0  0.2727168E-07  0.3294134E+04  0.7818609E-02  0.8164390E-01
       -2   -1    0    0    0  501  0.00000000000E+00  0.00000000000E+00  0.10970467621E+04  0.10970467621E+04  0.25500000920E-02 0.  1.
        2   -1    0    0  501    0  0.00000000000E+00  0.00000000000E+00 -0.24728472356E+04  0.24728472356E+04  0.25500000920E-02 0. -1.
    10030    2    1    2    0    0  0.00000000000E+00  0.00000000000E+00 -0.13758004735E+04  0.35698939978E+04  0.32941336058E+04 0.  0.
        2    1    3    3  502    0  0.35884486196E+03 -0.68828752648E+03 -0.22622029266E+04  0.23916670829E+04  0.25500000920E-02 0. -1.
       -2    1    3    3    0  502 -0.35884486196E+03  0.68828752648E+03  0.88640245314E+03  0.11782269149E+04  0.25500000920E-02 0.  1.
</event>
<event>
 5   0  0.2824402E-07  0.3299495E+04  0.7818609E-02  0.8163024E-01
        2   -1    0    0  501    0  0.00000000000E+00  0.00000000000E+00  0.29399531544E+04  0.29399531544E+04  0.25500000920E-02 0. -1.
       -2   -1    0    0    0  501  0.00000000000E+00  0.00000000000E+00 -0.92575189577E+03  0.92575189577E+03  0.25500000920E-02 0.  1.
    10030    2    1    2    0    0  0.00000000000E+00  0.00000000000E+00  0.20142012586E+04  0.38657050501E+04  0.32994952378E+04 0.  0.
        1    1    3    3  502    0 -0.65946489884E+02 -0.99389113221E+03 -0.53368183371E+03  0.11300375312E+04  0.50400001928E-02 0.  1.
       -1    1    3    3    0  502  0.65946489884E+02  0.99389113221E+03  0.25478830923E+04  0.27356675190E+04  0.50400001928E-02 0. -1.
</event>
<event>
 5   0  0.9181760E-08  0.3299596E+04  0.7818609E-02  0.8162998E-01
       -1   -1    0    0    0  501  0.00000000000E+00  0.00000000000E+00  0.24062157024E+04  0.24062157024E+04  0.50400001928E-02 0.  1.
        1   -1    0    0  501    0  0.00000000000E+00  0.00000000000E+00 -0.11311676592E+04  0.11311676592E+04  0.50400001928E-02 0. -1.
    10030    2    1    2    0    0  0.00000000000E+00  0.00000000000E+00  0.12750480433E+04  0.35373833616E+04  0.32995959653E+04 0.  0.
        1    1    3    3  502    0 -0.15370333984E+04 -0.50031700821E+03  0.99154048640E+03  0.18962967365E+04  0.50400001928E-02 0.  1.
       -1    1    3    3    0  502  0.15370333984E+04  0.50031700821E+03  0.28350755686E+03  0.16410866252E+04  0.50400001928E-02 0. -1.
</event>
<event>
 5   0  0.2713815E-07  0.3298860E+04  0.7818609E-02  0.8163186E-01
        2   -1    0    0  501    0  0.00000000000E+00  0.00000000000E+00  0.19788590531E+04  0.19788590531E+04  0.25500000920E-02 0. -1.
       -2   -1    0    0    0  501  0.00000000000E+00  0.00000000000E+00 -0.13748421451E+04  0.13748421451E+04  0.25500000920E-02 0.  1.
    10030    2    1    2    0    0  0.00000000000E+00  0.00000000000E+00  0.60401690806E+03  0.33537011982E+04  0.32988596972E+04 0.  0.
        4    1    3    3  502    0  0.24954154495E+03  0.15039559489E+04 -0.33811200280E+03  0.15615619803E+04  0.12699999809E+01 0. -1.
       -4    1    3    3    0  502 -0.24954154495E+03 -0.15039559489E+04  0.94212891086E+03  0.17921392179E+04  0.12699999809E+01 0.  1.
</event>
<event>
 5   0  0.2713815E-07  0.3298149E+04  0.7818609E-02  0.8163367E-01
       -2   -1    0    0    0  501  0.00000000000E+00  0.00000000000E+00  0.20535292929E+04  0.20535292929E+04  0.25500000920E-02 0.  1.
        2   -1    0    0  501    0  0.00000000000E+00  0.00000000000E+00 -0.13242790897E+04  0.13242790897E+04  0.25500000920E-02 0. -1.
    10030    2    1    2    0    0  0.00000000000E+00  0.00000000000E+00  0.72925020316E+03  0.33778083826E+04  0.32981485125E+04 0.  0.
        4    1    3    3  502    0  0.71459756887E+02 -0.67237334034E+03 -0.11757811795E+04  0.13563389697E+04  0.12699999809E+01 0. -1.
       -4    1    3    3    0  502 -0.71459756887E+02  0.67237334034E+03  0.19050313827E+04  0.20214694129E+04  0.12699999809E+01 0.  1.
</event>
<event>
 5   0  0.2703956E-07  0.3292420E+04  0.7818609E-02  0.8164827E-01
        2   -1    0    0  501    0  0.00000000000E+00  0.00000000000E+00  0.19458408459E+04  0.19458408459E+04  0.25500000920E-02 0.  1.
       -2   -1    0    0    0  501  0.00000000000E+00  0.00000000000E+00 -0.13927180807E+04  0.13927180807E+04  0.25500000920E-02 0. -1.
    10030    2    1    2    0    0  0.00000000000E+00  0.00000000000E+00  0.55312276525E+03  0.33385589266E+04  0.32924202211E+04 0.  0.
        5    1    3    3  502    0 -0.85678481939E+03 -0.13755252036E+04  0.57016311159E+03  0.17179225466E+04  0.46999998093E+01 0.  1.
       -5    1    3    3    0  502  0.85678481939E+03  0.13755252036E+04 -0.17040346343E+02  0.16206363799E+04  0.46999998093E+01 0. -1.
</event>
<event>
 5   0  0.8805125E-08  0.3299455E+04  0.7818609E-02  0.8163034E-01
       -1   -1    0    0    0  501  0.00000000000E+00  0.00000000000E+00  0.20046772780E+04  0.20046772780E+04  0.50400001928E-02 0.  1.
        1   -1    0    0  501    0  0.00000000000E+00  0.00000000000E+00 -0.13576256207E+04  0.13576256207E+04  0.50400001928E-02 0. -1.
    10030    2    1    2    0    0  0.00000000000E+00  0.00000000000E+00  0.64705165729E+03  0.33623028988E+04  0.32994552484E+04 0.  0.
        4    1    3    3  502    0 -0.63772770598E+02 -0.10560922153E+04 -0.96636576459E+03  0.14329208413E+04  0.12699999809E+01 0. -1.
       -4    1    3    3    0  502  0.63772770598E+02  0.10560922153E+04  0.16134174219E+04  0.19293820575E+04  0.12699999809E+01 0.  1.
</event>
<event>
 5   0  0.9454010E-08  0.3298470E+04  0.7818609E-02  0.8163285E-01
       -1   -1    0    0    0  501  0.00000000000E+00  0.00000000000E+00  0.14955992648E+04  0.14955992648E+04  0.50400001928E-02 0.  1.
        1   -1    0    0  501    0  0.00000000000E+00  0.00000000000E+00 -0.18186530340E+04  0.18186530340E+04  0.50400001928E-02 0. -1.
    10030    2    1    2    0    0  0.00000000000E+00  0.00000000000E+00 -0.32305376916E+03  0.33142522988E+04  0.32984700336E+04 0.  0.
        2    1    3    3  502    0  0.11913901876E+02  0.15880128405E+04 -0.60868365240E+03  0.17007123541E+04  0.25500000920E-02 0.  1.
       -2    1    3    3    0  502 -0.11913901876E+02 -0.15880128405E+04  0.28562988325E+03  0.16135399447E+04  0.25500000920E-02 0. -1.
</event>
<event>
 5   0  0.2875829E-07  0.3298853E+04  0.7818609E-02  0.8163187E-01
        2   -1    0    0  501    0  0.00000000000E+00  0.00000000000E+00  0.14060714487E+04  0.14060714487E+04  0.25500000920E-02 0.  1.
       -2   -1    0    0    0  501  0.00000000000E+00  0.00000000000E+00 -0.19348997398E+04  0.19348997398E+04  0.25500000920E-02 0. -1.
    10030    2    1    2    0    0  0.00000000000E+00  0.00000000000E+00 -0.52882829103E+03  0.33409711885E+04  0.32988526977E+04 0.  0.
        3    1    3    3  502    0  0.10048725275E+04  0.57291031052E+03  0.92644393249E+03  0.14819896729E+04  0.10100000352E+00 0.  1.
       -3    1    3    3    0  502 -0.10048725275E+04 -0.57291031052E+03 -0.14552722235E+04  0.18589815156E+04  0.10100000352E+00 0. -1.
</event>
<event>
 5   0  0.2713815E-07  0.3297314E+04  0.7818609E-02  0.8163579E-01
        2   -1    0    0  501    0  0.00000000000E+00  0.00000000000E+00  0.23356340493E+04  0.23356340493E+04  0.25500000920E-02 0.  1.
       -2   -1    0    0    0  501  0.00000000000E+00  0.00000000000E+00 -0.11637393548E+04  0.11637393548E+04  0.25500000920E-02 0. -1.
    10030    2    1    2    0    0  0.00000000000E+00  0.00000000000E+00  0.11718946945E+04  0.34993734041E+04  0.32973136105E+04 0.  0.
        4    1    3    3  502    0  0.59223334134E+03 -0.55080264875E+03  0.21106282517E+04  0.22602825306E+04  0.12699999809E+01 0.  1.
       -4    1    3    3    0  502 -0.59223334134E+03  0.55080264875E+03 -0.93873355718E+03  0.12390908735E+04  0.12699999809E+01 0. -1.
</event>
<event>
 5   0  0.2713815E-07  0.3298245E+04  0.7818609E-02  0.8163342E-01
       -2   -1    0    0    0  501  0.00000000000E+00  0.00000000000E+00  0.11897043147E+04  0.11897043147E+04  0.25500000920E-02 0.  1.
        2   -1    0    0  501    0  0.00000000000E+00  0.00000000000E+00 -0.22859504310E+04  0.22859504310E+04  0.25500000920E-02 0. -1.
    10030    2    1    2    0    0  0.00000000000E+00  0.00000000000E+00 -0.10962461162E+04  0.34756547457E+04  0.32982450430E+04 0.  0.
        4    1    3    3  502    0 -0.13020153102E+04 -0.80949527925E+03 -0.11883179484E+04  0.19397493742E+04  0.12699999809E+01 0. -1.
       -4    1    3    3    0  502  0.13020153102E+04  0.80949527925E+03  0.92071832135E+02  0.15359053716E+04  0.12699999809E+01 0.  1.
</event>
<event>
 5   0  0.9283910E-08  0.3320478E+04  0.7818609E-02  0.8157704E-01
        1   -1    0    0  501    0  0.00000000000E+00  0.00000000000E+00  0.17625449154E+04  0.17625449154E+04  0.50400001928E-02 0.  1.
       -1   -1    0    0    0  501  0.00000000000E+00  0.00000000000E+00 -0.15638716791E+04  0.15638716791E+04  0.50400001928E-02 0. -1.
    10030    2    1    2    0    0  0.00000000000E+00  0.00000000000E+00  0.19867323622E+03  0.33264165945E+04  0.33204783248E+04 0.  0.
        3    1    3    3  502    0  0.12590115150E+04  0.71306807037E+03 -0.71625571642E+03  0.16144963083E+04  0.10100000352E+00 0.  1.
       -3    1    3    3    0  502 -0.12590115150E+04 -0.71306807037E+03  0.91492895264E+03  0.17119202863E+04  0.10100000352E+00 0. -1.
</event>
<event>
 5   0  0.9181760E-08  0.3306878E+04  0.7818609E-02  0.8161148E-01
        1   -1    0    0  501    0  0.00000000000E+00  0.00000000000E+00  0.17134959474E+04  0.17134959475E+04  0.50400001928E-02 0.  1.
       -1   -1    0    0    0  501  0.00000000000E+00  0.00000000000E+00 -0.15954868683E+04  0.15954868683E+04  0.50400001928E-02 0. -1.
    10030    2    1    2    0    0  0.00000000000E+00  0.00000000000E+00  0.11800907919E+03  0.33089828157E+04  0.33068778526E+04 0.  0.
        1    1    3    3  502    0  0.50906079428E+03  0.10862707613E+04  0.11975922832E+04  0.16950971464E+04  0.50400001928E-02 0.  1.
       -1    1    3    3    0  502 -0.50906079428E+03 -0.10862707613E+04 -0.10795832040E+04  0.16138856693E+04  0.50400001928E-02 0. -1.
</event>
<event>
 5   0  0.8805125E-08  0.3311941E+04  0.7818609E-02  0.8159864E-01
       -1   -1    0    0    0  501  0.00000000000E+00  0.00000000000E+00  0.16768751511E+04  0.16768751511E+04  0.50400001928E-02 0. -1.
        1   -1    0    0  501    0  0.00000000000E+00  0.00000000000E+00 -0.16353267124E+04  0.16353267124E+04  0.50400001928E-02 0.  1.
    10030    2    1    2    0    0  0.00000000000E+00  0.00000000000E+00  0.41548438738E+02  0.33122018635E+04  0.33119412603E+04 0.  0.
        4    1    3    3  502    0  0.37886935516E+02  0.86580318833E+03 -0.13904309051E+04  0.16383986986E+04  0.12699999809E+01 0.  1.
       -4    1    3    3    0  502 -0.37886935516E+02 -0.86580318833E+03  0.14319793438E+04  0.16738031649E+04  0.12699999809E+01 0. -1.
</event>
<event>
 5   0  0.2824402E-07  0.3306246E+04  0.7818609E-02  0.8161308E-01
        2   -1    0    0  501    0  0.00000000000E+00  0.00000000000E+00  0.26261723358E+04  0.26261723358E+04  0.25500000920E-02 0.  1.
       -2   -1    0    0    0  501  0.00000000000E+00  0.00000000000E+00 -0.10406080421E+04  0.10406080421E+04  0.25500000920E-02 0. -1.
    10030    2    1    2    0    0  0.00000000000E+00  0.00000000000E+00  0.15855642937E+04  0.36667803779E+04  0.33062462416E+04 0.  0.
        1    1    3    3  502    0 -0.13564514042E+04 -0.31571065042E+03  0.17805075979E+04  0.22604957272E+04  0.50400001928E-02 0.  1.
       -1    1    3    3    0  502  0.13564514042E+04  0.31571065042E+03 -0.19494330414E+03  0.14062846506E+04  0.50400001928E-02 0. -1.
</event>
<event>
 5   0  0.2713815E-07  0.3299891E+04  0.7818609E-02  0.8162923E-01
        2   -1    0    0  501    0  0.00000000000E+00  0.00000000000E+00  0.24733184986E+04  0.24733184986E+04  0.25500000920E-02 0.  1.
       -2   -1    0    0    0  501  0.00000000000E+00  0.00000000000E+00 -0.11006750679E+04  0.11006750679E+04  0.25500000920E-02 0. -1.
    10030    2    1    2    0    0  0.00000000000E+00  0.00000000000E+00  0.13726434307E+04  0.35739935665E+04  0.32998909112E+04 0.  0.
        4    1    3    3  502    0  0.87064406482E+03 -0.36047805061E+03  0.21532052251E+04  0.23503744100E+04  0.12699999809E+01 0.  1.
       -4    1    3    3    0  502 -0.87064406482E+03  0.36047805061E+03 -0.78056179441E+03  0.12236191566E+04  0.12699999809E+01 0. -1.
</event>
<event>
 5   0  0.9810351E-08  0.3291529E+04  0.7818609E-02  0.8165054E-01
        1   -1    0    0  501    0  0.00000000000E+00  0.00000000000E+00  0.24348348889E+04  0.24348348889E+04  0.50400001928E-02 0. -1.
       -1   -1    0    0    0  501  0.00000000000E+00  0.00000000000E+00 -0.11124124483E+04  0.11124124483E+04  0.50400001928E-02 0.  1.
    10030    2    1    2    0    0  0.00000000000E+00  0.00000000000E+00  0.13224224406E+04  0.35472473372E+04  0.32915289091E+04 0.  0.
        5    1    3    3  502    0  0.72030220466E+03 -0.36606930425E+03 -0.88394070813E+03  0.11975872691E+04  0.46999998093E+01 0.  1.
       -5    1    3    3    0  502 -0.72030220466E+03  0.36606930425E+03  0.22063631488E+04  0.23496600681E+04  0.46999998093E+01 0. -1.
</event>
<event>
 5   0  0.2824402E-07  0.3299208E+04  0.7818609E-02  0.8163097E-01
        2   -1    0    0  501    0  0.00000000000E+00  0.00000000000E+00  0.16802035620E+04  0.16802035620E+04  0.25500000920E-02 0. -1.
       -2   -1    0    0    0  501  0.00000000000E+00  0.00000000000E+00 -0.16195614767E+04  0.16195614767E+04  0.25500000920E-02 0.  1.
    10030    2    1    2    0    0  0.00000000000E+00  0.00000000000E+00  0.60642085227E+02  0.32997650387E+04  0.32992077607E+04 0.  0.
        1    1    3    3  502    0  0.16935111908E+03  0.13570992199E+04  0.95286226785E+03  0.16668367033E+04  0.50400001928E-02 0.  1.
       -1    1    3    3    0  502 -0.16935111908E+03 -0.13570992199E+04 -0.89222018262E+03  0.16329283353E+04  0.50400001928E-02 0. -1.
</event>
<event>
 5   0  0.9283910E-08  0.3300275E+04  0.7818609E-02  0.8162825E-01
       -1   -1    0    0    0  501  0.00000000000E+00  0.00000000000E+00  0.12658952031E+04  0.12658952031E+04  0.50400001928E-02 0.  1.
        1   -1    0    0  501    0  0.00000000000E+00  0.00000000000E+00 -0.21510110628E+04  0.21510110628E+04  0.50400001928E-02 0. -1.
    10030    2    1    2    0    0  0.00000000000E+00  0.00000000000E+00 -0.88511585970E+03  0.34169062660E+04  0.33002754954E+04 0.  0.
        3    1    3    3  502    0 -0.26203186920E+03 -0.47165229090E+03 -0.20571030636E+04  0.21266851221E+04  0.10100000352E+00 0. -1.
       -3    1    3    3    0  502  0.26203186920E+03  0.47165229090E+03  0.11719872039E+04  0.12902211439E+04  0.10100000352E+00 0.  1.
</event>
<event>
 5   0  0.8805125E-08  0.3295554E+04  0.7818609E-02  0.8164028E-01
       -3   -1    0    0    0  501  0.00000000000E+00  0.00000000000E+00  0.24165350859E+04  0.24165350880E+04  0.10100000352E+00 0. -1.
        3   -1    0    0  501    0  0.00000000000E+00  0.00000000000E+00 -0.11235790586E+04  0.11235790632E+04  0.10100000352E+00 0.  1.
    10030    2    1    2    0    0  0.00000000000E+00  0.00000000000E+00  0.12929560272E+04  0.35401141511E+04  0.32955535066E+04 0.  0.
        3    1    3    3  502    0  0.97762417545E+03  0.17086220416E+03  0.20594717204E+04  0.22861248213E+04  0.10100000352E+00 0. -1.
       -3    1    3    3    0  502 -0.97762417545E+03 -0.17086220416E+03 -0.76651569317E+03  0.12539893298E+04  0.10100000352E+00 0.  1.
</event>
<event>
 5   0  0.9810351E-08  0.3305216E+04  0.7818609E-02  0.8161569E-01
       -1   -1    0    0    0  501  0.00000000000E+00  0.00000000000E+00  0.12201533300E+04  0.12201533300E+04  0.50400001928E-02 0. -1.
        1   -1    0    0  501    0  0.00000000000E+00  0.00000000000E+00 -0.22383367012E+04  0.22383367012E+04  0.50400001928E-02 0.  1.
    10030    2    1    2    0    0  0.00000000000E+00  0.00000000000E+00 -0.10181833712E+04  0.34584900312E+04  0.33052164707E+04 0.  0.
        5    1    3    3  502    0 -0.64355660543E+03  0.71137431448E+03 -0.19171824857E+04  0.21437885374E+04  0.46999998093E+01 0.  1.
       -5    1    3    3    0  502  0.64355660543E+03 -0.71137431448E+03  0.89899911455E+03  0.13147014937E+04  0.46999998093E+01 0. -1.
</event>
<event>
 5   0  0.9454010E-08  0.3292746E+04  0.7818609E-02  0.8164744E-01
        1   -1    0    0  501    0  0.00000000000E+00  0.00000000000E+00  0.17766635361E+04  0.17766635362E+04  0.50400001928E-02 0.  1.
       -1   -1    0    0    0  501  0.00000000000E+00  0.00000000000E+00 -0.15256376329E+04  0.15256376329E+04  0.50400001928E-02 0. -1.
    10030    2    1    2    0    0  0.00000000000E+00  0.00000000000E+00  0.25102590326E+03  0.33023011690E+04  0.32927464231E+04 0.  0.
        2    1    3    3  502    0 -0.68959719695E+03  0.13052437965E+04 -0.60553232462E+03  0.15955798502E+04  0.25500000920E-02 0. -1.
       -2    1    3    3    0  502  0.68959719695E+03 -0.13052437965E+04  0.85655822789E+03  0.17067213188E+04  0.25500000920E-02 0.  1.
</event>
<event>
 5   0  0.2703956E-07  0.3299760E+04  0.7818609E-02  0.8162956E-01
        2   -1    0    0  501    0  0.00000000000E+00  0.00000000000E+00  0.12911573111E+04  0.12911573111E+04  0.25500000920E-02 0.  1.
       -2   -1    0    0    0  501  0.00000000000E+00  0.00000000000E+00 -0.21082670659E+04  0.21082670659E+04  0.25500000920E-02 0. -1.
    10030    2    1    2    0    0  0.00000000000E+00  0.00000000000E+00 -0.81710975485E+03  0.33994243770E+04  0.32997602555E+04 0.  0.
        5    1    3    3  502    0  0.19441772681E+03 -0.53958654690E+03 -0.20022534498E+04  0.20827848812E+04  0.46999998093E+01 0. -1.
       -5    1    3    3    0  502 -0.19441772681E+03  0.53958654690E+03  0.11851436950E+04  0.13166394958E+04  0.46999998093E+01 0.  1.
</event>
<event>
 5   0  0.2713815E-07  0.3290301E+04  0.7818609E-02  0.8165368E-01
        2   -1    0    0  501    0  0.00000000000E+00  0.00000000000E+00  0.21160884246E+04  0.21160884246E+04  0.25500000920E-02 0.  1.
       -2   -1    0    0    0  501  0.00000000000E+00  0.00000000000E+00 -0.12790205163E+04  0.12790205163E+04  0.25500000920E-02 0. -1.
    10030    2    1    2    0    0  0.00000000000E+00  0.00000000000E+00  0.83706790827E+03  0.33951089409E+04  0.32903012077E+04 0.  0.
        4    1    3    3  502    0 -0.83419338814E+03  0.82845536458E+03 -0.76890577214E+03  0.14047898773E+04  0.12699999809E+01 0. -1.
       -4    1    3    3    0  502  0.83419338814E+03 -0.82845536458E+03  0.16059736804E+04  0.19903190636E+04  0.12699999809E+01 0.  1.
</event>
<event>
 5   0  0.9181760E-08  0.3298336E+04  0.7818609E-02  0.8163319E-01
       -1   -1    0    0    0  501  0.00000000000E+00  0.00000000000E+00  0.99693163369E+03  0.99693163370E+03  0.50400001928E-02 0.  1.
        1   -1    0    0  501    0  0.00000000000E+00  0.00000000000E+00 -0.27281264033E+04  0.27281264033E+04  0.50400001928E-02 0. -1.
    10030    2    1    2    0    0  0.00000000000E+00  0.00000000000E+00 -0.17311947696E+04  0.37250580370E+04  0.32983362546E+04 0.  0.
        1    1    3    3  502    0  0.33099423575E+03 -0.11939988863E+04  0.36358849036E+03  0.12912734470E+04  0.50400001928E-02 0.  1.
       -1    1    3    3    0  502 -0.33099423575E+03  0.11939988863E+04 -0.20947832600E+04  0.24337845900E+04  0.50400001928E-02 0. -1.
</event>
<event>
 5   0  0.2703956E-07  0.3307615E+04  0.7818609E-02  0.8160960E-01
       -2   -1    0    0    0  501  0.00000000000E+00  0.00000000000E+00  0.99442185509E+03  0.99442185509E+03  0.25500000920E-02 0. -1.
        2   -1    0    0  501    0  0.00000000000E+00  0.00000000000E+00 -0.27504214430E+04  0.27504214430E+04  0.25500000920E-02 0.  1.
    10030    2    1    2    0    0  0.00000000000E+00  0.00000000000E+00 -0.17559995879E+04  0.37448432981E+04  0.33076149677E+04 0.  0.
        5    1    3    3  502    0  0.36827735867E+03  0.20554752944E+02 -0.27032498683E+04  0.27283021555E+04  0.46999998093E+01 0.  1.
       -5    1    3    3    0  502 -0.36827735867E+03 -0.20554752944E+02  0.94725028046E+03  0.10165411426E+04  0.46999998093E+01 0. -1.
</event>
<event>
 5   0  0.9810351E-08  0.3293646E+04  0.7818609E-02  0.8164514E-01
        1   -1    0    0  501    0  0.00000000000E+00  0.00000000000E+00  0.11921113773E+04  0.11921113773E+04  0.50400001928E-02 0.  1.
       -1   -1    0    0    0  501  0.00000000000E+00  0.00000000000E+00 -0.22749768710E+04  0.22749768710E+04  0.50400001928E-02 0. -1.
    10030    2    1    2    0    0  0.00000000000E+00  0.00000000000E+00 -0.10828654938E+04  0.34670882483E+04  0.32936458893E+04 0.  0.
        5    1    3    3  502    0 -0.10527863660E+04  0.50879617402E+03 -0.17621417996E+04  0.21148045988E+04  0.46999998093E+01 0. -1.
       -5    1    3    3    0  502  0.10527863660E+04 -0.50879617402E+03  0.67927630585E+03  0.13522836495E+04  0.46999998093E+01 0.  1.
</event>
<event>
 5   0  0.2875829E-07  0.3302166E+04  0.7818609E-02  0.8162344E-01
       -2   -1    0    0    0  501  0.00000000000E+00  0.00000000000E+00  0.12786751828E+04  0.12786751828E+04  0.25500000920E-02 0.  1.
        2   -1    0    0  501    0  0.00000000000E+00  0.00000000000E+00 -0.21319527844E+04  0.21319527844E+04  0.25500000920E-02 0. -1.
    10030    2    1    2    0    0  0.00000000000E+00  0.00000000000E+00 -0.85327760164E+03  0.34106279672E+04  0.33021660263E+04 0.  0.
        3    1    3    3  502    0  0.73177952412E+03  0.11002064592E+04 -0.14491662541E+04  0.19611319096E+04  0.10100000352E+00 0. -1.
       -3    1    3    3    0  502 -0.73177952412E+03 -0.11002064592E+04  0.59588865243E+03  0.14494960576E+04  0.10100000352E+00 0.  1.
</event>
<event>
 5   0  0.2703956E-07  0.3288952E+04  0.7818609E-02  0.8165712E-01
       -2   -1    0    0    0  501  0.00000000000E+00  0.00000000000E+00  0.14827210212E+04  0.14827210212E+04  0.25500000920E-02 0.  1.
        2   -1    0    0  501    0  0.00000000000E+00  0.00000000000E+00 -0.18238778063E+04  0.18238778063E+04  0.25500000920E-02 0. -1.
    10030    2    1    2    0    0  0.00000000000E+00  0.00000000000E+00 -0.34115678508E+03  0.33065988276E+04  0.32889523947E+04 0.  0.
        5    1    3    3  502    0 -0.51891359874E+03 -0.16489795733E+03 -0.17306181898E+04  0.18142557891E+04  0.46999998093E+01 0. -1.
       -5    1    3    3    0  502  0.51891359874E+03  0.16489795733E+03  0.13894614047E+04  0.14923430385E+04  0.46999998093E+01 0.  1.
</event>
<event>
 5   0  0.8805125E-08  0.3300474E+04  0.7818609E-02  0.8162775E-01
       -1   -1    0    0    0  501  0.00000000000E+00  0.00000000000E+00  0.16828623106E+04  0.16828623107E+04  0.50400001928E-02 0.  1.
        1   -1    0    0  501    0  0.00000000000E+00  0.00000000000E+00 -0.16182437439E+04  0.16182437439E+04  0.50400001928E-02 0. -1.
    10030    2    1    2    0    0  0.00000000000E+00  0.00000000000E+00  0.64618566766E+02  0.33011060545E+04  0.33004735454E+04 0.  0.
        4    1    3    3  502    0  0.87927464338E+03  0.12832444173E+04  0.58326842419E+03  0.16613379549E+04  0.12699999809E+01 0.  1.
       -4    1    3    3    0  502 -0.87927464338E+03 -0.12832444173E+04 -0.51864985742E+03  0.16397680996E+04  0.12699999809E+01 0. -1.
</event>
<event>
 5   0  0.2875829E-07  0.3292545E+04  0.7818609E-02  0.8164795E-01
        2   -1    0    0  501    0  0.00000000000E+00  0.00000000000E+00  0.19011339258E+04  0.19011339258E+04  0.25500000920E-02 0.  1.
       -2   -1    0    0    0  501  0.00000000000E+00  0.00000000000E+00 -0.14255770979E+04  0.14255770979E+04  0.25500000920E-02 0. -1.
    10030    2    1    2    0    0  0.00000000000E+00  0.00000000000E+00  0.47555682791E+03  0.33267110238E+04  0.32925449031E+04 0.  0.
        3    1    3    3  502    0  0.36848597495E+03  0.66797272844E+03 -0.12362098585E+04  0.14526473433E+04  0.10100000352E+00 0. -1.
       -3    1    3    3    0  502 -0.36848597495E+03 -0.66797272844E+03  0.17117666864E+04  0.18740636805E+04  0.10100000352E+00 0.  1.
</event>
<event>
 5   0  0.2727168E-07  0.3298274E+04  0.7818609E-02  0.8163335E-01
       -2   -1    0    0    0  501  0.00000000000E+00  0.00000000000E+00  0.15465678342E+04  0.15465678342E+04  0.25500000920E-02 0.  1.
        2   -1    0    0  501    0  0.00000000000E+00  0.00000000000E+00 -0.17585087573E+04  0.17585087573E+04  0.25500000920E-02 0. -1.
    10030    2    1    2    0    0  0.00000000000E+00  0.00000000000E+00 -0.21194092313E+03  0.33050765915E+04  0.32982741427E+04 0.  0.
        2    1    3    3  502    0  0.28381309154E+03 -0.16199300722E+04 -0.22840990402E+03  0.16603898319E+04  0.25500000920E-02 0. -1.
       -2    1    3    3    0  502 -0.28381309154E+03  0.16199300722E+04  0.16468980894E+02  0.16446867595E+04  0.25500000920E-02 0.  1.
</event>
<event>
 5   0  0.2713815E-07  0.3297913E+04  0.7818609E-02  0.8163427E-01
        2   -1    0    0  501    0  0.00000000000E+00  0.00000000000E+00  0.25193321797E+04  0.25193321797E+04  0.25500000920E-02 0. -1.
       -2   -1    0    0    0  501  0.00000000000E+00  0.00000000000E+00 -0.10792770787E+04  0.10792770787E+04  0.25500000920E-02 0.  1.
    10030    2    1    2    0    0  0.00000000000E+00  0.00000000000E+00  0.14400551010E+04  0.35986092584E+04  0.32979129614E+04 0.  0.
        4    1    3    3  502    0  0.50913130544E+00 -0.75221322671E+03  0.23212099279E+04  0.24400496183E+04  0.12699999809E+01 0. -1.
       -4    1    3    3    0  502 -0.50913130544E+00  0.75221322671E+03 -0.88115482694E+03  0.11585596401E+04  0.12699999809E+01 0.  1.
</event>
<event>
 5   0  0.2703956E-07  0.3298577E+04  0.7818609E-02  0.8163257E-01
       -2   -1    0    0    0  501  0.00000000000E+00  0.00000000000E+00  0.12647188431E+04  0.12647188432E+04  0.25500000920E-02 0. -1.
        2   -1    0    0  501    0  0.00000000000E+00  0.00000000000E+00 -0.21507966690E+04  0.21507966690E+04  0.25500000920E-02 0.  1.
    10030    2    1    2    0    0  0.00000000000E+00  0.00000000000E+00 -0.88607782583E+03  0.34155155121E+04  0.32985773146E+04 0.  0.
        5    1    3    3  502    0 -0.60715774511E+03 -0.22054658777E+02 -0.20306944517E+04  0.21196388800E+04  0.46999998093E+01 0.  1.
       -5    1    3    3    0  502  0.60715774511E+03  0.22054658777E+02  0.11446166259E+04  0.12958766321E+04  0.46999998093E+01 0. -1.
</event>
<event>
 5   0  0.2824402E-07  0.3305430E+04  0.7818609E-02  0.8161515E-01
        2   -1    0    0  501    0  0.00000000000E+00  0.00000000000E+00  0.19854330898E+04  0.19854330898E+04  0.25500000920E-02 0.  1.
       -2   -1    0    0    0  501  0.00000000000E+00  0.00000000000E+00 -0.13757540810E+04  0.13757540810E+04  0.25500000920E-02 0. -1.
    10030    2    1    2    0    0  0.00000000000E+00  0.00000000000E+00  0.60967900878E+03  0.33611871708E+04  0.33054304869E+04 0.  0.
        1    1    3    3  502    0  0.57631804196E+03 -0.15431101233E+04  0.16789662122E+03  0.16557537901E+04  0.50400001928E-02 0. -1.
       -1    1    3    3    0  502 -0.57631804196E+03  0.15431101233E+04  0.44178238756E+03  0.17054333807E+04  0.50400001928E-02 0.  1.
</event>
<event>
 5   0  0.2824402E-07  0.3304151E+04  0.7818609E-02  0.8161840E-01
        2   -1    0    0  501    0  0.00000000000E+00  0.00000000000E+00  0.22470759657E+04  0.22470759657E+04  0.25500000920E-02 0. -1.
       -2   -1    0    0    0  501  0.00000000000E+00  0.00000000000E+00 -0.12146244257E+04  0.12146244257E+04  0.25500000920E-02 0.  1.
    10030    2    1    2    0    0  0.00000000000E+00  0.00000000000E+00  0.10324515400E+04  0.34617003914E+04  0.33041509375E+04 0.  0.
        1    1    3    3  502    0 -0.67961638864E+03 -0.13135460703E+04  0.12875872407E+04  0.19609086203E+04  0.50400001928E-02 0. -1.
       -1    1    3    3    0  502  0.67961638864E+03  0.13135460703E+04 -0.25513570077E+03  0.15007917712E+04  0.50400001928E-02 0.  1.
</event>
<event>
 5   0  0.9181760E-08  0.3305686E+04  0.7818609E-02  0.8161450E-01
       -1   -1    0    0    0  501  0.00000000000E+00  0.00000000000E+00  0.17660294251E+04  0.17660294251E+04  0.50400001928E-02 0. -1.
        1   -1    0    0  501    0  0.00000000000E+00  0.00000000000E+00 -0.15469103397E+04  0.15469103397E+04  0.50400001928E-02 0.  1.
    10030    2    1    2    0    0  0.00000000000E+00  0.00000000000E+00  0.21911908536E+03  0.33129397648E+04  0.33056855131E+04 0.  0.
        1    1    3    3  502    0 -0.22849249841E+03 -0.14282386972E+04  0.91119897416E+03  0.17094906167E+04  0.50400001928E-02 0. -1.
       -1    1    3    3    0  502  0.22849249841E+03  0.14282386972E+04 -0.69207988880E+03  0.16034491481E+04  0.50400001928E-02 0.  1.
</event>
<event>
 5   0  0.9454010E-08  0.3307158E+04  0.7818609E-02  0.8161076E-01
       -1   -1    0    0    0  501  0.00000000000E+00  0.00000000000E+00  0.16610203735E+04  0.16610203735E+04  0.50400001928E-02 0.  1.
        1   -1    0    0  501    0  0.00000000000E+00  0.00000000000E+00 -0.16461709932E+04  0.16461709932E+04  0.50400001928E-02 0. -1.
    10030    2    1    2    0    0  0.00000000000E+00  0.00000000000E+00  0.14849380273E+02  0.33071913666E+04  0.33071580294E+04 0.  0.
        2    1    3    3  502    0  0.14831618577E+04  0.68353914482E+03  0.26690504893E+03  0.16547607573E+04  0.25500000920E-02 0. -1.
       -2    1    3    3    0  502 -0.14831618577E+04 -0.68353914482E+03 -0.25205566866E+03  0.16524306094E+04  0.25500000920E-02 0.  1.
</event>
<event>
 5   0  0.2824402E-07  0.3299676E+04  0.7818609E-02  0.8162978E-01
       -2   -1    0    0    0  501  0.00000000000E+00  0.00000000000E+00  0.12837965187E+04  0.12837965187E+04  0.25500000920E-02 0.  1.
        2   -1    0    0  501    0  0.00000000000E+00  0.00000000000E+00 -0.21202464417E+04  0.21202464417E+04  0.25500000920E-02 0. -1.
    10030    2    1    2    0    0  0.00000000000E+00  0.00000000000E+00 -0.83644992294E+03  0.34040429604E+04  0.32996757420E+04 0.  0.
        1    1    3    3  502    0  0.78828851905E+03  0.76623779566E+03 -0.16873581815E+04  0.20138760591E+04  0.50400001928E-02 0. -1.
       -1    1    3    3    0  502 -0.78828851905E+03 -0.76623779566E+03  0.85090825857E+03  0.13901669012E+04  0.50400001928E-02 0.  1.
</event>
<event>
 5   0  0.9810351E-08  0.3301741E+04  0.7818609E-02  0.8162452E-01
        1   -1    0    0  501    0  0.00000000000E+00  0.00000000000E+00  0.25997037234E+04  0.25997037234E+04  0.50400001928E-02 0.  1.
       -1   -1    0    0    0  501  0.00000000000E+00  0.00000000000E+00 -0.10483401502E+04  0.10483401502E+04  0.50400001928E-02 0. -1.
    10030    2    1    2    0    0  0.00000000000E+00  0.00000000000E+00  0.15513635732E+04  0.36480438736E+04  0.33017412327E+04 0.  0.
        5    1    3    3  502    0  0.76839981428E+03  0.13312796758E+04  0.14410095118E+04  0.21069585552E+04  0.46999998093E+01 0.  1.
       -5    1    3    3    0  502 -0.76839981428E+03 -0.13312796758E+04  0.11035406140E+03  0.15410853185E+04  0.46999998093E+01 0. -1.
</event>
<event>
 5   0  0.2703956E-07  0.3295105E+04  0.7818609E-02  0.8164142E-01
        2   -1    0    0  501    0  0.00000000000E+00  0.00000000000E+00  0.10291837912E+04  0.10291837912E+04  0.25500000920E-02 0.  1.
       -2   -1    0    0    0  501  0.00000000000E+00  0.00000000000E+00 -0.26374582147E+04  0.26374582147E+04  0.25500000920E-02 0. -1.
    10030    2    1    2    0    0  0.00000000000E+00  0.00000000000E+00 -0.16082744235E+04  0.36666420059E+04  0.32951050026E+04 0.  0.
        5    1    3    3  502    0 -0.40682409023E+03  0.15921708158E+04 -0.93529788590E+03  0.18908511238E+04  0.46999998093E+01 0. -1.
       -5    1    3    3    0  502  0.40682409023E+03 -0.15921708158E+04 -0.67297653761E+03  0.17757908822E+04  0.46999998093E+01 0.  1.
</event>
<event>
 5   0  0.9283910E-08  0.3295530E+04  0.7818609E-02  0.8164034E-01
       -1   -1    0    0    0  501  0.00000000000E+00  0.00000000000E+00  0.16832021125E+04  0.16832021125E+04  0.50400001928E-02 0. -1.
        1   -1    0    0  501    0  0.00000000000E+00  0.00000000000E+00 -0.16130740302E+04  0.16130740302E+04  0.50400001928E-02 0.  1.
    10030    2    1    2    0    0  0.00000000000E+00  0.00000000000E+00  0.70128082243E+02  0.32962761427E+04  0.32955300729E+04 0.  0.
        3    1    3    3  502    0 -0.37280861287E+03  0.20019941861E+03 -0.15577987706E+04  0.16142500082E+04  0.10100000352E+00 0.  1.
       -3    1    3    3    0  502  0.37280861287E+03 -0.20019941861E+03  0.16279268528E+04  0.16820261346E+04  0.10100000352E+00 0. -1.
</event>
<event>
 5   0  0.2727168E-07  0.3348390E+04  0.7818609E-02  0.8150691E-01
       -2   -1    0    0    0  501  0.00000000000E+00  0.00000000000E+00  0.15226887988E+04  0.15226887988E+04  0.25500000920E-02 0. -1.
        2   -1    0    0  501    0  0.00000000000E+00  0.00000000000E+00 -0.18407756139E+04  0.18407756139E+04  0.25500000920E-02 0.  1.
    10030    2    1    2    0    0  0.00000000000E+00  0.00000000000E+00 -0.31808681512E+03  0.33634644127E+04  0.33483897076E+04 0.  0.
        2    1    3    3  502    0  0.10960059850E+04  0.10449497640E+04 -0.87624612844E+03  0.17495589175E+04  0.25500000920E-02 0.  1.
       -2    1    3    3    0  502 -0.10960059850E+04 -0.10449497640E+04  0.55815931332E+03  0.16139054952E+04  0.25500000920E-02 0. -1.
</event>
<event>
 5   0  0.8805125E-08  0.3288126E+04  0.7818609E-02  0.8165923E-01
        1   -1    0    0  501    0  0.00000000000E+00  0.00000000000E+00  0.25558494448E+04  0.25558494448E+04  0.50400001928E-02 0.  1.
       -1   -1    0    0    0  501  0.00000000000E+00  0.00000000000E+00 -0.10575519390E+04  0.10575519391E+04  0.50400001928E-02 0. -1.
    10030    2    1    2    0    0  0.00000000000E+00  0.00000000000E+00  0.14982975058E+04  0.36134013839E+04  0.32881262362E+04 0.  0.
        4    1    3    3  502    0 -0.12785348882E+04  0.61238507805E+03 -0.16584996891E+03  0.14272963145E+04  0.12699999809E+01 0. -1.
       -4    1    3    3    0  502  0.12785348882E+04 -0.61238507805E+03  0.16641474747E+04  0.21861050694E+04  0.12699999809E+01 0.  1.
</event>
<event>
 5   0  0.9810351E-08  0.3300076E+04  0.7818609E-02  0.8162876E-01
       -1   -1    0    0    0  501  0.00000000000E+00  0.00000000000E+00  0.13246727532E+04  0.13246727532E+04  0.50400001928E-02 0. -1.
        1   -1    0    0  501    0  0.00000000000E+00  0.00000000000E+00 -0.20553195854E+04  0.20553195854E+04  0.50400001928E-02 0.  1.
    10030    2    1    2    0    0  0.00000000000E+00  0.00000000000E+00 -0.73064683217E+03  0.33799923386E+04  0.33000762742E+04 0.  0.
        5    1    3    3  502    0  0.30726193494E+03 -0.65997421750E+03 -0.18819344315E+04  0.20178392302E+04  0.46999998093E+01 0.  1.
       -5    1    3    3    0  502 -0.30726193494E+03  0.65997421750E+03  0.11512875993E+04  0.13621531084E+04  0.46999998093E+01 0. -1.
</event>
<event>
 5   0  0.9181760E-08  0.3281311E+04  0.7818609E-02  0.8167667E-01
        1   -1    0    0  501    0  0.00000000000E+00  0.00000000000E+00  0.24937404528E+04  0.24937404528E+04  0.50400001928E-02 0. -1.
       -1   -1    0    0    0  501  0.00000000000E+00  0.00000000000E+00 -0.10794030590E+04  0.10794030590E+04  0.50400001928E-02 0.  1.
    10030    2    1    2    0    0  0.00000000000E+00  0.00000000000E+00  0.14143373938E+04  0.35731435118E+04  0.32813113678E+04 0.  0.
        1    1    3    3  502    0 -0.99223004329E+03 -0.65000289222E+03 -0.52709631352E+03  0.12980195463E+04  0.50400001928E-02 0.  1.
       -1    1    3    3    0  502  0.99223004329E+03  0.65000289222E+03  0.19414337074E+04  0.22751239656E+04  0.50400001928E-02 0. -1.
</event>
<event>
 5   0  0.9454010E-08  0.3297836E+04  0.7818609E-02  0.8163446E-01
        1   -1    0    0  501    0  0.00000000000E+00  0.00000000000E+00  0.20241486206E+04  0.20241486206E+04  0.50400001928E-02 0.  1.
       -1   -1    0    0    0  501  0.00000000000E+00  0.00000000000E+00 -0.13432462614E+04  0.13432462614E+04  0.50400001928E-02 0. -1.
    10030    2    1    2    0    0  0.00000000000E+00  0.00000000000E+00  0.68090235921E+03  0.33673948820E+04  0.32978356946E+04 0.  0.
        2    1    3    3  502    0  0.96145812536E+03 -0.51743640723E+03 -0.92124383947E+03  0.14285770452E+04  0.25500000920E-02 0. -1.
       -2    1    3    3    0  502 -0.96145812536E+03  0.51743640723E+03  0.16021461987E+04  0.19388178368E+04  0.25500000920E-02 0.  1.
</event>
<event>
 5   0  0.2875829E-07  0.3292458E+04  0.7818609E-02  0.8164817E-01
       -2   -1    0    0    0  501  0.00000000000E+00  0.00000000000E+00  0.29915848748E+04  0.29915848748E+04  0.25500000920E-02 0. -1.
        2   -1    0    0  501    0  0.00000000000E+00  0.00000000000E+00 -0.90589777339E+03  0.90589777339E+03  0.25500000920E-02 0.  1.
    10030    2    1    2    0    0  0.00000000000E+00  0.00000000000E+00  0.20856871014E+04  0.38974826482E+04  0.32924580951E+04 0.  0.
        3    1    3    3  502    0  0.19049556860E+03 -0.70425639737E+03  0.27897649821E+04  0.28835835865E+04  0.10100000352E+00 0. -1.
       -3    1    3    3    0  502 -0.19049556860E+03  0.70425639737E+03 -0.70407788071E+03  0.10138990616E+04  0.10100000352E+00 0.  1.
</event>
<event>
 5   0  0.2824402E-07  0.3302776E+04  0.7818609E-02  0.8162189E-01
       -2   -1    0    0    0  501  0.00000000000E+00  0.00000000000E+00  0.21823416852E+04  0.21823416852E+04  0.25500000920E-02 0. -1.
        2   -1    0    0  501    0  0.00000000000E+00  0.00000000000E+00 -0.12496126777E+04  0.12496126777E+04  0.25500000920E-02 0.  1.
    10030    2    1    2    0    0  0.00000000000E+00  0.00000000000E+00  0.93272900747E+03  0.34319543630E+04  0.33027757036E+04 0.  0.
        1    1    3    3  502    0  0.47676864521E+03  0.14905624211E+04  0.10142409199E+04  0.18648778287E+04  0.50400001928E-02 0. -1.
       -1    1    3    3    0  502 -0.47676864521E+03 -0.14905624211E+04 -0.81511912430E+02  0.15670765343E+04  0.50400001928E-02 0.  1.
</event>
<event>
 5   0  0.9454010E-08  0.3301897E+04  0.7818609E-02  0.8162413E-01
        1   -1    0    0  501    0  0.00000000000E+00  0.00000000000E+00  0.16151996104E+04  0.16151996104E+04  0.50400001928E-02 0.  1.
       -1   -1    0    0    0  501  0.00000000000E+00  0.00000000000E+00 -0.16874890857E+04  0.16874890857E+04  0.50400001928E-02 0. -1.
    10030    2    1    2    0    0  0.00000000000E+00  0.00000000000E+00 -0.72289475283E+02  0.33026886961E+04  0.33018974628E+04 0.  0.
        2    1    3    3  502    0 -0.13409572218E+04  0.23854225071E+03 -0.96940799821E+03  0.16717716779E+04  0.25500000920E-02 0. -1.
       -2    1    3    3    0  502  0.13409572218E+04 -0.23854225071E+03  0.89711852293E+03  0.16309170182E+04  0.25500000920E-02 0.  1.
</event>
<event>
 5   0  0.8805125E-08  0.3303843E+04  0.7818609E-02  0.8161918E-01
        1   -1    0    0  501    0  0.00000000000E+00  0.00000000000E+00  0.12455191373E+04  0.12455191373E+04  0.50400001928E-02 0. -1.
       -1   -1    0    0    0  501  0.00000000000E+00  0.00000000000E+00 -0.21909298206E+04  0.21909298206E+04  0.50400001928E-02 0.  1.
    10030    2    1    2    0    0  0.00000000000E+00  0.00000000000E+00 -0.94541068333E+03  0.34364489579E+04  0.33038432288E+04 0.  0.
        4    1    3    3  502    0  0.10038508651E+04  0.12656880243E+04 -0.83175700226E+03  0.18170041437E+04  0.12699999809E+01 0. -1.
       -4    1    3    3    0  502 -0.10038508651E+04 -0.12656880243E+04 -0.11365368107E+03  0.16194448143E+04  0.12699999809E+01 0.  1.
</event>
<event>
 5   0  0.9283910E-08  0.3298861E+04  0.7818609E-02  0.8163185E-01
        1   -1    0    0  501    0  0.00000000000E+00  0.00000000000E+00  0.16681953573E+04  0.16681953573E+04  0.50400001928E-02 0. -1.
       -1   -1    0    0    0  501  0.00000000000E+00  0.00000000000E+00 -0.16308771836E+04  0.16308771836E+04  0.50400001928E-02 0.  1.
    10030    2    1    2    0    0  0.00000000000E+00  0.00000000000E+00  0.37318173737E+02  0.32990725409E+04  0.32988614678E+04 0.  0.
        3    1    3    3  502    0  0.11008482490E+04 -0.11933906027E+04 -0.27217516282E+03  0.16462464358E+04  0.10100000352E+00 0. -1.
       -3    1    3    3    0  502 -0.11008482490E+04  0.11933906027E+04  0.30949333656E+03  0.16528261051E+04  0.10100000352E+00 0.  1.
</event>
<event>
 5   0  0.8805125E-08  0.3299269E+04  0.7818609E-02  0.8163082E-01
       -1   -1    0    0    0  501  0.00000000000E+00  0.00000000000E+00  0.15746386983E+04  0.15746386983E+04  0.50400001928E-02 0.  1.
        1   -1    0    0  501    0  0.00000000000E+00  0.00000000000E+00 -0.17282016809E+04  0.17282016810E+04  0.50400001928E-02 0. -1.
    10030    2    1    2    0    0  0.00000000000E+00  0.00000000000E+00 -0.15356298268E+03  0.33028403792E+04  0.32992685524E+04 0.  0.
        4    1    3    3  502    0  0.42758345594E+03  0.22894871507E+03 -0.16552086409E+04  0.17248079266E+04  0.12699999809E+01 0. -1.
       -4    1    3    3    0  502 -0.42758345594E+03 -0.22894871507E+03  0.15016456582E+04  0.15780324526E+04  0.12699999809E+01 0.  1.
</event>
<event>
 5   0  0.2727168E-07  0.3299102E+04  0.7818609E-02  0.8163124E-01
        2   -1    0    0  501    0  0.00000000000E+00  0.00000000000E+00  0.24610993025E+04  0.24610993025E+04  0.25500000920E-02 0.  1.
       -2   -1    0    0    0  501  0.00000000000E+00  0.00000000000E+00 -0.11056109550E+04  0.11056109550E+04  0.25500000920E-02 0. -1.
    10030    2    1    2    0    0  0.00000000000E+00  0.00000000000E+00  0.13554883475E+04  0.35667102576E+04  0.32991019083E+04 0.  0.
        2    1    3    3  502    0  0.14958341642E+04  0.29029939354E+03  0.13608387500E+04  0.20429575836E+04  0.25500000920E-02 0.  1.
       -2    1    3    3    0  502 -0.14958341642E+04 -0.29029939354E+03 -0.53504024549E+01  0.15237526740E+04  0.25500000920E-02 0. -1.
</event>
<event>
 5   0  0.2824402E-07  0.3291563E+04  0.7818609E-02  0.8165046E-01
       -2   -1    0    0    0  501  0.00000000000E+00  0.00000000000E+00  0.12143942190E+04  0.12143942190E+04  0.25500000920E-02 0.  1.
        2   -1    0    0  501    0  0.00000000000E+00  0.00000000000E+00 -0.22304091709E+04  0.22304091709E+04  0.25500000920E-02 0. -1.
    10030    2    1    2    0    0  0.00000000000E+00  0.00000000000E+00 -0.10160149520E+04  0.34448033899E+04  0.32915625488E+04 0.  0.
        1    1    3    3  502    0 -0.38151242781E+03 -0.62511790861E+03 -0.20504870326E+04  0.21773426931E+04  0.50400001928E-02 0. -1.
       -1    1    3    3    0  502  0.38151242781E+03  0.62511790861E+03  0.10344720807E+04  0.12674606968E+04  0.50400001928E-02 0.  1.
</event>
<event>
 5   0  0.9181760E-08  0.3296873E+04  0.7818609E-02  0.8163691E-01
        1   -1    0    0  501    0  0.00000000000E+00  0.00000000000E+00  0.17455804699E+04  0.17455804699E+04  0.50400001928E-02 0. -1.
       -1   -1    0    0    0  501  0.00000000000E+00  0.00000000000E+00 -0.15566987520E+04  0.15566987520E+04  0.50400001928E-02 0.  1.
    10030    2    1    2    0    0  0.00000000000E+00  0.00000000000E+00  0.18888171785E+03  0.33022792219E+04  0.32968730270E+04 0.  0.
        1    1    3    3  502    0 -0.68012296651E+02 -0.69504562223E+03 -0.14012018498E+04  0.15655927674E+04  0.50400001928E-02 0.  1.
       -1    1    3    3    0  502  0.68012296651E+02  0.69504562223E+03  0.15900835676E+04  0.17366864546E+04  0.50400001928E-02 0. -1.
</event>
<event>
 5   0  0.2727168E-07  0.3306642E+04  0.7818609E-02  0.8161207E-01
       -2   -1    0    0    0  501  0.00000000000E+00  0.00000000000E+00  0.17557812072E+04  0.17557812072E+04  0.25500000920E-02 0.  1.
        2   -1    0    0  501    0  0.00000000000E+00  0.00000000000E+00 -0.15568400594E+04  0.15568400594E+04  0.25500000920E-02 0. -1.
    10030    2    1    2    0    0  0.00000000000E+00  0.00000000000E+00  0.19894114780E+03  0.33126212666E+04  0.33066421148E+04 0.  0.
        2    1    3    3  502    0 -0.13693074891E+04  0.13641394176E+03  0.10175657805E+04  0.17114473059E+04  0.25500000920E-02 0.  1.
       -2    1    3    3    0  502  0.13693074891E+04 -0.13641394176E+03 -0.81862463274E+03  0.16011739607E+04  0.25500000920E-02 0. -1.
</event>
<event>
 5   0  0.9283910E-08  0.3297752E+04  0.7818609E-02  0.8163468E-01
       -1   -1    0    0    0  501  0.00000000000E+00  0.00000000000E+00  0.15517245751E+04  0.15517245751E+04  0.50400001928E-02 0.  1.
        1   -1    0    0  501    0  0.00000000000E+00  0.00000000000E+00 -0.17521104317E+04  0.17521104317E+04  0.50400001928E-02 0. -1.
    10030    2    1    2    0    0  0.00000000000E+00  0.00000000000E+00 -0.20038585664E+03  0.33038350068E+04  0.32977524559E+04 0.  0.
        3    1    3    3  502    0 -0.19807651123E+02  0.13824999358E+04  0.79984842146E+03  0.15973277444E+04  0.10100000352E+00 0.  1.
       -3    1    3    3    0  502  0.19807651123E+02 -0.13824999358E+04 -0.10002342781E+04  0.17065072624E+04  0.10100000352E+00 0. -1.
</event>
<event>
 5   0  0.2824402E-07  0.3300064E+04  0.7818609E-02  0.8162879E-01
       -2   -1    0    0    0  501  0.00000000000E+00  0.00000000000E+00  0.14462498135E+04  0.14462498135E+04  0.25500000920E-02 0.  1.
        2   -1    0    0  501    0  0.00000000000E+00  0.00000000000E+00 -0.18825280315E+04  0.18825280315E+04  0.25500000920E-02 0. -1.
    10030    2    1    2    0    0  0.00000000000E+00  0.00000000000E+00 -0.43627821803E+03  0.33287778450E+04  0.33000641293E+04 0.  0.
        1    1    3    3  502    0  0.11280655994E+04 -0.11276496552E+04  0.20800579583E+03  0.16085372711E+04  0.50400001928E-02 0. -1.
       -1    1    3    3    0  502 -0.11280655994E+04  0.11276496552E+04 -0.64428401386E+03  0.17202405739E+04  0.50400001928E-02 0.  1.
</event>
<event>
 5   0  0.9283910E-08  0.3299720E+04  0.7818609E-02  0.8162967E-01
       -1   -1    0    0    0  501  0.00000000000E+00  0.00000000000E+00  0.14322827373E+04  0.14322827373E+04  0.50400001928E-02 0.  1.
        1   -1    0    0  501    0  0.00000000000E+00  0.00000000000E+00 -0.19004897141E+04  0.19004897141E+04  0.50400001928E-02 0. -1.
    10030    2    1    2    0    0  0.00000000000E+00  0.00000000000E+00 -0.46820697679E+03  0.33327724514E+04  0.32997203578E+04 0.  0.
        3    1    3    3  502    0 -0.10754048133E+04 -0.12295064211E+04  0.29229695728E+00  0.16334569623E+04  0.10100000352E+00 0.  1.
       -3    1    3    3    0  502  0.10754048133E+04  0.12295064211E+04 -0.46849927374E+03  0.16993154892E+04  0.10100000352E+00 0. -1.
</event>
<event>
 5   0  0.2703956E-07  0.3310438E+04  0.7818609E-02  0.8160245E-01
        2   -1    0    0  501    0  0.00000000000E+00  0.00000000000E+00  0.23191501550E+04  0.23191501550E+04  0.25500000920E-02 0.  1.
       -2   -1    0    0    0  501  0.00000000000E+00  0.00000000000E+00 -0.11813592486E+04  0.11813592486E+04  0.25500000920E-02 0. -1.
    10030    2    1    2    0    0  0.00000000000E+00  0.00000000000E+00  0.11377909064E+04  0.35005094037E+04  0.33104377261E+04 0.  0.
        5    1    3    3  502    0 -0.23274392857E+03 -0.15476768662E+04  0.11385806245E+04  0.19354227824E+04  0.46999998093E+01 0.  1.
       -5    1    3    3    0  502  0.23274392857E+03  0.15476768662E+04 -0.78971808535E+00  0.15650866212E+04  0.46999998093E+01 0. -1.
</event>
<event>
 5   0  0.2824402E-07  0.3306239E+04  0.7818609E-02  0.8161310E-01
       -2   -1    0    0    0  501  0.00000000000E+00  0.00000000000E+00  0.13561655876E+04  0.13561655876E+04  0.25500000920E-02 0. -1.
        2   -1    0    0  501    0  0.00000000000E+00  0.00000000000E+00 -0.20150958190E+04  0.20150958190E+04  0.25500000920E-02 0.  1.
    10030    2    1    2    0    0  0.00000000000E+00  0.00000000000E+00 -0.65893023138E+03  0.33712614066E+04  0.33062387122E+04 0.  0.
        1    1    3    3  502    0  0.44880119272E+03  0.63085916314E+03 -0.18188061139E+04  0.19767299953E+04  0.50400001928E-02 0.  1.
       -1    1    3    3    0  502 -0.44880119272E+03 -0.63085916314E+03  0.11598758825E+04  0.13945314113E+04  0.50400001928E-02 0. -1.
</event>
<event>
 5   0  0.9454010E-08  0.3298724E+04  0.7818609E-02  0.8163220E-01
       -1   -1    0    0    0  501  0.00000000000E+00  0.00000000000E+00  0.13140796749E+04  0.13140796749E+04  0.50400001928E-02 0.  1.
        1   -1    0    0  501    0  0.00000000000E+00  0.00000000000E+00 -0.20701899329E+04  0.20701899329E+04  0.50400001928E-02 0. -1.
    10030    2    1    2    0    0  0.00000000000E+00  0.00000000000E+00 -0.75611025802E+03  0.33842696078E+04  0.32987237011E+04 0.  0.
        2    1    3    3  502    0  0.35890874991E+03  0.17879116325E+03 -0.20194238191E+04  0.20588478166E+04  0.25500000920E-02 0. -1.
       -2    1    3    3    0  502 -0.35890874991E+03 -0.17879116325E+03  0.12633135611E+04  0.13254217912E+04  0.25500000920E-02 0.  1.
</event>
<event>
 5   0  0.2727168E-07  0.3302669E+04  0.7818609E-02  0.8162217E-01
       -2   -1    0    0    0  501  0.00000000000E+00  0.00000000000E+00  0.17357504593E+04  0.17357504593E+04  0.25500000920E-02 0.  1.
        2   -1    0    0  501    0  0.00000000000E+00  0.00000000000E+00 -0.15710235952E+04  0.15710235952E+04  0.25500000920E-02 0. -1.
    10030    2    1    2    0    0  0.00000000000E+00  0.00000000000E+00  0.16472686404E+03  0.33067740545E+04  0.33026685737E+04 0.  0.
        2    1    3    3  502    0 -0.40415899523E+03  0.88360773351E+03 -0.12545108634E+04  0.15867906688E+04  0.25500000920E-02 0. -1.
       -2    1    3    3    0  502  0.40415899523E+03 -0.88360773351E+03  0.14192377274E+04  0.17199833857E+04  0.25500000920E-02 0.  1.
</event>
<event>
 5   0  0.2824402E-07  0.3299902E+04  0.7818609E-02  0.8162920E-01
        2   -1    0    0  501    0  0.00000000000E+00  0.00000000000E+00  0.15667052272E+04  0.15667052272E+04  0.25500000920E-02 0. -1.
       -2   -1    0    0    0  501  0.00000000000E+00  0.00000000000E+00 -0.17376203146E+04  0.17376203146E+04  0.25500000920E-02 0.  1.
    10030    2    1    2    0    0  0.00000000000E+00  0.00000000000E+00 -0.17091508740E+03  0.33043255418E+04  0.32999023197E+04 0.  0.
        1    1    3    3  502    0  0.11394335084E+04 -0.57598551901E+03  0.96106093945E+03  0.15980319670E+04  0.50400001928E-02 0. -1.
       -1    1    3    3    0  502 -0.11394335084E+04  0.57598551901E+03 -0.11319760269E+04  0.17062935748E+04  0.50400001928E-02 0.  1.
</event>
<event>
 5   0  0.9454010E-08  0.3342348E+04  0.7818609E-02  0.8152203E-01
       -1   -1    0    0    0  501  0.00000000000E+00  0.00000000000E+00  0.16091160989E+04  0.16091160990E+04  0.50400001928E-02 0. -1.
        1   -1    0    0  501    0  0.00000000000E+00  0.00000000000E+00 -0.17356249221E+04  0.17356249221E+04  0.50400001928E-02 0.  1.
    10030    2    1    2    0    0  0.00000000000E+00  0.00000000000E+00 -0.12650882314E+03  0.33447410211E+04  0.33423476802E+04 0.  0.
        2    1    3    3  502    0  0.57881455016E+03  0.15237481030E+04 -0.43228321904E+03  0.16863283625E+04  0.25500000920E-02 0.  1.
       -2    1    3    3    0  502 -0.57881455016E+03 -0.15237481030E+04  0.30577439590E+03  0.16584126585E+04  0.25500000920E-02 0. -1.
</event>
<event>
 5   0  0.8805125E-08  0.3322264E+04  0.7818609E-02  0.8157253E-01
       -1   -1    0    0    0  501  0.00000000000E+00  0.00000000000E+00  0.20344801831E+04  0.20344801831E+04  0.50400001928E-02 0. -1.
        1   -1    0    0  501    0  0.00000000000E+00  0.00000000000E+00 -0.13562970234E+04  0.13562970234E+04  0.50400001928E-02 0.  1.
    10030    2    1    2    0    0  0.00000000000E+00  0.00000000000E+00  0.67818315967E+03  0.33907772065E+04  0.33222639369E+04 0.  0.
        4    1    3    3  502    0  0.85915092915E+03  0.13762802290E+04 -0.24728786563E+02  0.16226215559E+04  0.12699999809E+01 0. -1.
       -4    1    3    3    0  502 -0.85915092915E+03 -0.13762802290E+04  0.70291194623E+03  0.17681556506E+04  0.12699999809E+01 0.  1.
</event>
<event>
 5   0  0.2703956E-07  0.3254727E+04  0.7818609E-02  0.8174511E-01
        2   -1    0    0  501    0  0.00000000000E+00  0.00000000000E+00  0.13371331085E+04  0.13371331085E+04  0.25500000920E-02 0.  1.
       -2   -1    0    0    0  501  0.00000000000E+00  0.00000000000E+00 -0.19805901372E+04  0.19805901372E+04  0.25500000920E-02 0. -1.
    10030    2    1    2    0    0  0.00000000000E+00  0.00000000000E+00 -0.64345702870E+03  0.33177232458E+04  0.32547274214E+04 0.  0.
        5    1    3    3  502    0 -0.37784044679E+03 -0.98246515276E+03 -0.15868338661E+04  0.19042229356E+04  0.46999998093E+01 0. -1.
       -5    1    3    3    0  502  0.37784044679E+03  0.98246515276E+03  0.94337683743E+03  0.14135003102E+04  0.46999998093E+01 0.  1.
</event>
<event>
 5   0  0.9810351E-08  0.3303497E+04  0.7818609E-02  0.8162006E-01
       -1   -1    0    0    0  501  0.00000000000E+00  0.00000000000E+00  0.17657266174E+04  0.17657266174E+04  0.50400001928E-02 0.  1.
        1   -1    0    0  501    0  0.00000000000E+00  0.00000000000E+00 -0.15451273675E+04  0.15451273675E+04  0.50400001928E-02 0. -1.
    10030    2    1    2    0    0  0.00000000000E+00  0.00000000000E+00  0.22059924991E+03  0.33108539848E+04  0.33034966444E+04 0.  0.
        5    1    3    3  502    0  0.14736122913E+03  0.52595983799E+03  0.16725854014E+04  0.17595207012E+04  0.46999998093E+01 0.  1.
       -5    1    3    3    0  502 -0.14736122913E+03 -0.52595983799E+03 -0.14519861515E+04  0.15513332837E+04  0.46999998093E+01 0. -1.
</event>
<event>
 5   0  0.9283910E-08  0.3274208E+04  0.7818609E-02  0.8169489E-01
       -1   -1    0    0    0  501  0.00000000000E+00  0.00000000000E+00  0.10896345349E+04  0.10896345349E+04  0.50400001928E-02 0. -1.
        1   -1    0    0  501    0  0.00000000000E+00  0.00000000000E+00 -0.24596405384E+04  0.24596405384E+04  0.50400001928E-02 0.  1.
    10030    2    1    2    0    0  0.00000000000E+00  0.00000000000E+00 -0.13700060035E+04  0.35492750733E+04  0.32742078578E+04 0.  0.
        3    1    3    3  502    0  0.60755526968E+03 -0.12681578748E+04  0.22373226273E+03  0.14238693538E+04  0.10100000352E+00 0. -1.
       -3    1    3    3    0  502 -0.60755526968E+03  0.12681578748E+04 -0.15937382662E+04  0.21254057195E+04  0.10100000352E+00 0.  1.
</event>
<event>
 5   0  0.2875829E-07  0.3302559E+04  0.7818609E-02  0.8162245E-01
        2   -1    0    0  501    0  0.00000000000E+00  0.00000000000E+00  0.93581844453E+03  0.93581844453E+03  0.25500000920E-02 0. -1.
       -2   -1    0    0    0  501  0.00000000000E+00  0.00000000000E+00 -0.29137320468E+04  0.29137320468E+04  0.25500000920E-02 0.  1.
    10030    2    1    2    0    0  0.00000000000E+00  0.00000000000E+00 -0.19779136023E+04  0.38495504914E+04  0.33025591240E+04 0.  0.
        3    1    3    3  502    0  0.10196755965E+03  0.15542505245E+04 -0.34984461518E+03  0.15963969873E+04  0.10100000352E+00 0. -1.
       -3    1    3    3    0  502 -0.10196755965E+03 -0.15542505245E+04 -0.16280689871E+04  0.22531535041E+04  0.10100000352E+00 0.  1.
</event>
<event>
 5   0  0.2703956E-07  0.3301899E+04  0.7818609E-02  0.8162412E-01
        2   -1    0    0  501    0  0.00000000000E+00  0.00000000000E+00  0.19792537917E+04  0.19792537917E+04  0.25500000920E-02 0. -1.
       -2   -1    0    0    0  501  0.00000000000E+00  0.00000000000E+00 -0.13771015669E+04  0.13771015669E+04  0.25500000920E-02 0.  1.
    10030    2    1    2    0    0  0.00000000000E+00  0.00000000000E+00  0.60215222482E+03  0.33563553585E+04  0.33018985434E+04 0.  0.
        5    1    3    3  502    0 -0.83118812416E+03  0.11048612866E+04 -0.61603413976E+03  0.15136420685E+04  0.46999998093E+01 0.  1.
       -5    1    3    3    0  502  0.83118812416E+03 -0.11048612866E+04  0.12181863646E+04  0.18427132900E+04  0.46999998093E+01 0. -1.
</event>
<event>
 5   0  0.9810351E-08  0.3301888E+04  0.7818609E-02  0.8162415E-01
        1   -1    0    0  501    0  0.00000000000E+00  0.00000000000E+00  0.24303049489E+04  0.24303049489E+04  0.50400001928E-02 0. -1.
       -1   -1    0    0    0  501  0.00000000000E+00  0.00000000000E+00 -0.11215121332E+04  0.11215121332E+04  0.50400001928E-02 0.  1.
    10030    2    1    2    0    0  0.00000000000E+00  0.00000000000E+00  0.13087928157E+04  0.35518170821E+04  0.33018882401E+04 0.  0.
        5    1    3    3  502    0  0.62484559980E+03  0.10906743674E+03  0.22939958162E+04  0.23800770207E+04  0.46999998093E+01 0. -1.
       -5    1    3    3    0  502 -0.62484559980E+03 -0.10906743674E+03 -0.98520300053E+03  0.11717400614E+04  0.46999998093E+01 0.  1.
</event>
<event>
 5   0  0.9454010E-08  0.3320170E+04  0.7818609E-02  0.8157782E-01
        1   -1    0    0  501    0  0.00000000000E+00  0.00000000000E+00  0.17718572722E+04  0.17718572722E+04  0.50400001928E-02 0.  1.
       -1   -1    0    0    0  501  0.00000000000E+00  0.00000000000E+00 -0.15553633798E+04  0.15553633798E+04  0.50400001928E-02 0. -1.
    10030    2    1    2    0    0  0.00000000000E+00  0.00000000000E+00  0.21649389236E+03  0.33272206520E+04  0.33201698242E+04 0.  0.
        2    1    3    3  502    0 -0.98285169204E+03 -0.13192517956E+04  0.33111339949E+03  0.16781116864E+04  0.25500000920E-02 0.  1.
       -2    1    3    3    0  502  0.98285169204E+03  0.13192517956E+04 -0.11461950713E+03  0.16491089656E+04  0.25500000920E-02 0. -1.
</event>
<event>
 5   0  0.2713815E-07  0.3300828E+04  0.7818609E-02  0.8162685E-01
        2   -1    0    0  501    0  0.00000000000E+00  0.00000000000E+00  0.15920845211E+04  0.15920845211E+04  0.25500000920E-02 0.  1.
       -2   -1    0    0    0  501  0.00000000000E+00  0.00000000000E+00 -0.17108807227E+04  0.17108807227E+04  0.25500000920E-02 0. -1.
    10030    2    1    2    0    0  0.00000000000E+00  0.00000000000E+00 -0.11879620157E+03  0.33029652439E+04  0.33008282089E+04 0.  0.
        4    1    3    3  502    0 -0.10704709002E+04 -0.12546874134E+04  0.16057018257E+01  0.16492885268E+04  0.12699999809E+01 0. -1.
       -4    1    3    3    0  502  0.10704709002E+04  0.12546874134E+04 -0.12040190339E+03  0.16536767171E+04  0.12699999809E+01 0.  1.
</event>
<event>
 5   0  0.2703956E-07  0.3275823E+04  0.7818609E-02  0.8169075E-01
        2   -1    0    0  501    0  0.00000000000E+00  0.00000000000E+00  0.19187149772E+04  0.19187149772E+04  0.25500000920E-02 0.  1.
       -2   -1    0    0    0  501  0.00000000000E+00  0.00000000000E+00 -0.13982035499E+04  0.13982035499E+04  0.25500000920E-02 0. -1.
    10030    2    1    2    0    0  0.00000000000E+00  0.00000000000E+00  0.52051142728E+03  0.33169185271E+04  0.32758230064E+04 0.  0.
        5    1    3    3  502    0  0.92043120732E+03 -0.70374893164E+03  0.14324820363E+04  0.18424122884E+04  0.46999998093E+01 0.  1.
       -5    1    3    3    0  502 -0.92043120732E+03  0.70374893164E+03 -0.91197060900E+03  0.14745062387E+04  0.46999998093E+01 0. -1.
</event>
<event>
 5   0  0.9181760E-08  0.3306103E+04  0.7818609E-02  0.8161344E-01
        1   -1    0    0  501    0  0.00000000000E+00  0.00000000000E+00  0.15320594262E+04  0.15320594262E+04  0.50400001928E-02 0.  1.
       -1   -1    0    0    0  501  0.00000000000E+00  0.00000000000E+00 -0.17835990505E+04  0.17835990505E+04  0.50400001928E-02 0. -1.
    10030    2    1    2    0    0  0.00000000000E+00  0.00000000000E+00 -0.25153962435E+03  0.33156584767E+04  0.33061032881E+04 0.  0.
        1    1    3    3  502    0 -0.12873588327E+04 -0.41129466756E+02 -0.11649089015E+04  0.17366626460E+04  0.50400001928E-02 0. -1.
       -1    1    3    3    0  502  0.12873588327E+04  0.41129466756E+02  0.91336927713E+03  0.15789958308E+04  0.50400001928E-02 0.  1.
</event>
<event>
 5   0  0.2727168E-07  0.3300956E+04  0.7818609E-02  0.8162652E-01
        2   -1    0    0  501    0  0.00000000000E+00  0.00000000000E+00  0.22632106644E+04  0.22632106644E+04  0.25500000920E-02 0.  1.
       -2   -1    0    0    0  501  0.00000000000E+00  0.00000000000E+00 -0.12036344494E+04  0.12036344494E+04  0.25500000920E-02 0. -1.
    10030    2    1    2    0    0  0.00000000000E+00  0.00000000000E+00  0.10595762150E+04  0.34668451138E+04  0.33009564201E+04 0.  0.
        2    1    3    3  502    0 -0.68762881414E+02  0.25698245505E+03 -0.11809701544E+04  0.12105613663E+04  0.25500000920E-02 0. -1.
       -2    1    3    3    0  502  0.68762881414E+02 -0.25698245505E+03  0.22405463694E+04  0.22562837475E+04  0.25500000920E-02 0.  1.
</event>
<event>
 5   0  0.9454010E-08  0.3303784E+04  0.7818609E-02  0.8161933E-01
        1   -1    0    0  501    0  0.00000000000E+00  0.00000000000E+00  0.22201162954E+04  0.22201162954E+04  0.50400001928E-02 0.  1.
       -1   -1    0    0    0  501  0.00000000000E+00  0.00000000000E+00 -0.12291013806E+04  0.12291013806E+04  0.50400001928E-02 0. -1.
    10030    2    1    2    0    0  0.00000000000E+00  0.00000000000E+00  0.99101491485E+03  0.34492176760E+04  0.33037844989E+04 0.  0.
        2    1    3    3  502    0  0.25301689188E+03 -0.10542570060E+04  0.17966735445E+04  0.20984544807E+04  0.25500000920E-02 0.  1.
       -2    1    3    3    0  502 -0.25301689188E+03  0.10542570060E+04 -0.80565862965E+03  0.13507631953E+04  0.25500000920E-02 0. -1.
</event>
<event>
 5   0  0.2824402E-07  0.3376340E+04  0.7818609E-02  0.8143738E-01
       -2   -1    0    0    0  501  0.00000000000E+00  0.00000000000E+00  0.24214018410E+04  0.24214018410E+04  0.25500000920E-02 0.  1.
        2   -1    0    0  501    0  0.00000000000E+00  0.00000000000E+00 -0.11769703896E+04  0.11769703896E+04  0.25500000920E-02 0. -1.
    10030    2    1    2    0    0  0.00000000000E+00  0.00000000000E+00  0.12444314514E+04  0.35983722307E+04  0.33763401892E+04 0.  0.
        1    1    3    3  502    0  0.45186118515E+03  0.21873878428E+03 -0.10955760732E+04  0.12051191305E+04  0.50400001928E-02 0. -1.
       -1    1    3    3    0  502 -0.45186118515E+03 -0.21873878428E+03  0.23400075246E+04  0.23932531002E+04  0.50400001928E-02 0.  1.
</event>
<event>
 5   0  0.9283910E-08  0.3299599E+04  0.7818609E-02  0.8162997E-01
       -1   -1    0    0    0  501  0.00000000000E+00  0.00000000000E+00  0.12017198610E+04  0.12017198610E+04  0.50400001928E-02 0.  1.
        1   -1    0    0  501    0  0.00000000000E+00  0.00000000000E+00 -0.22649528576E+04  0.22649528576E+04  0.50400001928E-02 0. -1.
    10030    2    1    2    0    0  0.00000000000E+00  0.00000000000E+00 -0.10632329966E+04  0.34666727186E+04  0.32995992686E+04 0.  0.
        3    1    3    3  502    0 -0.73733953733E+03 -0.65702298442E+02 -0.20806709152E+04  0.22084333481E+04  0.10100000352E+00 0. -1.
       -3    1    3    3    0  502  0.73733953733E+03  0.65702298442E+02  0.10174379186E+04  0.12582393706E+04  0.10100000352E+00 0.  1.
</event>
<event>
 5   0  0.9283910E-08  0.3342252E+04  0.7818609E-02  0.8152227E-01
        1   -1    0    0  501    0  0.00000000000E+00  0.00000000000E+00  0.16302721218E+04  0.16302721218E+04  0.50400001928E-02 0.  1.
       -1   -1    0    0    0  501  0.00000000000E+00  0.00000000000E+00 -0.17130035764E+04  0.17130035764E+04  0.50400001928E-02 0. -1.
    10030    2    1    2    0    0  0.00000000000E+00  0.00000000000E+00 -0.82731454642E+02  0.33432756982E+04  0.33422519206E+04 0.  0.
        3    1    3    3  502    0  0.18618376237E+02  0.93216092486E+03 -0.14286543901E+04  0.17059671774E+04  0.10100000352E+00 0. -1.
       -3    1    3    3    0  502 -0.18618376237E+02 -0.93216092486E+03  0.13459229355E+04  0.16373085208E+04  0.10100000352E+00 0.  1.
</event>
<event>
 5   0  0.2713815E-07  0.3297391E+04  0.7818609E-02  0.8163560E-01
       -2   -1    0    0    0  501  0.00000000000E+00  0.00000000000E+00  0.19353770884E+04  0.19353770884E+04  0.25500000920E-02 0.  1.
        2   -1    0    0  501    0  0.00000000000E+00  0.00000000000E+00 -0.14044791486E+04  0.14044791486E+04  0.25500000920E-02 0. -1.
    10030    2    1    2    0    0  0.00000000000E+00  0.00000000000E+00  0.53089793982E+03  0.33398562370E+04  0.32973909476E+04 0.  0.
        4    1    3    3  502    0  0.15968005177E+04 -0.35316423188E+02 -0.14868829271E+03  0.16040975545E+04  0.12699999809E+01 0.  1.
       -4    1    3    3    0  502 -0.15968005177E+04  0.35316423188E+02  0.67958623253E+03  0.17357586824E+04  0.12699999809E+01 0. -1.
</event>
<event>
 5   0  0.2824402E-07  0.3300267E+04  0.7818609E-02  0.8162827E-01
        2   -1    0    0  501    0  0.00000000000E+00  0.00000000000E+00  0.17123902376E+04  0.17123902376E+04  0.25500000920E-02 0. -1.
       -2   -1    0    0    0  501  0.00000000000E+00  0.00000000000E+00 -0.15901403504E+04  0.15901403504E+04  0.25500000920E-02 0.  1.
    10030    2    1    2    0    0  0.00000000000E+00  0.00000000000E+00  0.12224988721E+03  0.33025305880E+04  0.33002671482E+04 0.  0.
        1    1    3    3  502    0  0.57613914257E+03  0.15362902491E+04 -0.11454251584E+03  0.16447626057E+04  0.50400001928E-02 0.  1.
       -1    1    3    3    0  502 -0.57613914257E+03 -0.15362902491E+04  0.23679240305E+03  0.16577679823E+04  0.50400001928E-02 0. -1.
</event>
<event>
 5   0  0.9454010E-08  0.3301606E+04  0.7818609E-02  0.8162487E-01
       -1   -1    0    0    0  501  0.00000000000E+00  0.00000000000E+00  0.11887381632E+04  0.11887381632E+04  0.50400001928E-02 0. -1.
        1   -1    0    0  501    0  0.00000000000E+00  0.00000000000E+00 -0.22924726507E+04  0.22924726507E+04  0.50400001928E-02 0.  1.
    10030    2    1    2    0    0  0.00000000000E+00  0.00000000000E+00 -0.11037344876E+04  0.34812108139E+04  0.33016055052E+04 0.  0.
        2    1    3    3  502    0 -0.46031127300E+02 -0.35734637747E+03 -0.22505090478E+04  0.22791678903E+04  0.25500000920E-02 0.  1.
       -2    1    3    3    0  502  0.46031127300E+02  0.35734637747E+03  0.11467745602E+04  0.12020429236E+04  0.25500000920E-02 0. -1.
</event>
<event>
 5   0  0.8805125E-08  0.3297978E+04  0.7818609E-02  0.8163410E-01
        1   -1    0    0  501    0  0.00000000000E+00  0.00000000000E+00  0.88176893571E+03  0.88176893572E+03  0.50400001928E-02 0.  1.
       -1   -1    0    0    0  501  0.00000000000E+00  0.00000000000E+00 -0.30837611997E+04  0.30837611997E+04  0.50400001928E-02 0. -1.
    10030    2    1    2    0    0  0.00000000000E+00  0.00000000000E+00 -0.22019922640E+04  0.39655301355E+04  0.32979780661E+04 0.  0.
        4    1    3    3  502    0 -0.13725974869E+04 -0.56918468525E+03 -0.24131897874E+03  0.15054007869E+04  0.12699999809E+01 0.  1.
       -4    1    3    3    0  502  0.13725974869E+04  0.56918468525E+03 -0.19606732853E+04  0.24601293485E+04  0.12699999809E+01 0. -1.
</event>
<event>
 5   0  0.9810351E-08  0.3301765E+04  0.7818609E-02  0.8162447E-01
       -1   -1    0    0    0  501  0.00000000000E+00  0.00000000000E+00  0.18336659269E+04  0.18336659269E+04  0.50400001928E-02 0. -1.
        1   -1    0    0  501    0  0.00000000000E+00  0.00000000000E+00 -0.14863190067E+04  0.14863190067E+04  0.50400001928E-02 0.  1.
    10030    2    1    2    0    0  0.00000000000E+00  0.00000000000E+00  0.34734692021E+03  0.33199849336E+04  0.33017646913E+04 0.  0.
        5    1    3    3  502    0 -0.70231414373E+03 -0.55501125904E+03  0.15684501838E+04  0.18059182493E+04  0.46999998093E+01 0. -1.
       -5    1    3    3    0  502  0.70231414373E+03  0.55501125904E+03 -0.12211032636E+04  0.15140666843E+04  0.46999998093E+01 0.  1.
</event>
<event>
 5   0  0.2727168E-07  0.3298589E+04  0.7818609E-02  0.8163255E-01
        2   -1    0    0  501    0  0.00000000000E+00  0.00000000000E+00  0.20606952117E+04  0.20606952117E+04  0.25500000920E-02 0.  1.
       -2   -1    0    0    0  501  0.00000000000E+00  0.00000000000E+00 -0.13200261746E+04  0.13200261746E+04  0.25500000920E-02 0. -1.
    10030    2    1    2    0    0  0.00000000000E+00  0.00000000000E+00  0.74066903708E+03  0.33807213862E+04  0.32985885571E+04 0.  0.
        2    1    3    3  502    0  0.12521535377E+04 -0.79283242097E+03 -0.37135556623E+03  0.15278667109E+04  0.25500000920E-02 0. -1.
       -2    1    3    3    0  502 -0.12521535377E+04  0.79283242097E+03  0.11120246033E+04  0.18528546754E+04  0.25500000920E-02 0.  1.
</event>
<event>
 5   0  0.8805125E-08  0.3298236E+04  0.7818609E-02  0.8163344E-01
        1   -1    0    0  501    0  0.00000000000E+00  0.00000000000E+00  0.19913372789E+04  0.19913372789E+04  0.50400001928E-02 0.  1.
       -1   -1    0    0    0  501  0.00000000000E+00  0.00000000000E+00 -0.13657104700E+04  0.13657104700E+04  0.50400001928E-02 0. -1.
    10030    2    1    2    0    0  0.00000000000E+00  0.00000000000E+00  0.62562680890E+03  0.33570477489E+04  0.32982359959E+04 0.  0.
        4    1    3    3  502    0 -0.80431524615E+03 -0.96119266174E+02  0.17748906119E+04  0.19509998015E+04  0.12699999809E+01 0.  1.
       -4    1    3    3    0  502  0.80431524615E+03  0.96119266174E+02 -0.11492638030E+04  0.14060479474E+04  0.12699999809E+01 0. -1.
</event>
<event>
 5   0  0.2703956E-07  0.3280477E+04  0.7818609E-02  0.8167881E-01
       -2   -1    0    0    0  501  0.00000000000E+00  0.00000000000E+00  0.16742782191E+04  0.16742782191E+04  0.25500000920E-02 0.  1.
        2   -1    0    0  501    0  0.00000000000E+00  0.00000000000E+00 -0.16068911661E+04  0.16068911661E+04  0.25500000920E-02 0. -1.
    10030    2    1    2    0    0  0.00000000000E+00  0.00000000000E+00  0.67387053095E+02  0.32811693852E+04  0.32804773310E+04 0.  0.
        5    1    3    3  502    0 -0.94289361374E+03 -0.11395845084E+04  0.74282798286E+03  0.16551485495E+04  0.46999998093E+01 0. -1.
       -5    1    3    3    0  502  0.94289361374E+03  0.11395845084E+04 -0.67544092976E+03  0.16260208357E+04  0.46999998093E+01 0.  1.
</event>
<event>
 5   0  0.9810351E-08  0.3291459E+04  0.7818609E-02  0.8165072E-01
        1   -1    0    0  501    0  0.00000000000E+00  0.00000000000E+00  0.28786894403E+04  0.28786894403E+04  0.50400001928E-02 0.  1.
       -1   -1    0    0    0  501  0.00000000000E+00  0.00000000000E+00 -0.94085362411E+03  0.94085362412E+03  0.50400001928E-02 0. -1.
    10030    2    1    2    0    0  0.00000000000E+00  0.00000000000E+00  0.19378358162E+04  0.38195430644E+04  0.32914588818E+04 0.  0.
        5    1    3    3  502    0 -0.65095015206E+03 -0.14515141494E+04  0.14581973269E+04  0.21580062467E+04  0.46999998093E+01 0.  1.
       -5    1    3    3    0  502  0.65095015206E+03  0.14515141494E+04  0.47963848928E+03  0.16615368178E+04  0.46999998093E+01 0. -1.
</event>
<event>
 5   0  0.9181760E-08  0.3299939E+04  0.7818609E-02  0.8162911E-01
        1   -1    0    0  501    0  0.00000000000E+00  0.00000000000E+00  0.21449438696E+04  0.21449438696E+04  0.50400001928E-02 0.  1.
       -1   -1    0    0    0  501  0.00000000000E+00  0.00000000000E+00 -0.12692170619E+04  0.12692170619E+04  0.50400001928E-02 0. -1.
    10030    2    1    2    0    0  0.00000000000E+00  0.00000000000E+00  0.87572680774E+03  0.34141609315E+04  0.32999390032E+04 0.  0.
        1    1    3    3  502    0 -0.53027839512E+03 -0.15495013646E+04  0.23029588024E+03  0.16538397286E+04  0.50400001928E-02 0.  1.
       -1    1    3    3    0  502  0.53027839512E+03  0.15495013646E+04  0.64543092750E+03  0.17603212029E+04  0.50400001928E-02 0. -1.
</event>
<event>
 5   0  0.2727168E-07  0.3302244E+04  0.7818609E-02  0.8162325E-01
       -2   -1    0    0    0  501  0.00000000000E+00  0.00000000000E+00  0.10448255180E+04  0.10448255180E+04  0.25500000920E-02 0.  1.
        2   -1    0    0  501    0  0.00000000000E+00  0.00000000000E+00 -0.26092424722E+04  0.26092424722E+04  0.25500000920E-02 0. -1.
    10030    2    1    2    0    0  0.00000000000E+00  0.00000000000E+00 -0.15644169542E+04  0.36540679901E+04  0.33022435509E+04 0.  0.
        2    1    3    3  502    0  0.83505576889E+02  0.16357732365E+04 -0.55148510617E+03  0.17282543461E+04  0.25500000920E-02 0.  1.
       -2    1    3    3    0  502 -0.83505576889E+02 -0.16357732365E+04 -0.10129318480E+04  0.19258136440E+04  0.25500000920E-02 0. -1.
</event>
<event>
 5   0  0.9810351E-08  0.3302969E+04  0.7818609E-02  0.8162140E-01
       -1   -1    0    0    0  501  0.00000000000E+00  0.00000000000E+00  0.13269758877E+04  0.13269758877E+04  0.50400001928E-02 0. -1.
        1   -1    0    0  501    0  0.00000000000E+00  0.00000000000E+00 -0.20553505548E+04  0.20553505548E+04  0.50400001928E-02 0.  1.
    10030    2    1    2    0    0  0.00000000000E+00  0.00000000000E+00 -0.72837466708E+03  0.33823264426E+04  0.33029687417E+04 0.  0.
        5    1    3    3  502    0 -0.11793856883E+04 -0.40225799229E+02  0.81891075794E+03  0.14363863116E+04  0.46999998093E+01 0. -1.
       -5    1    3    3    0  502  0.11793856883E+04  0.40225799229E+02 -0.15472854250E+04  0.19459401309E+04  0.46999998093E+01 0.  1.
</event>
<event>
 5   0  0.2824402E-07  0.3304332E+04  0.7818609E-02  0.8161794E-01
        2   -1    0    0  501    0  0.00000000000E+00  0.00000000000E+00  0.23480281233E+04  0.23480281233E+04  0.25500000920E-02 0.  1.
       -2   -1    0    0    0  501  0.00000000000E+00  0.00000000000E+00 -0.11625294483E+04  0.11625294483E+04  0.25500000920E-02 0. -1.
    10030    2    1    2    0    0  0.00000000000E+00  0.00000000000E+00  0.11854986750E+04  0.35105575716E+04  0.33043316049E+04 0.  0.
        1    1    3    3  502    0  0.15963705201E+04 -0.41334812116E+03  0.70107529742E+03  0.17918599497E+04  0.50400001928E-02 0.  1.
       -1    1    3    3    0  502 -0.15963705201E+04  0.41334812116E+03  0.48442337758E+03  0.17186976219E+04  0.50400001928E-02 0. -1.
</event>
<event>
 5   0  0.9181760E-08  0.3300087E+04  0.7818609E-02  0.8162873E-01
       -1   -1    0    0    0  501  0.00000000000E+00  0.00000000000E+00  0.13820707298E+04  0.13820707298E+04  0.50400001928E-02 0. -1.
        1   -1    0    0  501    0  0.00000000000E+00  0.00000000000E+00 -0.19699746772E+04  0.19699746772E+04  0.50400001928E-02 0.  1.
    10030    2    1    2    0    0  0.00000000000E+00  0.00000000000E+00 -0.58790394745E+03  0.33520454070E+04  0.33000874775E+04 0.  0.
        1    1    3    3  502    0  0.30782787145E+03 -0.15785233060E+04  0.80843280553E+02  0.16102886269E+04  0.50400001928E-02 0.  1.
       -1    1    3    3    0  502 -0.30782787145E+03  0.15785233060E+04 -0.66874722800E+03  0.17417567801E+04  0.50400001928E-02 0. -1.
</event>
<event>
 5   0  0.9454010E-08  0.3300244E+04  0.7818609E-02  0.8162833E-01
        1   -1    0    0  501    0  0.00000000000E+00  0.00000000000E+00  0.18815581295E+04  0.18815581295E+04  0.50400001928E-02 0.  1.
       -1   -1    0    0    0  501  0.00000000000E+00  0.00000000000E+00 -0.14471529378E+04  0.14471529378E+04  0.50400001928E-02 0. -1.
    10030    2    1    2    0    0  0.00000000000E+00  0.00000000000E+00  0.43440519172E+03  0.33287110674E+04  0.33002438545E+04 0.  0.
        2    1    3    3  502    0 -0.10399288554E+04  0.84507235364E+03  0.11884747037E+04  0.17911089940E+04  0.25500000920E-02 0.  1.
       -2    1    3    3    0  502  0.10399288554E+04 -0.84507235364E+03 -0.75406951198E+03  0.15376020734E+04  0.25500000920E-02 0. -1.
</event>
<event>
 5   0  0.2713815E-07  0.3304928E+04  0.7818609E-02  0.8161643E-01
        2   -1    0    0  501    0  0.00000000000E+00  0.00000000000E+00  0.13848333458E+04  0.13848333458E+04  0.25500000920E-02 0.  1.
       -2   -1    0    0    0  501  0.00000000000E+00  0.00000000000E+00 -0.19718165066E+04  0.19718165066E+04  0.25500000920E-02 0. -1.
    10030    2    1    2    0    0  0.00000000000E+00  0.00000000000E+00 -0.58698316082E+03  0.33566498524E+04  0.33049279872E+04 0.  0.
        4    1    3    3  502    0  0.12063884085E+04  0.78591702206E+03 -0.11171060681E+04  0.18223518151E+04  0.12699999809E+01 0.  1.
       -4    1    3    3    0  502 -0.12063884085E+04 -0.78591702206E+03  0.53012290724E+03  0.15342980373E+04  0.12699999809E+01 0. -1.
</event>
<event>
 5   0  0.2727168E-07  0.3295600E+04  0.7818609E-02  0.8164016E-01
       -2   -1    0    0    0  501  0.00000000000E+00  0.00000000000E+00  0.17442014621E+04  0.17442014621E+04  0.25500000920E-02 0. -1.
        2   -1    0    0  501    0  0.00000000000E+00  0.00000000000E+00 -0.15567263202E+04  0.15567263202E+04  0.25500000920E-02 0.  1.
    10030    2    1    2    0    0  0.00000000000E+00  0.00000000000E+00  0.18747514187E+03  0.33009277824E+04  0.32955996868E+04 0.  0.
        2    1    3    3  502    0 -0.84873462422E+03  0.13867287706E+03  0.15015930639E+04  0.17304225954E+04  0.25500000920E-02 0. -1.
       -2    1    3    3    0  502  0.84873462422E+03 -0.13867287706E+03 -0.13141179220E+04  0.15705051869E+04  0.25500000920E-02 0.  1.
</event>
<event>
 5   0  0.2713815E-07  0.3298800E+04  0.7818609E-02  0.8163201E-01
        2   -1    0    0  501    0  0.00000000000E+00  0.00000000000E+00  0.28387630899E+04  0.28387630899E+04  0.25500000920E-02 0. -1.
       -2   -1    0    0    0  501  0.00000000000E+00  0.00000000000E+00 -0.95834727541E+03  0.95834727541E+03  0.25500000920E-02 0.  1.
    10030    2    1    2    0    0  0.00000000000E+00  0.00000000000E+00  0.18804158145E+04  0.37971103653E+04  0.32988003109E+04 0.  0.
        4    1    3    3  502    0  0.98012651984E+03 -0.46332257464E+02 -0.58585560058E+03  0.11428136640E+04  0.12699999809E+01 0.  1.
       -4    1    3    3    0  502 -0.98012651984E+03  0.46332257464E+02  0.24662714150E+04  0.26542967013E+04  0.12699999809E+01 0. -1.
</event>
<event>
 5   0  0.9454010E-08  0.3310684E+04  0.7818609E-02  0.8160182E-01
        1   -1    0    0  501    0  0.00000000000E+00  0.00000000000E+00  0.93159372851E+03  0.93159372852E+03  0.50400001928E-02 0. -1.
       -1   -1    0    0    0  501  0.00000000000E+00  0.00000000000E+00 -0.29413645900E+04  0.29413645900E+04  0.50400001928E-02 0.  1.
    10030    2    1    2    0    0  0.00000000000E+00  0.00000000000E+00 -0.20097708615E+04  0.38729583186E+04  0.33106837997E+04 0.  0.
        2    1    3    3  502    0 -0.34952971934E+03  0.59193816206E+03 -0.27664877122E+04  0.28506167883E+04  0.25500000920E-02 0.  1.
       -2    1    3    3    0  502  0.34952971934E+03 -0.59193816206E+03  0.75671685063E+03  0.10223415302E+04  0.25500000920E-02 0. -1.
</event>
<event>
 5   0  0.2824402E-07  0.3299742E+04  0.7818609E-02  0.8162961E-01
       -2   -1    0    0    0  501  0.00000000000E+00  0.00000000000E+00  0.11288580781E+04  0.11288580781E+04  0.25500000920E-02 0.  1.
        2   -1    0    0  501    0  0.00000000000E+00  0.00000000000E+00 -0.24113516724E+04  0.24113516724E+04  0.25500000920E-02 0. -1.
    10030    2    1    2    0    0  0.00000000000E+00  0.00000000000E+00 -0.12824935943E+04  0.35402097505E+04  0.32997416956E+04 0.  0.
        1    1    3    3  502    0  0.34201333378E+03  0.41557823673E+03  0.10320236399E+04  0.11639377924E+04  0.50400001928E-02 0.  1.
       -1    1    3    3    0  502 -0.34201333378E+03 -0.41557823673E+03 -0.23145172342E+04  0.23762719581E+04  0.50400001928E-02 0. -1.
</event>
<event>
 5   0  0.8805125E-08  0.3297829E+04  0.7818609E-02  0.8163448E-01
       -1   -1    0    0    0  501  0.00000000000E+00  0.00000000000E+00  0.15581865195E+04  0.15581865195E+04  0.50400001928E-02 0. -1.
        1   -1    0    0  501    0  0.00000000000E+00  0.00000000000E+00 -0.17449247955E+04  0.17449247955E+04  0.50400001928E-02 0.  1.
    10030    2    1    2    0    0  0.00000000000E+00  0.00000000000E+00 -0.18673827602E+03  0.33031113151E+04  0.32978285547E+04 0.  0.
        4    1    3    3  502    0  0.14246475324E+04 -0.16640561877E+03 -0.90806331115E+03  0.16976136225E+04  0.12699999809E+01 0.  1.
       -4    1    3    3    0  502 -0.14246475324E+04  0.16640561877E+03  0.72132503513E+03  0.16054976925E+04  0.12699999809E+01 0. -1.
</event>
<event>
 5   0  0.9454010E-08  0.3303435E+04  0.7818609E-02  0.8162022E-01
        1   -1    0    0  501    0  0.00000000000E+00  0.00000000000E+00  0.17711224676E+04  0.17711224676E+04  0.50400001928E-02 0.  1.
       -1   -1    0    0    0  501  0.00000000000E+00  0.00000000000E+00 -0.15403627232E+04  0.15403627232E+04  0.50400001928E-02 0. -1.
    10030    2    1    2    0    0  0.00000000000E+00  0.00000000000E+00  0.23075974444E+03  0.33114851908E+04  0.33034351983E+04 0.  0.
        2    1    3    3  502    0 -0.57307977682E+03  0.31844630937E+03 -0.14043430130E+04  0.15498412115E+04  0.25500000920E-02 0. -1.
       -2    1    3    3    0  502  0.57307977682E+03 -0.31844630937E+03  0.16351027575E+04  0.17616439794E+04  0.25500000920E-02 0.  1.
</event>
<event>
 5   0  0.9181760E-08  0.3300331E+04  0.7818609E-02  0.8162811E-01
       -1   -1    0    0    0  501  0.00000000000E+00  0.00000000000E+00  0.11312075582E+04  0.11312075582E+04  0.50400001928E-02 0. -1.
        1   -1    0    0  501    0  0.00000000000E+00  0.00000000000E+00 -0.24072033219E+04  0.24072033219E+04  0.50400001928E-02 0.  1.
    10030    2    1    2    0    0  0.00000000000E+00  0.00000000000E+00 -0.12759957637E+04  0.35384108802E+04  0.33003312512E+04 0.  0.
        1    1    3    3  502    0 -0.11869518310E+04  0.11392717650E+04 -0.50131903482E+03  0.17199173173E+04  0.50400001928E-02 0.  1.
       -1    1    3    3    0  502  0.11869518310E+04 -0.11392717650E+04 -0.77467672889E+03  0.18184935628E+04  0.50400001928E-02 0. -1.
</event>
<event>
 5   0  0.2824402E-07  0.3287209E+04  0.7818609E-02  0.8166158E-01
        2   -1    0    0  501    0  0.00000000000E+00  0.00000000000E+00  0.13500363094E+04  0.13500363094E+04  0.25500000920E-02 0.  1.
       -2   -1    0    0    0  501  0.00000000000E+00  0.00000000000E+00 -0.20010096682E+04  0.20010096682E+04  0.25500000920E-02 0. -1.
    10030    2    1    2    0    0  0.00000000000E+00  0.00000000000E+00 -0.65097335878E+03  0.33510459776E+04  0.32872089727E+04 0.  0.
        1    1    3    3  502    0  0.20072554971E+03 -0.14948094150E+03  0.13304981133E+04  0.13538317945E+04  0.50400001928E-02 0.  1.
       -1    1    3    3    0  502 -0.20072554971E+03  0.14948094150E+03 -0.19814714721E+04  0.19972141831E+04  0.50400001928E-02 0. -1.
</event>
<event>
 5   0  0.9283910E-08  0.3300503E+04  0.7818609E-02  0.8162767E-01
       -1   -1    0    0    0  501  0.00000000000E+00  0.00000000000E+00  0.12778313108E+04  0.12778313108E+04  0.50400001928E-02 0. -1.
        1   -1    0    0  501    0  0.00000000000E+00  0.00000000000E+00 -0.21312130211E+04  0.21312130211E+04  0.50400001928E-02 0.  1.
    10030    2    1    2    0    0  0.00000000000E+00  0.00000000000E+00 -0.85338171032E+03  0.34090443319E+04  0.33005034334E+04 0.  0.
        3    1    3    3  502    0 -0.16119575835E+04  0.34027051606E+03 -0.52543522085E+03  0.17292407168E+04  0.10100000352E+00 0. -1.
       -3    1    3    3    0  502  0.16119575835E+04 -0.34027051606E+03 -0.32794648946E+03  0.16798036151E+04  0.10100000352E+00 0.  1.
</event>
<event>
 5   0  0.9810351E-08  0.3295030E+04  0.7818609E-02  0.8164161E-01
        1   -1    0    0  501    0  0.00000000000E+00  0.00000000000E+00  0.18090167439E+04  0.18090167439E+04  0.50400001928E-02 0.  1.
       -1   -1    0    0    0  501  0.00000000000E+00  0.00000000000E+00 -0.15004317809E+04  0.15004317809E+04  0.50400001928E-02 0. -1.
    10030    2    1    2    0    0  0.00000000000E+00  0.00000000000E+00  0.30858496305E+03  0.33094485248E+04  0.32950303275E+04 0.  0.
        5    1    3    3  502    0 -0.80225875273E+03  0.21307083891E+03  0.15836380273E+04  0.17880016164E+04  0.46999998093E+01 0.  1.
       -5    1    3    3    0  502  0.80225875273E+03 -0.21307083891E+03 -0.12750530642E+04  0.15214469085E+04  0.46999998093E+01 0. -1.
</event>
<event>
 5   0  0.9283910E-08  0.3312125E+04  0.7818609E-02  0.8159817E-01
       -1   -1    0    0    0  501  0.00000000000E+00  0.00000000000E+00  0.20311694389E+04  0.20311694389E+04  0.50400001928E-02 0. -1.
        1   -1    0    0  501    0  0.00000000000E+00  0.00000000000E+00 -0.13502285568E+04  0.13502285568E+04  0.50400001928E-02 0.  1.
    10030    2    1    2    0    0  0.00000000000E+00  0.00000000000E+00  0.68094088213E+03  0.33813979957E+04  0.33121249857E+04 0.  0.
        3    1    3    3  502    0  0.36733288135E+03  0.32059919990E+03  0.19562359283E+04  0.20160794404E+04  0.10100000352E+00 0. -1.
       -3    1    3    3    0  502 -0.36733288135E+03 -0.32059919990E+03 -0.12752950461E+04  0.13653185554E+04  0.10100000352E+00 0.  1.
</event>
<event>
 5   0  0.2727168E-07  0.3298037E+04  0.7818609E-02  0.8163395E-01
       -2   -1    0    0    0  501  0.00000000000E+00  0.00000000000E+00  0.27503415887E+04  0.27503415887E+04  0.25500000920E-02 0. -1.
        2   -1    0    0  501    0  0.00000000000E+00  0.00000000000E+00 -0.98869990047E+03  0.98869990047E+03  0.25500000920E-02 0.  1.
    10030    2    1    2    0    0  0.00000000000E+00  0.00000000000E+00  0.17616416883E+04  0.37390414892E+04  0.32980372679E+04 0.  0.
        2    1    3    3  502    0  0.64486399639E+03 -0.35727445389E+03 -0.79146688298E+03  0.10816258300E+04  0.25500000920E-02 0.  1.
       -2    1    3    3    0  502 -0.64486399639E+03  0.35727445389E+03  0.25531085712E+04  0.26574156592E+04  0.25500000920E-02 0. -1.
</event>
<event>
 5   0  0.2727168E-07  0.3315798E+04  0.7818609E-02  0.8158887E-01
       -2   -1    0    0    0  501  0.00000000000E+00  0.00000000000E+00  0.15347562988E+04  0.15347562988E+04  0.25500000920E-02 0. -1.
        2   -1    0    0  501    0  0.00000000000E+00  0.00000000000E+00 -0.17909216537E+04  0.17909216537E+04  0.25500000920E-02 0.  1.
    10030    2    1    2    0    0  0.00000000000E+00  0.00000000000E+00 -0.25616535483E+03  0.33256779525E+04  0.33157975142E+04 0.  0.
        2    1    3    3  502    0  0.39317821607E+03 -0.15687516617E+04 -0.49393996577E+03  0.16910196851E+04  0.25500000920E-02 0.  1.
       -2    1    3    3    0  502 -0.39317821607E+03  0.15687516617E+04  0.23777461095E+03  0.16346582674E+04  0.25500000920E-02 0. -1.
</event>
<event>
 5   0  0.2713815E-07  0.3306705E+04  0.7818609E-02  0.8161191E-01
       -2   -1    0    0    0  501  0.00000000000E+00  0.00000000000E+00  0.12873110064E+04  0.12873110064E+04  0.25500000920E-02 0. -1.
        2   -1    0    0  501    0  0.00000000000E+00  0.00000000000E+00 -0.21234766535E+04  0.21234766535E+04  0.25500000920E-02 0.  1.
    10030    2    1    2    0    0  0.00000000000E+00  0.00000000000E+00 -0.83616564707E+03  0.34107876599E+04  0.33067052290E+04 0.  0.
        4    1    3    3  502    0  0.14395934427E+04  0.28757077216E+03 -0.12025792996E+04  0.18977156831E+04  0.12699999809E+01 0. -1.
       -4    1    3    3    0  502 -0.14395934427E+04 -0.28757077216E+03  0.36641365253E+03  0.15130719768E+04  0.12699999809E+01 0.  1.
</event>
<event>
 5   0  0.9283910E-08  0.3300821E+04  0.7818609E-02  0.8162686E-01
        1   -1    0    0  501    0  0.00000000000E+00  0.00000000000E+00  0.20546478471E+04  0.20546478471E+04  0.50400001928E-02 0. -1.
       -1   -1    0    0    0  501  0.00000000000E+00  0.00000000000E+00 -0.13257042846E+04  0.13257042847E+04  0.50400001928E-02 0.  1.
    10030    2    1    2    0    0  0.00000000000E+00  0.00000000000E+00  0.72894356247E+03  0.33803521318E+04  0.33008213853E+04 0.  0.
        3    1    3    3  502    0 -0.14395355563E+04  0.79073644639E+03  0.19830101779E+03  0.16543427847E+04  0.10100000352E+00 0. -1.
       -3    1    3    3    0  502  0.14395355563E+04 -0.79073644639E+03  0.53064254468E+03  0.17260093470E+04  0.10100000352E+00 0.  1.
</event>
<event>
 5   0  0.8805125E-08  0.3302540E+04  0.7818609E-02  0.8162249E-01
        1   -1    0    0  501    0  0.00000000000E+00  0.00000000000E+00  0.18041968695E+04  0.18041968695E+04  0.50400001928E-02 0.  1.
       -1   -1    0    0    0  501  0.00000000000E+00  0.00000000000E+00 -0.15113051301E+04  0.15113051301E+04  0.50400001928E-02 0. -1.
    10030    2    1    2    0    0  0.00000000000E+00  0.00000000000E+00  0.29289173936E+03  0.33155019996E+04  0.33025396195E+04 0.  0.
        4    1    3    3  502    0 -0.70247415739E+03 -0.50162117324E+03 -0.12667712346E+04  0.15329072760E+04  0.12699999809E+01 0. -1.
       -4    1    3    3    0  502  0.70247415739E+03  0.50162117324E+03  0.15596629740E+04  0.17825947236E+04  0.12699999809E+01 0.  1.
</event>
<event>
 5   0  0.2703956E-07  0.3232260E+04  0.7818609E-02  0.8180349E-01
       -2   -1    0    0    0  501  0.00000000000E+00  0.00000000000E+00  0.23234090967E+04  0.23234090967E+04  0.25500000920E-02 0.  1.
        2   -1    0    0  501    0  0.00000000000E+00  0.00000000000E+00 -0.11241567946E+04  0.11241567946E+04  0.25500000920E-02 0. -1.
    10030    2    1    2    0    0  0.00000000000E+00  0.00000000000E+00  0.11992523022E+04  0.34475658913E+04  0.32322599665E+04 0.  0.
        5    1    3    3  502    0 -0.87696470404E+03  0.21546238794E+03 -0.82993695231E+03  0.12265025754E+04  0.46999998093E+01 0. -1.
       -5    1    3    3    0  502  0.87696470404E+03 -0.21546238794E+03  0.20291892545E+04  0.22210633159E+04  0.46999998093E+01 0.  1.
</event>
<event>
 5   0  0.9810351E-08  0.3301055E+04  0.7818609E-02  0.8162627E-01
       -1   -1    0    0    0  501  0.00000000000E+00  0.00000000000E+00  0.11874130807E+04  0.11874130808E+04  0.50400001928E-02 0.  1.
        1   -1    0    0  501    0  0.00000000000E+00  0.00000000000E+00 -0.22942657679E+04  0.22942657679E+04  0.50400001928E-02 0. -1.
    10030    2    1    2    0    0  0.00000000000E+00  0.00000000000E+00 -0.11068526871E+04  0.34816788486E+04  0.33010550941E+04 0.  0.
        5    1    3    3  502    0  0.19059391062E+03  0.13503563762E+04 -0.15340469850E+04  0.20525863255E+04  0.46999998093E+01 0. -1.
       -5    1    3    3    0  502 -0.19059391062E+03 -0.13503563762E+04  0.42719429788E+03  0.14290925231E+04  0.46999998093E+01 0.  1.
</event>
<event>
 5   0  0.9454010E-08  0.3299293E+04  0.7818609E-02  0.8163075E-01
        1   -1    0    0  501    0  0.00000000000E+00  0.00000000000E+00  0.16932397117E+04  0.16932397117E+04  0.50400001928E-02 0. -1.
       -1   -1    0    0    0  501  0.00000000000E+00  0.00000000000E+00 -0.16071753686E+04  0.16071753686E+04  0.50400001928E-02 0.  1.
    10030    2    1    2    0    0  0.00000000000E+00  0.00000000000E+00  0.86064343057E+02  0.33004150803E+04  0.32992927471E+04 0.  0.
        2    1    3    3  502    0  0.78348729696E+03 -0.96725676155E+03  0.11259414947E+04  0.16784463759E+04  0.25500000920E-02 0. -1.
       -2    1    3    3    0  502 -0.78348729696E+03  0.96725676155E+03 -0.10398771517E+04  0.16219687043E+04  0.25500000920E-02 0.  1.
</event>
<event>
 5   0  0.2703956E-07  0.3292458E+04  0.7818609E-02  0.8164817E-01
       -2   -1    0    0    0  501  0.00000000000E+00  0.00000000000E+00  0.17060416893E+04  0.17060416893E+04  0.25500000920E-02 0.  1.
        2   -1    0    0  501    0  0.00000000000E+00  0.00000000000E+00 -0.15885128827E+04  0.15885128827E+04  0.25500000920E-02 0. -1.
    10030    2    1    2    0    0  0.00000000000E+00  0.00000000000E+00  0.11752880666E+03  0.32945545720E+04  0.32924575635E+04 0.  0.
        5    1    3    3  502    0 -0.31831835015E+03 -0.40240018451E+03  0.16239840089E+04  0.17031143918E+04  0.46999998093E+01 0.  1.
       -5    1    3    3    0  502  0.31831835015E+03  0.40240018451E+03 -0.15064552022E+04  0.15914401801E+04  0.46999998093E+01 0. -1.
</event>
<event>
 5   0  0.9283910E-08  0.3296310E+04  0.7818609E-02  0.8163835E-01
        1   -1    0    0  501    0  0.00000000000E+00  0.00000000000E+00  0.15427538042E+04  0.15427538042E+04  0.50400001928E-02 0. -1.
       -1   -1    0    0    0  501  0.00000000000E+00  0.00000000000E+00 -0.17607573496E+04  0.17607573496E+04  0.50400001928E-02 0.  1.
    10030    2    1    2    0    0  0.00000000000E+00  0.00000000000E+00 -0.21800354540E+03  0.33035111538E+04  0.32963101185E+04 0.  0.
        3    1    3    3  502    0 -0.55917294293E+03 -0.61249756855E+03  0.13183945702E+04  0.15575595991E+04  0.10100000352E+00 0. -1.
       -3    1    3    3    0  502  0.55917294293E+03  0.61249756855E+03 -0.15363981156E+04  0.17459515547E+04  0.10100000352E+00 0.  1.
</event>
<event>
 5   0  0.9283910E-08  0.3297744E+04  0.7818609E-02  0.8163470E-01
        1   -1    0    0  501    0  0.00000000000E+00  0.00000000000E+00  0.11842704022E+04  0.11842704022E+04  0.50400001928E-02 0.  1.
       -1   -1    0    0    0  501  0.00000000000E+00  0.00000000000E+00 -0.22957415227E+04  0.22957415227E+04  0.50400001928E-02 0. -1.
    10030    2    1    2    0    0  0.00000000000E+00  0.00000000000E+00 -0.11114711204E+04  0.34800119249E+04  0.32977439176E+04 0.  0.
        3    1    3    3  502    0  0.13719944565E+04  0.87673443022E+03 -0.28106772699E+03  0.16522805837E+04  0.10100000352E+00 0.  1.
       -3    1    3    3    0  502 -0.13719944565E+04 -0.87673443022E+03 -0.83040339344E+03  0.18277313413E+04  0.10100000352E+00 0. -1.
</event>
<event>
 5   0  0.9283910E-08  0.3298941E+04  0.7818609E-02  0.8163165E-01
       -1   -1    0    0    0  501  0.00000000000E+00  0.00000000000E+00  0.19484459663E+04  0.19484459663E+04  0.50400001928E-02 0. -1.
        1   -1    0    0  501    0  0.00000000000E+00  0.00000000000E+00 -0.13963704481E+04  0.13963704481E+04  0.50400001928E-02 0.  1.
    10030    2    1    2    0    0  0.00000000000E+00  0.00000000000E+00  0.55207551819E+03  0.33448164144E+04  0.32989406585E+04 0.  0.
        3    1    3    3  502    0 -0.66092375380E+03 -0.45334871861E+03 -0.11856785401E+04  0.14311460022E+04  0.10100000352E+00 0.  1.
       -3    1    3    3    0  502  0.66092375380E+03  0.45334871861E+03  0.17377540583E+04  0.19136704122E+04  0.10100000352E+00 0. -1.
</event>
<event>
 5   0  0.9454010E-08  0.3294463E+04  0.7818609E-02  0.8164306E-01
       -1   -1    0    0    0  501  0.00000000000E+00  0.00000000000E+00  0.18201004685E+04  0.18201004685E+04  0.50400001928E-02 0.  1.
        1   -1    0    0  501    0  0.00000000000E+00  0.00000000000E+00 -0.14907808707E+04  0.14907808708E+04  0.50400001928E-02 0. -1.
    10030    2    1    2    0    0  0.00000000000E+00  0.00000000000E+00  0.32931959774E+03  0.33108813393E+04  0.32944626034E+04 0.  0.
        2    1    3    3  502    0 -0.93358293938E+03  0.13176165663E+04 -0.16204562322E+03  0.16229446400E+04  0.25500000920E-02 0.  1.
       -2    1    3    3    0  502  0.93358293938E+03 -0.13176165663E+04  0.49136522097E+03  0.16879366993E+04  0.25500000920E-02 0. -1.
</event>
<event>
 5   0  0.8805125E-08  0.3298458E+04  0.7818609E-02  0.8163288E-01
       -1   -1    0    0    0  501  0.00000000000E+00  0.00000000000E+00  0.16147163459E+04  0.16147163459E+04  0.50400001928E-02 0.  1.
        1   -1    0    0  501    0  0.00000000000E+00  0.00000000000E+00 -0.16844792622E+04  0.16844792622E+04  0.50400001928E-02 0. -1.
    10030    2    1    2    0    0  0.00000000000E+00  0.00000000000E+00 -0.69762916277E+02  0.32991956081E+04  0.32984579421E+04 0.  0.
        4    1    3    3  502    0 -0.60422432967E+03 -0.35699664021E+02 -0.15693670106E+04  0.16820451639E+04  0.12699999809E+01 0. -1.
       -4    1    3    3    0  502  0.60422432967E+03  0.35699664021E+02  0.14996040943E+04  0.16171504442E+04  0.12699999809E+01 0.  1.
</event>
<event>
 5   0  0.8805125E-08  0.3306451E+04  0.7818609E-02  0.8161256E-01
       -1   -1    0    0    0  501  0.00000000000E+00  0.00000000000E+00  0.13510180274E+04  0.13510180274E+04  0.50400001928E-02 0.  1.
        1   -1    0    0  501    0  0.00000000000E+00  0.00000000000E+00 -0.20230336264E+04  0.20230336264E+04  0.50400001928E-02 0. -1.
    10030    2    1    2    0    0  0.00000000000E+00  0.00000000000E+00 -0.67201559900E+03  0.33740516537E+04  0.33064512089E+04 0.  0.
        4    1    3    3  502    0 -0.81866921297E+03 -0.67791670560E+03 -0.16281357765E+04  0.19443811508E+04  0.12699999809E+01 0. -1.
       -4    1    3    3    0  502  0.81866921297E+03  0.67791670560E+03  0.95612017754E+03  0.14296705029E+04  0.12699999809E+01 0.  1.
</event>
<event>
 5   0  0.2875829E-07  0.3292580E+04  0.7818609E-02  0.8164786E-01
        2   -1    0    0  501    0  0.00000000000E+00  0.00000000000E+00  0.19674025823E+04  0.19674025823E+04  0.25500000920E-02 0. -1.
       -2   -1    0    0    0  501  0.00000000000E+00  0.00000000000E+00 -0.13775879001E+04  0.13775879001E+04  0.25500000920E-02 0.  1.
    10030    2    1    2    0    0  0.00000000000E+00  0.00000000000E+00  0.58981468224E+03  0.33449904825E+04  0.32925795311E+04 0.  0.
        3    1    3    3  502    0  0.23269025698E+03 -0.16294804777E+04  0.32569818748E+03  0.16779245222E+04  0.10100000352E+00 0. -1.
       -3    1    3    3    0  502 -0.23269025698E+03  0.16294804777E+04  0.26411649476E+03  0.16670659602E+04  0.10100000352E+00 0.  1.
</event>
<event>
 5   0  0.2713815E-07  0.3302401E+04  0.7818609E-02  0.8162285E-01
        2   -1    0    0  501    0  0.00000000000E+00  0.00000000000E+00  0.23372981082E+04  0.23372981082E+04  0.25500000920E-02 0.  1.
       -2   -1    0    0    0  501  0.00000000000E+00  0.00000000000E+00 -0.11665017703E+04  0.11665017703E+04  0.25500000920E-02 0. -1.
    10030    2    1    2    0    0  0.00000000000E+00  0.00000000000E+00  0.11707963379E+04  0.35037998784E+04  0.33024005698E+04 0.  0.
        4    1    3    3  502    0 -0.10609354371E+04  0.90849474056E+03 -0.34894063143E+03  0.14396902002E+04  0.12699999809E+01 0. -1.
       -4    1    3    3    0  502  0.10609354371E+04 -0.90849474056E+03  0.15197369693E+04  0.20641096783E+04  0.12699999809E+01 0.  1.
</event>
<event>
 5   0  0.2713815E-07  0.3273972E+04  0.7818609E-02  0.8169550E-01
       -2   -1    0    0    0  501  0.00000000000E+00  0.00000000000E+00  0.20166972626E+04  0.20166972626E+04  0.25500000920E-02 0.  1.
        2   -1    0    0  501    0  0.00000000000E+00  0.00000000000E+00 -0.13287678815E+04  0.13287678816E+04  0.25500000920E-02 0. -1.
    10030    2    1    2    0    0  0.00000000000E+00  0.00000000000E+00  0.68792938108E+03  0.33454651442E+04  0.32739716244E+04 0.  0.
        4    1    3    3  502    0 -0.89500239676E+02  0.84576461264E+03 -0.10852900236E+04  0.13788343342E+04  0.12699999809E+01 0. -1.
       -4    1    3    3    0  502  0.89500239676E+02 -0.84576461264E+03  0.17732194047E+04  0.19666308100E+04  0.12699999809E+01 0.  1.
</event>
<event>
 5   0  0.9810351E-08  0.3330123E+04  0.7818609E-02  0.8155273E-01
        1   -1    0    0  501    0  0.00000000000E+00  0.00000000000E+00  0.22705573126E+04  0.22705573126E+04  0.50400001928E-02 0.  1.
       -1   -1    0    0    0  501  0.00000000000E+00  0.00000000000E+00 -0.12210351278E+04  0.12210351278E+04  0.50400001928E-02 0. -1.
    10030    2    1    2    0    0  0.00000000000E+00  0.00000000000E+00  0.10495221848E+04  0.34915924403E+04  0.33301232639E+04 0.  0.
        5    1    3    3  502    0 -0.36611499190E+03 -0.26311794989E+03  0.22053320700E+04  0.22509515481E+04  0.46999998093E+01 0.  1.
       -5    1    3    3    0  502  0.36611499190E+03  0.26311794989E+03 -0.11558098852E+04  0.12406408923E+04  0.46999998093E+01 0. -1.
</event>
<event>
 5   0  0.9283910E-08  0.3297645E+04  0.7818609E-02  0.8163495E-01
       -1   -1    0    0    0  501  0.00000000000E+00  0.00000000000E+00  0.13639689727E+04  0.13639689727E+04  0.50400001928E-02 0. -1.
        1   -1    0    0  501    0  0.00000000000E+00  0.00000000000E+00 -0.19931649533E+04  0.19931649533E+04  0.50400001928E-02 0.  1.
    10030    2    1    2    0    0  0.00000000000E+00  0.00000000000E+00 -0.62919598054E+03  0.33571339260E+04  0.32976447073E+04 0.  0.
        3    1    3    3  502    0  0.14705288411E+04 -0.39188893097E+03  0.33134262713E+03  0.15575043992E+04  0.10100000352E+00 0. -1.
       -3    1    3    3    0  502 -0.14705288411E+04  0.39188893097E+03 -0.96053860767E+03  0.17996295268E+04  0.10100000352E+00 0.  1.
</event>
<event>
 5   0  0.2713815E-07  0.3259084E+04  0.7818609E-02  0.8173385E-01
        2   -1    0    0  501    0  0.00000000000E+00  0.00000000000E+00  0.23452025148E+04  0.23452025148E+04  0.25500000920E-02 0. -1.
       -2   -1    0    0    0  501  0.00000000000E+00  0.00000000000E+00 -0.11322723087E+04  0.11322723087E+04  0.25500000920E-02 0.  1.
    10030    2    1    2    0    0  0.00000000000E+00  0.00000000000E+00  0.12129302061E+04  0.34774748235E+04  0.32590844517E+04 0.  0.
        4    1    3    3  502    0  0.10007768138E+04  0.11287238114E+04 -0.51140689256E+02  0.15093669721E+04  0.12699999809E+01 0.  1.
       -4    1    3    3    0  502 -0.10007768138E+04 -0.11287238114E+04  0.12640708954E+04  0.19681078514E+04  0.12699999809E+01 0. -1.
</event>
<event>
 5   0  0.2703956E-07  0.3247641E+04  0.7818609E-02  0.8176347E-01
        2   -1    0    0  501    0  0.00000000000E+00  0.00000000000E+00  0.28988779106E+04  0.28988779106E+04  0.25500000920E-02 0. -1.
       -2   -1    0    0    0  501  0.00000000000E+00  0.00000000000E+00 -0.90959078338E+03  0.90959078338E+03  0.25500000920E-02 0.  1.
    10030    2    1    2    0    0  0.00000000000E+00  0.00000000000E+00  0.19892871272E+04  0.38084686940E+04  0.32476407619E+04 0.  0.
        5    1    3    3  502    0  0.76328640684E+03  0.78267401592E+03  0.24026435545E+04  0.26396785589E+04  0.46999998093E+01 0. -1.
       -5    1    3    3    0  502 -0.76328640684E+03 -0.78267401592E+03 -0.41335642726E+03  0.11687901351E+04  0.46999998093E+01 0.  1.
</event>
<event>
 5   0  0.9810351E-08  0.3293618E+04  0.7818609E-02  0.8164521E-01
        1   -1    0    0  501    0  0.00000000000E+00  0.00000000000E+00  0.17775806621E+04  0.17775806621E+04  0.50400001928E-02 0. -1.
       -1   -1    0    0    0  501  0.00000000000E+00  0.00000000000E+00 -0.15256574170E+04  0.15256574170E+04  0.50400001928E-02 0.  1.
    10030    2    1    2    0    0  0.00000000000E+00  0.00000000000E+00  0.25192324504E+03  0.33032380791E+04  0.32936175379E+04 0.  0.
        5    1    3    3  502    0 -0.10777230532E+04  0.62381179324E+03 -0.95483586502E+03  0.15691914325E+04  0.46999998093E+01 0.  1.
       -5    1    3    3    0  502  0.10777230532E+04 -0.62381179324E+03  0.12067591101E+04  0.17340466466E+04  0.46999998093E+01 0. -1.
</event>
<event>
 5   0  0.9283910E-08  0.3298382E+04  0.7818609E-02  0.8163307E-01
       -1   -1    0    0    0  501  0.00000000000E+00  0.00000000000E+00  0.18792456138E+04  0.18792456138E+04  0.50400001928E-02 0.  1.
        1   -1    0    0  501    0  0.00000000000E+00  0.00000000000E+00 -0.14472995228E+04  0.14472995228E+04  0.50400001928E-02 0. -1.
    10030    2    1    2    0    0  0.00000000000E+00  0.00000000000E+00  0.43194609099E+03  0.33265451366E+04  0.32983821974E+04 0.  0.
        3    1    3    3  502    0 -0.12381354274E+04 -0.79496318302E+03  0.96723971159E+03  0.17608232361E+04  0.10100000352E+00 0.  1.
       -3    1    3    3    0  502  0.12381354274E+04  0.79496318302E+03 -0.53529362061E+03  0.15657219004E+04  0.10100000352E+00 0. -1.
</event>
<event>
 5   0  0.2727168E-07  0.3305993E+04  0.7818609E-02  0.8161372E-01
        2   -1    0    0  501    0  0.00000000000E+00  0.00000000000E+00  0.19613770319E+04  0.19613770319E+04  0.25500000920E-02 0. -1.
       -2   -1    0    0    0  501  0.00000000000E+00  0.00000000000E+00 -0.13931015702E+04  0.13931015702E+04  0.25500000920E-02 0.  1.
    10030    2    1    2    0    0  0.00000000000E+00  0.00000000000E+00  0.56827546167E+03  0.33544786021E+04  0.33059929963E+04 0.  0.
        2    1    3    3  502    0  0.11241826892E+04  0.52739270865E+03  0.13912250930E+04  0.18647887406E+04  0.25500000920E-02 0. -1.
       -2    1    3    3    0  502 -0.11241826892E+04 -0.52739270865E+03 -0.82294963135E+03  0.14896898615E+04  0.25500000920E-02 0.  1.
</event>
<event>
 5   0  0.2703956E-07  0.3301537E+04  0.7818609E-02  0.8162505E-01
       -2   -1    0    0    0  501  0.00000000000E+00  0.00000000000E+00  0.15259512689E+04  0.15259512689E+04  0.25500000920E-02 0. -1.
        2   -1    0    0  501    0  0.00000000000E+00  0.00000000000E+00 -0.17857948096E+04  0.17857948096E+04  0.25500000920E-02 0.  1.
    10030    2    1    2    0    0  0.00000000000E+00  0.00000000000E+00 -0.25984354070E+03  0.33117460785E+04  0.33015365245E+04 0.  0.
        5    1    3    3  502    0 -0.17820406276E+03 -0.15925577110E+04  0.26755731612E+03  0.16246863568E+04  0.46999998093E+01 0.  1.
       -5    1    3    3    0  502  0.17820406276E+03  0.15925577110E+04 -0.52740085681E+03  0.16870597217E+04  0.46999998093E+01 0. -1.
</event>
<event>
 5   0  0.2824402E-07  0.3303516E+04  0.7818609E-02  0.8162001E-01
       -2   -1    0    0    0  501  0.00000000000E+00  0.00000000000E+00  0.99211939953E+03  0.99211939954E+03  0.25500000920E-02 0. -1.
        2   -1    0    0  501    0  0.00000000000E+00  0.00000000000E+00 -0.27499755600E+04  0.27499755600E+04  0.25500000920E-02 0.  1.
    10030    2    1    2    0    0  0.00000000000E+00  0.00000000000E+00 -0.17578561604E+04  0.37420949595E+04  0.33035157643E+04 0.  0.
        1    1    3    3  502    0  0.91085018404E+03  0.12888059468E+04 -0.14311248662E+04  0.21304429607E+04  0.50400001928E-02 0.  1.
       -1    1    3    3    0  502 -0.91085018404E+03 -0.12888059468E+04 -0.32673129426E+03  0.16116519987E+04  0.50400001928E-02 0. -1.
</event>
<event>
 5   0  0.2713815E-07  0.3295040E+04  0.7818609E-02  0.8164159E-01
        2   -1    0    0  501    0  0.00000000000E+00  0.00000000000E+00  0.12469686445E+04  0.12469686445E+04  0.25500000920E-02 0.  1.
       -2   -1    0    0    0  501  0.00000000000E+00  0.00000000000E+00 -0.21767370028E+04  0.21767370028E+04  0.25500000920E-02 0. -1.
    10030    2    1    2    0    0  0.00000000000E+00  0.00000000000E+00 -0.92976835834E+03  0.34237056473E+04  0.32950403881E+04 0.  0.
        4    1    3    3  502    0 -0.70592355307E+03 -0.80680265678E+03 -0.17647590015E+04  0.20648570256E+04  0.12699999809E+01 0. -1.
       -4    1    3    3    0  502  0.70592355307E+03  0.80680265678E+03  0.83499064316E+03  0.13588486217E+04  0.12699999809E+01 0.  1.
</event>
<event>
 5   0  0.2703956E-07  0.3295820E+04  0.7818609E-02  0.8163960E-01
        2   -1    0    0  501    0  0.00000000000E+00  0.00000000000E+00  0.22253542352E+04  0.22253542352E+04  0.25500000920E-02 0. -1.
       -2   -1    0    0    0  501  0.00000000000E+00  0.00000000000E+00 -0.12203037156E+04  0.12203037156E+04  0.25500000920E-02 0.  1.
    10030    2    1    2    0    0  0.00000000000E+00  0.00000000000E+00  0.10050505196E+04  0.34456579508E+04  0.32958204088E+04 0.  0.
        5    1    3    3  502    0 -0.11549226945E+04  0.10654849730E+04  0.10215649952E+04  0.18742256501E+04  0.46999998093E+01 0. -1.
       -5    1    3    3    0  502  0.11549226945E+04 -0.10654849730E+04 -0.16514475603E+02  0.15714323008E+04  0.46999998093E+01 0.  1.
</event>
<event>
 5   0  0.2875829E-07  0.3293991E+04  0.7818609E-02  0.8164426E-01
        2   -1    0    0  501    0  0.00000000000E+00  0.00000000000E+00  0.14430720694E+04  0.14430720694E+04  0.25500000920E-02 0.  1.
       -2   -1    0    0    0  501  0.00000000000E+00  0.00000000000E+00 -0.18797361793E+04  0.18797361793E+04  0.25500000920E-02 0. -1.
    10030    2    1    2    0    0  0.00000000000E+00  0.00000000000E+00 -0.43666410991E+03  0.33228082486E+04  0.32939913649E+04 0.  0.
        3    1    3    3  502    0  0.16050807018E+04 -0.18340520523E+03 -0.54156190129E+03  0.17038811084E+04  0.10100000352E+00 0. -1.
       -3    1    3    3    0  502 -0.16050807018E+04  0.18340520523E+03  0.10489779138E+03  0.16189271402E+04  0.10100000352E+00 0.  1.
</event>
<event>
 5   0  0.8805125E-08  0.3295585E+04  0.7818609E-02  0.8164020E-01
       -1   -1    0    0    0  501  0.00000000000E+00  0.00000000000E+00  0.19237090261E+04  0.19237090261E+04  0.50400001928E-02 0.  1.
        1   -1    0    0  501    0  0.00000000000E+00  0.00000000000E+00 -0.14114508256E+04  0.14114508257E+04  0.50400001928E-02 0. -1.
    10030    2    1    2    0    0  0.00000000000E+00  0.00000000000E+00  0.51225820047E+03  0.33351598518E+04  0.32955853460E+04 0.  0.
        4    1    3    3  502    0  0.20783227705E+03  0.48290908870E+03 -0.13242973477E+04  0.14248370157E+04  0.12699999809E+01 0. -1.
       -4    1    3    3    0  502 -0.20783227705E+03 -0.48290908870E+03  0.18365555482E+04  0.19103228360E+04  0.12699999809E+01 0.  1.
</event>
<event>
 5   0  0.2703956E-07  0.3297366E+04  0.7818609E-02  0.8163566E-01
       -2   -1    0    0    0  501  0.00000000000E+00  0.00000000000E+00  0.21510436549E+04  0.21510436549E+04  0.25500000920E-02 0. -1.
        2   -1    0    0  501    0  0.00000000000E+00  0.00000000000E+00 -0.12636449598E+04  0.12636449598E+04  0.25500000920E-02 0.  1.
    10030    2    1    2    0    0  0.00000000000E+00  0.00000000000E+00  0.88739869513E+03  0.34146886146E+04  0.32973659019E+04 0.  0.
        5    1    3    3  502    0  0.92615511554E+02 -0.16417936929E+04  0.32086524125E+03  0.16754225604E+04  0.46999998093E+01 0.  1.
       -5    1    3    3    0  502 -0.92615511554E+02  0.16417936929E+04  0.56653345388E+03  0.17392660542E+04  0.46999998093E+01 0. -1.
</event>
<event>
 5   0  0.9810351E-08  0.3302960E+04  0.7818609E-02  0.8162143E-01
        1   -1    0    0  501    0  0.00000000000E+00  0.00000000000E+00  0.16333394764E+04  0.16333394764E+04  0.50400001928E-02 0.  1.
       -1   -1    0    0    0  501  0.00000000000E+00  0.00000000000E+00 -0.16698222756E+04  0.16698222756E+04  0.50400001928E-02 0. -1.
    10030    2    1    2    0    0  0.00000000000E+00  0.00000000000E+00 -0.36482799265E+02  0.33031617520E+04  0.33029602730E+04 0.  0.
        5    1    3    3  502    0 -0.89534764915E+03 -0.16440833896E+03 -0.13962539836E+04  0.16668007654E+04  0.46999998093E+01 0. -1.
       -5    1    3    3    0  502  0.89534764915E+03  0.16440833896E+03  0.13597711843E+04  0.16363609866E+04  0.46999998093E+01 0.  1.
</event>
<event>
 5   0  0.9810351E-08  0.3305381E+04  0.7818609E-02  0.8161528E-01
       -1   -1    0    0    0  501  0.00000000000E+00  0.00000000000E+00  0.10394815122E+04  0.10394815123E+04  0.50400001928E-02 0.  1.
        1   -1    0    0  501    0  0.00000000000E+00  0.00000000000E+00 -0.26276424707E+04  0.26276424707E+04  0.50400001928E-02 0. -1.
    10030    2    1    2    0    0  0.00000000000E+00  0.00000000000E+00 -0.15881609584E+04  0.36671239829E+04  0.33053809276E+04 0.  0.
        5    1    3    3  502    0 -0.11022509882E+04  0.79882937254E+03  0.24564837464E+03  0.13832753961E+04  0.46999998093E+01 0.  1.
       -5    1    3    3    0  502  0.11022509882E+04 -0.79882937254E+03 -0.18338093330E+04  0.22838485868E+04  0.46999998093E+01 0. -1.
</event>
<event>
 5   0  0.9810351E-08  0.3300308E+04  0.7818609E-02  0.8162817E-01
        1   -1    0    0  501    0  0.00000000000E+00  0.00000000000E+00  0.30427933466E+04  0.30427933466E+04  0.50400001928E-02 0.  1.
       -1   -1    0    0    0  501  0.00000000000E+00  0.00000000000E+00 -0.89490408927E+03  0.89490408928E+03  0.50400001928E-02 0. -1.
    10030    2    1    2    0    0  0.00000000000E+00  0.00000000000E+00  0.21478892573E+04  0.39376974359E+04  0.33003079909E+04 0.  0.
        5    1    3    3  502    0 -0.19652616151E+03 -0.71145634177E+03 -0.68696106138E+03  0.10083304261E+04  0.46999998093E+01 0. -1.
       -5    1    3    3    0  502  0.19652616151E+03  0.71145634177E+03  0.28348503187E+04  0.29293670098E+04  0.46999998093E+01 0.  1.
</event>
<event>
 5   0  0.9181760E-08  0.3270340E+04  0.7818609E-02  0.8170484E-01
       -1   -1    0    0    0  501  0.00000000000E+00  0.00000000000E+00  0.15047562013E+04  0.15047562013E+04  0.50400001928E-02 0.  1.
        1   -1    0    0  501    0  0.00000000000E+00  0.00000000000E+00 -0.17768860931E+04  0.17768860931E+04  0.50400001928E-02 0. -1.
    10030    2    1    2    0    0  0.00000000000E+00  0.00000000000E+00 -0.27212989185E+03  0.32816422944E+04  0.32703396567E+04 0.  0.
        1    1    3    3  502    0 -0.72429975031E+03  0.33134270727E+03  0.12969400255E+04  0.15219893389E+04  0.50400001928E-02 0.  1.
       -1    1    3    3    0  502  0.72429975031E+03 -0.33134270727E+03 -0.15690699174E+04  0.17596529554E+04  0.50400001928E-02 0. -1.
</event>
<event>
 5   0  0.2875829E-07  0.3299675E+04  0.7818609E-02  0.8162978E-01
       -2   -1    0    0    0  501  0.00000000000E+00  0.00000000000E+00  0.11777593967E+04  0.11777593967E+04  0.25500000920E-02 0.  1.
        2   -1    0    0  501    0  0.00000000000E+00  0.00000000000E+00 -0.23111373526E+04  0.23111373526E+04  0.25500000920E-02 0. -1.
    10030    2    1    2    0    0  0.00000000000E+00  0.00000000000E+00 -0.11333779559E+04  0.34888967492E+04  0.32996749743E+04 0.  0.
        3    1    3    3  502    0 -0.49300841654E+03  0.10259223334E+04  0.69611535976E+03  0.13342228214E+04  0.10100000352E+00 0.  1.
       -3    1    3    3    0  502  0.49300841654E+03 -0.10259223334E+04 -0.18294933157E+04  0.21546739278E+04  0.10100000352E+00 0. -1.
</event>
<event>
 5   0  0.9454010E-08  0.3291127E+04  0.7818609E-02  0.8165157E-01
        1   -1    0    0  501    0  0.00000000000E+00  0.00000000000E+00  0.18745758139E+04  0.18745758139E+04  0.50400001928E-02 0.  1.
       -1   -1    0    0    0  501  0.00000000000E+00  0.00000000000E+00 -0.14445292242E+04  0.14445292242E+04  0.50400001928E-02 0. -1.
    10030    2    1    2    0    0  0.00000000000E+00  0.00000000000E+00  0.43004658972E+03  0.33191050381E+04  0.32911271906E+04 0.  0.
        2    1    3    3  502    0  0.12961488583E+04 -0.91959719080E+03 -0.21547634246E+03  0.16037739586E+04  0.25500000920E-02 0. -1.
       -2    1    3    3    0  502 -0.12961488583E+04  0.91959719080E+03  0.64552293218E+03  0.17153310795E+04  0.25500000920E-02 0.  1.
</event>
<event>
 5   0  0.8805125E-08  0.3302664E+04  0.7818609E-02  0.8162218E-01
       -1   -1    0    0    0  501  0.00000000000E+00  0.00000000000E+00  0.10875689357E+04  0.10875689357E+04  0.50400001928E-02 0.  1.
        1   -1    0    0  501    0  0.00000000000E+00  0.00000000000E+00 -0.25073334866E+04  0.25073334866E+04  0.50400001928E-02 0. -1.
    10030    2    1    2    0    0  0.00000000000E+00  0.00000000000E+00 -0.14197645509E+04  0.35949024224E+04  0.33026643860E+04 0.  0.
        4    1    3    3  502    0 -0.10132822654E+04  0.37396445574E+03 -0.20695336233E+04  0.23344295651E+04  0.12699999809E+01 0. -1.
       -4    1    3    3    0  502  0.10132822654E+04 -0.37396445574E+03  0.64976907244E+03  0.12604728573E+04  0.12699999809E+01 0.  1.
</event>
<event>
 5   0  0.2727168E-07  0.3294360E+04  0.7818609E-02  0.8164332E-01
        2   -1    0    0  501    0  0.00000000000E+00  0.00000000000E+00  0.20756551342E+04  0.20756551342E+04  0.25500000920E-02 0. -1.
       -2   -1    0    0    0  501  0.00000000000E+00  0.00000000000E+00 -0.13071545224E+04  0.13071545224E+04  0.25500000920E-02 0.  1.
    10030    2    1    2    0    0  0.00000000000E+00  0.00000000000E+00  0.76850061184E+03  0.33828096566E+04  0.32943600262E+04 0.  0.
        2    1    3    3  502    0  0.22543737482E+03  0.85630225243E+03 -0.10419707655E+04  0.13673984912E+04  0.25500000920E-02 0.  1.
       -2    1    3    3    0  502 -0.22543737482E+03 -0.85630225243E+03  0.18104713773E+04  0.20154111654E+04  0.25500000920E-02 0. -1.
</event>
<event>
 5   0  0.2727168E-07  0.3298591E+04  0.7818609E-02  0.8163254E-01
       -2   -1    0    0    0  501  0.00000000000E+00  0.00000000000E+00  0.21647619153E+04  0.21647619153E+04  0.25500000920E-02 0. -1.
        2   -1    0    0  501    0  0.00000000000E+00  0.00000000000E+00 -0.12565706005E+04  0.12565706005E+04  0.25500000920E-02 0.  1.
    10030    2    1    2    0    0  0.00000000000E+00  0.00000000000E+00  0.90819131485E+03  0.34213325158E+04  0.32985913235E+04 0.  0.
        2    1    3    3  502    0  0.87024128205E+03  0.65404419386E+03 -0.83099163948E+03  0.13695403614E+04  0.25500000920E-02 0.  1.
       -2    1    3    3    0  502 -0.87024128205E+03 -0.65404419386E+03  0.17391829543E+04  0.20517921545E+04  0.25500000920E-02 0. -1.
</event>
<event>
 5   0  0.9181760E-08  0.3303377E+04  0.7818609E-02  0.8162037E-01
       -1   -1    0    0    0  501  0.00000000000E+00  0.00000000000E+00  0.14885973851E+04  0.14885973851E+04  0.50400001928E-02 0. -1.
        1   -1    0    0  501    0  0.00000000000E+00  0.00000000000E+00 -0.18326476413E+04  0.18326476413E+04  0.50400001928E-02 0.  1.
    10030    2    1    2    0    0  0.00000000000E+00  0.00000000000E+00 -0.34405025617E+03  0.33212450263E+04  0.33033767491E+04 0.  0.
        1    1    3    3  502    0 -0.62990906503E+03  0.65722989065E+03 -0.15576444465E+04  0.18041598546E+04  0.50400001928E-02 0.  1.
       -1    1    3    3    0  502  0.62990906503E+03 -0.65722989065E+03  0.12135941903E+04  0.15170851717E+04  0.50400001928E-02 0. -1.
</event>
<event>
 5   0  0.2703956E-07  0.3299002E+04  0.7818609E-02  0.8163149E-01
        2   -1    0    0  501    0  0.00000000000E+00  0.00000000000E+00  0.14418213314E+04  0.14418213314E+04  0.25500000920E-02 0.  1.
       -2   -1    0    0    0  501  0.00000000000E+00  0.00000000000E+00 -0.18870951443E+04  0.18870951443E+04  0.25500000920E-02 0. -1.
    10030    2    1    2    0    0  0.00000000000E+00  0.00000000000E+00 -0.44527381291E+03  0.33289164756E+04  0.32990022936E+04 0.  0.
        5    1    3    3  502    0 -0.62772399072E+03  0.93898457968E+03  0.99038768791E+03  0.15022048169E+04  0.46999998093E+01 0.  1.
       -5    1    3    3    0  502  0.62772399072E+03 -0.93898457968E+03 -0.14356615008E+04  0.18267116588E+04  0.46999998093E+01 0. -1.
</event>
<event>
 5   0  0.9283910E-08  0.3296752E+04  0.7818609E-02  0.8163722E-01
       -1   -1    0    0    0  501  0.00000000000E+00  0.00000000000E+00  0.31654573943E+04  0.31654573943E+04  0.50400001928E-02 0. -1.
        1   -1    0    0  501    0  0.00000000000E+00  0.00000000000E+00 -0.85837302670E+03  0.85837302671E+03  0.50400001928E-02 0.  1.
    10030    2    1    2    0    0  0.00000000000E+00  0.00000000000E+00  0.23070843676E+04  0.40238304210E+04  0.32967518830E+04 0.  0.
        3    1    3    3  502    0 -0.83865995094E+03 -0.13964993020E+04  0.14613091015E+04  0.21883749940E+04  0.10100000352E+00 0. -1.
       -3    1    3    3    0  502  0.83865995094E+03  0.13964993020E+04  0.84577526604E+03  0.18354554270E+04  0.10100000352E+00 0.  1.
</event>
<event>
 5   0  0.2713815E-07  0.3296292E+04  0.7818609E-02  0.8163840E-01
       -2   -1    0    0    0  501  0.00000000000E+00  0.00000000000E+00  0.13558927764E+04  0.13558927764E+04  0.25500000920E-02 0. -1.
        2   -1    0    0  501    0  0.00000000000E+00  0.00000000000E+00 -0.20033918534E+04  0.20033918534E+04  0.25500000920E-02 0.  1.
    10030    2    1    2    0    0  0.00000000000E+00  0.00000000000E+00 -0.64749907698E+03  0.33592846297E+04  0.32962915783E+04 0.  0.
        4    1    3    3  502    0  0.49156004413E+03  0.10455360423E+04  0.87413040393E+03  0.14487520384E+04  0.12699999809E+01 0. -1.
       -4    1    3    3    0  502 -0.49156004413E+03 -0.10455360423E+04 -0.15216294809E+04  0.19105325914E+04  0.12699999809E+01 0.  1.
</event>
<event>
 5   0  0.9454010E-08  0.3285795E+04  0.7818609E-02  0.8166519E-01
       -1   -1    0    0    0  501  0.00000000000E+00  0.00000000000E+00  0.10313833152E+04  0.10313833152E+04  0.50400001928E-02 0.  1.
        1   -1    0    0  501    0  0.00000000000E+00  0.00000000000E+00 -0.26169828332E+04  0.26169828332E+04  0.50400001928E-02 0. -1.
    10030    2    1    2    0    0  0.00000000000E+00  0.00000000000E+00 -0.15855995180E+04  0.36483661484E+04  0.32857951429E+04 0.  0.
        2    1    3    3  502    0 -0.12355594969E+04 -0.81073855014E+03 -0.15897832070E+04  0.21705563601E+04  0.25500000920E-02 0. -1.
       -2    1    3    3    0  502  0.12355594969E+04  0.81073855014E+03  0.41836890047E+01  0.14778097883E+04  0.25500000920E-02 0.  1.
</event>
<event>
 5   0  0.9283910E-08  0.3307241E+04  0.7818609E-02  0.8161055E-01
       -1   -1    0    0    0  501  0.00000000000E+00  0.00000000000E+00  0.19661083349E+04  0.19661083349E+04  0.50400001928E-02 0. -1.
        1   -1    0    0  501    0  0.00000000000E+00  0.00000000000E+00 -0.13907986459E+04  0.13907986459E+04  0.50400001928E-02 0.  1.
    10030    2    1    2    0    0  0.00000000000E+00  0.00000000000E+00  0.57530968904E+03  0.33569069809E+04  0.33072410314E+04 0.  0.
        3    1    3    3  502    0 -0.51597831163E+03 -0.79011923370E+03 -0.10906545257E+04  0.14422376108E+04  0.10100000352E+00 0.  1.
       -3    1    3    3    0  502  0.51597831163E+03  0.79011923370E+03  0.16659642147E+04  0.19146693700E+04  0.10100000352E+00 0. -1.
</event>
<event>
 5   0  0.9181760E-08  0.3298814E+04  0.7818609E-02  0.8163197E-01
       -1   -1    0    0    0  501  0.00000000000E+00  0.00000000000E+00  0.16198474933E+04  0.16198474933E+04  0.50400001928E-02 0. -1.
        1   -1    0    0  501    0  0.00000000000E+00  0.00000000000E+00 -0.16795055476E+04  0.16795055476E+04  0.50400001928E-02 0.  1.
    10030    2    1    2    0    0  0.00000000000E+00  0.00000000000E+00 -0.59658054292E+02  0.32993530408E+04  0.32988136359E+04 0.  0.
        1    1    3    3  502    0 -0.97128877046E+03 -0.80119763645E+03  0.10358137858E+04  0.16304078408E+04  0.50400001928E-02 0. -1.
       -1    1    3    3    0  502  0.97128877046E+03  0.80119763645E+03 -0.10954718401E+04  0.16689452001E+04  0.50400001928E-02 0.  1.
</event>
<event>
 5   0  0.9283910E-08  0.3300738E+04  0.7818609E-02  0.8162708E-01
       -1   -1    0    0    0  501  0.00000000000E+00  0.00000000000E+00  0.12140827353E+04  0.12140827353E+04  0.50400001928E-02 0.  1.
        1   -1    0    0  501    0  0.00000000000E+00  0.00000000000E+00 -0.22434361420E+04  0.22434361420E+04  0.50400001928E-02 0. -1.
    10030    2    1    2    0    0  0.00000000000E+00  0.00000000000E+00 -0.10293534067E+04  0.34575188774E+04  0.33007375466E+04 0.  0.
        3    1    3    3  502    0 -0.12884598619E+04  0.72323280028E+03 -0.12848003995E+04  0.19580364082E+04  0.10100000352E+00 0. -1.
       -3    1    3    3    0  502  0.12884598619E+04 -0.72323280028E+03  0.25544699278E+03  0.14994824692E+04  0.10100000352E+00 0.  1.
</event>
<event>
 5   0  0.2713815E-07  0.3308745E+04  0.7818609E-02  0.8160674E-01
        2   -1    0    0  501    0  0.00000000000E+00  0.00000000000E+00  0.19203550620E+04  0.19203550620E+04  0.25500000920E-02 0. -1.
       -2   -1    0    0    0  501  0.00000000000E+00  0.00000000000E+00 -0.14252306715E+04  0.14252306715E+04  0.25500000920E-02 0.  1.
    10030    2    1    2    0    0  0.00000000000E+00  0.00000000000E+00  0.49512439054E+03  0.33455857335E+04  0.33087453420E+04 0.  0.
        4    1    3    3  502    0  0.15461908114E+04  0.28131573048E+03 -0.27501205399E+03  0.15954553608E+04  0.12699999809E+01 0.  1.
       -4    1    3    3    0  502 -0.15461908114E+04 -0.28131573048E+03  0.77013644453E+03  0.17501303727E+04  0.12699999809E+01 0. -1.
</event>
<event>
 5   0  0.2824402E-07  0.3299399E+04  0.7818609E-02  0.8163048E-01
       -2   -1    0    0    0  501  0.00000000000E+00  0.00000000000E+00  0.81726115167E+03  0.81726115167E+03  0.25500000920E-02 0.  1.
        2   -1    0    0  501    0  0.00000000000E+00  0.00000000000E+00 -0.33300349356E+04  0.33300349356E+04  0.25500000920E-02 0. -1.
    10030    2    1    2    0    0  0.00000000000E+00  0.00000000000E+00 -0.25127737840E+04  0.41472960873E+04  0.32993988462E+04 0.  0.
        1    1    3    3  502    0  0.45230493686E+03  0.52326521203E+03  0.62620709077E+03  0.93301744817E+03  0.50400001928E-02 0.  1.
       -1    1    3    3    0  502 -0.45230493686E+03 -0.52326521203E+03 -0.31389808747E+04  0.32142786391E+04  0.50400001928E-02 0. -1.
</event>
<event>
 5   0  0.9454010E-08  0.3298370E+04  0.7818609E-02  0.8163310E-01
       -1   -1    0    0    0  501  0.00000000000E+00  0.00000000000E+00  0.28304864099E+04  0.28304864099E+04  0.50400001928E-02 0. -1.
        1   -1    0    0  501    0  0.00000000000E+00  0.00000000000E+00 -0.96089878449E+03  0.96089878450E+03  0.50400001928E-02 0.  1.
    10030    2    1    2    0    0  0.00000000000E+00  0.00000000000E+00  0.18695876255E+04  0.37913851944E+04  0.32983698706E+04 0.  0.
        2    1    3    3  502    0 -0.12805227333E+04 -0.10385029143E+04  0.98054480067E+03  0.19182530801E+04  0.25500000920E-02 0. -1.
       -2    1    3    3    0  502  0.12805227333E+04  0.10385029143E+04  0.88904282479E+03  0.18731321143E+04  0.25500000920E-02 0.  1.
</event>
<event>
 5   0  0.9454010E-08  0.3298856E+04  0.7818609E-02  0.8163187E-01
       -1   -1    0    0    0  501  0.00000000000E+00  0.00000000000E+00  0.17880871111E+04  0.17880871111E+04  0.50400001928E-02 0. -1.
        1   -1    0    0  501    0  0.00000000000E+00  0.00000000000E+00 -0.15215213043E+04  0.15215213043E+04  0.50400001928E-02 0.  1.
    10030    2    1    2    0    0  0.00000000000E+00  0.00000000000E+00  0.26656580677E+03  0.33096084154E+04  0.32988559431E+04 0.  0.
        2    1    3    3  502    0  0.73232375331E+02  0.11822506363E+04 -0.10182968648E+04  0.15620525128E+04  0.25500000920E-02 0.  1.
       -2    1    3    3    0  502 -0.73232375331E+02 -0.11822506363E+04  0.12848626716E+04  0.17475559026E+04  0.25500000920E-02 0. -1.
</event>
<event>
 5   0  0.8805125E-08  0.3295988E+04  0.7818609E-02  0.8163917E-01
       -3   -1    0    0    0  501  0.00000000000E+00  0.00000000000E+00  0.18657777650E+04  0.18657777678E+04  0.10100000352E+00 0.  1.
        3   -1    0    0  501    0  0.00000000000E+00  0.00000000000E+00 -0.14556310405E+04  0.14556310440E+04  0.10100000352E+00 0. -1.
    10030    2    1    2    0    0  0.00000000000E+00  0.00000000000E+00  0.41014672449E+03  0.33214088118E+04  0.32959878882E+04 0.  0.
        3    1    3    3  502    0  0.22157755190E+02 -0.80291282909E+03  0.16551729879E+04  0.18397710747E+04  0.10100000352E+00 0.  1.
       -3    1    3    3    0  502 -0.22157755190E+02  0.80291282909E+03 -0.12450262634E+04  0.14816377371E+04  0.10100000352E+00 0. -1.
</event>
<event>
 5   0  0.2713815E-07  0.3278721E+04  0.7818609E-02  0.8168331E-01
       -2   -1    0    0    0  501  0.00000000000E+00  0.00000000000E+00  0.10115755269E+04  0.10115755269E+04  0.25500000920E-02 0.  1.
        2   -1    0    0  501    0  0.00000000000E+00  0.00000000000E+00 -0.26567496099E+04  0.26567496099E+04  0.25500000920E-02 0. -1.
    10030    2    1    2    0    0  0.00000000000E+00  0.00000000000E+00 -0.16451740830E+04  0.36683251368E+04  0.32787210229E+04 0.  0.
        4    1    3    3  502    0 -0.14849919057E+04 -0.15543067445E+03 -0.65295284543E+02  0.14945316128E+04  0.12699999809E+01 0.  1.
       -4    1    3    3    0  502  0.14849919057E+04  0.15543067445E+03 -0.15798787984E+04  0.21737935240E+04  0.12699999809E+01 0. -1.
</event>
<event>
 5   0  0.9283910E-08  0.3301905E+04  0.7818609E-02  0.8162411E-01
       -1   -1    0    0    0  501  0.00000000000E+00  0.00000000000E+00  0.89098007648E+03  0.89098007649E+03  0.50400001928E-02 0. -1.
        1   -1    0    0  501    0  0.00000000000E+00  0.00000000000E+00 -0.30591530622E+04  0.30591530622E+04  0.50400001928E-02 0.  1.
    10030    2    1    2    0    0  0.00000000000E+00  0.00000000000E+00 -0.21681729857E+04  0.39501331387E+04  0.33019051648E+04 0.  0.
        3    1    3    3  502    0 -0.15078291575E+04 -0.51031521661E+03 -0.56033077650E+03  0.16875843617E+04  0.10100000352E+00 0. -1.
       -3    1    3    3    0  502  0.15078291575E+04  0.51031521661E+03 -0.16078422092E+04  0.22625487770E+04  0.10100000352E+00 0.  1.
</event>
<event>
 5   0  0.2713815E-07  0.3320125E+04  0.7818609E-02  0.8157793E-01
        2   -1    0    0  501    0  0.00000000000E+00  0.00000000000E+00  0.17887680562E+04  0.17887680562E+04  0.25500000920E-02 0.  1.
       -2   -1    0    0    0  501  0.00000000000E+00  0.00000000000E+00 -0.15406175659E+04  0.15406175659E+04  0.25500000920E-02 0. -1.
    10030    2    1    2    0    0  0.00000000000E+00  0.00000000000E+00  0.24815049030E+03  0.33293856221E+04  0.33201249908E+04 0.  0.
        4    1    3    3  502    0 -0.35768978924E+03  0.15925416280E+04 -0.17954816379E+03  0.16420627206E+04  0.12699999809E+01 0. -1.
       -4    1    3    3    0  502  0.35768978924E+03 -0.15925416280E+04  0.42769865409E+03  0.16873229015E+04  0.12699999809E+01 0.  1.
</event>
<event>
 5   0  0.9283910E-08  0.3296955E+04  0.7818609E-02  0.8163671E-01
        1   -1    0    0  501    0  0.00000000000E+00  0.00000000000E+00  0.17926525113E+04  0.17926525113E+04  0.50400001928E-02 0. -1.
       -1   -1    0    0    0  501  0.00000000000E+00  0.00000000000E+00 -0.15158978631E+04  0.15158978631E+04  0.50400001928E-02 0.  1.
    10030    2    1    2    0    0  0.00000000000E+00  0.00000000000E+00  0.27675464819E+03  0.33085503744E+04  0.32969550261E+04 0.  0.
        3    1    3    3  502    0  0.58840311570E+03  0.73811155336E+03  0.14945930191E+04  0.17677203384E+04  0.10100000352E+00 0. -1.
       -3    1    3    3    0  502 -0.58840311570E+03 -0.73811155336E+03 -0.12178383709E+04  0.15408300360E+04  0.10100000352E+00 0.  1.
</event>
<event>
 5   0  0.9283910E-08  0.3299396E+04  0.7818609E-02  0.8163049E-01
        1   -1    0    0  501    0  0.00000000000E+00  0.00000000000E+00  0.10627897693E+04  0.10627897693E+04  0.50400001928E-02 0. -1.
       -1   -1    0    0    0  501  0.00000000000E+00  0.00000000000E+00 -0.25607168132E+04  0.25607168132E+04  0.50400001928E-02 0.  1.
    10030    2    1    2    0    0  0.00000000000E+00  0.00000000000E+00 -0.14979270438E+04  0.36235065825E+04  0.32993960849E+04 0.  0.
        3    1    3    3  502    0  0.14056636090E+03 -0.12202383826E+04  0.46047158457E+03  0.13117830242E+04  0.10100000352E+00 0. -1.
       -3    1    3    3    0  502 -0.14056636090E+03  0.12202383826E+04 -0.19583986284E+04  0.23117235583E+04  0.10100000352E+00 0.  1.
</event>
<event>
 5   0  0.2713815E-07  0.3296600E+04  0.7818609E-02  0.8163761E-01
       -2   -1    0    0    0  501  0.00000000000E+00  0.00000000000E+00  0.11085034095E+04  0.11085034095E+04  0.25500000920E-02 0. -1.
        2   -1    0    0  501    0  0.00000000000E+00  0.00000000000E+00 -0.24509564194E+04  0.24509564194E+04  0.25500000920E-02 0.  1.
    10030    2    1    2    0    0  0.00000000000E+00  0.00000000000E+00 -0.13424530098E+04  0.35594598289E+04  0.32966003989E+04 0.  0.
        4    1    3    3  502    0  0.90694234987E+02 -0.15458846277E+04 -0.12809739046E+04  0.20096966148E+04  0.12699999809E+01 0. -1.
       -4    1    3    3    0  502 -0.90694234987E+02  0.15458846277E+04 -0.61479105235E+02  0.15497632141E+04  0.12699999809E+01 0.  1.
</event>
<event>
 5   0  0.2824402E-07  0.3300420E+04  0.7818609E-02  0.8162788E-01
       -2   -1    0    0    0  501  0.00000000000E+00  0.00000000000E+00  0.17965190615E+04  0.17965190615E+04  0.25500000920E-02 0. -1.
        2   -1    0    0  501    0  0.00000000000E+00  0.00000000000E+00 -0.15158165924E+04  0.15158165924E+04  0.25500000920E-02 0.  1.
    10030    2    1    2    0    0  0.00000000000E+00  0.00000000000E+00  0.28070246907E+03  0.33123356539E+04  0.33004202168E+04 0.  0.
        1    1    3    3  502    0  0.96622413988E+03  0.98662169143E+03  0.10470407505E+04  0.17330048424E+04  0.50400001928E-02 0. -1.
       -1    1    3    3    0  502 -0.96622413988E+03 -0.98662169143E+03 -0.76633828143E+03  0.15793308115E+04  0.50400001928E-02 0.  1.
</event>
<event>
 5   0  0.2727168E-07  0.3317691E+04  0.7818609E-02  0.8158408E-01
        2   -1    0    0  501    0  0.00000000000E+00  0.00000000000E+00  0.19810143367E+04  0.19810143367E+04  0.25500000920E-02 0. -1.
       -2   -1    0    0    0  501  0.00000000000E+00  0.00000000000E+00 -0.13890705149E+04  0.13890705149E+04  0.25500000920E-02 0.  1.
    10030    2    1    2    0    0  0.00000000000E+00  0.00000000000E+00  0.59194382179E+03  0.33700848516E+04  0.33176911277E+04 0.  0.
        2    1    3    3  502    0  0.57170388614E+03 -0.13653399388E+04  0.10566437135E+04  0.18186518136E+04  0.25500000920E-02 0. -1.
       -2    1    3    3    0  502 -0.57170388614E+03  0.13653399388E+04 -0.46469989172E+03  0.15514330380E+04  0.25500000920E-02 0.  1.
</event>
<event>
 5   0  0.2713815E-07  0.3278184E+04  0.7818609E-02  0.8168469E-01
        2   -1    0    0  501    0  0.00000000000E+00  0.00000000000E+00  0.22407371100E+04  0.22407371100E+04  0.25500000920E-02 0.  1.
       -2   -1    0    0    0  501  0.00000000000E+00  0.00000000000E+00 -0.11989902656E+04  0.11989902656E+04  0.25500000920E-02 0. -1.
    10030    2    1    2    0    0  0.00000000000E+00  0.00000000000E+00  0.10417468444E+04  0.34397273756E+04  0.32781836329E+04 0.  0.
        4    1    3    3  502    0 -0.86215373064E+03  0.13919006841E+04  0.60163242523E+03  0.17443221484E+04  0.12699999809E+01 0. -1.
       -4    1    3    3    0  502  0.86215373064E+03 -0.13919006841E+04  0.44011441914E+03  0.16954052272E+04  0.12699999809E+01 0.  1.
</event>
<event>
 5   0  0.9181760E-08  0.3306191E+04  0.7818609E-02  0.8161322E-01
        1   -1    0    0  501    0  0.00000000000E+00  0.00000000000E+00  0.11898770434E+04  0.11898770434E+04  0.50400001928E-02 0. -1.
       -1   -1    0    0    0  501  0.00000000000E+00  0.00000000000E+00 -0.22966448369E+04  0.22966448369E+04  0.50400001928E-02 0.  1.
    10030    2    1    2    0    0  0.00000000000E+00  0.00000000000E+00 -0.11067677935E+04  0.34865218803E+04  0.33061911428E+04 0.  0.
        1    1    3    3  502    0 -0.74624734239E+03 -0.11041555970E+04 -0.15848331129E+04  0.20706860395E+04  0.50400001928E-02 0.  1.
       -1    1    3    3    0  502  0.74624734239E+03  0.11041555970E+04  0.47806531941E+03  0.14158358408E+04  0.50400001928E-02 0. -1.
</event>
<event>
 5   0  0.9283910E-08  0.3283702E+04  0.7818609E-02  0.8167055E-01
       -1   -1    0    0    0  501  0.00000000000E+00  0.00000000000E+00  0.17195172099E+04  0.17195172099E+04  0.50400001928E-02 0. -1.
        1   -1    0    0  501    0  0.00000000000E+00  0.00000000000E+00 -0.15676929676E+04  0.15676929676E+04  0.50400001928E-02 0.  1.
    10030    2    1    2    0    0  0.00000000000E+00  0.00000000000E+00  0.15182424229E+03  0.32872101775E+04  0.32837022019E+04 0.  0.
        3    1    3    3  502    0  0.33025468526E+03 -0.11742863624E+04 -0.10241969953E+04  0.15927950632E+04  0.10100000352E+00 0.  1.
       -3    1    3    3    0  502 -0.33025468526E+03  0.11742863624E+04  0.11760212376E+04  0.16944151143E+04  0.10100000352E+00 0. -1.
</event>
<event>
 5   0  0.2727168E-07  0.3292727E+04  0.7818609E-02  0.8164748E-01
        2   -1    0    0  501    0  0.00000000000E+00  0.00000000000E+00  0.33906430401E+04  0.33906430401E+04  0.25500000920E-02 0.  1.
       -2   -1    0    0    0  501  0.00000000000E+00  0.00000000000E+00 -0.79940982990E+03  0.79940982991E+03  0.25500000920E-02 0. -1.
    10030    2    1    2    0    0  0.00000000000E+00  0.00000000000E+00  0.25912332102E+04  0.41900528700E+04  0.32927273655E+04 0.  0.
        2    1    3    3  502    0 -0.29993122744E+03 -0.13491871762E+04  0.24339675987E+04  0.27990110841E+04  0.25500000920E-02 0.  1.
       -2    1    3    3    0  502  0.29993122744E+03  0.13491871762E+04  0.15726561149E+03  0.13910417859E+04  0.25500000920E-02 0. -1.
</event>
<event>
 5   0  0.9454010E-08  0.3306875E+04  0.7818609E-02  0.8161148E-01
        1   -1    0    0  501    0  0.00000000000E+00  0.00000000000E+00  0.17857345663E+04  0.17857345663E+04  0.50400001928E-02 0. -1.
       -1   -1    0    0    0  501  0.00000000000E+00  0.00000000000E+00 -0.15309415584E+04  0.15309415584E+04  0.50400001928E-02 0.  1.
    10030    2    1    2    0    0  0.00000000000E+00  0.00000000000E+00  0.25479300783E+03  0.33166761247E+04  0.33068748146E+04 0.  0.
        2    1    3    3  502    0 -0.53990074090E+03 -0.15542202992E+04 -0.36678434830E+02  0.16457335313E+04  0.25500000920E-02 0. -1.
       -2    1    3    3    0  502  0.53990074090E+03  0.15542202992E+04  0.29147144266E+03  0.16709425934E+04  0.25500000920E-02 0.  1.
</event>
<event>
 5   0  0.8805125E-08  0.3297884E+04  0.7818609E-02  0.8163434E-01
       -1   -1    0    0    0  501  0.00000000000E+00  0.00000000000E+00  0.10954343030E+04  0.10954343030E+04  0.50400001928E-02 0. -1.
        1   -1    0    0  501    0  0.00000000000E+00  0.00000000000E+00 -0.24821299121E+04  0.24821299121E+04  0.50400001928E-02 0.  1.
    10030    2    1    2    0    0  0.00000000000E+00  0.00000000000E+00 -0.13866956091E+04  0.35775642151E+04  0.32978843219E+04 0.  0.
        4    1    3    3  502    0 -0.13012867276E+04  0.26320107546E+03 -0.17542339554E+04  0.21999909856E+04  0.12699999809E+01 0.  1.
       -4    1    3    3    0  502  0.13012867276E+04 -0.26320107546E+03  0.36753834629E+03  0.13775732295E+04  0.12699999809E+01 0. -1.
</event>
<event>
 5   0  0.8805125E-08  0.3301600E+04  0.7818609E-02  0.8162488E-01
       -1   -1    0    0    0  501  0.00000000000E+00  0.00000000000E+00  0.15818332886E+04  0.15818332886E+04  0.50400001928E-02 0.  1.
        1   -1    0    0  501    0  0.00000000000E+00  0.00000000000E+00 -0.17227737934E+04  0.17227737934E+04  0.50400001928E-02 0. -1.
    10030    2    1    2    0    0  0.00000000000E+00  0.00000000000E+00 -0.14094050480E+03  0.33046070820E+04  0.33016001787E+04 0.  0.
        4    1    3    3  502    0  0.11116945690E+04  0.19368581914E+03 -0.12764577610E+04  0.17037385479E+04  0.12699999809E+01 0. -1.
       -4    1    3    3    0  502 -0.11116945690E+04 -0.19368581914E+03  0.11355172562E+04  0.16008685340E+04  0.12699999809E+01 0.  1.
</event>
<event>
 5   0  0.2727168E-07  0.3301845E+04  0.7818609E-02  0.8162426E-01
       -2   -1    0    0    0  501  0.00000000000E+00  0.00000000000E+00  0.14202321218E+04  0.14202321218E+04  0.25500000920E-02 0.  1.
        2   -1    0    0  501    0  0.00000000000E+00  0.00000000000E+00 -0.19190843182E+04  0.19190843182E+04  0.25500000920E-02 0. -1.
    10030    2    1    2    0    0  0.00000000000E+00  0.00000000000E+00 -0.49885219646E+03  0.33393164400E+04  0.33018450558E+04 0.  0.
        2    1    3    3  502    0  0.16310677632E+04 -0.12614007425E+02 -0.50727841204E+03  0.17081781373E+04  0.25500000920E-02 0. -1.
       -2    1    3    3    0  502 -0.16310677632E+04  0.12614007425E+02  0.84262155838E+01  0.16311383027E+04  0.25500000920E-02 0.  1.
</event>
<event>
 5   0  0.9181760E-08  0.3295522E+04  0.7818609E-02  0.8164036E-01
        1   -1    0    0  501    0  0.00000000000E+00  0.00000000000E+00  0.97454935186E+03  0.97454935187E+03  0.50400001928E-02 0.  1.
       -1   -1    0    0    0  501  0.00000000000E+00  0.00000000000E+00 -0.27860231397E+04  0.27860231397E+04  0.50400001928E-02 0. -1.
    10030    2    1    2    0    0  0.00000000000E+00  0.00000000000E+00 -0.18114737878E+04  0.37605724915E+04  0.32955224442E+04 0.  0.
        1    1    3    3  502    0 -0.64174184418E+03 -0.90948468466E+03 -0.22921441614E+04  0.25481208454E+04  0.50400001928E-02 0. -1.
       -1    1    3    3    0  502  0.64174184418E+03  0.90948468466E+03  0.48067037357E+03  0.12124516461E+04  0.50400001928E-02 0.  1.
</event>
<event>
 5   0  0.2727168E-07  0.3318492E+04  0.7818609E-02  0.8158206E-01
       -2   -1    0    0    0  501  0.00000000000E+00  0.00000000000E+00  0.11907272913E+04  0.11907272913E+04  0.25500000920E-02 0. -1.
        2   -1    0    0  501    0  0.00000000000E+00  0.00000000000E+00 -0.23121142450E+04  0.23121142450E+04  0.25500000920E-02 0.  1.
    10030    2    1    2    0    0  0.00000000000E+00  0.00000000000E+00 -0.11213869537E+04  0.35028415363E+04  0.33184921469E+04 0.  0.
        2    1    3    3  502    0  0.11541150218E+04 -0.74627322593E+03 -0.15419552900E+04  0.20655583573E+04  0.25500000920E-02 0.  1.
       -2    1    3    3    0  502 -0.11541150218E+04  0.74627322593E+03  0.42056833628E+03  0.14372831790E+04  0.25500000920E-02 0. -1.
</event>
<event>
 5   0  0.2727168E-07  0.3301542E+04  0.7818609E-02  0.8162503E-01
        2   -1    0    0  501    0  0.00000000000E+00  0.00000000000E+00  0.20135561723E+04  0.20135561723E+04  0.25500000920E-02 0. -1.
       -2   -1    0    0    0  501  0.00000000000E+00  0.00000000000E+00 -0.13533493496E+04  0.13533493496E+04  0.25500000920E-02 0.  1.
    10030    2    1    2    0    0  0.00000000000E+00  0.00000000000E+00  0.66020682273E+03  0.33669055219E+04  0.33015420253E+04 0.  0.
        2    1    3    3  502    0  0.14601545722E+04  0.67092438399E+03 -0.55339756347E+02  0.16078723185E+04  0.25500000920E-02 0.  1.
       -2    1    3    3    0  502 -0.14601545722E+04 -0.67092438399E+03  0.71554657908E+03  0.17590332034E+04  0.25500000920E-02 0. -1.
</event>
<event>
 5   0  0.2727168E-07  0.3309333E+04  0.7818609E-02  0.8160525E-01
        2   -1    0    0  501    0  0.00000000000E+00  0.00000000000E+00  0.20209922474E+04  0.20209922474E+04  0.25500000920E-02 0. -1.
       -2   -1    0    0    0  501  0.00000000000E+00  0.00000000000E+00 -0.13547408755E+04  0.13547408755E+04  0.25500000920E-02 0.  1.
    10030    2    1    2    0    0  0.00000000000E+00  0.00000000000E+00  0.66625137189E+03  0.33757331229E+04  0.33093327464E+04 0.  0.
        2    1    3    3  502    0 -0.16239769121E+04 -0.26259160717E+03  0.15160736956E+03  0.16520412095E+04  0.25500000920E-02 0. -1.
       -2    1    3    3    0  502  0.16239769121E+04  0.26259160717E+03  0.51464400233E+03  0.17236919134E+04  0.25500000920E-02 0.  1.
</event>
<event>
 5   0  0.2824402E-07  0.3297813E+04  0.7818609E-02  0.8163452E-01
       -2   -1    0    0    0  501  0.00000000000E+00  0.00000000000E+00  0.16195856620E+04  0.16195856620E+04  0.25500000920E-02 0. -1.
        2   -1    0    0  501    0  0.00000000000E+00  0.00000000000E+00 -0.16787577062E+04  0.16787577062E+04  0.25500000920E-02 0.  1.
    10030    2    1    2    0    0  0.00000000000E+00  0.00000000000E+00 -0.59172044205E+02  0.32983433683E+04  0.32978125544E+04 0.  0.
        1    1    3    3  502    0  0.76983607583E+03 -0.95487201630E+03 -0.11317905176E+04  0.16689451540E+04  0.50400001928E-02 0.  1.
       -1    1    3    3    0  502 -0.76983607583E+03  0.95487201630E+03  0.10726184734E+04  0.16293982143E+04  0.50400001928E-02 0. -1.
</event>
<event>
 5   0  0.9454010E-08  0.3290416E+04  0.7818609E-02  0.8165338E-01
       -1   -1    0    0    0  501  0.00000000000E+00  0.00000000000E+00  0.11589339951E+04  0.11589339951E+04  0.50400001928E-02 0. -1.
        1   -1    0    0  501    0  0.00000000000E+00  0.00000000000E+00 -0.23355168652E+04  0.23355168652E+04  0.50400001928E-02 0.  1.
    10030    2    1    2    0    0  0.00000000000E+00  0.00000000000E+00 -0.11765828701E+04  0.34944508603E+04  0.32904163209E+04 0.  0.
        2    1    3    3  502    0 -0.11293494640E+04  0.40729562135E+03  0.60635744021E+03  0.13449867213E+04  0.25500000920E-02 0. -1.
       -2    1    3    3    0  502  0.11293494640E+04 -0.40729562135E+03 -0.17829403103E+04  0.21494641391E+04  0.25500000920E-02 0.  1.
</event>
<event>
 5   0  0.2713815E-07  0.3297674E+04  0.7818609E-02  0.8163488E-01
       -2   -1    0    0    0  501  0.00000000000E+00  0.00000000000E+00  0.27377896536E+04  0.27377896536E+04  0.25500000920E-02 0.  1.
        2   -1    0    0  501    0  0.00000000000E+00  0.00000000000E+00 -0.99301376360E+03  0.99301376360E+03  0.25500000920E-02 0. -1.
    10030    2    1    2    0    0  0.00000000000E+00  0.00000000000E+00  0.17447758900E+04  0.37308034172E+04  0.32976736090E+04 0.  0.
        4    1    3    3  502    0 -0.12819301264E+02  0.88348694785E+03 -0.70255824613E+03  0.11288503991E+04  0.12699999809E+01 0. -1.
       -4    1    3    3    0  502  0.12819301264E+02 -0.88348694785E+03  0.24473341361E+04  0.26019530181E+04  0.12699999809E+01 0.  1.
</event>
<event>
 5   0  0.2703956E-07  0.3297076E+04  0.7818609E-02  0.8163640E-01
        2   -1    0    0  501    0  0.00000000000E+00  0.00000000000E+00  0.16671894141E+04  0.16671894141E+04  0.25500000920E-02 0.  1.
       -2   -1    0    0    0  501  0.00000000000E+00  0.00000000000E+00 -0.16300948137E+04  0.16300948137E+04  0.25500000920E-02 0. -1.
    10030    2    1    2    0    0  0.00000000000E+00  0.00000000000E+00  0.37094600340E+02  0.32972842278E+04  0.32970755632E+04 0.  0.
        5    1    3    3  502    0 -0.96958575720E+03 -0.13248354476E+04 -0.13102560898E+03  0.16469594118E+04  0.46999998093E+01 0. -1.
       -5    1    3    3    0  502  0.96958575720E+03  0.13248354476E+04  0.16812020932E+03  0.16503248161E+04  0.46999998093E+01 0.  1.
</event>
<event>
 5   0  0.9810351E-08  0.3299929E+04  0.7818609E-02  0.8162913E-01
        1   -1    0    0  501    0  0.00000000000E+00  0.00000000000E+00  0.19333142580E+04  0.19333142580E+04  0.50400001928E-02 0. -1.
       -1   -1    0    0    0  501  0.00000000000E+00  0.00000000000E+00 -0.14081431145E+04  0.14081431145E+04  0.50400001928E-02 0.  1.
    10030    2    1    2    0    0  0.00000000000E+00  0.00000000000E+00  0.52517114346E+03  0.33414573725E+04  0.32999291875E+04 0.  0.
        5    1    3    3  502    0 -0.69305084009E+03 -0.11254043552E+04  0.12626924628E+04  0.18279137768E+04  0.46999998093E+01 0. -1.
       -5    1    3    3    0  502  0.69305084009E+03  0.11254043552E+04 -0.73752131938E+03  0.15135435957E+04  0.46999998093E+01 0.  1.
</event>
<event>
 5   0  0.2703956E-07  0.3294025E+04  0.7818609E-02  0.8164417E-01
       -2   -1    0    0    0  501  0.00000000000E+00  0.00000000000E+00  0.17176505808E+04  0.17176505808E+04  0.25500000920E-02 0.  1.
        2   -1    0    0  501    0  0.00000000000E+00  0.00000000000E+00 -0.15792792855E+04  0.15792792855E+04  0.25500000920E-02 0. -1.
    10030    2    1    2    0    0  0.00000000000E+00  0.00000000000E+00  0.13837129534E+03  0.32969298663E+04  0.32940248827E+04 0.  0.
        5    1    3    3  502    0 -0.12672222935E+03  0.57734432316E+03 -0.14694543371E+04  0.15838886102E+04  0.46999998093E+01 0. -1.
       -5    1    3    3    0  502  0.12672222935E+03 -0.57734432316E+03  0.16078256324E+04  0.17130412561E+04  0.46999998093E+01 0.  1.
</event>
<event>
 5   0  0.9810351E-08  0.3297853E+04  0.7818609E-02  0.8163442E-01
        1   -1    0    0  501    0  0.00000000000E+00  0.00000000000E+00  0.22383436525E+04  0.22383436525E+04  0.50400001928E-02 0.  1.
       -1   -1    0    0    0  501  0.00000000000E+00  0.00000000000E+00 -0.12147189327E+04  0.12147189327E+04  0.50400001928E-02 0. -1.
    10030    2    1    2    0    0  0.00000000000E+00  0.00000000000E+00  0.10236247198E+04  0.34530625852E+04  0.32978528849E+04 0.  0.
        5    1    3    3  502    0  0.15315758609E+04  0.42303527991E+02 -0.12631453898E+03  0.15373651677E+04  0.46999998093E+01 0. -1.
       -5    1    3    3    0  502 -0.15315758609E+04 -0.42303527991E+02  0.11499392588E+04  0.19156974174E+04  0.46999998093E+01 0.  1.
</event>
<event>
 5   0  0.2703956E-07  0.3303678E+04  0.7818609E-02  0.8161960E-01
        2   -1    0    0  501    0  0.00000000000E+00  0.00000000000E+00  0.24620698047E+04  0.24620698047E+04  0.25500000920E-02 0. -1.
       -2   -1    0    0    0  501  0.00000000000E+00  0.00000000000E+00 -0.11082431738E+04  0.11082431738E+04  0.25500000920E-02 0.  1.
    10030    2    1    2    0    0  0.00000000000E+00  0.00000000000E+00  0.13538266309E+04  0.35703129785E+04  0.33036779833E+04 0.  0.
        5    1    3    3  502    0 -0.60698745654E+03 -0.12450941618E+04 -0.29563833392E+03  0.14163747239E+04  0.46999998093E+01 0.  1.
       -5    1    3    3    0  502  0.60698745654E+03  0.12450941618E+04  0.16494649648E+04  0.21539382545E+04  0.46999998093E+01 0. -1.
</event>
<event>
 5   0  0.2727168E-07  0.3302813E+04  0.7818609E-02  0.8162180E-01
        2   -1    0    0  501    0  0.00000000000E+00  0.00000000000E+00  0.11925824364E+04  0.11925824364E+04  0.25500000920E-02 0. -1.
       -2   -1    0    0    0  501  0.00000000000E+00  0.00000000000E+00 -0.22867542743E+04  0.22867542743E+04  0.25500000920E-02 0.  1.
    10030    2    1    2    0    0  0.00000000000E+00  0.00000000000E+00 -0.10941718379E+04  0.34793367107E+04  0.33028127309E+04 0.  0.
        2    1    3    3  502    0  0.15588061968E+04  0.21884482107E+03 -0.21023386290E+02  0.15742337177E+04  0.25500000920E-02 0. -1.
       -2    1    3    3    0  502 -0.15588061968E+04 -0.21884482107E+03 -0.10731484516E+04  0.19051029931E+04  0.25500000920E-02 0.  1.
</event>
<event>
 5   0  0.9181760E-08  0.3303363E+04  0.7818609E-02  0.8162040E-01
        1   -1    0    0  501    0  0.00000000000E+00  0.00000000000E+00  0.13306430225E+04  0.13306430225E+04  0.50400001928E-02 0.  1.
       -1   -1    0    0    0  501  0.00000000000E+00  0.00000000000E+00 -0.20501756580E+04  0.20501756580E+04  0.50400001928E-02 0. -1.
    10030    2    1    2    0    0  0.00000000000E+00  0.00000000000E+00 -0.71953263543E+03  0.33808186805E+04  0.33033630949E+04 0.  0.
        1    1    3    3  502    0 -0.38303779765E+03  0.16059746196E+04 -0.40754609249E+03  0.17005782107E+04  0.50400001928E-02 0. -1.
       -1    1    3    3    0  502  0.38303779765E+03 -0.16059746196E+04 -0.31198654294E+03  0.16802404698E+04  0.50400001928E-02 0.  1.
</event>
<event>
 5   0  0.9283910E-08  0.3300424E+04  0.7818609E-02  0.8162787E-01
        1   -1    0    0  501    0  0.00000000000E+00  0.00000000000E+00  0.18657328962E+04  0.18657328962E+04  0.50400001928E-02 0.  1.
       -1   -1    0    0    0  501  0.00000000000E+00  0.00000000000E+00 -0.14595873018E+04  0.14595873018E+04  0.50400001928E-02 0. -1.
    10030    2    1    2    0    0  0.00000000000E+00  0.00000000000E+00  0.40614559439E+03  0.33253201980E+04  0.33004242417E+04 0.  0.
        3    1    3    3  502    0 -0.21838926707E+02 -0.16469763538E+04  0.10135590386E+03  0.16502366734E+04  0.10100000352E+00 0. -1.
       -3    1    3    3    0  502  0.21838926707E+02  0.16469763538E+04  0.30478969053E+03  0.16750835246E+04  0.10100000352E+00 0.  1.
</event>
<event>
 5   0  0.2713815E-07  0.3276314E+04  0.7818609E-02  0.8168949E-01
       -2   -1    0    0    0  501  0.00000000000E+00  0.00000000000E+00  0.13556974619E+04  0.13556974619E+04  0.25500000920E-02 0.  1.
        2   -1    0    0  501    0  0.00000000000E+00  0.00000000000E+00 -0.19794672183E+04  0.19794672183E+04  0.25500000920E-02 0. -1.
    10030    2    1    2    0    0  0.00000000000E+00  0.00000000000E+00 -0.62376975636E+03  0.33351646802E+04  0.32763141997E+04 0.  0.
        4    1    3    3  502    0 -0.41638342705E+03 -0.61537026178E+03 -0.17980755983E+04  0.19455418750E+04  0.12699999809E+01 0. -1.
       -4    1    3    3    0  502  0.41638342705E+03  0.61537026178E+03  0.11743058419E+04  0.13896228052E+04  0.12699999809E+01 0.  1.
</event>
<event>
 5   0  0.2713815E-07  0.3291728E+04  0.7818609E-02  0.8165003E-01
        2   -1    0    0  501    0  0.00000000000E+00  0.00000000000E+00  0.21680292276E+04  0.21680292276E+04  0.25500000920E-02 0.  1.
       -2   -1    0    0    0  501  0.00000000000E+00  0.00000000000E+00 -0.12494610589E+04  0.12494610589E+04  0.25500000920E-02 0. -1.
    10030    2    1    2    0    0  0.00000000000E+00  0.00000000000E+00  0.91856816863E+03  0.34174902865E+04  0.32917278712E+04 0.  0.
        4    1    3    3  502    0 -0.69550527290E+03 -0.57210680235E+03 -0.97096713690E+03  0.13243158882E+04  0.12699999809E+01 0. -1.
       -4    1    3    3    0  502  0.69550527290E+03  0.57210680235E+03  0.18895353055E+04  0.20931743983E+04  0.12699999809E+01 0.  1.
</event>
<event>
 5   0  0.2824402E-07  0.3301096E+04  0.7818609E-02  0.8162616E-01
       -2   -1    0    0    0  501  0.00000000000E+00  0.00000000000E+00  0.12669085772E+04  0.12669085772E+04  0.25500000920E-02 0. -1.
        2   -1    0    0  501    0  0.00000000000E+00  0.00000000000E+00 -0.21503597312E+04  0.21503597312E+04  0.25500000920E-02 0.  1.
    10030    2    1    2    0    0  0.00000000000E+00  0.00000000000E+00 -0.88345115407E+03  0.34172683084E+04  0.33010962952E+04 0.  0.
        1    1    3    3  502    0 -0.63014261587E+03  0.14309206517E+04 -0.98919979485E+03  0.18501702251E+04  0.50400001928E-02 0. -1.
       -1    1    3    3    0  502  0.63014261587E+03 -0.14309206517E+04  0.10574864078E+03  0.15670980833E+04  0.50400001928E-02 0.  1.
</event>
<event>
 5   0  0.8805125E-08  0.3301362E+04  0.7818609E-02  0.8162549E-01
        4   -1    0    0  501    0  0.00000000000E+00  0.00000000000E+00  0.20370605479E+04  0.20370609438E+04  0.12699999809E+01 0. -1.
       -4   -1    0    0    0  501  0.00000000000E+00  0.00000000000E+00 -0.13375870314E+04  0.13375876343E+04  0.12699999809E+01 0.  1.
    10030    2    1    2    0    0  0.00000000000E+00  0.00000000000E+00  0.69947351654E+03  0.33746485781E+04  0.33013618138E+04 0.  0.
        3    1    3    3  502    0  0.16351519392E+04  0.68410994448E+01  0.11893976044E+03  0.16394863042E+04  0.10100000352E+00 0.  1.
       -3    1    3    3    0  502 -0.16351519392E+04 -0.68410994448E+01  0.58053375610E+03  0.17351622740E+04  0.10100000352E+00 0. -1.
</event>
<event>
 5   0  0.9283910E-08  0.3298147E+04  0.7818609E-02  0.8163367E-01
        1   -1    0    0  501    0  0.00000000000E+00  0.00000000000E+00  0.18177124037E+04  0.18177124037E+04  0.50400001928E-02 0.  1.
       -1   -1    0    0    0  501  0.00000000000E+00  0.00000000000E+00 -0.14960804254E+04  0.14960804254E+04  0.50400001928E-02 0. -1.
    10030    2    1    2    0    0  0.00000000000E+00  0.00000000000E+00  0.32163197828E+03  0.33137928291E+04  0.32981473261E+04 0.  0.
        3    1    3    3  502    0 -0.54652869631E+03  0.54674953651E+03 -0.13027391435E+04  0.15148458529E+04  0.10100000352E+00 0. -1.
       -3    1    3    3    0  502  0.54652869631E+03 -0.54674953651E+03  0.16243711218E+04  0.17989469762E+04  0.10100000352E+00 0.  1.
</event>
<event>
 5   0  0.9181760E-08  0.3294682E+04  0.7818609E-02  0.8164250E-01
        1   -1    0    0  501    0  0.00000000000E+00  0.00000000000E+00  0.23386612476E+04  0.23386612476E+04  0.50400001928E-02 0.  1.
       -1   -1    0    0    0  501  0.00000000000E+00  0.00000000000E+00 -0.11603784793E+04  0.11603784793E+04  0.50400001928E-02 0. -1.
    10030    2    1    2    0    0  0.00000000000E+00  0.00000000000E+00  0.11782827683E+04  0.34990397269E+04  0.32946818858E+04 0.  0.
        1    1    3    3  502    0 -0.18605436225E+03  0.17133002803E+03  0.23179177521E+04  0.23316759873E+04  0.50400001928E-02 0.  1.
       -1    1    3    3    0  502  0.18605436225E+03 -0.17133002803E+03 -0.11396349838E+04  0.11673637396E+04  0.50400001928E-02 0. -1.
</event>
<event>
 5   0  0.2727168E-07  0.3301806E+04  0.7818609E-02  0.8162436E-01
       -2   -1    0    0    0  501  0.00000000000E+00  0.00000000000E+00  0.10395372825E+04  0.10395372825E+04  0.25500000920E-02 0.  1.
        2   -1    0    0  501    0  0.00000000000E+00  0.00000000000E+00 -0.26218206949E+04  0.26218206949E+04  0.25500000920E-02 0. -1.
    10030    2    1    2    0    0  0.00000000000E+00  0.00000000000E+00 -0.15822834124E+04  0.36613579774E+04  0.33018057850E+04 0.  0.
        2    1    3    3  502    0  0.13850163849E+04 -0.86507106348E+03 -0.52210701616E+03  0.17144136221E+04  0.25500000920E-02 0.  1.
       -2    1    3    3    0  502 -0.13850163849E+04  0.86507106348E+03 -0.10601763963E+04  0.19469443553E+04  0.25500000920E-02 0. -1.
</event>
<event>
 5   0  0.9810351E-08  0.3299700E+04  0.7818609E-02  0.8162972E-01
        1   -1    0    0  501    0  0.00000000000E+00  0.00000000000E+00  0.18809957043E+04  0.18809957043E+04  0.50400001928E-02 0. -1.
       -1   -1    0    0    0  501  0.00000000000E+00  0.00000000000E+00 -0.14471090051E+04  0.14471090051E+04  0.50400001928E-02 0.  1.
    10030    2    1    2    0    0  0.00000000000E+00  0.00000000000E+00  0.43388669917E+03  0.33281047094E+04  0.32997004848E+04 0.  0.
        5    1    3    3  502    0  0.10692683354E+04 -0.27987550711E+02  0.14838875062E+04  0.18292245071E+04  0.46999998093E+01 0. -1.
       -5    1    3    3    0  502 -0.10692683354E+04  0.27987550711E+02 -0.10500008071E+04  0.14988802024E+04  0.46999998093E+01 0.  1.
</event>
<event>
 5   0  0.9283910E-08  0.3311099E+04  0.7818609E-02  0.8160077E-01
       -1   -1    0    0    0  501  0.00000000000E+00  0.00000000000E+00  0.14451831272E+04  0.14451831272E+04  0.50400001928E-02 0. -1.
        1   -1    0    0  501    0  0.00000000000E+00  0.00000000000E+00 -0.18965377504E+04  0.18965377505E+04  0.50400001928E-02 0.  1.
    10030    2    1    2    0    0  0.00000000000E+00  0.00000000000E+00 -0.45135462323E+03  0.33417208777E+04  0.33110991269E+04 0.  0.
        3    1    3    3  502    0 -0.38662986862E+03 -0.11866468761E+04  0.87214673041E+03  0.15225811615E+04  0.10100000352E+00 0. -1.
       -3    1    3    3    0  502  0.38662986862E+03  0.11866468761E+04 -0.13235013536E+04  0.18191397162E+04  0.10100000352E+00 0.  1.
</event>
<event>
 5   0  0.9454010E-08  0.3300039E+04  0.7818609E-02  0.8162886E-01
        1   -1    0    0  501    0  0.00000000000E+00  0.00000000000E+00  0.15119097610E+04  0.15119097610E+04  0.50400001928E-02 0.  1.
       -1   -1    0    0    0  501  0.00000000000E+00  0.00000000000E+00 -0.18007449825E+04  0.18007449826E+04  0.50400001928E-02 0. -1.
    10030    2    1    2    0    0  0.00000000000E+00  0.00000000000E+00 -0.28883522157E+03  0.33126547435E+04  0.33000387368E+04 0.  0.
        2    1    3    3  502    0 -0.55691947971E+03  0.72469454356E+01  0.14146949996E+04  0.15203860585E+04  0.25500000920E-02 0.  1.
       -2    1    3    3    0  502  0.55691947971E+03 -0.72469454356E+01 -0.17035302211E+04  0.17922686850E+04  0.25500000920E-02 0. -1.
</event>
<event>
 5   0  0.2727168E-07  0.3314466E+04  0.7818609E-02  0.8159224E-01
       -2   -1    0    0    0  501  0.00000000000E+00  0.00000000000E+00  0.27583157406E+04  0.27583157406E+04  0.25500000920E-02 0. -1.
        2   -1    0    0  501    0  0.00000000000E+00  0.00000000000E+00 -0.99568774912E+03  0.99568774912E+03  0.25500000920E-02 0.  1.
    10030    2    1    2    0    0  0.00000000000E+00  0.00000000000E+00  0.17626279914E+04  0.37540034897E+04  0.33144659848E+04 0.  0.
        2    1    3    3  502    0 -0.19587522022E+03 -0.96551976338E+02 -0.97932007537E+03  0.10033729098E+04  0.25500000920E-02 0.  1.
       -2    1    3    3    0  502  0.19587522022E+03  0.96551976338E+02  0.27419480668E+04  0.27506305799E+04  0.25500000920E-02 0. -1.
</event>
<event>
 5   0  0.2875829E-07  0.3296937E+04  0.7818609E-02  0.8163675E-01
        2   -1    0    0  501    0  0.00000000000E+00  0.00000000000E+00  0.22194042995E+04  0.22194042995E+04  0.25500000920E-02 0.  1.
       -2   -1    0    0    0  501  0.00000000000E+00  0.00000000000E+00 -0.12244042187E+04  0.12244042187E+04  0.25500000920E-02 0. -1.
    10030    2    1    2    0    0  0.00000000000E+00  0.00000000000E+00  0.99500008080E+03  0.34438085182E+04  0.32969367524E+04 0.  0.
        3    1    3    3  502    0  0.14481373808E+04  0.45257566898E+03 -0.17582545732E+03  0.15273641384E+04  0.10100000352E+00 0. -1.
       -3    1    3    3    0  502 -0.14481373808E+04 -0.45257566898E+03  0.11708255381E+04  0.19164443797E+04  0.10100000352E+00 0.  1.
</event>
<event>
 5   0  0.9810351E-08  0.3300288E+04  0.7818609E-02  0.8162822E-01
       -1   -1    0    0    0  501  0.00000000000E+00  0.00000000000E+00  0.12440291597E+04  0.12440291597E+04  0.50400001928E-02 0.  1.
        1   -1    0    0  501    0  0.00000000000E+00  0.00000000000E+00 -0.21888360662E+04  0.21888360662E+04  0.50400001928E-02 0. -1.
    10030    2    1    2    0    0  0.00000000000E+00  0.00000000000E+00 -0.94480690648E+03  0.34328652259E+04  0.33002884069E+04 0.  0.
        5    1    3    3  502    0 -0.60606156314E+03  0.59326138564E+03  0.99997511345E+03  0.13111986911E+04  0.46999998093E+01 0.  1.
       -5    1    3    3    0  502  0.60606156314E+03 -0.59326138564E+03 -0.19447820199E+04  0.21216665348E+04  0.46999998093E+01 0. -1.
</event>
<event>
 5   0  0.9181760E-08  0.3295760E+04  0.7818609E-02  0.8163975E-01
        1   -1    0    0  501    0  0.00000000000E+00  0.00000000000E+00  0.14519298001E+04  0.14519298001E+04  0.50400001928E-02 0. -1.
       -1   -1    0    0    0  501  0.00000000000E+00  0.00000000000E+00 -0.18702754891E+04  0.18702754891E+04  0.50400001928E-02 0.  1.
    10030    2    1    2    0    0  0.00000000000E+00  0.00000000000E+00 -0.41834568901E+03  0.33222052893E+04  0.32957601352E+04 0.  0.
        1    1    3    3  502    0  0.19279610050E+03  0.14233886244E+04 -0.10233063438E+04  0.17636216674E+04  0.50400001928E-02 0.  1.
       -1    1    3    3    0  502 -0.19279610050E+03 -0.14233886244E+04  0.60496065481E+03  0.15585836219E+04  0.50400001928E-02 0. -1.
</event>
<event>
 5   0  0.9810351E-08  0.3246285E+04  0.7818609E-02  0.8176699E-01
        1   -1    0    0  501    0  0.00000000000E+00  0.00000000000E+00  0.23205431468E+04  0.23205431468E+04  0.50400001928E-02 0. -1.
       -1   -1    0    0    0  501  0.00000000000E+00  0.00000000000E+00 -0.11353341018E+04  0.11353341018E+04  0.50400001928E-02 0.  1.
    10030    2    1    2    0    0  0.00000000000E+00  0.00000000000E+00  0.11852090450E+04  0.34558772486E+04  0.32462851195E+04 0.  0.
        5    1    3    3  502    0 -0.25675684203E+03  0.72701876932E+02  0.22970238569E+04  0.23124770978E+04  0.46999998093E+01 0. -1.
       -5    1    3    3    0  502  0.25675684203E+03 -0.72701876932E+02 -0.11118148119E+04  0.11434001507E+04  0.46999998093E+01 0.  1.
</event>
<event>
 5   0  0.2703956E-07  0.3302724E+04  0.7818609E-02  0.8162203E-01
       -2   -1    0    0    0  501  0.00000000000E+00  0.00000000000E+00  0.97207620393E+03  0.97207620394E+03  0.25500000920E-02 0.  1.
        2   -1    0    0  501    0  0.00000000000E+00  0.00000000000E+00 -0.28053323806E+04  0.28053323806E+04  0.25500000920E-02 0. -1.
    10030    2    1    2    0    0  0.00000000000E+00  0.00000000000E+00 -0.18332561766E+04  0.37774085845E+04  0.33027242400E+04 0.  0.
        5    1    3    3  502    0  0.14156637361E+04  0.84196471455E+03 -0.10517928160E+04  0.19543025897E+04  0.46999998093E+01 0. -1.
       -5    1    3    3    0  502 -0.14156637361E+04 -0.84196471455E+03 -0.78146336069E+03  0.18231059948E+04  0.46999998093E+01 0.  1.
</event>
<event>
 5   0  0.2727168E-07  0.3329196E+04  0.7818609E-02  0.8155506E-01
       -2   -1    0    0    0  501  0.00000000000E+00  0.00000000000E+00  0.19610614272E+04  0.19610614272E+04  0.25500000920E-02 0.  1.
        2   -1    0    0  501    0  0.00000000000E+00  0.00000000000E+00 -0.14129525828E+04  0.14129525828E+04  0.25500000920E-02 0. -1.
    10030    2    1    2    0    0  0.00000000000E+00  0.00000000000E+00  0.54810884435E+03  0.33740140100E+04  0.33291961845E+04 0.  0.
        2    1    3    3  502    0  0.51166712604E+03  0.15098806833E+04 -0.21129115243E+03  0.16081625778E+04  0.25500000920E-02 0.  1.
       -2    1    3    3    0  502 -0.51166712604E+03 -0.15098806833E+04  0.75939999678E+03  0.17658514322E+04  0.25500000920E-02 0. -1.
</event>
<event>
 5   0  0.2727168E-07  0.3295862E+04  0.7818609E-02  0.8163949E-01
        2   -1    0    0  501    0  0.00000000000E+00  0.00000000000E+00  0.12367157334E+04  0.12367157334E+04  0.25500000920E-02 0. -1.
       -2   -1    0    0    0  501  0.00000000000E+00  0.00000000000E+00 -0.21958777172E+04  0.21958777172E+04  0.25500000920E-02 0.  1.
    10030    2    1    2    0    0  0.00000000000E+00  0.00000000000E+00 -0.95916198379E+03  0.34325934507E+04  0.32958619641E+04 0.  0.
        2    1    3    3  502    0 -0.64628814163E+03 -0.10814180734E+03 -0.20543590201E+04  0.21563334612E+04  0.25500000920E-02 0.  1.
       -2    1    3    3    0  502  0.64628814163E+03  0.10814180734E+03  0.10951970363E+04  0.12762599895E+04  0.25500000920E-02 0. -1.
</event>
<event>
 5   0  0.2703956E-07  0.3298596E+04  0.7818609E-02  0.8163253E-01
        2   -1    0    0  501    0  0.00000000000E+00  0.00000000000E+00  0.19864919320E+04  0.19864919320E+04  0.25500000920E-02 0.  1.
       -2   -1    0    0    0  501  0.00000000000E+00  0.00000000000E+00 -0.13693403743E+04  0.13693403743E+04  0.25500000920E-02 0. -1.
    10030    2    1    2    0    0  0.00000000000E+00  0.00000000000E+00  0.61715155769E+03  0.33558323064E+04  0.32985958260E+04 0.  0.
        5    1    3    3  502    0  0.78902133125E+03  0.10830647923E+04 -0.66965834492E+03  0.14980148178E+04  0.46999998093E+01 0. -1.
       -5    1    3    3    0  502 -0.78902133125E+03 -0.10830647923E+04  0.12868099026E+04  0.18578174886E+04  0.46999998093E+01 0.  1.
</event>
<event>
 5   0  0.2824402E-07  0.3299551E+04  0.7818609E-02  0.8163010E-01
       -2   -1    0    0    0  501  0.00000000000E+00  0.00000000000E+00  0.18037251819E+04  0.18037251819E+04  0.25500000920E-02 0.  1.
        2   -1    0    0  501    0  0.00000000000E+00  0.00000000000E+00 -0.15089651164E+04  0.15089651164E+04  0.25500000920E-02 0. -1.
    10030    2    1    2    0    0  0.00000000000E+00  0.00000000000E+00  0.29476006554E+03  0.33126902983E+04  0.32995505021E+04 0.  0.
        1    1    3    3  502    0 -0.44978104700E+03 -0.79617527486E+03  0.15260054179E+04  0.17790139386E+04  0.50400001928E-02 0.  1.
       -1    1    3    3    0  502  0.44978104700E+03  0.79617527486E+03 -0.12312453523E+04  0.15336763597E+04  0.50400001928E-02 0. -1.
</event>
<event>
 5   0  0.2727168E-07  0.3298776E+04  0.7818609E-02  0.8163207E-01
       -2   -1    0    0    0  501  0.00000000000E+00  0.00000000000E+00  0.13762706798E+04  0.13762706798E+04  0.25500000920E-02 0. -1.
        2   -1    0    0  501    0  0.00000000000E+00  0.00000000000E+00 -0.19767043196E+04  0.19767043196E+04  0.25500000920E-02 0.  1.
    10030    2    1    2    0    0  0.00000000000E+00  0.00000000000E+00 -0.60043363974E+03  0.33529749994E+04  0.32987756503E+04 0.  0.
        2    1    3    3  502    0 -0.14131227324E+04 -0.74838720036E+03  0.11075410440E+03  0.16028929253E+04  0.25500000920E-02 0. -1.
       -2    1    3    3    0  502  0.14131227324E+04  0.74838720036E+03 -0.71118774415E+03  0.17500820740E+04  0.25500000920E-02 0.  1.
</event>
<event>
 5   0  0.2824402E-07  0.3300297E+04  0.7818609E-02  0.8162820E-01
        2   -1    0    0  501    0  0.00000000000E+00  0.00000000000E+00  0.20632529891E+04  0.20632529891E+04  0.25500000920E-02 0. -1.
       -2   -1    0    0    0  501  0.00000000000E+00  0.00000000000E+00 -0.13197559308E+04  0.13197559308E+04  0.25500000920E-02 0.  1.
    10030    2    1    2    0    0  0.00000000000E+00  0.00000000000E+00  0.74349705827E+03  0.33830089199E+04  0.33002971800E+04 0.  0.
        1    1    3    3  502    0  0.99423483349E+03  0.12597506100E+04 -0.21955138478E+02  0.16049786701E+04  0.50400001928E-02 0.  1.
       -1    1    3    3    0  502 -0.99423483349E+03 -0.12597506100E+04  0.76545219675E+03  0.17780302497E+04  0.50400001928E-02 0. -1.
</event>
<event>
 5   0  0.8805125E-08  0.3299416E+04  0.7818609E-02  0.8163044E-01
        1   -1    0    0  501    0  0.00000000000E+00  0.00000000000E+00  0.13588015811E+04  0.13588015811E+04  0.50400001928E-02 0. -1.
       -1   -1    0    0    0  501  0.00000000000E+00  0.00000000000E+00 -0.20028952984E+04  0.20028952985E+04  0.50400001928E-02 0.  1.
    10030    2    1    2    0    0  0.00000000000E+00  0.00000000000E+00 -0.64409371739E+03  0.33616968795E+04  0.32994164928E+04 0.  0.
        4    1    3    3  502    0 -0.13203234280E+04 -0.71590752682E+03 -0.10173939443E+04  0.18140754097E+04  0.12699999809E+01 0.  1.
       -4    1    3    3    0  502  0.13203234280E+04  0.71590752682E+03  0.37330022694E+03  0.15476214698E+04  0.12699999809E+01 0. -1.
</event>
<event>
 5   0  0.9181760E-08  0.3297417E+04  0.7818609E-02  0.8163553E-01
        1   -1    0    0  501    0  0.00000000000E+00  0.00000000000E+00  0.12350831703E+04  0.12350831703E+04  0.50400001928E-02 0. -1.
       -1   -1    0    0    0  501  0.00000000000E+00  0.00000000000E+00 -0.22008549925E+04  0.22008549925E+04  0.50400001928E-02 0.  1.
    10030    2    1    2    0    0  0.00000000000E+00  0.00000000000E+00 -0.96577182220E+03  0.34359381628E+04  0.32974165411E+04 0.  0.
        1    1    3    3  502    0  0.11856856172E+04 -0.72650284688E+03  0.44009081564E+03  0.14585392334E+04  0.50400001928E-02 0. -1.
       -1    1    3    3    0  502 -0.11856856172E+04  0.72650284688E+03 -0.14058626378E+04  0.19773989294E+04  0.50400001928E-02 0.  1.
</event>
<event>
 5   0  0.8805125E-08  0.3287307E+04  0.7818609E-02  0.8166133E-01
        1   -1    0    0  501    0  0.00000000000E+00  0.00000000000E+00  0.23350955474E+04  0.23350955474E+04  0.50400001928E-02 0. -1.
       -1   -1    0    0    0  501  0.00000000000E+00  0.00000000000E+00 -0.11569531792E+04  0.11569531792E+04  0.50400001928E-02 0.  1.
    10030    2    1    2    0    0  0.00000000000E+00  0.00000000000E+00  0.11781423682E+04  0.34920487266E+04  0.32873066284E+04 0.  0.
        4    1    3    3  502    0 -0.14373351590E+03  0.14948213412E+04 -0.12070886570E+03  0.15065597927E+04  0.12699999809E+01 0.  1.
       -4    1    3    3    0  502  0.14373351590E+03 -0.14948213412E+04  0.12988512339E+04  0.19854889339E+04  0.12699999809E+01 0. -1.
</event>
<event>
 5   0  0.2713815E-07  0.3314167E+04  0.7818609E-02  0.8159300E-01
        2   -1    0    0  501    0  0.00000000000E+00  0.00000000000E+00  0.21003581456E+04  0.21003581456E+04  0.25500000920E-02 0. -1.
       -2   -1    0    0    0  501  0.00000000000E+00  0.00000000000E+00 -0.13073605759E+04  0.13073605759E+04  0.25500000920E-02 0.  1.
    10030    2    1    2    0    0  0.00000000000E+00  0.00000000000E+00  0.79299756977E+03  0.34077187215E+04  0.33141668243E+04 0.  0.
        4    1    3    3  502    0  0.57646595911E+03 -0.66631990423E+03  0.18395493396E+04  0.20396662968E+04  0.12699999809E+01 0. -1.
       -4    1    3    3    0  502 -0.57646595911E+03  0.66631990423E+03 -0.10465517698E+04  0.13680524247E+04  0.12699999809E+01 0.  1.
</event>
<event>
 5   0  0.9810351E-08  0.3303412E+04  0.7818609E-02  0.8162028E-01
        1   -1    0    0  501    0  0.00000000000E+00  0.00000000000E+00  0.95909262341E+03  0.95909262342E+03  0.50400001928E-02 0. -1.
       -1   -1    0    0    0  501  0.00000000000E+00  0.00000000000E+00 -0.28444934329E+04  0.28444934329E+04  0.50400001928E-02 0.  1.
    10030    2    1    2    0    0  0.00000000000E+00  0.00000000000E+00 -0.18854008095E+04  0.38035860563E+04  0.33034119748E+04 0.  0.
        5    1    3    3  502    0 -0.37586263312E+03 -0.14607372392E+03  0.90153580645E+03  0.98762298075E+03  0.46999998093E+01 0. -1.
       -5    1    3    3    0  502  0.37586263312E+03  0.14607372392E+03 -0.27869366159E+04  0.28159630755E+04  0.46999998093E+01 0.  1.
</event>
<event>
 5   0  0.9454010E-08  0.3298282E+04  0.7818609E-02  0.8163333E-01
       -1   -1    0    0    0  501  0.00000000000E+00  0.00000000000E+00  0.82165943364E+03  0.82165943366E+03  0.50400001928E-02 0. -1.
        1   -1    0    0  501    0  0.00000000000E+00  0.00000000000E+00 -0.33099682365E+04  0.33099682365E+04  0.50400001928E-02 0.  1.
    10030    2    1    2    0    0  0.00000000000E+00  0.00000000000E+00 -0.24883088029E+04  0.41316276702E+04  0.32982823570E+04 0.  0.
        2    1    3    3  502    0  0.14285808463E+04 -0.46349690074E+03 -0.39087839230E+03  0.15519209158E+04  0.25500000920E-02 0. -1.
       -2    1    3    3    0  502 -0.14285808463E+04  0.46349690074E+03 -0.20974304106E+04  0.25797067544E+04  0.25500000920E-02 0.  1.
</event>
<event>
 5   0  0.8805125E-08  0.3300815E+04  0.7818609E-02  0.8162688E-01
        1   -1    0    0  501    0  0.00000000000E+00  0.00000000000E+00  0.10784210465E+04  0.10784210465E+04  0.50400001928E-02 0. -1.
       -1   -1    0    0    0  501  0.00000000000E+00  0.00000000000E+00 -0.25257709877E+04  0.25257709877E+04  0.50400001928E-02 0.  1.
    10030    2    1    2    0    0  0.00000000000E+00  0.00000000000E+00 -0.14473499412E+04  0.36041920343E+04  0.33008148036E+04 0.  0.
        4    1    3    3  502    0 -0.10972703764E+02  0.92740193406E+03 -0.22143011175E+04  0.24006927749E+04  0.12699999809E+01 0.  1.
       -4    1    3    3    0  502  0.10972703764E+02 -0.92740193406E+03  0.76695117633E+03  0.12034992594E+04  0.12699999809E+01 0. -1.
</event>
<event>
 5   0  0.9181760E-08  0.3300976E+04  0.7818609E-02  0.8162647E-01
        1   -1    0    0  501    0  0.00000000000E+00  0.00000000000E+00  0.17711181258E+04  0.17711181258E+04  0.50400001928E-02 0.  1.
       -1   -1    0    0    0  501  0.00000000000E+00  0.00000000000E+00 -0.15380742956E+04  0.15380742956E+04  0.50400001928E-02 0. -1.
    10030    2    1    2    0    0  0.00000000000E+00  0.00000000000E+00  0.23304383023E+03  0.33091924215E+04  0.33009763791E+04 0.  0.
        1    1    3    3  502    0 -0.28632845557E+03  0.16241837901E+04  0.18113616255E+03  0.16591465511E+04  0.50400001928E-02 0.  1.
       -1    1    3    3    0  502  0.28632845557E+03 -0.16241837901E+04  0.51907667677E+02  0.16500458704E+04  0.50400001928E-02 0. -1.
</event>
<event>
 5   0  0.2875829E-07  0.3312646E+04  0.7818609E-02  0.8159685E-01
       -2   -1    0    0    0  501  0.00000000000E+00  0.00000000000E+00  0.12443513417E+04  0.12443513417E+04  0.25500000920E-02 0. -1.
        2   -1    0    0  501    0  0.00000000000E+00  0.00000000000E+00 -0.22046877407E+04  0.22046877407E+04  0.25500000920E-02 0.  1.
    10030    2    1    2    0    0  0.00000000000E+00  0.00000000000E+00 -0.96033639901E+03  0.34490390824E+04  0.33126461617E+04 0.  0.
        3    1    3    3  502    0 -0.41074192428E+03 -0.66959719194E+03  0.10380671356E+04  0.13017882762E+04  0.10100000352E+00 0. -1.
       -3    1    3    3    0  502  0.41074192428E+03  0.66959719194E+03 -0.19984035346E+04  0.21472508063E+04  0.10100000352E+00 0.  1.
</event>
<event>
 5   0  0.9454010E-08  0.3291994E+04  0.7818609E-02  0.8164935E-01
       -1   -1    0    0    0  501  0.00000000000E+00  0.00000000000E+00  0.11686031068E+04  0.11686031068E+04  0.50400001928E-02 0. -1.
        1   -1    0    0  501    0  0.00000000000E+00  0.00000000000E+00 -0.23184146996E+04  0.23184146996E+04  0.50400001928E-02 0.  1.
    10030    2    1    2    0    0  0.00000000000E+00  0.00000000000E+00 -0.11498115928E+04  0.34870178063E+04  0.32919943018E+04 0.  0.
        2    1    3    3  502    0  0.97675374706E+03  0.78229340544E+03  0.55767863959E+03  0.13700497508E+04  0.25500000920E-02 0. -1.
       -2    1    3    3    0  502 -0.97675374706E+03 -0.78229340544E+03 -0.17074902324E+04  0.21169680556E+04  0.25500000920E-02 0.  1.
</event>
<event>
 5   0  0.2875829E-07  0.3339769E+04  0.7818609E-02  0.8152849E-01
        2   -1    0    0  501    0  0.00000000000E+00  0.00000000000E+00  0.21026014108E+04  0.21026014108E+04  0.25500000920E-02 0.  1.
       -2   -1    0    0    0  501  0.00000000000E+00  0.00000000000E+00 -0.13262211000E+04  0.13262211000E+04  0.25500000920E-02 0. -1.
    10030    2    1    2    0    0  0.00000000000E+00  0.00000000000E+00  0.77638031081E+03  0.34288225108E+04  0.33397690674E+04 0.  0.
        3    1    3    3  502    0  0.15875967445E+04  0.74122660280E+02 -0.13787575999E+03  0.15952953730E+04  0.10100000352E+00 0. -1.
       -3    1    3    3    0  502 -0.15875967445E+04 -0.74122660280E+02  0.91425607080E+03  0.18335271378E+04  0.10100000352E+00 0.  1.
</event>
<event>
 5   0  0.8805125E-08  0.3295937E+04  0.7818609E-02  0.8163930E-01
        3   -1    0    0  501    0  0.00000000000E+00  0.00000000000E+00  0.35618399623E+04  0.35618399637E+04  0.10100000352E+00 0. -1.
       -3   -1    0    0    0  501  0.00000000000E+00  0.00000000000E+00 -0.76247110544E+03  0.76247111213E+03  0.10100000352E+00 0.  1.
    10030    2    1    2    0    0  0.00000000000E+00  0.00000000000E+00  0.27993688568E+04  0.43243110758E+04  0.32959369357E+04 0.  0.
        2    1    3    3  502    0  0.10945547451E+04 -0.10123288639E+04  0.47852420546E+03  0.15658369116E+04  0.25500000920E-02 0.  1.
       -2    1    3    3    0  502 -0.10945547451E+04  0.10123288639E+04  0.23208446514E+04  0.27584741642E+04  0.25500000920E-02 0. -1.
</event>
<event>
 5   0  0.2875829E-07  0.3295430E+04  0.7818609E-02  0.8164059E-01
        2   -1    0    0  501    0  0.00000000000E+00  0.00000000000E+00  0.14924541844E+04  0.14924541844E+04  0.25500000920E-02 0. -1.
       -2   -1    0    0    0  501  0.00000000000E+00  0.00000000000E+00 -0.18191275947E+04  0.18191275947E+04  0.25500000920E-02 0.  1.
    10030    2    1    2    0    0  0.00000000000E+00  0.00000000000E+00 -0.32667341024E+03  0.33115817791E+04  0.32954299208E+04 0.  0.
        3    1    3    3  502    0  0.52237381607E+03 -0.11014513257E+04  0.95065208242E+03  0.15459006497E+04  0.10100000352E+00 0. -1.
       -3    1    3    3    0  502 -0.52237381607E+03  0.11014513257E+04 -0.12773254927E+04  0.17656811295E+04  0.10100000352E+00 0.  1.
</event>
<event>
 5   0  0.9283910E-08  0.3309721E+04  0.7818609E-02  0.8160426E-01
       -1   -1    0    0    0  501  0.00000000000E+00  0.00000000000E+00  0.18529466470E+04  0.18529466470E+04  0.50400001928E-02 0. -1.
        1   -1    0    0  501    0  0.00000000000E+00  0.00000000000E+00 -0.14779502991E+04  0.14779502991E+04  0.50400001928E-02 0.  1.
    10030    2    1    2    0    0  0.00000000000E+00  0.00000000000E+00  0.37499634786E+03  0.33308969461E+04  0.33097208650E+04 0.  0.
        3    1    3    3  502    0  0.75288272385E+03 -0.14086101836E+04 -0.24834077859E+03  0.16163812043E+04  0.10100000352E+00 0. -1.
       -3    1    3    3    0  502 -0.75288272385E+03  0.14086101836E+04  0.62333712644E+03  0.17145157417E+04  0.10100000352E+00 0.  1.
</event>
<event>
 5   0  0.9810351E-08  0.3298995E+04  0.7818609E-02  0.8163151E-01
       -1   -1    0    0    0  501  0.00000000000E+00  0.00000000000E+00  0.12876783666E+04  0.12876783666E+04  0.50400001928E-02 0.  1.
        1   -1    0    0  501    0  0.00000000000E+00  0.00000000000E+00 -0.21129828309E+04  0.21129828309E+04  0.50400001928E-02 0. -1.
    10030    2    1    2    0    0  0.00000000000E+00  0.00000000000E+00 -0.82530446432E+03  0.34006611975E+04  0.32989951684E+04 0.  0.
        5    1    3    3  502    0 -0.14795880646E+04  0.72179080136E+03 -0.51906826984E+03  0.17261566443E+04  0.46999998093E+01 0. -1.
       -5    1    3    3    0  502  0.14795880646E+04 -0.72179080136E+03 -0.30623619448E+03  0.16745045532E+04  0.46999998093E+01 0.  1.
</event>
<event>
 5   0  0.2703956E-07  0.3308839E+04  0.7818609E-02  0.8160650E-01
        2   -1    0    0  501    0  0.00000000000E+00  0.00000000000E+00  0.25068233493E+04  0.25068233493E+04  0.25500000920E-02 0.  1.
       -2   -1    0    0    0  501  0.00000000000E+00  0.00000000000E+00 -0.10918612736E+04  0.10918612736E+04  0.25500000920E-02 0. -1.
    10030    2    1    2    0    0  0.00000000000E+00  0.00000000000E+00  0.14149620757E+04  0.35986846229E+04  0.33088386693E+04 0.  0.
        5    1    3    3  502    0 -0.78341845522E+03  0.38747935761E+03  0.22352348132E+04  0.24000378099E+04  0.46999998093E+01 0.  1.
       -5    1    3    3    0  502  0.78341845522E+03 -0.38747935761E+03 -0.82027273750E+03  0.11986468130E+04  0.46999998093E+01 0. -1.
</event>
<event>
 5   0  0.9283910E-08  0.3273045E+04  0.7818609E-02  0.8169788E-01
        1   -1    0    0  501    0  0.00000000000E+00  0.00000000000E+00  0.16912852824E+04  0.16912852824E+04  0.50400001928E-02 0.  1.
       -1   -1    0    0    0  501  0.00000000000E+00  0.00000000000E+00 -0.15835326644E+04  0.15835326644E+04  0.50400001928E-02 0. -1.
    10030    2    1    2    0    0  0.00000000000E+00  0.00000000000E+00  0.10775261797E+03  0.32748179468E+04  0.32730447535E+04 0.  0.
        3    1    3    3  502    0 -0.21230996140E+03 -0.10054172830E+04  0.13282484169E+04  0.16793401382E+04  0.10100000352E+00 0.  1.
       -3    1    3    3    0  502  0.21230996140E+03  0.10054172830E+04 -0.12204957989E+04  0.15954778087E+04  0.10100000352E+00 0. -1.
</event>
<event>
 5   0  0.9454010E-08  0.3300051E+04  0.7818609E-02  0.8162882E-01
       -1   -1    0    0    0  501  0.00000000000E+00  0.00000000000E+00  0.16372100298E+04  0.16372100298E+04  0.50400001928E-02 0. -1.
        1   -1    0    0  501    0  0.00000000000E+00  0.00000000000E+00 -0.16629414404E+04  0.16629414404E+04  0.50400001928E-02 0.  1.
    10030    2    1    2    0    0  0.00000000000E+00  0.00000000000E+00 -0.25731410637E+02  0.33001514702E+04  0.33000511543E+04 0.  0.
        2    1    3    3  502    0 -0.12356667956E+04  0.10921755226E+04  0.40657909481E+02  0.16496584094E+04  0.25500000920E-02 0. -1.
       -2    1    3    3    0  502  0.12356667956E+04 -0.10921755226E+04 -0.66389320117E+02  0.16504930608E+04  0.25500000920E-02 0.  1.
</event>
<event>
 5   0  0.2727168E-07  0.3368147E+04  0.7818609E-02  0.8145769E-01
       -2   -1    0    0    0  501  0.00000000000E+00  0.00000000000E+00  0.12383363428E+04  0.12383363428E+04  0.25500000920E-02 0. -1.
        2   -1    0    0  501    0  0.00000000000E+00  0.00000000000E+00 -0.22902532453E+04  0.22902532453E+04  0.25500000920E-02 0.  1.
    10030    2    1    2    0    0  0.00000000000E+00  0.00000000000E+00 -0.10519169025E+04  0.35285895881E+04  0.33681471630E+04 0.  0.
        2    1    3    3  502    0 -0.17400639801E+03 -0.41945695324E+03 -0.22248989804E+04  0.22707703176E+04  0.25500000920E-02 0.  1.
       -2    1    3    3    0  502  0.17400639801E+03  0.41945695324E+03  0.11729820779E+04  0.12578192705E+04  0.25500000920E-02 0. -1.
</event>
<event>
 5   0  0.2727168E-07  0.3303416E+04  0.7818609E-02  0.8162027E-01
        2   -1    0    0  501    0  0.00000000000E+00  0.00000000000E+00  0.16330571410E+04  0.16330571410E+04  0.25500000920E-02 0. -1.
       -2   -1    0    0    0  501  0.00000000000E+00  0.00000000000E+00 -0.16705719514E+04  0.16705719514E+04  0.25500000920E-02 0.  1.
    10030    2    1    2    0    0  0.00000000000E+00  0.00000000000E+00 -0.37514810463E+02  0.33036290924E+04  0.33034160833E+04 0.  0.
        2    1    3    3  502    0 -0.16047672456E+04  0.12013516736E+03 -0.39084198769E+03  0.16560398034E+04  0.25500000920E-02 0.  1.
       -2    1    3    3    0  502  0.16047672456E+04 -0.12013516736E+03  0.35332717723E+03  0.16475892890E+04  0.25500000920E-02 0. -1.
</event>
<event>
 5   0  0.2713815E-07  0.3300198E+04  0.7818609E-02  0.8162845E-01
        2   -1    0    0  501    0  0.00000000000E+00  0.00000000000E+00  0.18114762922E+04  0.18114762923E+04  0.25500000920E-02 0.  1.
       -2   -1    0    0    0  501  0.00000000000E+00  0.00000000000E+00 -0.15030978321E+04  0.15030978321E+04  0.25500000920E-02 0. -1.
    10030    2    1    2    0    0  0.00000000000E+00  0.00000000000E+00  0.30837846017E+03  0.33145741243E+04  0.33001976230E+04 0.  0.
        4    1    3    3  502    0 -0.15113429413E+04  0.59746576855E+03 -0.13289093422E+03  0.16305779479E+04  0.12699999809E+01 0. -1.
       -4    1    3    3    0  502  0.15113429413E+04 -0.59746576855E+03  0.44126939439E+03  0.16839961764E+04  0.12699999809E+01 0.  1.
</event>
<event>
 5   0  0.2824402E-07  0.3301921E+04  0.7818609E-02  0.8162407E-01
        2   -1    0    0  501    0  0.00000000000E+00  0.00000000000E+00  0.13726683772E+04  0.13726683773E+04  0.25500000920E-02 0. -1.
       -2   -1    0    0    0  501  0.00000000000E+00  0.00000000000E+00 -0.19856729405E+04  0.19856729405E+04  0.25500000920E-02 0.  1.
    10030    2    1    2    0    0  0.00000000000E+00  0.00000000000E+00 -0.61300456322E+03  0.33583413177E+04  0.33019209275E+04 0.  0.
        1    1    3    3  502    0 -0.13153809063E+04 -0.60826503623E+03 -0.11108742946E+04  0.18259942446E+04  0.50400001928E-02 0.  1.
       -1    1    3    3    0  502  0.13153809063E+04  0.60826503623E+03  0.49786973138E+03  0.15323470731E+04  0.50400001928E-02 0. -1.
</event>
<event>
 5   0  0.9454010E-08  0.3271346E+04  0.7818609E-02  0.8170225E-01
        1   -1    0    0  501    0  0.00000000000E+00  0.00000000000E+00  0.22491893962E+04  0.22491893962E+04  0.50400001928E-02 0. -1.
       -1   -1    0    0    0  501  0.00000000000E+00  0.00000000000E+00 -0.11895071475E+04  0.11895071475E+04  0.50400001928E-02 0.  1.
    10030    2    1    2    0    0  0.00000000000E+00  0.00000000000E+00  0.10596822487E+04  0.34386965437E+04  0.32713464279E+04 0.  0.
        2    1    3    3  502    0 -0.79642982823E+03  0.57690632295E+03  0.19037251773E+04  0.21427297841E+04  0.25500000920E-02 0. -1.
       -2    1    3    3    0  502  0.79642982823E+03 -0.57690632295E+03 -0.84404292862E+03  0.12959667596E+04  0.25500000920E-02 0.  1.
</event>
<event>
 5   0  0.2713815E-07  0.3301664E+04  0.7818609E-02  0.8162472E-01
        2   -1    0    0  501    0  0.00000000000E+00  0.00000000000E+00  0.25747121422E+04  0.25747121422E+04  0.25500000920E-02 0. -1.
       -2   -1    0    0    0  501  0.00000000000E+00  0.00000000000E+00 -0.10584666376E+04  0.10584666376E+04  0.25500000920E-02 0.  1.
    10030    2    1    2    0    0  0.00000000000E+00  0.00000000000E+00  0.15162455046E+04  0.36331787798E+04  0.33016643706E+04 0.  0.
        4    1    3    3  502    0  0.12032104050E+04  0.39573186027E+03  0.19231668841E+04  0.23028007862E+04  0.12699999809E+01 0. -1.
       -4    1    3    3    0  502 -0.12032104050E+04 -0.39573186027E+03 -0.40692137948E+03  0.13303779936E+04  0.12699999809E+01 0.  1.
</event>
<event>
 5   0  0.2875829E-07  0.3299444E+04  0.7818609E-02  0.8163037E-01
       -2   -1    0    0    0  501  0.00000000000E+00  0.00000000000E+00  0.18063840554E+04  0.18063840554E+04  0.25500000920E-02 0. -1.
        2   -1    0    0  501    0  0.00000000000E+00  0.00000000000E+00 -0.15066463970E+04  0.15066463970E+04  0.25500000920E-02 0.  1.
    10030    2    1    2    0    0  0.00000000000E+00  0.00000000000E+00  0.29973765844E+03  0.33130304524E+04  0.32994436068E+04 0.  0.
        3    1    3    3  502    0  0.11448633697E+04  0.15053971845E+02  0.13424647434E+04  0.17644121839E+04  0.10100000352E+00 0. -1.
       -3    1    3    3    0  502 -0.11448633697E+04 -0.15053971845E+02 -0.10427270850E+04  0.15486182684E+04  0.10100000352E+00 0.  1.
</event>
<event>
 5   0  0.9283910E-08  0.3245052E+04  0.7818609E-02  0.8177019E-01
       -1   -1    0    0    0  501  0.00000000000E+00  0.00000000000E+00  0.17708763432E+04  0.17708763432E+04  0.50400001928E-02 0.  1.
        1   -1    0    0  501    0  0.00000000000E+00  0.00000000000E+00 -0.14866036469E+04  0.14866036469E+04  0.50400001928E-02 0. -1.
    10030    2    1    2    0    0  0.00000000000E+00  0.00000000000E+00  0.28427269627E+03  0.32574799901E+04  0.32450523756E+04 0.  0.
        3    1    3    3  502    0  0.81277380691E+03  0.58926941763E+03  0.14216753280E+04  0.17404023834E+04  0.10100000352E+00 0.  1.
       -3    1    3    3    0  502 -0.81277380691E+03 -0.58926941763E+03 -0.11374026318E+04  0.15170776067E+04  0.10100000352E+00 0. -1.
</event>
<event>
 5   0  0.2703956E-07  0.3289432E+04  0.7818609E-02  0.8165590E-01
       -2   -1    0    0    0  501  0.00000000000E+00  0.00000000000E+00  0.14518205061E+04  0.14518205061E+04  0.25500000920E-02 0. -1.
        2   -1    0    0  501    0  0.00000000000E+00  0.00000000000E+00 -0.18632406699E+04  0.18632406699E+04  0.25500000920E-02 0.  1.
    10030    2    1    2    0    0  0.00000000000E+00  0.00000000000E+00 -0.41142016380E+03  0.33150611759E+04  0.32894321773E+04 0.  0.
        5    1    3    3  502    0 -0.88410189778E+03 -0.22388893635E+03  0.11736416705E+04  0.14863442678E+04  0.46999998093E+01 0. -1.
       -5    1    3    3    0  502  0.88410189778E+03  0.22388893635E+03 -0.15850618343E+04  0.18287169082E+04  0.46999998093E+01 0.  1.
</event>
<event>
 5   0  0.8805125E-08  0.3298198E+04  0.7818609E-02  0.8163354E-01
       -1   -1    0    0    0  501  0.00000000000E+00  0.00000000000E+00  0.13523708387E+04  0.13523708387E+04  0.50400001928E-02 0. -1.
        1   -1    0    0  501    0  0.00000000000E+00  0.00000000000E+00 -0.20109332513E+04  0.20109332513E+04  0.50400001928E-02 0.  1.
    10030    2    1    2    0    0  0.00000000000E+00  0.00000000000E+00 -0.65856241260E+03  0.33633040899E+04  0.32981979853E+04 0.  0.
        4    1    3    3  502    0 -0.12388108716E+04 -0.10567115165E+04 -0.59565450446E+03  0.17338101125E+04  0.12699999809E+01 0.  1.
       -4    1    3    3    0  502  0.12388108716E+04  0.10567115165E+04 -0.62907908145E+02  0.16294939774E+04  0.12699999809E+01 0. -1.
</event>
<event>
 5   0  0.2824402E-07  0.3278772E+04  0.7818609E-02  0.8168318E-01
       -2   -1    0    0    0  501  0.00000000000E+00  0.00000000000E+00  0.10609427389E+04  0.10609427389E+04  0.25500000920E-02 0.  1.
        2   -1    0    0  501    0  0.00000000000E+00  0.00000000000E+00 -0.25332063597E+04  0.25332063597E+04  0.25500000920E-02 0. -1.
    10030    2    1    2    0    0  0.00000000000E+00  0.00000000000E+00 -0.14722636208E+04  0.35941490986E+04  0.32787722662E+04 0.  0.
        1    1    3    3  502    0 -0.15882800330E+04  0.47959395413E+02 -0.29403608971E+03  0.16159798232E+04  0.50400001928E-02 0.  1.
       -1    1    3    3    0  502  0.15882800330E+04 -0.47959395413E+02 -0.11782275311E+04  0.19781692754E+04  0.50400001928E-02 0. -1.
</event>
<event>
 5   0  0.2727168E-07  0.3296122E+04  0.7818609E-02  0.8163883E-01
       -2   -1    0    0    0  501  0.00000000000E+00  0.00000000000E+00  0.91611501654E+03  0.91611501654E+03  0.25500000920E-02 0.  1.
        2   -1    0    0  501    0  0.00000000000E+00  0.00000000000E+00 -0.29648076561E+04  0.29648076561E+04  0.25500000920E-02 0. -1.
    10030    2    1    2    0    0  0.00000000000E+00  0.00000000000E+00 -0.20486926396E+04  0.38809226727E+04  0.32961218515E+04 0.  0.
        2    1    3    3  502    0  0.11170210894E+04  0.98632875466E+03 -0.19551872028E+03  0.15029331643E+04  0.25500000920E-02 0. -1.
       -2    1    3    3    0  502 -0.11170210894E+04 -0.98632875466E+03 -0.18531739193E+04  0.23779895083E+04  0.25500000920E-02 0.  1.
</event>
<event>
 5   0  0.9810351E-08  0.3279140E+04  0.7818609E-02  0.8168224E-01
       -1   -1    0    0    0  501  0.00000000000E+00  0.00000000000E+00  0.17285461665E+04  0.17285461665E+04  0.50400001928E-02 0.  1.
        1   -1    0    0  501    0  0.00000000000E+00  0.00000000000E+00 -0.15551737028E+04  0.15551737028E+04  0.50400001928E-02 0. -1.
    10030    2    1    2    0    0  0.00000000000E+00  0.00000000000E+00  0.17337246366E+03  0.32837198693E+04  0.32791398520E+04 0.  0.
        5    1    3    3  502    0 -0.16949111995E+03 -0.53870382272E+02  0.17188517320E+04  0.17280343238E+04  0.46999998093E+01 0.  1.
       -5    1    3    3    0  502  0.16949111995E+03  0.53870382272E+02 -0.15454792683E+04  0.15556855455E+04  0.46999998093E+01 0. -1.
</event>
<event>
 5   0  0.2713815E-07  0.3299706E+04  0.7818609E-02  0.8162970E-01
       -2   -1    0    0    0  501  0.00000000000E+00  0.00000000000E+00  0.11669907706E+04  0.11669907706E+04  0.25500000920E-02 0. -1.
        2   -1    0    0  501    0  0.00000000000E+00  0.00000000000E+00 -0.23325073217E+04  0.23325073217E+04  0.25500000920E-02 0.  1.
    10030    2    1    2    0    0  0.00000000000E+00  0.00000000000E+00 -0.11655165511E+04  0.34994980923E+04  0.32997057546E+04 0.  0.
        4    1    3    3  502    0 -0.12958842618E+03 -0.27528513606E+03 -0.23024951402E+04  0.23225116899E+04  0.12699999809E+01 0.  1.
       -4    1    3    3    0  502  0.12958842618E+03  0.27528513606E+03  0.11369785891E+04  0.11769864023E+04  0.12699999809E+01 0. -1.
</event>
<event>
 5   0  0.2703956E-07  0.3302871E+04  0.7818609E-02  0.8162165E-01
       -2   -1    0    0    0  501  0.00000000000E+00  0.00000000000E+00  0.14453231835E+04  0.14453231835E+04  0.25500000920E-02 0. -1.
        2   -1    0    0  501    0  0.00000000000E+00  0.00000000000E+00 -0.18869412639E+04  0.18869412639E+04  0.25500000920E-02 0.  1.
    10030    2    1    2    0    0  0.00000000000E+00  0.00000000000E+00 -0.44161808039E+03  0.33322644474E+04  0.33028714505E+04 0.  0.
        5    1    3    3  502    0  0.68811348448E+03  0.14890983015E+04 -0.28577474802E+02  0.16406561739E+04  0.46999998093E+01 0. -1.
       -5    1    3    3    0  502 -0.68811348448E+03 -0.14890983015E+04 -0.41304060559E+03  0.16916082735E+04  0.46999998093E+01 0.  1.
</event>
<event>
 5   0  0.8805125E-08  0.3282013E+04  0.7818609E-02  0.8167487E-01
       -1   -1    0    0    0  501  0.00000000000E+00  0.00000000000E+00  0.10173380981E+04  0.10173380981E+04  0.50400001928E-02 0.  1.
        1   -1    0    0  501    0  0.00000000000E+00  0.00000000000E+00 -0.26470076679E+04  0.26470076679E+04  0.50400001928E-02 0. -1.
    10030    2    1    2    0    0  0.00000000000E+00  0.00000000000E+00 -0.16296695698E+04  0.36643457660E+04  0.32820126426E+04 0.  0.
        4    1    3    3  502    0 -0.10651065817E+04 -0.10616540745E+04 -0.81562240039E+02  0.15060595659E+04  0.12699999809E+01 0.  1.
       -4    1    3    3    0  502  0.10651065817E+04  0.10616540745E+04 -0.15481073298E+04  0.21582862001E+04  0.12699999809E+01 0. -1.
</event>
<event>
 5   0  0.2875829E-07  0.3302965E+04  0.7818609E-02  0.8162141E-01
        2   -1    0    0  501    0  0.00000000000E+00  0.00000000000E+00  0.14024936302E+04  0.14024936302E+04  0.25500000920E-02 0.  1.
       -2   -1    0    0    0  501  0.00000000000E+00  0.00000000000E+00 -0.19446749656E+04  0.19446749656E+04  0.25500000920E-02 0. -1.
    10030    2    1    2    0    0  0.00000000000E+00  0.00000000000E+00 -0.54218133546E+03  0.33471685958E+04  0.33029648814E+04 0.  0.
        3    1    3    3  502    0  0.27383275963E+00  0.16054807269E+04 -0.66334426771E+03  0.17371223524E+04  0.10100000352E+00 0.  1.
       -3    1    3    3    0  502 -0.27383275963E+00 -0.16054807269E+04  0.12116293225E+03  0.16100462434E+04  0.10100000352E+00 0. -1.
</event>
<event>
 5   0  0.8805125E-08  0.3293285E+04  0.7818609E-02  0.8164606E-01
        3   -1    0    0  501    0  0.00000000000E+00  0.00000000000E+00  0.12948958328E+04  0.12948958367E+04  0.10100000352E+00 0.  1.
       -3   -1    0    0    0  501  0.00000000000E+00  0.00000000000E+00 -0.20939381811E+04  0.20939381835E+04  0.10100000352E+00 0. -1.
    10030    2    1    2    0    0  0.00000000000E+00  0.00000000000E+00 -0.79904234835E+03  0.33888340202E+04  0.32932851899E+04 0.  0.
        1    1    3    3  502    0 -0.15464327069E+04 -0.45035122196E+03 -0.47301662822E+02  0.16113682967E+04  0.50400001928E-02 0.  1.
       -1    1    3    3    0  502  0.15464327069E+04  0.45035122196E+03 -0.75174068553E+03  0.17774657236E+04  0.50400001928E-02 0. -1.
</event>
<event>
 5   0  0.9283910E-08  0.3293143E+04  0.7818609E-02  0.8164642E-01
       -1   -1    0    0    0  501  0.00000000000E+00  0.00000000000E+00  0.13169364695E+04  0.13169364695E+04  0.50400001928E-02 0.  1.
        1   -1    0    0  501    0  0.00000000000E+00  0.00000000000E+00 -0.20587154112E+04  0.20587154112E+04  0.50400001928E-02 0. -1.
    10030    2    1    2    0    0  0.00000000000E+00  0.00000000000E+00 -0.74177894172E+03  0.33756518808E+04  0.32931428183E+04 0.  0.
        3    1    3    3  502    0 -0.30507094434E+03 -0.24155558971E+03  0.12691277522E+04  0.13274421440E+04  0.10100000352E+00 0.  1.
       -3    1    3    3    0  502  0.30507094434E+03  0.24155558971E+03 -0.20109066939E+04  0.20482097368E+04  0.10100000352E+00 0. -1.
</event>
<event>
 5   0  0.9283910E-08  0.3304389E+04  0.7818609E-02  0.8161779E-01
       -1   -1    0    0    0  501  0.00000000000E+00  0.00000000000E+00  0.10512003657E+04  0.10512003657E+04  0.50400001928E-02 0.  1.
        1   -1    0    0  501    0  0.00000000000E+00  0.00000000000E+00 -0.25967903922E+04  0.25967903923E+04  0.50400001928E-02 0. -1.
    10030    2    1    2    0    0  0.00000000000E+00  0.00000000000E+00 -0.15455900265E+04  0.36479907580E+04  0.33043892083E+04 0.  0.
        3    1    3    3  502    0  0.13589864147E+04  0.33341988002E+03 -0.17426267275E+04  0.22348961527E+04  0.10100000352E+00 0. -1.
       -3    1    3    3    0  502 -0.13589864147E+04 -0.33341988002E+03  0.19703670097E+03  0.14130946053E+04  0.10100000352E+00 0.  1.
</event>
<event>
 5   0  0.9181760E-08  0.3298388E+04  0.7818609E-02  0.8163306E-01
       -1   -1    0    0    0  501  0.00000000000E+00  0.00000000000E+00  0.14103235315E+04  0.14103235315E+04  0.50400001928E-02 0.  1.
        1   -1    0    0  501    0  0.00000000000E+00  0.00000000000E+00 -0.19285224917E+04  0.19285224917E+04  0.50400001928E-02 0. -1.
    10030    2    1    2    0    0  0.00000000000E+00  0.00000000000E+00 -0.51819896019E+03  0.33388460233E+04  0.32983878797E+04 0.  0.
        1    1    3    3  502    0  0.56297520558E+03 -0.67292867401E+03 -0.16726761988E+04  0.18888143764E+04  0.50400001928E-02 0. -1.
       -1    1    3    3    0  502 -0.56297520558E+03  0.67292867401E+03  0.11544772386E+04  0.14500316469E+04  0.50400001928E-02 0.  1.
</event>
<event>
 5   0  0.2875829E-07  0.3299165E+04  0.7818609E-02  0.8163108E-01
       -2   -1    0    0    0  501  0.00000000000E+00  0.00000000000E+00  0.11558211295E+04  0.11558211295E+04  0.25500000920E-02 0.  1.
        2   -1    0    0  501    0  0.00000000000E+00  0.00000000000E+00 -0.23542761808E+04  0.23542761808E+04  0.25500000920E-02 0. -1.
    10030    2    1    2    0    0  0.00000000000E+00  0.00000000000E+00 -0.11984550513E+04  0.35100973103E+04  0.32991648364E+04 0.  0.
        3    1    3    3  502    0  0.12311733133E+04 -0.49325802458E+03  0.44431382118E+03  0.13987515819E+04  0.10100000352E+00 0.  1.
       -3    1    3    3    0  502 -0.12311733133E+04  0.49325802458E+03 -0.16427688724E+04  0.21113457283E+04  0.10100000352E+00 0. -1.
</event>
<event>
 5   0  0.2875829E-07  0.3303519E+04  0.7818609E-02  0.8162000E-01
        2   -1    0    0  501    0  0.00000000000E+00  0.00000000000E+00  0.13958481319E+04  0.13958481319E+04  0.25500000920E-02 0. -1.
       -2   -1    0    0    0  501  0.00000000000E+00  0.00000000000E+00 -0.19545892991E+04  0.19545892991E+04  0.25500000920E-02 0.  1.
    10030    2    1    2    0    0  0.00000000000E+00  0.00000000000E+00 -0.55874116726E+03  0.33504374310E+04  0.33035192276E+04 0.  0.
        3    1    3    3  502    0 -0.15650978062E+04  0.21438268701E+03 -0.76873640390E+03  0.17568286053E+04  0.10100000352E+00 0.  1.
       -3    1    3    3    0  502  0.15650978062E+04 -0.21438268701E+03  0.20999523664E+03  0.15936088257E+04  0.10100000352E+00 0. -1.
</event>
<event>
 5   0  0.2703956E-07  0.3297078E+04  0.7818609E-02  0.8163639E-01
       -2   -1    0    0    0  501  0.00000000000E+00  0.00000000000E+00  0.28856236157E+04  0.28856236157E+04  0.25500000920E-02 0. -1.
        2   -1    0    0  501    0  0.00000000000E+00  0.00000000000E+00 -0.94180040886E+03  0.94180040886E+03  0.25500000920E-02 0.  1.
    10030    2    1    2    0    0  0.00000000000E+00  0.00000000000E+00  0.19438232068E+04  0.38274240245E+04  0.32970784043E+04 0.  0.
        5    1    3    3  502    0 -0.12123900298E+04  0.10206040810E+04  0.14989659791E+04  0.21813856539E+04  0.46999998093E+01 0. -1.
       -5    1    3    3    0  502  0.12123900298E+04 -0.10206040810E+04  0.44485722766E+03  0.16460383706E+04  0.46999998093E+01 0.  1.
</event>
<event>
 5   0  0.8805125E-08  0.3308686E+04  0.7818609E-02  0.8160689E-01
       -1   -1    0    0    0  501  0.00000000000E+00  0.00000000000E+00  0.27902175453E+04  0.27902175453E+04  0.50400001928E-02 0. -1.
        1   -1    0    0  501    0  0.00000000000E+00  0.00000000000E+00 -0.98087362535E+03  0.98087362536E+03  0.50400001928E-02 0.  1.
    10030    2    1    2    0    0  0.00000000000E+00  0.00000000000E+00  0.18093439199E+04  0.37710911706E+04  0.33086860227E+04 0.  0.
        4    1    3    3  502    0  0.21098394521E+03 -0.14633124715E+04  0.17507444965E+04  0.22914854395E+04  0.12699999809E+01 0. -1.
       -4    1    3    3    0  502 -0.21098394521E+03  0.14633124715E+04  0.58599423469E+02  0.14796057312E+04  0.12699999809E+01 0.  1.
</event>
<event>
 5   0  0.8805125E-08  0.3301057E+04  0.7818609E-02  0.8162627E-01
        1   -1    0    0  501    0  0.00000000000E+00  0.00000000000E+00  0.16129769471E+04  0.16129769471E+04  0.50400001928E-02 0. -1.
       -1   -1    0    0    0  501  0.00000000000E+00  0.00000000000E+00 -0.16889541165E+04  0.16889541165E+04  0.50400001928E-02 0.  1.
    10030    2    1    2    0    0  0.00000000000E+00  0.00000000000E+00 -0.75977169398E+02  0.33019310635E+04  0.33010568335E+04 0.  0.
        4    1    3    3  502    0 -0.78844460160E+03 -0.58876653035E+03 -0.13634627326E+04  0.16814645858E+04  0.12699999809E+01 0.  1.
       -4    1    3    3    0  502  0.78844460160E+03  0.58876653035E+03  0.12874855632E+04  0.16204664777E+04  0.12699999809E+01 0. -1.
</event>
<event>
 5   0  0.2727168E-07  0.3302377E+04  0.7818609E-02  0.8162291E-01
        2   -1    0    0  501    0  0.00000000000E+00  0.00000000000E+00  0.96140196605E+03  0.96140196605E+03  0.25500000920E-02 0. -1.
       -2   -1    0    0    0  501  0.00000000000E+00  0.00000000000E+00 -0.28358837689E+04  0.28358837689E+04  0.25500000920E-02 0.  1.
    10030    2    1    2    0    0  0.00000000000E+00  0.00000000000E+00 -0.18744818028E+04  0.37972857349E+04  0.33023774653E+04 0.  0.
        2    1    3    3  502    0 -0.62626705576E+03 -0.93292142611E+03  0.45398620699E+03  0.12118813014E+04  0.25500000920E-02 0. -1.
       -2    1    3    3    0  502  0.62626705576E+03  0.93292142611E+03 -0.23284680098E+04  0.25854044336E+04  0.25500000920E-02 0.  1.
</event>
<event>
 5   0  0.2875829E-07  0.3304775E+04  0.7818609E-02  0.8161681E-01
        2   -1    0    0  501    0  0.00000000000E+00  0.00000000000E+00  0.21276383946E+04  0.21276383946E+04  0.25500000920E-02 0.  1.
       -2   -1    0    0    0  501  0.00000000000E+00  0.00000000000E+00 -0.12832935094E+04  0.12832935094E+04  0.25500000920E-02 0. -1.
    10030    2    1    2    0    0  0.00000000000E+00  0.00000000000E+00  0.84434488521E+03  0.34109319039E+04  0.33047750556E+04 0.  0.
        3    1    3    3  502    0  0.61561414317E+03 -0.99128728627E+03  0.16296907694E+04  0.20043760304E+04  0.10100000352E+00 0.  1.
       -3    1    3    3    0  502 -0.61561414317E+03  0.99128728627E+03 -0.78534588423E+03  0.14065558735E+04  0.10100000352E+00 0. -1.
</event>
<event>
 5   0  0.9181760E-08  0.3303868E+04  0.7818609E-02  0.8161912E-01
        1   -1    0    0  501    0  0.00000000000E+00  0.00000000000E+00  0.22114301389E+04  0.22114301389E+04  0.50400001928E-02 0.  1.
       -1   -1    0    0    0  501  0.00000000000E+00  0.00000000000E+00 -0.12339911198E+04  0.12339911198E+04  0.50400001928E-02 0. -1.
    10030    2    1    2    0    0  0.00000000000E+00  0.00000000000E+00  0.97743901910E+03  0.34454212587E+04  0.33038675237E+04 0.  0.
        1    1    3    3  502    0 -0.13811287347E+02 -0.13196908075E+04  0.15248217343E+04  0.20166447135E+04  0.50400001928E-02 0.  1.
       -1    1    3    3    0  502  0.13811287347E+02  0.13196908075E+04 -0.54738271519E+03  0.14287765452E+04  0.50400001928E-02 0. -1.
</event>
<event>
 5   0  0.2703956E-07  0.3304733E+04  0.7818609E-02  0.8161692E-01
       -2   -1    0    0    0  501  0.00000000000E+00  0.00000000000E+00  0.97807730742E+03  0.97807730742E+03  0.25500000920E-02 0.  1.
        2   -1    0    0  501    0  0.00000000000E+00  0.00000000000E+00 -0.27915122189E+04  0.27915122189E+04  0.25500000920E-02 0. -1.
    10030    2    1    2    0    0  0.00000000000E+00  0.00000000000E+00 -0.18134349115E+04  0.37695895263E+04  0.33047328211E+04 0.  0.
        5    1    3    3  502    0  0.15302954786E+04 -0.58104586343E+03 -0.64943738160E+03  0.17610251418E+04  0.46999998093E+01 0.  1.
       -5    1    3    3    0  502 -0.15302954786E+04  0.58104586343E+03 -0.11639975299E+04  0.20085643846E+04  0.46999998093E+01 0. -1.
</event>
<event>
 5   0  0.9181760E-08  0.3331978E+04  0.7818609E-02  0.8154806E-01
       -1   -1    0    0    0  501  0.00000000000E+00  0.00000000000E+00  0.15930905457E+04  0.15930905457E+04  0.50400001928E-02 0.  1.
        1   -1    0    0  501    0  0.00000000000E+00  0.00000000000E+00 -0.17422230028E+04  0.17422230028E+04  0.50400001928E-02 0. -1.
    10030    2    1    2    0    0  0.00000000000E+00  0.00000000000E+00 -0.14913245713E+03  0.33353135486E+04  0.33319777877E+04 0.  0.
        1    1    3    3  502    0  0.88551691406E+03 -0.32381301097E+03 -0.14494491857E+04  0.17291321560E+04  0.50400001928E-02 0. -1.
       -1    1    3    3    0  502 -0.88551691406E+03  0.32381301097E+03  0.13003167285E+04  0.16061813925E+04  0.50400001928E-02 0.  1.
</event>
<event>
 5   0  0.9810351E-08  0.3303017E+04  0.7818609E-02  0.8162128E-01
       -1   -1    0    0    0  501  0.00000000000E+00  0.00000000000E+00  0.10271157230E+04  0.10271157231E+04  0.50400001928E-02 0. -1.
        1   -1    0    0  501    0  0.00000000000E+00  0.00000000000E+00 -0.26554757058E+04  0.26554757058E+04  0.50400001928E-02 0.  1.
    10030    2    1    2    0    0  0.00000000000E+00  0.00000000000E+00 -0.16283599827E+04  0.36825914289E+04  0.33030173173E+04 0.  0.
        5    1    3    3  502    0  0.63291606974E+03 -0.54761916749E+03 -0.24015143274E+04  0.25431796356E+04  0.46999998093E+01 0.  1.
       -5    1    3    3    0  502 -0.63291606974E+03  0.54761916749E+03  0.77315434469E+03  0.11394117933E+04  0.46999998093E+01 0. -1.
</event>
<event>
 5   0  0.2727168E-07  0.3307566E+04  0.7818609E-02  0.8160973E-01
       -2   -1    0    0    0  501  0.00000000000E+00  0.00000000000E+00  0.18154429871E+04  0.18154429871E+04  0.25500000920E-02 0.  1.
        2   -1    0    0  501    0  0.00000000000E+00  0.00000000000E+00 -0.15065182178E+04  0.15065182178E+04  0.25500000920E-02 0. -1.
    10030    2    1    2    0    0  0.00000000000E+00  0.00000000000E+00  0.30892476931E+03  0.33219612049E+04  0.33075658321E+04 0.  0.
        2    1    3    3  502    0 -0.12417214572E+04  0.63662358578E+03 -0.73700203894E+03  0.15780791402E+04  0.25500000920E-02 0. -1.
       -2    1    3    3    0  502  0.12417214572E+04 -0.63662358578E+03  0.10459268083E+04  0.17438820647E+04  0.25500000920E-02 0.  1.
</event>
<event>
 5   0  0.9181760E-08  0.3300157E+04  0.7818609E-02  0.8162855E-01
        1   -1    0    0  501    0  0.00000000000E+00  0.00000000000E+00  0.16330207796E+04  0.16330207796E+04  0.50400001928E-02 0. -1.
       -1   -1    0    0    0  501  0.00000000000E+00  0.00000000000E+00 -0.16673148600E+04  0.16673148600E+04  0.50400001928E-02 0.  1.
    10030    2    1    2    0    0  0.00000000000E+00  0.00000000000E+00 -0.34294080373E+02  0.33003356396E+04  0.33001574583E+04 0.  0.
        1    1    3    3  502    0  0.21262253633E+03 -0.12331698480E+04  0.10584776707E+04  0.16389909080E+04  0.50400001928E-02 0. -1.
       -1    1    3    3    0  502 -0.21262253633E+03  0.12331698480E+04 -0.10927717511E+04  0.16613447316E+04  0.50400001928E-02 0.  1.
</event>
<event>
 5   0  0.9454010E-08  0.3299146E+04  0.7818609E-02  0.8163113E-01
       -1   -1    0    0    0  501  0.00000000000E+00  0.00000000000E+00  0.12290750464E+04  0.12290750464E+04  0.50400001928E-02 0. -1.
        1   -1    0    0  501    0  0.00000000000E+00  0.00000000000E+00 -0.22139339057E+04  0.22139339057E+04  0.50400001928E-02 0.  1.
    10030    2    1    2    0    0  0.00000000000E+00  0.00000000000E+00 -0.98485885935E+03  0.34430089521E+04  0.32991459003E+04 0.  0.
        2    1    3    3  502    0  0.37945790933E+03 -0.56937504112E+03  0.10739933919E+04  0.12734355297E+04  0.25500000920E-02 0. -1.
       -2    1    3    3    0  502 -0.37945790933E+03  0.56937504112E+03 -0.20588522513E+04  0.21695734224E+04  0.25500000920E-02 0.  1.
</event>
<event>
 5   0  0.2703956E-07  0.3330000E+04  0.7818609E-02  0.8155304E-01
        2   -1    0    0  501    0  0.00000000000E+00  0.00000000000E+00  0.16311359197E+04  0.16311359197E+04  0.25500000920E-02 0.  1.
       -2   -1    0    0    0  501  0.00000000000E+00  0.00000000000E+00 -0.16995672443E+04  0.16995672443E+04  0.25500000920E-02 0. -1.
    10030    2    1    2    0    0  0.00000000000E+00  0.00000000000E+00 -0.68431324567E+02  0.33307031640E+04  0.33300001082E+04 0.  0.
        5    1    3    3  502    0  0.14712033558E+04 -0.50366237001E+03 -0.62939422759E+03  0.16775798880E+04  0.46999998093E+01 0. -1.
       -5    1    3    3    0  502 -0.14712033558E+04  0.50366237001E+03  0.56096290302E+03  0.16531232760E+04  0.46999998093E+01 0.  1.
</event>
<event>
 5   0  0.2713815E-07  0.3319680E+04  0.7818609E-02  0.8157906E-01
        2   -1    0    0  501    0  0.00000000000E+00  0.00000000000E+00  0.17464337764E+04  0.17464337764E+04  0.25500000920E-02 0. -1.
       -2   -1    0    0    0  501  0.00000000000E+00  0.00000000000E+00 -0.15775397102E+04  0.15775397102E+04  0.25500000920E-02 0.  1.
    10030    2    1    2    0    0  0.00000000000E+00  0.00000000000E+00  0.16889406622E+03  0.33239734865E+04  0.33196798842E+04 0.  0.
        4    1    3    3  502    0  0.10965266435E+04  0.12292772709E+04  0.28860712319E+03  0.16723603001E+04  0.12699999809E+01 0. -1.
       -4    1    3    3    0  502 -0.10965266435E+04 -0.12292772709E+04 -0.11971305697E+03  0.16516131865E+04  0.12699999809E+01 0.  1.
</event>
<event>
 5   0  0.9454010E-08  0.3304229E+04  0.7818609E-02  0.8161820E-01
        1   -1    0    0  501    0  0.00000000000E+00  0.00000000000E+00  0.16177815108E+04  0.16177815108E+04  0.50400001928E-02 0. -1.
       -1   -1    0    0    0  501  0.00000000000E+00  0.00000000000E+00 -0.16871757522E+04  0.16871757522E+04  0.50400001928E-02 0.  1.
    10030    2    1    2    0    0  0.00000000000E+00  0.00000000000E+00 -0.69394241363E+02  0.33049572630E+04  0.33042286467E+04 0.  0.
        2    1    3    3  502    0 -0.99836858413E+03  0.27028775750E+03 -0.13232693818E+04  0.16795348042E+04  0.25500000920E-02 0.  1.
       -2    1    3    3    0  502  0.99836858413E+03 -0.27028775750E+03  0.12538751405E+04  0.16254224588E+04  0.25500000920E-02 0. -1.
</event>
<event>
 5   0  0.9283910E-08  0.3300596E+04  0.7818609E-02  0.8162744E-01
        1   -1    0    0  501    0  0.00000000000E+00  0.00000000000E+00  0.12625316471E+04  0.12625316471E+04  0.50400001928E-02 0. -1.
       -1   -1    0    0    0  501  0.00000000000E+00  0.00000000000E+00 -0.21571606470E+04  0.21571606470E+04  0.50400001928E-02 0.  1.
    10030    2    1    2    0    0  0.00000000000E+00  0.00000000000E+00 -0.89462899992E+03  0.34196922940E+04  0.33005960581E+04 0.  0.
        3    1    3    3  502    0 -0.15605226566E+03 -0.43991807552E+03 -0.20873408043E+04  0.21388950106E+04  0.10100000352E+00 0.  1.
       -3    1    3    3    0  502  0.15605226566E+03  0.43991807552E+03  0.11927118044E+04  0.12807972835E+04  0.10100000352E+00 0. -1.
</event>
<event>
 5   0  0.9454010E-08  0.3300230E+04  0.7818609E-02  0.8162837E-01
        1   -1    0    0  501    0  0.00000000000E+00  0.00000000000E+00  0.14302551344E+04  0.14302551344E+04  0.50400001928E-02 0. -1.
       -1   -1    0    0    0  501  0.00000000000E+00  0.00000000000E+00 -0.19037717414E+04  0.19037717414E+04  0.50400001928E-02 0.  1.
    10030    2    1    2    0    0  0.00000000000E+00  0.00000000000E+00 -0.47351660700E+03  0.33340268757E+04  0.33002298755E+04 0.  0.
        2    1    3    3  502    0  0.78931879288E+03 -0.14137877583E+04  0.84395524133E+02  0.16214014268E+04  0.25500000920E-02 0. -1.
       -2    1    3    3    0  502 -0.78931879288E+03  0.14137877583E+04 -0.55791213114E+03  0.17126254489E+04  0.25500000920E-02 0.  1.
</event>
<event>
 5   0  0.2875829E-07  0.3302223E+04  0.7818609E-02  0.8162330E-01
       -2   -1    0    0    0  501  0.00000000000E+00  0.00000000000E+00  0.24886675793E+04  0.24886675793E+04  0.25500000920E-02 0. -1.
        2   -1    0    0  501    0  0.00000000000E+00  0.00000000000E+00 -0.10954329616E+04  0.10954329616E+04  0.25500000920E-02 0.  1.
    10030    2    1    2    0    0  0.00000000000E+00  0.00000000000E+00  0.13932346177E+04  0.35841005409E+04  0.33022225829E+04 0.  0.
        3    1    3    3  502    0  0.32167014241E+03  0.77295167542E+03  0.22412042495E+04  0.23924720419E+04  0.10100000352E+00 0. -1.
       -3    1    3    3    0  502 -0.32167014241E+03 -0.77295167542E+03 -0.84796963175E+03  0.11916284990E+04  0.10100000352E+00 0.  1.
</event>
<event>
 5   0  0.8805125E-08  0.3302708E+04  0.7818609E-02  0.8162207E-01
        3   -1    0    0  501    0  0.00000000000E+00  0.00000000000E+00  0.10862424237E+04  0.10862424284E+04  0.10100000352E+00 0. -1.
       -3   -1    0    0    0  501  0.00000000000E+00  0.00000000000E+00 -0.25104614901E+04  0.25104614922E+04  0.10100000352E+00 0.  1.
    10030    2    1    2    0    0  0.00000000000E+00  0.00000000000E+00 -0.14242190664E+04  0.35967039206E+04  0.33027078501E+04 0.  0.
        3    1    3    3  502    0  0.20406107279E+03 -0.12837181115E+04 -0.18213021069E+04  0.22375688785E+04  0.10100000352E+00 0.  1.
       -3    1    3    3    0  502 -0.20406107279E+03  0.12837181115E+04  0.39708304046E+03  0.13591350420E+04  0.10100000352E+00 0. -1.
</event>
<event>
 5   0  0.8805125E-08  0.3304487E+04  0.7818609E-02  0.8161755E-01
       -1   -1    0    0    0  501  0.00000000000E+00  0.00000000000E+00  0.15584866076E+04  0.15584866076E+04  0.50400001928E-02 0.  1.
        1   -1    0    0  501    0  0.00000000000E+00  0.00000000000E+00 -0.17516408790E+04  0.17516408790E+04  0.50400001928E-02 0. -1.
    10030    2    1    2    0    0  0.00000000000E+00  0.00000000000E+00 -0.19315427140E+03  0.33101274866E+04  0.33044871622E+04 0.  0.
        4    1    3    3  502    0 -0.29506761743E+03 -0.19553259341E+03 -0.17132120305E+04  0.17493984589E+04  0.12699999809E+01 0. -1.
       -4    1    3    3    0  502  0.29506761743E+03  0.19553259341E+03  0.15200577591E+04  0.15607290276E+04  0.12699999809E+01 0.  1.
</event>
<event>
 5   0  0.9283910E-08  0.3325222E+04  0.7818609E-02  0.8156507E-01
        1   -1    0    0  501    0  0.00000000000E+00  0.00000000000E+00  0.18373991886E+04  0.18373991886E+04  0.50400001928E-02 0.  1.
       -1   -1    0    0    0  501  0.00000000000E+00  0.00000000000E+00 -0.15044504717E+04  0.15044504718E+04  0.50400001928E-02 0. -1.
    10030    2    1    2    0    0  0.00000000000E+00  0.00000000000E+00  0.33294871687E+03  0.33418496604E+04  0.33252224444E+04 0.  0.
        3    1    3    3  502    0  0.16459546818E+04  0.23064004400E+03  0.21044724649E+03  0.16753058521E+04  0.10100000352E+00 0.  1.
       -3    1    3    3    0  502 -0.16459546818E+04 -0.23064004400E+03  0.12250147038E+03  0.16665438083E+04  0.10100000352E+00 0. -1.
</event>
<event>
 5   0  0.2824402E-07  0.3282730E+04  0.7818609E-02  0.8167304E-01
       -2   -1    0    0    0  501  0.00000000000E+00  0.00000000000E+00  0.15476713076E+04  0.15476713076E+04  0.25500000920E-02 0.  1.
        2   -1    0    0  501    0  0.00000000000E+00  0.00000000000E+00 -0.17407312207E+04  0.17407312207E+04  0.25500000920E-02 0. -1.
    10030    2    1    2    0    0  0.00000000000E+00  0.00000000000E+00 -0.19305991311E+03  0.32884025282E+04  0.32827304272E+04 0.  0.
        1    1    3    3  502    0 -0.69291733436E+03 -0.45263420392E+03  0.13233349616E+04  0.15608419444E+04  0.50400001928E-02 0.  1.
       -1    1    3    3    0  502  0.69291733436E+03  0.45263420392E+03 -0.15163948747E+04  0.17275605838E+04  0.50400001928E-02 0. -1.
</event>
<event>
 5   0  0.9181760E-08  0.3302096E+04  0.7818609E-02  0.8162362E-01
       -1   -1    0    0    0  501  0.00000000000E+00  0.00000000000E+00  0.22137797385E+04  0.22137797385E+04  0.50400001928E-02 0.  1.
        1   -1    0    0  501    0  0.00000000000E+00  0.00000000000E+00 -0.12313596318E+04  0.12313596318E+04  0.50400001928E-02 0. -1.
    10030    2    1    2    0    0  0.00000000000E+00  0.00000000000E+00  0.98242010669E+03  0.34451393702E+04  0.33020957004E+04 0.  0.
        1    1    3    3  502    0 -0.11813883833E+04 -0.99504171217E+03 -0.11729855943E+03  0.15490466336E+04  0.50400001928E-02 0. -1.
       -1    1    3    3    0  502  0.11813883833E+04  0.99504171217E+03  0.10997186661E+04  0.18960927366E+04  0.50400001928E-02 0.  1.
</event>
<event>
 5   0  0.2875829E-07  0.3300102E+04  0.7818609E-02  0.8162869E-01
       -2   -1    0    0    0  501  0.00000000000E+00  0.00000000000E+00  0.27061842209E+04  0.27061842209E+04  0.25500000920E-02 0.  1.
        2   -1    0    0  501    0  0.00000000000E+00  0.00000000000E+00 -0.10060915582E+04  0.10060915582E+04  0.25500000920E-02 0. -1.
    10030    2    1    2    0    0  0.00000000000E+00  0.00000000000E+00  0.17000926627E+04  0.37122757791E+04  0.33001024831E+04 0.  0.
        3    1    3    3  502    0 -0.60554533513E+03 -0.43894008906E+03  0.25045690670E+04  0.26138515214E+04  0.10100000352E+00 0.  1.
       -3    1    3    3    0  502  0.60554533513E+03  0.43894008906E+03 -0.80447640429E+03  0.10984242577E+04  0.10100000352E+00 0. -1.
</event>
<event>
 5   0  0.2875829E-07  0.3291181E+04  0.7818609E-02  0.8165143E-01
        2   -1    0    0  501    0  0.00000000000E+00  0.00000000000E+00  0.23933264333E+04  0.23933264333E+04  0.25500000920E-02 0.  1.
       -2   -1    0    0    0  501  0.00000000000E+00  0.00000000000E+00 -0.11314662391E+04  0.11314662391E+04  0.25500000920E-02 0. -1.
    10030    2    1    2    0    0  0.00000000000E+00  0.00000000000E+00  0.12618601942E+04  0.35247926724E+04  0.32911809786E+04 0.  0.
        3    1    3    3  502    0 -0.51207150112E+03 -0.15177781966E+04  0.10346490279E+04  0.19069259286E+04  0.10100000352E+00 0. -1.
       -3    1    3    3    0  502  0.51207150112E+03  0.15177781966E+04  0.22721116630E+03  0.16178667437E+04  0.10100000352E+00 0.  1.
</event>
<event>
 5   0  0.2713815E-07  0.3296299E+04  0.7818609E-02  0.8163838E-01
       -2   -1    0    0    0  501  0.00000000000E+00  0.00000000000E+00  0.10746360370E+04  0.10746360370E+04  0.25500000920E-02 0. -1.
        2   -1    0    0  501    0  0.00000000000E+00  0.00000000000E+00 -0.25277367555E+04  0.25277367555E+04  0.25500000920E-02 0.  1.
    10030    2    1    2    0    0  0.00000000000E+00  0.00000000000E+00 -0.14531007184E+04  0.36023727925E+04  0.32962991427E+04 0.  0.
        4    1    3    3  502    0 -0.18387104227E+03 -0.13441859857E+04  0.29615922447E+03  0.13886527368E+04  0.12699999809E+01 0. -1.
       -4    1    3    3    0  502  0.18387104227E+03  0.13441859857E+04 -0.17492599429E+04  0.22137200557E+04  0.12699999809E+01 0.  1.
</event>
<event>
 5   0  0.9810351E-08  0.3327630E+04  0.7818609E-02  0.8155900E-01
       -1   -1    0    0    0  501  0.00000000000E+00  0.00000000000E+00  0.15111906843E+04  0.15111906844E+04  0.50400001928E-02 0. -1.
        1   -1    0    0  501    0  0.00000000000E+00  0.00000000000E+00 -0.18318540446E+04  0.18318540446E+04  0.50400001928E-02 0.  1.
    10030    2    1    2    0    0  0.00000000000E+00  0.00000000000E+00 -0.32066336030E+03  0.33430447290E+04  0.33276302483E+04 0.  0.
        5    1    3    3  502    0 -0.84448175441E+03  0.82166834768E+03 -0.13404947076E+04  0.17847230761E+04  0.46999998093E+01 0.  1.
       -5    1    3    3    0  502  0.84448175441E+03 -0.82166834768E+03  0.10198313473E+04  0.15583216529E+04  0.46999998093E+01 0. -1.
</event>
<event>
 5   0  0.2713815E-07  0.3299126E+04  0.7818609E-02  0.8163118E-01
       -2   -1    0    0    0  501  0.00000000000E+00  0.00000000000E+00  0.12323926049E+04  0.12323926049E+04  0.25500000920E-02 0. -1.
        2   -1    0    0  501    0  0.00000000000E+00  0.00000000000E+00 -0.22079468612E+04  0.22079468612E+04  0.25500000920E-02 0.  1.
    10030    2    1    2    0    0  0.00000000000E+00  0.00000000000E+00 -0.97555425625E+03  0.34403394661E+04  0.32991255713E+04 0.  0.
        4    1    3    3  502    0  0.75397928645E+03  0.13655493036E+04  0.71700378570E+02  0.15615224053E+04  0.12699999809E+01 0. -1.
       -4    1    3    3    0  502 -0.75397928645E+03 -0.13655493036E+04 -0.10472546348E+04  0.18788170608E+04  0.12699999809E+01 0.  1.
</event>
<event>
 5   0  0.9810351E-08  0.3299102E+04  0.7818609E-02  0.8163124E-01
        1   -1    0    0  501    0  0.00000000000E+00  0.00000000000E+00  0.10985216330E+04  0.10985216330E+04  0.50400001928E-02 0. -1.
       -1   -1    0    0    0  501  0.00000000000E+00  0.00000000000E+00 -0.24769819873E+04  0.24769819873E+04  0.50400001928E-02 0.  1.
    10030    2    1    2    0    0  0.00000000000E+00  0.00000000000E+00 -0.13784603543E+04  0.35755036203E+04  0.32991018764E+04 0.  0.
        5    1    3    3  502    0  0.72907975605E+03  0.10008346650E+04  0.49192638863E+03  0.13323816942E+04  0.46999998093E+01 0. -1.
       -5    1    3    3    0  502 -0.72907975605E+03 -0.10008346650E+04 -0.18703867429E+04  0.22431219261E+04  0.46999998093E+01 0.  1.
</event>
<event>
 5   0  0.2824402E-07  0.3301081E+04  0.7818609E-02  0.8162620E-01
       -2   -1    0    0    0  501  0.00000000000E+00  0.00000000000E+00  0.13682425020E+04  0.13682425020E+04  0.25500000920E-02 0. -1.
        2   -1    0    0  501    0  0.00000000000E+00  0.00000000000E+00 -0.19910825340E+04  0.19910825340E+04  0.25500000920E-02 0.  1.
    10030    2    1    2    0    0  0.00000000000E+00  0.00000000000E+00 -0.62284003197E+03  0.33593250360E+04  0.33010808824E+04 0.  0.
        1    1    3    3  502    0  0.20853740522E+03 -0.95572664113E+03  0.10414657724E+04  0.14288289670E+04  0.50400001928E-02 0. -1.
       -1    1    3    3    0  502 -0.20853740522E+03  0.95572664113E+03 -0.16643058044E+04  0.19304960690E+04  0.50400001928E-02 0.  1.
</event>
<event>
 5   0  0.9454010E-08  0.3303984E+04  0.7818609E-02  0.8161882E-01
       -1   -1    0    0    0  501  0.00000000000E+00  0.00000000000E+00  0.15005570227E+04  0.15005570227E+04  0.50400001928E-02 0.  1.
        1   -1    0    0  501    0  0.00000000000E+00  0.00000000000E+00 -0.18187095255E+04  0.18187095255E+04  0.50400001928E-02 0. -1.
    10030    2    1    2    0    0  0.00000000000E+00  0.00000000000E+00 -0.31815250280E+03  0.33192665482E+04  0.33039838685E+04 0.  0.
        2    1    3    3  502    0  0.14714518946E+04 -0.44532627908E+03 -0.76651440174E+03  0.17178563680E+04  0.25500000920E-02 0. -1.
       -2    1    3    3    0  502 -0.14714518946E+04  0.44532627908E+03  0.44836189894E+03  0.16014101802E+04  0.25500000920E-02 0.  1.
</event>
<event>
 5   0  0.2703956E-07  0.3289713E+04  0.7818609E-02  0.8165518E-01
       -2   -1    0    0    0  501  0.00000000000E+00  0.00000000000E+00  0.18904510745E+04  0.18904510745E+04  0.25500000920E-02 0.  1.
        2   -1    0    0  501    0  0.00000000000E+00  0.00000000000E+00 -0.14311677705E+04  0.14311677705E+04  0.25500000920E-02 0. -1.
    10030    2    1    2    0    0  0.00000000000E+00  0.00000000000E+00  0.45928330396E+03  0.33216188450E+04  0.32897128443E+04 0.  0.
        5    1    3    3  502    0 -0.25931357933E+03  0.15534004143E+04 -0.24954968016E+03  0.15945511946E+04  0.46999998093E+01 0. -1.
       -5    1    3    3    0  502  0.25931357933E+03 -0.15534004143E+04  0.70883298412E+03  0.17270676503E+04  0.46999998093E+01 0.  1.
</event>
<event>
 5   0  0.9283910E-08  0.3284293E+04  0.7818609E-02  0.8166904E-01
       -1   -1    0    0    0  501  0.00000000000E+00  0.00000000000E+00  0.13998575019E+04  0.13998575019E+04  0.50400001928E-02 0.  1.
        1   -1    0    0  501    0  0.00000000000E+00  0.00000000000E+00 -0.19263710175E+04  0.19263710175E+04  0.50400001928E-02 0. -1.
    10030    2    1    2    0    0  0.00000000000E+00  0.00000000000E+00 -0.52651351567E+03  0.33262285194E+04  0.32842928738E+04 0.  0.
        3    1    3    3  502    0  0.12721291594E+03 -0.59581383238E+03  0.12811630292E+04  0.14186458214E+04  0.10100000352E+00 0.  1.
       -3    1    3    3    0  502 -0.12721291594E+03  0.59581383238E+03 -0.18076765449E+04  0.19075826981E+04  0.10100000352E+00 0. -1.
</event>
<event>
 5   0  0.9283910E-08  0.3311171E+04  0.7818609E-02  0.8160059E-01
       -1   -1    0    0    0  501  0.00000000000E+00  0.00000000000E+00  0.17897259997E+04  0.17897259997E+04  0.50400001928E-02 0.  1.
        1   -1    0    0  501    0  0.00000000000E+00  0.00000000000E+00 -0.15314989260E+04  0.15314989261E+04  0.50400001928E-02 0. -1.
    10030    2    1    2    0    0  0.00000000000E+00  0.00000000000E+00  0.25822707369E+03  0.33212249258E+04  0.33111710596E+04 0.  0.
        3    1    3    3  502    0 -0.14473060141E+03 -0.16302692847E+04 -0.12112051033E+03  0.16411566274E+04  0.10100000352E+00 0. -1.
       -3    1    3    3    0  502  0.14473060141E+03  0.16302692847E+04  0.37934758403E+03  0.16800682984E+04  0.10100000352E+00 0.  1.
</event>
<event>
 5   0  0.9283910E-08  0.3308978E+04  0.7818609E-02  0.8160615E-01
       -1   -1    0    0    0  501  0.00000000000E+00  0.00000000000E+00  0.11422627144E+04  0.11422627144E+04  0.50400001928E-02 0.  1.
        1   -1    0    0  501    0  0.00000000000E+00  0.00000000000E+00 -0.23964142548E+04  0.23964142548E+04  0.50400001928E-02 0. -1.
    10030    2    1    2    0    0  0.00000000000E+00  0.00000000000E+00 -0.12541515405E+04  0.35386769692E+04  0.33089784838E+04 0.  0.
        3    1    3    3  502    0  0.12842173796E+04 -0.55398638337E+03 -0.15722970713E+04  0.21043367795E+04  0.10100000352E+00 0. -1.
       -3    1    3    3    0  502 -0.12842173796E+04  0.55398638337E+03  0.31814553081E+03  0.14343401897E+04  0.10100000352E+00 0.  1.
</event>
<event>
 5   0  0.8805125E-08  0.3321474E+04  0.7818609E-02  0.8157453E-01
       -1   -1    0    0    0  501  0.00000000000E+00  0.00000000000E+00  0.11880312155E+04  0.11880312155E+04  0.50400001928E-02 0.  1.
        1   -1    0    0  501    0  0.00000000000E+00  0.00000000000E+00 -0.23215275151E+04  0.23215275151E+04  0.50400001928E-02 0. -1.
    10030    2    1    2    0    0  0.00000000000E+00  0.00000000000E+00 -0.11334962996E+04  0.35095587306E+04  0.33214738630E+04 0.  0.
        4    1    3    3  502    0  0.90268917687E+02  0.27148137675E+03  0.11617962794E+04  0.11965044183E+04  0.12699999809E+01 0.  1.
       -4    1    3    3    0  502 -0.90268917687E+02 -0.27148137675E+03 -0.22952925790E+04  0.23130543123E+04  0.12699999809E+01 0. -1.
</event>
<event>
 5   0  0.9810351E-08  0.3291253E+04  0.7818609E-02  0.8165125E-01
       -1   -1    0    0    0  501  0.00000000000E+00  0.00000000000E+00  0.94935380946E+03  0.94935380947E+03  0.50400001928E-02 0. -1.
        1   -1    0    0  501    0  0.00000000000E+00  0.00000000000E+00 -0.28525576427E+04  0.28525576427E+04  0.50400001928E-02 0.  1.
    10030    2    1    2    0    0  0.00000000000E+00  0.00000000000E+00 -0.19032038332E+04  0.38019114522E+04  0.32912529315E+04 0.  0.
        5    1    3    3  502    0  0.41948878611E+03  0.13742391038E+04 -0.18782938905E+04  0.23648496750E+04  0.46999998093E+01 0.  1.
       -5    1    3    3    0  502 -0.41948878611E+03 -0.13742391038E+04 -0.24909942749E+02  0.14370617772E+04  0.46999998093E+01 0. -1.
</event>
<event>
 5   0  0.2703956E-07  0.3300001E+04  0.7818609E-02  0.8162895E-01
        2   -1    0    0  501    0  0.00000000000E+00  0.00000000000E+00  0.13901617743E+04  0.13901617743E+04  0.25500000920E-02 0. -1.
       -2   -1    0    0    0  501  0.00000000000E+00  0.00000000000E+00 -0.19584069267E+04  0.19584069267E+04  0.25500000920E-02 0.  1.
    10030    2    1    2    0    0  0.00000000000E+00  0.00000000000E+00 -0.56824515236E+03  0.33485687010E+04  0.33000014836E+04 0.  0.
        5    1    3    3  502    0  0.32915698538E+03  0.11440308389E+04 -0.14434474423E+04  0.18710193719E+04  0.46999998093E+01 0.  1.
       -5    1    3    3    0  502 -0.32915698538E+03 -0.11440308389E+04  0.87520228994E+03  0.14775493291E+04  0.46999998093E+01 0. -1.
</event>
<event>
 5   0  0.8805125E-08  0.3298761E+04  0.7818609E-02  0.8163211E-01
       -3   -1    0    0    0  501  0.00000000000E+00  0.00000000000E+00  0.11162895146E+04  0.11162895192E+04  0.10100000352E+00 0.  1.
        3   -1    0    0  501    0  0.00000000000E+00  0.00000000000E+00 -0.24370526144E+04  0.24370526165E+04  0.10100000352E+00 0. -1.
    10030    2    1    2    0    0  0.00000000000E+00  0.00000000000E+00 -0.13207630998E+04  0.35533421357E+04  0.32987611565E+04 0.  0.
        3    1    3    3  502    0 -0.92549192241E+03  0.10688950317E+04  0.25450980815E+03  0.14366095990E+04  0.10100000352E+00 0.  1.
       -3    1    3    3    0  502  0.92549192241E+03 -0.10688950317E+04 -0.15752729079E+04  0.21167325367E+04  0.10100000352E+00 0. -1.
</event>
<event>
 5   0  0.2824402E-07  0.3289482E+04  0.7818609E-02  0.8165577E-01
       -2   -1    0    0    0  501  0.00000000000E+00  0.00000000000E+00  0.17067973239E+04  0.17067973239E+04  0.25500000920E-02 0.  1.
        2   -1    0    0  501    0  0.00000000000E+00  0.00000000000E+00 -0.15849407682E+04  0.15849407682E+04  0.25500000920E-02 0. -1.
    10030    2    1    2    0    0  0.00000000000E+00  0.00000000000E+00  0.12185655568E+03  0.32917380921E+04  0.32894818204E+04 0.  0.
        1    1    3    3  502    0 -0.35616992915E+03  0.12908337462E+04  0.10166036882E+04  0.16812471079E+04  0.50400001928E-02 0.  1.
       -1    1    3    3    0  502  0.35616992915E+03 -0.12908337462E+04 -0.89474713257E+03  0.16104909842E+04  0.50400001928E-02 0. -1.
</event>
<event>
 5   0  0.9181760E-08  0.3302712E+04  0.7818609E-02  0.8162206E-01
       -1   -1    0    0    0  501  0.00000000000E+00  0.00000000000E+00  0.12530055627E+04  0.12530055627E+04  0.50400001928E-02 0.  1.
        1   -1    0    0  501    0  0.00000000000E+00  0.00000000000E+00 -0.21763479770E+04  0.21763479770E+04  0.50400001928E-02 0. -1.
    10030    2    1    2    0    0  0.00000000000E+00  0.00000000000E+00 -0.92334241432E+03  0.34293535398E+04  0.33027116869E+04 0.  0.
        1    1    3    3  502    0  0.20567576804E+03 -0.26506589414E+03  0.12172439487E+04  0.12626342623E+04  0.50400001928E-02 0.  1.
       -1    1    3    3    0  502 -0.20567576804E+03  0.26506589414E+03 -0.21405863630E+04  0.21667192774E+04  0.50400001928E-02 0. -1.
</event>
<event>
 5   0  0.2713815E-07  0.3299228E+04  0.7818609E-02  0.8163092E-01
       -2   -1    0    0    0  501  0.00000000000E+00  0.00000000000E+00  0.10929529070E+04  0.10929529070E+04  0.25500000920E-02 0. -1.
        2   -1    0    0  501    0  0.00000000000E+00  0.00000000000E+00 -0.24897921448E+04  0.24897921448E+04  0.25500000920E-02 0.  1.
    10030    2    1    2    0    0  0.00000000000E+00  0.00000000000E+00 -0.13968392378E+04  0.35827450518E+04  0.32992275231E+04 0.  0.
        4    1    3    3  502    0 -0.27621989786E+03  0.13504785135E+04  0.28561581156E+03  0.14077171776E+04  0.12699999809E+01 0. -1.
       -4    1    3    3    0  502  0.27621989786E+03 -0.13504785135E+04 -0.16824550494E+04  0.21750278742E+04  0.12699999809E+01 0.  1.
</event>
<event>
 5   0  0.2875829E-07  0.3324927E+04  0.7818609E-02  0.8156581E-01
       -2   -1    0    0    0  501  0.00000000000E+00  0.00000000000E+00  0.24867531026E+04  0.24867531026E+04  0.25500000920E-02 0. -1.
        2   -1    0    0  501    0  0.00000000000E+00  0.00000000000E+00 -0.11114033232E+04  0.11114033232E+04  0.25500000920E-02 0.  1.
    10030    2    1    2    0    0  0.00000000000E+00  0.00000000000E+00  0.13753497794E+04  0.35981564258E+04  0.33249274652E+04 0.  0.
        3    1    3    3  502    0 -0.39054356754E+03 -0.12855873099E+04 -0.37182266531E+03  0.13940986744E+04  0.10100000352E+00 0.  1.
       -3    1    3    3    0  502  0.39054356754E+03  0.12855873099E+04  0.17471724447E+04  0.22040577513E+04  0.10100000352E+00 0. -1.
</event>
<event>
 5   0  0.9283910E-08  0.3300063E+04  0.7818609E-02  0.8162879E-01
        1   -1    0    0  501    0  0.00000000000E+00  0.00000000000E+00  0.29499679801E+04  0.29499679801E+04  0.50400001928E-02 0.  1.
       -1   -1    0    0    0  501  0.00000000000E+00  0.00000000000E+00 -0.92292684471E+03  0.92292684472E+03  0.50400001928E-02 0. -1.
    10030    2    1    2    0    0  0.00000000000E+00  0.00000000000E+00  0.20270411354E+04  0.38728948248E+04  0.33000634175E+04 0.  0.
        3    1    3    3  502    0 -0.12371089901E+04  0.25382814430E+03 -0.23276446693E+03  0.12841521279E+04  0.10100000352E+00 0. -1.
       -3    1    3    3    0  502  0.12371089901E+04 -0.25382814430E+03  0.22598056023E+04  0.25887426969E+04  0.10100000352E+00 0.  1.
</event>
<event>
 5   0  0.9810351E-08  0.3304295E+04  0.7818609E-02  0.8161803E-01
       -1   -1    0    0    0  501  0.00000000000E+00  0.00000000000E+00  0.13998919522E+04  0.13998919522E+04  0.50400001928E-02 0.  1.
        1   -1    0    0  501    0  0.00000000000E+00  0.00000000000E+00 -0.19498582848E+04  0.19498582848E+04  0.50400001928E-02 0. -1.
    10030    2    1    2    0    0  0.00000000000E+00  0.00000000000E+00 -0.54996633257E+03  0.33497502370E+04  0.33042947331E+04 0.  0.
        5    1    3    3  502    0 -0.10738106215E+03 -0.13999253927E+04 -0.11577357721E+04  0.18198065847E+04  0.46999998093E+01 0. -1.
       -5    1    3    3    0  502  0.10738106215E+03  0.13999253927E+04  0.60776943954E+03  0.15299436523E+04  0.46999998093E+01 0.  1.
</event>
<event>
 5   0  0.8805125E-08  0.3301464E+04  0.7818609E-02  0.8162523E-01
        1   -1    0    0  501    0  0.00000000000E+00  0.00000000000E+00  0.24202901634E+04  0.24202901634E+04  0.50400001928E-02 0.  1.
       -1   -1    0    0    0  501  0.00000000000E+00  0.00000000000E+00 -0.11258637491E+04  0.11258637491E+04  0.50400001928E-02 0. -1.
    10030    2    1    2    0    0  0.00000000000E+00  0.00000000000E+00  0.12944264143E+04  0.35461539125E+04  0.33014644976E+04 0.  0.
        4    1    3    3  502    0  0.44299539313E+03  0.10795245370E+04  0.19013537891E+04  0.22308666452E+04  0.12699999809E+01 0.  1.
       -4    1    3    3    0  502 -0.44299539313E+03 -0.10795245370E+04 -0.60692737481E+03  0.13152872673E+04  0.12699999809E+01 0. -1.
</event>
<event>
 5   0  0.2703956E-07  0.3300115E+04  0.7818609E-02  0.8162866E-01
        2   -1    0    0  501    0  0.00000000000E+00  0.00000000000E+00  0.15306676029E+04  0.15306676029E+04  0.25500000920E-02 0.  1.
       -2   -1    0    0    0  501  0.00000000000E+00  0.00000000000E+00 -0.17787596446E+04  0.17787596446E+04  0.25500000920E-02 0. -1.
    10030    2    1    2    0    0  0.00000000000E+00  0.00000000000E+00 -0.24809204163E+03  0.33094272475E+04  0.33001150049E+04 0.  0.
        5    1    3    3  502    0 -0.12466204323E+04  0.10612354255E+04  0.82409976731E+02  0.16392365982E+04  0.46999998093E+01 0.  1.
       -5    1    3    3    0  502  0.12466204323E+04 -0.10612354255E+04 -0.33050201836E+03  0.16701906493E+04  0.46999998093E+01 0. -1.
</event>
<event>
 5   0  0.2727168E-07  0.3301093E+04  0.7818609E-02  0.8162617E-01
       -2   -1    0    0    0  501  0.00000000000E+00  0.00000000000E+00  0.17978911093E+04  0.17978911093E+04  0.25500000920E-02 0. -1.
        2   -1    0    0  501    0  0.00000000000E+00  0.00000000000E+00 -0.15152772957E+04  0.15152772957E+04  0.25500000920E-02 0.  1.
    10030    2    1    2    0    0  0.00000000000E+00  0.00000000000E+00  0.28261381367E+03  0.33131684050E+04  0.33010928966E+04 0.  0.
        2    1    3    3  502    0 -0.18373003797E+03 -0.11844641106E+04 -0.99756488494E+03  0.15594382500E+04  0.25500000920E-02 0.  1.
       -2    1    3    3    0  502  0.18373003797E+03  0.11844641106E+04  0.12801786986E+04  0.17537301550E+04  0.25500000920E-02 0. -1.
</event>
<event>
 5   0  0.2875829E-07  0.3294219E+04  0.7818609E-02  0.8164368E-01
       -2   -1    0    0    0  501  0.00000000000E+00  0.00000000000E+00  0.20400259056E+04  0.20400259056E+04  0.25500000920E-02 0. -1.
        2   -1    0    0  501    0  0.00000000000E+00  0.00000000000E+00 -0.13298701572E+04  0.13298701572E+04  0.25500000920E-02 0.  1.
    10030    2    1    2    0    0  0.00000000000E+00  0.00000000000E+00  0.71015574837E+03  0.33698960628E+04  0.32942189191E+04 0.  0.
        3    1    3    3  502    0  0.66255572653E+03 -0.24946014286E+02  0.18974843532E+04  0.20099873819E+04  0.10100000352E+00 0. -1.
       -3    1    3    3    0  502 -0.66255572653E+03  0.24946014286E+02 -0.11873286048E+04  0.13599086809E+04  0.10100000352E+00 0.  1.
</event>
<event>
 5   0  0.2727168E-07  0.3306340E+04  0.7818609E-02  0.8161284E-01
        2   -1    0    0  501    0  0.00000000000E+00  0.00000000000E+00  0.23677031255E+04  0.23677031255E+04  0.25500000920E-02 0.  1.
       -2   -1    0    0    0  501  0.00000000000E+00  0.00000000000E+00 -0.11542711765E+04  0.11542711765E+04  0.25500000920E-02 0. -1.
    10030    2    1    2    0    0  0.00000000000E+00  0.00000000000E+00  0.12134319490E+04  0.35219743019E+04  0.33063402560E+04 0.  0.
        2    1    3    3  502    0 -0.12860706118E+04 -0.43896914077E+03  0.16095498587E+04  0.21064952582E+04  0.25500000920E-02 0.  1.
       -2    1    3    3    0  502  0.12860706118E+04  0.43896914077E+03 -0.39611790968E+03  0.14154790438E+04  0.25500000920E-02 0. -1.
</event>
<event>
 5   0  0.2875829E-07  0.3305998E+04  0.7818609E-02  0.8161371E-01
        2   -1    0    0  501    0  0.00000000000E+00  0.00000000000E+00  0.14662758685E+04  0.14662758685E+04  0.25500000920E-02 0.  1.
       -2   -1    0    0    0  501  0.00000000000E+00  0.00000000000E+00 -0.18635005199E+04  0.18635005199E+04  0.25500000920E-02 0. -1.
    10030    2    1    2    0    0  0.00000000000E+00  0.00000000000E+00 -0.39722465141E+03  0.33297763884E+04  0.33059980903E+04 0.  0.
        3    1    3    3  502    0  0.24399577282E+03  0.11164750141E+04  0.10042788868E+04  0.15213896565E+04  0.10100000352E+00 0.  1.
       -3    1    3    3    0  502 -0.24399577282E+03 -0.11164750141E+04 -0.14015035382E+04  0.18083867319E+04  0.10100000352E+00 0. -1.
</event>
<event>
 5   0  0.2703956E-07  0.3306042E+04  0.7818609E-02  0.8161360E-01
       -2   -1    0    0    0  501  0.00000000000E+00  0.00000000000E+00  0.23304567654E+04  0.23304567654E+04  0.25500000920E-02 0. -1.
        2   -1    0    0  501    0  0.00000000000E+00  0.00000000000E+00 -0.11725078829E+04  0.11725078829E+04  0.25500000920E-02 0.  1.
    10030    2    1    2    0    0  0.00000000000E+00  0.00000000000E+00  0.11579488825E+04  0.35029646484E+04  0.33060423036E+04 0.  0.
        5    1    3    3  502    0  0.60588868778E+03  0.15348078099E+04  0.47450804103E+03  0.17169496459E+04  0.46999998093E+01 0. -1.
       -5    1    3    3    0  502 -0.60588868778E+03 -0.15348078099E+04  0.68344084147E+03  0.17860150025E+04  0.46999998093E+01 0.  1.
</event>
<event>
 5   0  0.2713815E-07  0.3300073E+04  0.7818609E-02  0.8162877E-01
       -2   -1    0    0    0  501  0.00000000000E+00  0.00000000000E+00  0.90944937453E+03  0.90944937454E+03  0.25500000920E-02 0. -1.
        2   -1    0    0  501    0  0.00000000000E+00  0.00000000000E+00 -0.29937021805E+04  0.29937021805E+04  0.25500000920E-02 0.  1.
    10030    2    1    2    0    0  0.00000000000E+00  0.00000000000E+00 -0.20842528059E+04  0.39031515550E+04  0.33000730753E+04 0.  0.
        4    1    3    3  502    0  0.12674027646E+04 -0.46893502697E+01 -0.22917517663E+04  0.26188660770E+04  0.12699999809E+01 0.  1.
       -4    1    3    3    0  502 -0.12674027646E+04  0.46893502697E+01  0.20749896039E+03  0.12842854781E+04  0.12699999809E+01 0. -1.
</event>
<event>
 5   0  0.2713815E-07  0.3300625E+04  0.7818609E-02  0.8162736E-01
        2   -1    0    0  501    0  0.00000000000E+00  0.00000000000E+00  0.12091866606E+04  0.12091866606E+04  0.25500000920E-02 0. -1.
       -2   -1    0    0    0  501  0.00000000000E+00  0.00000000000E+00 -0.22523660993E+04  0.22523660994E+04  0.25500000920E-02 0.  1.
    10030    2    1    2    0    0  0.00000000000E+00  0.00000000000E+00 -0.10431794388E+04  0.34615527599E+04  0.33006248148E+04 0.  0.
        4    1    3    3  502    0 -0.13660112116E+04 -0.74853906648E+03 -0.10933613775E+04  0.19030864612E+04  0.12699999809E+01 0.  1.
       -4    1    3    3    0  502  0.13660112116E+04  0.74853906648E+03  0.50181938738E+02  0.15584662987E+04  0.12699999809E+01 0. -1.
</event>
<event>
 5   0  0.9181760E-08  0.3299541E+04  0.7818609E-02  0.8163012E-01
       -1   -1    0    0    0  501  0.00000000000E+00  0.00000000000E+00  0.22326700538E+04  0.22326700538E+04  0.50400001928E-02 0.  1.
        1   -1    0    0  501    0  0.00000000000E+00  0.00000000000E+00 -0.12190530761E+04  0.12190530761E+04  0.50400001928E-02 0. -1.
    10030    2    1    2    0    0  0.00000000000E+00  0.00000000000E+00  0.10136169777E+04  0.34517231299E+04  0.32995413603E+04 0.  0.
        1    1    3    3  502    0 -0.83715829265E+03 -0.11180920511E+04 -0.41162442941E+03  0.14561588212E+04  0.50400001928E-02 0. -1.
       -1    1    3    3    0  502  0.83715829265E+03  0.11180920511E+04  0.14252414071E+04  0.19955643087E+04  0.50400001928E-02 0.  1.
</event>
<event>
 5   0  0.2727168E-07  0.3301001E+04  0.7818609E-02  0.8162641E-01
        2   -1    0    0  501    0  0.00000000000E+00  0.00000000000E+00  0.19328161241E+04  0.19328161241E+04  0.25500000920E-02 0.  1.
       -2   -1    0    0    0  501  0.00000000000E+00  0.00000000000E+00 -0.14094209488E+04  0.14094209488E+04  0.25500000920E-02 0. -1.
    10030    2    1    2    0    0  0.00000000000E+00  0.00000000000E+00  0.52339517535E+03  0.33422370729E+04  0.33010007788E+04 0.  0.
        2    1    3    3  502    0 -0.37745966825E+03 -0.81087727619E+03  0.16661645067E+04  0.18910584130E+04  0.25500000920E-02 0.  1.
       -2    1    3    3    0  502  0.37745966825E+03  0.81087727619E+03 -0.11427693313E+04  0.14511786599E+04  0.25500000920E-02 0. -1.
</event>
<event>
 5   0  0.9810351E-08  0.3273435E+04  0.7818609E-02  0.8169688E-01
       -1   -1    0    0    0  501  0.00000000000E+00  0.00000000000E+00  0.14718100010E+04  0.14718100010E+04  0.50400001928E-02 0.  1.
        1   -1    0    0  501    0  0.00000000000E+00  0.00000000000E+00 -0.18201018293E+04  0.18201018293E+04  0.50400001928E-02 0. -1.
    10030    2    1    2    0    0  0.00000000000E+00  0.00000000000E+00 -0.34829182834E+03  0.32919118303E+04  0.32734349392E+04 0.  0.
        5    1    3    3  502    0  0.10895368274E+04 -0.12189372343E+04 -0.96747173690E+02  0.16377669507E+04  0.46999998093E+01 0.  1.
       -5    1    3    3    0  502 -0.10895368274E+04  0.12189372343E+04 -0.25154465465E+03  0.16541448796E+04  0.46999998093E+01 0. -1.
</event>
<event>
 5   0  0.9181760E-08  0.3304648E+04  0.7818609E-02  0.8161714E-01
        1   -1    0    0  501    0  0.00000000000E+00  0.00000000000E+00  0.20323268333E+04  0.20323268333E+04  0.50400001928E-02 0. -1.
       -1   -1    0    0    0  501  0.00000000000E+00  0.00000000000E+00 -0.13433739802E+04  0.13433739803E+04  0.50400001928E-02 0.  1.
    10030    2    1    2    0    0  0.00000000000E+00  0.00000000000E+00  0.68895285302E+03  0.33757008135E+04  0.33046482337E+04 0.  0.
        1    1    3    3  502    0 -0.93593010652E+03 -0.63588228211E+03  0.15744683968E+04  0.19388816811E+04  0.50400001928E-02 0. -1.
       -1    1    3    3    0  502  0.93593010652E+03  0.63588228211E+03 -0.88551554374E+03  0.14368191324E+04  0.50400001928E-02 0.  1.
</event>
<event>
 5   0  0.9810351E-08  0.3302708E+04  0.7818609E-02  0.8162207E-01
       -1   -1    0    0    0  501  0.00000000000E+00  0.00000000000E+00  0.18056995876E+04  0.18056995876E+04  0.50400001928E-02 0. -1.
        1   -1    0    0  501    0  0.00000000000E+00  0.00000000000E+00 -0.15102014543E+04  0.15102014543E+04  0.50400001928E-02 0.  1.
    10030    2    1    2    0    0  0.00000000000E+00  0.00000000000E+00  0.29549813334E+03  0.33159010419E+04  0.33027080665E+04 0.  0.
        5    1    3    3  502    0  0.97035988527E+01 -0.84163014653E+03  0.15741680347E+04  0.17850665407E+04  0.46999998093E+01 0. -1.
       -5    1    3    3    0  502 -0.97035988527E+01  0.84163014653E+03 -0.12786699013E+04  0.15308345012E+04  0.46999998093E+01 0.  1.
</event>
<event>
 5   0  0.2824402E-07  0.3295422E+04  0.7818609E-02  0.8164061E-01
        2   -1    0    0  501    0  0.00000000000E+00  0.00000000000E+00  0.97495583372E+03  0.97495583372E+03  0.25500000920E-02 0.  1.
       -2   -1    0    0    0  501  0.00000000000E+00  0.00000000000E+00 -0.27846919222E+04  0.27846919222E+04  0.25500000920E-02 0. -1.
    10030    2    1    2    0    0  0.00000000000E+00  0.00000000000E+00 -0.18097360885E+04  0.37596477559E+04  0.32954220577E+04 0.  0.
        1    1    3    3  502    0  0.13094820264E+04 -0.52467591850E+03  0.66496492197E+02  0.14122499001E+04  0.50400001928E-02 0.  1.
       -1    1    3    3    0  502 -0.13094820264E+04  0.52467591850E+03 -0.18762325807E+04  0.23473978558E+04  0.50400001928E-02 0. -1.
</event>
<event>
 5   0  0.2875829E-07  0.3239522E+04  0.7818609E-02  0.8178457E-01
        2   -1    0    0  501    0  0.00000000000E+00  0.00000000000E+00  0.14427503260E+04  0.14427503260E+04  0.25500000920E-02 0.  1.
       -2   -1    0    0    0  501  0.00000000000E+00  0.00000000000E+00 -0.18184893213E+04  0.18184893213E+04  0.25500000920E-02 0. -1.
    10030    2    1    2    0    0  0.00000000000E+00  0.00000000000E+00 -0.37573899534E+03  0.32612396473E+04  0.32395222247E+04 0.  0.
        3    1    3    3  502    0  0.29066656054E+03  0.15547502370E+04  0.16359951271E+03  0.15901258314E+04  0.10100000352E+00 0.  1.
       -3    1    3    3    0  502 -0.29066656054E+03 -0.15547502370E+04 -0.53933850805E+03  0.16711138158E+04  0.10100000352E+00 0. -1.
</event>
<event>
 5   0  0.2703956E-07  0.3303522E+04  0.7818609E-02  0.8162000E-01
        2   -1    0    0  501    0  0.00000000000E+00  0.00000000000E+00  0.16010227693E+04  0.16010227693E+04  0.25500000920E-02 0. -1.
       -2   -1    0    0    0  501  0.00000000000E+00  0.00000000000E+00 -0.17041075379E+04  0.17041075379E+04  0.25500000920E-02 0.  1.
    10030    2    1    2    0    0  0.00000000000E+00  0.00000000000E+00 -0.10308476868E+03  0.33051303072E+04  0.33035223441E+04 0.  0.
        5    1    3    3  502    0 -0.40627082253E+03  0.17799003728E+03 -0.16434033941E+04  0.17022142169E+04  0.46999998093E+01 0.  1.
       -5    1    3    3    0  502  0.40627082253E+03 -0.17799003728E+03  0.15403186254E+04  0.16029160903E+04  0.46999998093E+01 0. -1.
</event>
<event>
 5   0  0.9810351E-08  0.3296809E+04  0.7818609E-02  0.8163708E-01
        1   -1    0    0  501    0  0.00000000000E+00  0.00000000000E+00  0.14583850926E+04  0.14583850926E+04  0.50400001928E-02 0.  1.
       -1   -1    0    0    0  501  0.00000000000E+00  0.00000000000E+00 -0.18631826950E+04  0.18631826950E+04  0.50400001928E-02 0. -1.
    10030    2    1    2    0    0  0.00000000000E+00  0.00000000000E+00 -0.40479760248E+03  0.33215677876E+04  0.32968092861E+04 0.  0.
        5    1    3    3  502    0  0.10659287557E+04  0.10079039336E+04 -0.95980320917E+03  0.17530883440E+04  0.46999998093E+01 0. -1.
       -5    1    3    3    0  502 -0.10659287557E+04 -0.10079039336E+04  0.55500560669E+03  0.15684794436E+04  0.46999998093E+01 0.  1.
</event>
<event>
 5   0  0.2875829E-07  0.3291043E+04  0.7818609E-02  0.8165178E-01
       -2   -1    0    0    0  501  0.00000000000E+00  0.00000000000E+00  0.31572471567E+04  0.31572471567E+04  0.25500000920E-02 0. -1.
        2   -1    0    0  501    0  0.00000000000E+00  0.00000000000E+00 -0.85762708595E+03  0.85762708595E+03  0.25500000920E-02 0.  1.
    10030    2    1    2    0    0  0.00000000000E+00  0.00000000000E+00  0.22996200708E+04  0.40148742427E+04  0.32910428005E+04 0.  0.
        3    1    3    3  502    0 -0.53771979304E+03  0.14941689415E+04  0.16760232313E+04  0.23088389471E+04  0.10100000352E+00 0.  1.
       -3    1    3    3    0  502  0.53771979304E+03 -0.14941689415E+04  0.62359683944E+03  0.17060352956E+04  0.10100000352E+00 0. -1.
</event>
<event>
 5   0  0.2713815E-07  0.3304514E+04  0.7818609E-02  0.8161748E-01
       -2   -1    0    0    0  501  0.00000000000E+00  0.00000000000E+00  0.12386588907E+04  0.12386588907E+04  0.25500000920E-02 0.  1.
        2   -1    0    0  501    0  0.00000000000E+00  0.00000000000E+00 -0.22039588069E+04  0.22039588069E+04  0.25500000920E-02 0. -1.
    10030    2    1    2    0    0  0.00000000000E+00  0.00000000000E+00 -0.96529991617E+03  0.34426176975E+04  0.33045139859E+04 0.  0.
        4    1    3    3  502    0 -0.68736443590E+02  0.53808034821E+03  0.11432461057E+04  0.12654123561E+04  0.12699999809E+01 0.  1.
       -4    1    3    3    0  502  0.68736443590E+02 -0.53808034821E+03 -0.21085460219E+04  0.21772053415E+04  0.12699999809E+01 0. -1.
</event>
<event>
 5   0  0.2703956E-07  0.3301438E+04  0.7818609E-02  0.8162530E-01
        2   -1    0    0  501    0  0.00000000000E+00  0.00000000000E+00  0.21844493388E+04  0.21844493388E+04  0.25500000920E-02 0. -1.
       -2   -1    0    0    0  501  0.00000000000E+00  0.00000000000E+00 -0.12473956069E+04  0.12473956069E+04  0.25500000920E-02 0.  1.
    10030    2    1    2    0    0  0.00000000000E+00  0.00000000000E+00  0.93705373183E+03  0.34318449457E+04  0.33014375710E+04 0.  0.
        5    1    3    3  502    0  0.16402433402E+04 -0.47287178812E+02  0.65510520759E+03  0.17668670622E+04  0.46999998093E+01 0. -1.
       -5    1    3    3    0  502 -0.16402433402E+04  0.47287178812E+02  0.28194852424E+03  0.16649778835E+04  0.46999998093E+01 0.  1.
</event>
<event>
 5   0  0.9810351E-08  0.3295069E+04  0.7818609E-02  0.8164151E-01
       -1   -1    0    0    0  501  0.00000000000E+00  0.00000000000E+00  0.20431214538E+04  0.20431214538E+04  0.50400001928E-02 0. -1.
        1   -1    0    0  501    0  0.00000000000E+00  0.00000000000E+00 -0.13285404322E+04  0.13285404322E+04  0.50400001928E-02 0.  1.
    10030    2    1    2    0    0  0.00000000000E+00  0.00000000000E+00  0.71458102160E+03  0.33716618860E+04  0.32950687151E+04 0.  0.
        5    1    3    3  502    0  0.12807051668E+04  0.15536448535E+03  0.14058061647E+04  0.19080505523E+04  0.46999998093E+01 0. -1.
       -5    1    3    3    0  502 -0.12807051668E+04 -0.15536448535E+03 -0.69122514307E+03  0.14636113337E+04  0.46999998093E+01 0.  1.
</event>
<event>
 5   0  0.2875829E-07  0.3281764E+04  0.7818609E-02  0.8167551E-01
       -2   -1    0    0    0  501  0.00000000000E+00  0.00000000000E+00  0.19388339014E+04  0.19388339014E+04  0.25500000920E-02 0.  1.
        2   -1    0    0  501    0  0.00000000000E+00  0.00000000000E+00 -0.13887183370E+04  0.13887183370E+04  0.25500000920E-02 0. -1.
    10030    2    1    2    0    0  0.00000000000E+00  0.00000000000E+00  0.55011556442E+03  0.33275522384E+04  0.32817642763E+04 0.  0.
        3    1    3    3  502    0 -0.10102727492E+04  0.99653151037E+03 -0.56031094194E+03  0.15256717998E+04  0.10100000352E+00 0.  1.
       -3    1    3    3    0  502  0.10102727492E+04 -0.99653151037E+03  0.11104265064E+04  0.18018804386E+04  0.10100000352E+00 0. -1.
</event>
<event>
 5   0  0.2824402E-07  0.3300679E+04  0.7818609E-02  0.8162723E-01
        2   -1    0    0  501    0  0.00000000000E+00  0.00000000000E+00  0.84670939475E+03  0.84670939476E+03  0.25500000920E-02 0.  1.
       -2   -1    0    0    0  501  0.00000000000E+00  0.00000000000E+00 -0.32167120370E+04  0.32167120370E+04  0.25500000920E-02 0. -1.
    10030    2    1    2    0    0  0.00000000000E+00  0.00000000000E+00 -0.23700026422E+04  0.40634214317E+04  0.33006789010E+04 0.  0.
        1    1    3    3  502    0  0.35809973746E+02 -0.16311327133E+04 -0.87909669915E+03  0.18532909348E+04  0.50400001928E-02 0.  1.
       -1    1    3    3    0  502 -0.35809973746E+02  0.16311327133E+04 -0.14909059431E+04  0.22101304970E+04  0.50400001928E-02 0. -1.
</event>
<event>
 5   0  0.2713815E-07  0.3301191E+04  0.7818609E-02  0.8162592E-01
       -2   -1    0    0    0  501  0.00000000000E+00  0.00000000000E+00  0.12060219780E+04  0.12060219780E+04  0.25500000920E-02 0. -1.
        2   -1    0    0  501    0  0.00000000000E+00  0.00000000000E+00 -0.22590514413E+04  0.22590514413E+04  0.25500000920E-02 0.  1.
    10030    2    1    2    0    0  0.00000000000E+00  0.00000000000E+00 -0.10530294634E+04  0.34650734193E+04  0.33011911109E+04 0.  0.
        4    1    3    3  502    0  0.39627636267E+03 -0.11803160561E+04 -0.16639539130E+04  0.20782023928E+04  0.12699999809E+01 0.  1.
       -4    1    3    3    0  502 -0.39627636267E+03  0.11803160561E+04  0.61092444966E+03  0.13868710265E+04  0.12699999809E+01 0. -1.
</event>
<event>
 5   0  0.2824402E-07  0.3294189E+04  0.7818609E-02  0.8164376E-01
        2   -1    0    0  501    0  0.00000000000E+00  0.00000000000E+00  0.25722005271E+04  0.25722005271E+04  0.25500000920E-02 0.  1.
       -2   -1    0    0    0  501  0.00000000000E+00  0.00000000000E+00 -0.10547080891E+04  0.10547080891E+04  0.25500000920E-02 0. -1.
    10030    2    1    2    0    0  0.00000000000E+00  0.00000000000E+00  0.15174924380E+04  0.36269086162E+04  0.32941892494E+04 0.  0.
        1    1    3    3  502    0 -0.11314221427E+03 -0.82584542708E+03  0.23228273890E+04  0.24678632274E+04  0.50400001928E-02 0.  1.
       -1    1    3    3    0  502  0.11314221427E+03  0.82584542708E+03 -0.80533495093E+03  0.11590453888E+04  0.50400001928E-02 0. -1.
</event>
<event>
 5   0  0.2875829E-07  0.3302831E+04  0.7818609E-02  0.8162175E-01
        2   -1    0    0  501    0  0.00000000000E+00  0.00000000000E+00  0.27509918421E+04  0.27509918421E+04  0.25500000920E-02 0. -1.
       -2   -1    0    0    0  501  0.00000000000E+00  0.00000000000E+00 -0.99134176089E+03  0.99134176089E+03  0.25500000920E-02 0.  1.
    10030    2    1    2    0    0  0.00000000000E+00  0.00000000000E+00  0.17596500812E+04  0.37423336030E+04  0.33028309657E+04 0.  0.
        3    1    3    3  502    0  0.15244389022E+04 -0.57195592285E+03  0.56720173448E+03  0.17241709202E+04  0.10100000352E+00 0.  1.
       -3    1    3    3    0  502 -0.15244389022E+04  0.57195592285E+03  0.11924483468E+04  0.20181626828E+04  0.10100000352E+00 0. -1.
</event>
<event>
 5   0  0.2727168E-07  0.3298951E+04  0.7818609E-02  0.8163162E-01
       -2   -1    0    0    0  501  0.00000000000E+00  0.00000000000E+00  0.15029485470E+04  0.15029485470E+04  0.25500000920E-02 0. -1.
        2   -1    0    0  501    0  0.00000000000E+00  0.00000000000E+00 -0.18102874214E+04  0.18102874215E+04  0.25500000920E-02 0.  1.
    10030    2    1    2    0    0  0.00000000000E+00  0.00000000000E+00 -0.30733887449E+03  0.33132359684E+04  0.32989506511E+04 0.  0.
        2    1    3    3  502    0  0.46929879433E+03  0.84765024458E+03 -0.14943719257E+04  0.17809828039E+04  0.25500000920E-02 0.  1.
       -2    1    3    3    0  502 -0.46929879433E+03 -0.84765024458E+03  0.11870330512E+04  0.15322531645E+04  0.25500000920E-02 0. -1.
</event>
<event>
 5   0  0.2824402E-07  0.3297584E+04  0.7818609E-02  0.8163510E-01
       -2   -1    0    0    0  501  0.00000000000E+00  0.00000000000E+00  0.20936800457E+04  0.20936800457E+04  0.25500000920E-02 0. -1.
        2   -1    0    0  501    0  0.00000000000E+00  0.00000000000E+00 -0.12984383636E+04  0.12984383636E+04  0.25500000920E-02 0.  1.
    10030    2    1    2    0    0  0.00000000000E+00  0.00000000000E+00  0.79524168207E+03  0.33921184093E+04  0.32975836562E+04 0.  0.
        1    1    3    3  502    0  0.92197956546E+03 -0.13306471357E+04  0.71939232169E+03  0.17714946885E+04  0.50400001928E-02 0. -1.
       -1    1    3    3    0  502 -0.92197956546E+03  0.13306471357E+04  0.75849360377E+02  0.16206237208E+04  0.50400001928E-02 0.  1.
</event>
<event>
 5   0  0.2727168E-07  0.3300601E+04  0.7818609E-02  0.8162742E-01
        2   -1    0    0  501    0  0.00000000000E+00  0.00000000000E+00  0.12836417968E+04  0.12836417968E+04  0.25500000920E-02 0.  1.
       -2   -1    0    0    0  501  0.00000000000E+00  0.00000000000E+00 -0.21216916724E+04  0.21216916724E+04  0.25500000920E-02 0. -1.
    10030    2    1    2    0    0  0.00000000000E+00  0.00000000000E+00 -0.83804987560E+03  0.34053334692E+04  0.33006012244E+04 0.  0.
        2    1    3    3  502    0  0.47786434298E+03 -0.10556012018E+04 -0.16314052649E+04  0.20010325750E+04  0.25500000920E-02 0. -1.
       -2    1    3    3    0  502 -0.47786434298E+03  0.10556012018E+04  0.79335538935E+03  0.14043008942E+04  0.25500000920E-02 0.  1.
</event>
<event>
 5   0  0.9181760E-08  0.3304296E+04  0.7818609E-02  0.8161803E-01
       -1   -1    0    0    0  501  0.00000000000E+00  0.00000000000E+00  0.23108254535E+04  0.23108254535E+04  0.50400001928E-02 0. -1.
        1   -1    0    0  501    0  0.00000000000E+00  0.00000000000E+00 -0.11812199804E+04  0.11812199804E+04  0.50400001928E-02 0.  1.
    10030    2    1    2    0    0  0.00000000000E+00  0.00000000000E+00  0.11296054731E+04  0.34920454339E+04  0.33042961108E+04 0.  0.
        1    1    3    3  502    0  0.13174393540E+04  0.32371545673E+03  0.15613311263E+04  0.20683793256E+04  0.50400001928E-02 0. -1.
       -1    1    3    3    0  502 -0.13174393540E+04 -0.32371545673E+03 -0.43172565327E+03  0.14236661084E+04  0.50400001928E-02 0.  1.
</event>
<event>
 5   0  0.9454010E-08  0.3297467E+04  0.7818609E-02  0.8163540E-01
        1   -1    0    0  501    0  0.00000000000E+00  0.00000000000E+00  0.18333333337E+04  0.18333333337E+04  0.50400001928E-02 0.  1.
       -1   -1    0    0    0  501  0.00000000000E+00  0.00000000000E+00 -0.14827207315E+04  0.14827207315E+04  0.50400001928E-02 0. -1.
    10030    2    1    2    0    0  0.00000000000E+00  0.00000000000E+00  0.35061260222E+03  0.33160540652E+04  0.32974665073E+04 0.  0.
        2    1    3    3  502    0  0.81515189220E+03 -0.41491940882E+03 -0.12041734165E+04  0.15121720604E+04  0.25500000920E-02 0. -1.
       -2    1    3    3    0  502 -0.81515189220E+03  0.41491940882E+03  0.15547860187E+04  0.18038820048E+04  0.25500000920E-02 0.  1.
</event>
<event>
 5   0  0.8805125E-08  0.3306197E+04  0.7818609E-02  0.8161320E-01
        1   -1    0    0  501    0  0.00000000000E+00  0.00000000000E+00  0.17359542163E+04  0.17359542163E+04  0.50400001928E-02 0. -1.
       -1   -1    0    0    0  501  0.00000000000E+00  0.00000000000E+00 -0.15741976183E+04  0.15741976183E+04  0.50400001928E-02 0.  1.
    10030    2    1    2    0    0  0.00000000000E+00  0.00000000000E+00  0.16175659798E+03  0.33101518346E+04  0.33061972069E+04 0.  0.
        4    1    3    3  502    0  0.43853753173E+03  0.13069881551E+04 -0.83246292883E+03  0.16104438348E+04  0.12699999809E+01 0.  1.
       -4    1    3    3    0  502 -0.43853753173E+03 -0.13069881551E+04  0.99421952681E+03  0.16997079998E+04  0.12699999809E+01 0. -1.
</event>
<event>
 5   0  0.8805125E-08  0.3301181E+04  0.7818609E-02  0.8162595E-01
       -3   -1    0    0    0  501  0.00000000000E+00  0.00000000000E+00  0.14083790066E+04  0.14083790102E+04  0.10100000352E+00 0. -1.
        3   -1    0    0  501    0  0.00000000000E+00  0.00000000000E+00 -0.19344574525E+04  0.19344574552E+04  0.10100000352E+00 0.  1.
    10030    2    1    2    0    0  0.00000000000E+00  0.00000000000E+00 -0.52607844599E+03  0.33428364653E+04  0.33011811678E+04 0.  0.
        4    1    3    3  502    0 -0.94716731611E+03 -0.11484146819E+04  0.45902611723E+03  0.15577832954E+04  0.12699999809E+01 0. -1.
       -4    1    3    3    0  502  0.94716731611E+03  0.11484146819E+04 -0.98510456322E+03  0.17850531700E+04  0.12699999809E+01 0.  1.
</event>
<event>
 5   0  0.2875829E-07  0.3287686E+04  0.7818609E-02  0.8166036E-01
       -2   -1    0    0    0  501  0.00000000000E+00  0.00000000000E+00  0.11558140173E+04  0.11558140173E+04  0.25500000920E-02 0. -1.
        2   -1    0    0  501    0  0.00000000000E+00  0.00000000000E+00 -0.23379359460E+04  0.23379359460E+04  0.25500000920E-02 0.  1.
    10030    2    1    2    0    0  0.00000000000E+00  0.00000000000E+00 -0.11821219287E+04  0.34937499633E+04  0.32876855920E+04 0.  0.
        3    1    3    3  502    0 -0.41953292002E+03 -0.15726321544E+04 -0.34632336521E+03  0.16640672004E+04  0.10100000352E+00 0. -1.
       -3    1    3    3    0  502  0.41953292002E+03  0.15726321544E+04 -0.83579856348E+03  0.18296827629E+04  0.10100000352E+00 0.  1.
</event>
<event>
 5   0  0.2875829E-07  0.3305301E+04  0.7818609E-02  0.8161548E-01
        2   -1    0    0  501    0  0.00000000000E+00  0.00000000000E+00  0.91191607316E+03  0.91191607316E+03  0.25500000920E-02 0. -1.
       -2   -1    0    0    0  501  0.00000000000E+00  0.00000000000E+00 -0.29950709500E+04  0.29950709500E+04  0.25500000920E-02 0.  1.
    10030    2    1    2    0    0  0.00000000000E+00  0.00000000000E+00 -0.20831548768E+04  0.39069870232E+04  0.33053007969E+04 0.  0.
        3    1    3    3  502    0  0.14283044109E+04  0.19589173706E+03 -0.19966355344E+04  0.24627181183E+04  0.10100000352E+00 0.  1.
       -3    1    3    3    0  502 -0.14283044109E+04 -0.19589173706E+03 -0.86519342473E+02  0.14442689049E+04  0.10100000352E+00 0. -1.
</event>
<event>
 5   0  0.9283910E-08  0.3289021E+04  0.7818609E-02  0.8165695E-01
        1   -1    0    0  501    0  0.00000000000E+00  0.00000000000E+00  0.18711477628E+04  0.18711477628E+04  0.50400001928E-02 0.  1.
       -1   -1    0    0    0  501  0.00000000000E+00  0.00000000000E+00 -0.14453242288E+04  0.14453242289E+04  0.50400001928E-02 0. -1.
    10030    2    1    2    0    0  0.00000000000E+00  0.00000000000E+00  0.42582353396E+03  0.33164719917E+04  0.32890212510E+04 0.  0.
        3    1    3    3  502    0  0.81991032014E+03  0.13113936547E+04 -0.35068874448E+03  0.15858716393E+04  0.10100000352E+00 0. -1.
       -3    1    3    3    0  502 -0.81991032014E+03 -0.13113936547E+04  0.77651227844E+03  0.17306003523E+04  0.10100000352E+00 0.  1.
</event>
<event>
 5   0  0.8805125E-08  0.3301687E+04  0.7818609E-02  0.8162466E-01
       -1   -1    0    0    0  501  0.00000000000E+00  0.00000000000E+00  0.16338147415E+04  0.16338147415E+04  0.50400001928E-02 0.  1.
        1   -1    0    0  501    0  0.00000000000E+00  0.00000000000E+00 -0.16680496421E+04  0.16680496421E+04  0.50400001928E-02 0. -1.
    10030    2    1    2    0    0  0.00000000000E+00  0.00000000000E+00 -0.34234900536E+02  0.33018643836E+04  0.33016868990E+04 0.  0.
        4    1    3    3  502    0 -0.14737796941E+03  0.66886756939E+03  0.14850213456E+04  0.16353574842E+04  0.12699999809E+01 0.  1.
       -4    1    3    3    0  502  0.14737796941E+03 -0.66886756939E+03 -0.15192562462E+04  0.16665068994E+04  0.12699999809E+01 0. -1.
</event>
<event>
 5   0  0.8805125E-08  0.3319058E+04  0.7818609E-02  0.8158063E-01
        3   -1    0    0  501    0  0.00000000000E+00  0.00000000000E+00  0.12705017299E+04  0.12705017340E+04  0.10100000352E+00 0.  1.
       -3   -1    0    0    0  501  0.00000000000E+00  0.00000000000E+00 -0.21676761861E+04  0.21676761885E+04  0.10100000352E+00 0. -1.
    10030    2    1    2    0    0  0.00000000000E+00  0.00000000000E+00 -0.89717445617E+03  0.34381779224E+04  0.33190579117E+04 0.  0.
        2    1    3    3  502    0  0.10624723110E+04  0.71707840502E+03 -0.15404501151E+04  0.20040048422E+04  0.25500000920E-02 0. -1.
       -2    1    3    3    0  502 -0.10624723110E+04 -0.71707840502E+03  0.64327565891E+03  0.14341730802E+04  0.25500000920E-02 0.  1.
</event>
<event>
 5   0  0.2713815E-07  0.3299872E+04  0.7818609E-02  0.8162928E-01
        2   -1    0    0  501    0  0.00000000000E+00  0.00000000000E+00  0.22315198247E+04  0.22315198247E+04  0.25500000920E-02 0.  1.
       -2   -1    0    0    0  501  0.00000000000E+00  0.00000000000E+00 -0.12199255481E+04  0.12199255481E+04  0.25500000920E-02 0. -1.
    10030    2    1    2    0    0  0.00000000000E+00  0.00000000000E+00  0.10115942766E+04  0.34514453728E+04  0.32998715400E+04 0.  0.
        4    1    3    3  502    0  0.27405262555E+03 -0.10859841811E+04  0.17729831301E+04  0.20971259561E+04  0.12699999809E+01 0.  1.
       -4    1    3    3    0  502 -0.27405262555E+03  0.10859841811E+04 -0.76138885350E+03  0.13543194167E+04  0.12699999809E+01 0. -1.
</event>
<event>
 5   0  0.2713815E-07  0.3313305E+04  0.7818609E-02  0.8159518E-01
       -2   -1    0    0    0  501  0.00000000000E+00  0.00000000000E+00  0.11946435799E+04  0.11946435799E+04  0.25500000920E-02 0.  1.
        2   -1    0    0  501    0  0.00000000000E+00  0.00000000000E+00 -0.22973360695E+04  0.22973360695E+04  0.25500000920E-02 0. -1.
    10030    2    1    2    0    0  0.00000000000E+00  0.00000000000E+00 -0.11026924896E+04  0.34919796494E+04  0.33133051694E+04 0.  0.
        4    1    3    3  502    0  0.11031677358E+04  0.32873085298E+03  0.70431010413E+03  0.13494804047E+04  0.12699999809E+01 0.  1.
       -4    1    3    3    0  502 -0.11031677358E+04 -0.32873085298E+03 -0.18070025937E+04  0.21424992447E+04  0.12699999809E+01 0. -1.
</event>
<event>
 5   0  0.2875829E-07  0.3340311E+04  0.7818609E-02  0.8152713E-01
       -2   -1    0    0    0  501  0.00000000000E+00  0.00000000000E+00  0.11974193720E+04  0.11974193720E+04  0.25500000920E-02 0.  1.
        2   -1    0    0  501    0  0.00000000000E+00  0.00000000000E+00 -0.23295264702E+04  0.23295264702E+04  0.25500000920E-02 0. -1.
    10030    2    1    2    0    0  0.00000000000E+00  0.00000000000E+00 -0.11321070982E+04  0.35269458421E+04  0.33403114363E+04 0.  0.
        3    1    3    3  502    0  0.78013620502E+03 -0.21670984597E+03 -0.21084400302E+04  0.22585603881E+04  0.10100000352E+00 0. -1.
       -3    1    3    3    0  502 -0.78013620502E+03  0.21670984597E+03  0.97633293196E+03  0.12683854540E+04  0.10100000352E+00 0.  1.
</event>
<event>
 5   0  0.9181760E-08  0.3304306E+04  0.7818609E-02  0.8161800E-01
        1   -1    0    0  501    0  0.00000000000E+00  0.00000000000E+00  0.26262890879E+04  0.26262890879E+04  0.50400001928E-02 0. -1.
       -1   -1    0    0    0  501  0.00000000000E+00  0.00000000000E+00 -0.10393411233E+04  0.10393411233E+04  0.50400001928E-02 0.  1.
    10030    2    1    2    0    0  0.00000000000E+00  0.00000000000E+00  0.15869479646E+04  0.36656302112E+04  0.33043064330E+04 0.  0.
        1    1    3    3  502    0 -0.93065877035E+03  0.11995784569E+04  0.15162523595E+04  0.21457249215E+04  0.50400001928E-02 0. -1.
       -1    1    3    3    0  502  0.93065877035E+03 -0.11995784569E+04  0.70695605089E+02  0.15199052897E+04  0.50400001928E-02 0.  1.
</event>
<event>
 5   0  0.2713815E-07  0.3301152E+04  0.7818609E-02  0.8162602E-01
       -2   -1    0    0    0  501  0.00000000000E+00  0.00000000000E+00  0.17064233138E+04  0.17064233138E+04  0.25500000920E-02 0.  1.
        2   -1    0    0  501    0  0.00000000000E+00  0.00000000000E+00 -0.15965563764E+04  0.15965563764E+04  0.25500000920E-02 0. -1.
    10030    2    1    2    0    0  0.00000000000E+00  0.00000000000E+00  0.10986693748E+03  0.33029796902E+04  0.33011519338E+04 0.  0.
        4    1    3    3  502    0 -0.62218000863E+03  0.91022115464E+02  0.15818866925E+04  0.17022808551E+04  0.12699999809E+01 0.  1.
       -4    1    3    3    0  502  0.62218000863E+03 -0.91022115464E+02 -0.14720197551E+04  0.16006988351E+04  0.12699999809E+01 0. -1.
</event>
<event>
 5   0  0.8805125E-08  0.3299759E+04  0.7818609E-02  0.8162957E-01
       -1   -1    0    0    0  501  0.00000000000E+00  0.00000000000E+00  0.12609332069E+04  0.12609332069E+04  0.50400001928E-02 0.  1.
        1   -1    0    0  501    0  0.00000000000E+00  0.00000000000E+00 -0.21587995911E+04  0.21587995911E+04  0.50400001928E-02 0. -1.
    10030    2    1    2    0    0  0.00000000000E+00  0.00000000000E+00 -0.89786638416E+03  0.34197327980E+04  0.32997588345E+04 0.  0.
        4    1    3    3  502    0  0.60383523279E+03 -0.38064123174E+03  0.10926288551E+04  0.13051222792E+04  0.12699999809E+01 0.  1.
       -4    1    3    3    0  502 -0.60383523279E+03  0.38064123174E+03 -0.19904952393E+04  0.21146105188E+04  0.12699999809E+01 0. -1.
</event>
<event>
 5   0  0.2824402E-07  0.3302922E+04  0.7818609E-02  0.8162152E-01
       -2   -1    0    0    0  501  0.00000000000E+00  0.00000000000E+00  0.13421530384E+04  0.13421530384E+04  0.25500000920E-02 0. -1.
        2   -1    0    0  501    0  0.00000000000E+00  0.00000000000E+00 -0.20320512177E+04  0.20320512177E+04  0.25500000920E-02 0.  1.
    10030    2    1    2    0    0  0.00000000000E+00  0.00000000000E+00 -0.68989817932E+03  0.33742042561E+04  0.33029221704E+04 0.  0.
        1    1    3    3  502    0 -0.95477922956E+03 -0.12905345093E+04  0.51025474029E+02  0.16061401857E+04  0.50400001928E-02 0. -1.
       -1    1    3    3    0  502  0.95477922956E+03  0.12905345093E+04 -0.74092365335E+03  0.17680640704E+04  0.50400001928E-02 0.  1.
</event>
<event>
 5   0  0.2703956E-07  0.3292634E+04  0.7818609E-02  0.8164772E-01
        2   -1    0    0  501    0  0.00000000000E+00  0.00000000000E+00  0.18045486370E+04  0.18045486370E+04  0.25500000920E-02 0. -1.
       -2   -1    0    0    0  501  0.00000000000E+00  0.00000000000E+00 -0.15019598382E+04  0.15019598382E+04  0.25500000920E-02 0.  1.
    10030    2    1    2    0    0  0.00000000000E+00  0.00000000000E+00  0.30258879887E+03  0.33065084752E+04  0.32926339480E+04 0.  0.
        5    1    3    3  502    0 -0.10899508102E+04 -0.11738717322E+04 -0.23026704251E+03  0.16183363720E+04  0.46999998093E+01 0.  1.
       -5    1    3    3    0  502  0.10899508102E+04  0.11738717322E+04  0.53285584138E+03  0.16881721032E+04  0.46999998093E+01 0. -1.
</event>
<event>
 5   0  0.9181760E-08  0.3295163E+04  0.7818609E-02  0.8164127E-01
       -1   -1    0    0    0  501  0.00000000000E+00  0.00000000000E+00  0.16892617248E+04  0.16892617248E+04  0.50400001928E-02 0.  1.
        1   -1    0    0  501    0  0.00000000000E+00  0.00000000000E+00 -0.16069294840E+04  0.16069294840E+04  0.50400001928E-02 0. -1.
    10030    2    1    2    0    0  0.00000000000E+00  0.00000000000E+00  0.82332240852E+02  0.32961912088E+04  0.32951628013E+04 0.  0.
        1    1    3    3  502    0  0.16475496599E+04 -0.92750003818E+01  0.45476106142E+02  0.16482032592E+04  0.50400001928E-02 0.  1.
       -1    1    3    3    0  502 -0.16475496599E+04  0.92750003818E+01  0.36856134710E+02  0.16479879496E+04  0.50400001928E-02 0. -1.
</event>
<event>
 5   0  0.9181760E-08  0.3301112E+04  0.7818609E-02  0.8162613E-01
       -1   -1    0    0    0  501  0.00000000000E+00  0.00000000000E+00  0.14824902991E+04  0.14824902991E+04  0.50400001928E-02 0.  1.
        1   -1    0    0  501    0  0.00000000000E+00  0.00000000000E+00 -0.18376743920E+04  0.18376743920E+04  0.50400001928E-02 0. -1.
    10030    2    1    2    0    0  0.00000000000E+00  0.00000000000E+00 -0.35518409289E+03  0.33201646910E+04  0.33011116061E+04 0.  0.
        1    1    3    3  502    0  0.78744909915E+03 -0.15655247797E+03  0.12728652732E+04  0.15049155344E+04  0.50400001928E-02 0.  1.
       -1    1    3    3    0  502 -0.78744909915E+03  0.15655247797E+03 -0.16280493661E+04  0.18152491566E+04  0.50400001928E-02 0. -1.
</event>
<event>
 5   0  0.8805125E-08  0.3299144E+04  0.7818609E-02  0.8163113E-01
        1   -1    0    0  501    0  0.00000000000E+00  0.00000000000E+00  0.22238402313E+04  0.22238402313E+04  0.50400001928E-02 0.  1.
       -1   -1    0    0    0  501  0.00000000000E+00  0.00000000000E+00 -0.12235988764E+04  0.12235988765E+04  0.50400001928E-02 0. -1.
    10030    2    1    2    0    0  0.00000000000E+00  0.00000000000E+00  0.10002413548E+04  0.34474391077E+04  0.32991443790E+04 0.  0.
        4    1    3    3  502    0 -0.13583826860E+04  0.73606386890E+03  0.11041098258E+04  0.18989612058E+04  0.12699999809E+01 0.  1.
       -4    1    3    3    0  502  0.13583826860E+04 -0.73606386890E+03 -0.10386847101E+03  0.15484779019E+04  0.12699999809E+01 0. -1.
</event>
<event>
 5   0  0.2713815E-07  0.3299909E+04  0.7818609E-02  0.8162918E-01
        2   -1    0    0  501    0  0.00000000000E+00  0.00000000000E+00  0.24211923031E+04  0.24211923031E+04  0.25500000920E-02 0.  1.
       -2   -1    0    0    0  501  0.00000000000E+00  0.00000000000E+00 -0.11243842065E+04  0.11243842065E+04  0.25500000920E-02 0. -1.
    10030    2    1    2    0    0  0.00000000000E+00  0.00000000000E+00  0.12968080967E+04  0.35455765096E+04  0.32999093239E+04 0.  0.
        4    1    3    3  502    0 -0.14595781663E+04 -0.56910340533E+03  0.12047367770E+04  0.19762690667E+04  0.12699999809E+01 0.  1.
       -4    1    3    3    0  502  0.14595781663E+04  0.56910340533E+03  0.92071319656E+02  0.15693074429E+04  0.12699999809E+01 0. -1.
</event>
<event>
 5   0  0.9181760E-08  0.3283550E+04  0.7818609E-02  0.8167094E-01
        1   -1    0    0  501    0  0.00000000000E+00  0.00000000000E+00  0.15894535671E+04  0.15894535671E+04  0.50400001928E-02 0.  1.
       -1   -1    0    0    0  501  0.00000000000E+00  0.00000000000E+00 -0.16958182565E+04  0.16958182565E+04  0.50400001928E-02 0. -1.
    10030    2    1    2    0    0  0.00000000000E+00  0.00000000000E+00 -0.10636468949E+03  0.32852718236E+04  0.32835495288E+04 0.  0.
        1    1    3    3  502    0 -0.10829672144E+04 -0.11919375394E+04  0.26618923840E+03  0.16322958666E+04  0.50400001928E-02 0.  1.
       -1    1    3    3    0  502  0.10829672144E+04  0.11919375394E+04 -0.37255392788E+03  0.16529759570E+04  0.50400001928E-02 0. -1.
</event>
<event>
 5   0  0.2824402E-07  0.3302030E+04  0.7818609E-02  0.8162379E-01
        2   -1    0    0  501    0  0.00000000000E+00  0.00000000000E+00  0.20219452420E+04  0.20219452420E+04  0.25500000920E-02 0. -1.
       -2   -1    0    0    0  501  0.00000000000E+00  0.00000000000E+00 -0.13481330616E+04  0.13481330616E+04  0.25500000920E-02 0.  1.
    10030    2    1    2    0    0  0.00000000000E+00  0.00000000000E+00  0.67381218038E+03  0.33700783036E+04  0.33020304236E+04 0.  0.
        1    1    3    3  502    0 -0.22682405469E+03 -0.11569119581E+04 -0.84274922458E+03  0.14491793147E+04  0.50400001928E-02 0.  1.
       -1    1    3    3    0  502  0.22682405469E+03  0.11569119581E+04  0.15165614050E+04  0.19208989889E+04  0.50400001928E-02 0. -1.
</event>
<event>
 5   0  0.8805125E-08  0.3297548E+04  0.7818609E-02  0.8163520E-01
       -3   -1    0    0    0  501  0.00000000000E+00  0.00000000000E+00  0.79133177747E+03  0.79133178392E+03  0.10100000352E+00 0. -1.
        3   -1    0    0  501    0  0.00000000000E+00  0.00000000000E+00 -0.34352924035E+04  0.34352924050E+04  0.10100000352E+00 0.  1.
    10030    2    1    2    0    0  0.00000000000E+00  0.00000000000E+00 -0.26439606260E+04  0.42266241889E+04  0.32975482168E+04 0.  0.
        4    1    3    3  502    0  0.28410148563E+03  0.35362373521E+03  0.70977790867E+03  0.84234772676E+03  0.12699999809E+01 0. -1.
       -4    1    3    3    0  502 -0.28410148563E+03 -0.35362373521E+03 -0.33537385347E+04  0.33842764622E+04  0.12699999809E+01 0.  1.
</event>
<event>
 5   0  0.2875829E-07  0.3306365E+04  0.7818609E-02  0.8161278E-01
        2   -1    0    0  501    0  0.00000000000E+00  0.00000000000E+00  0.25532194256E+04  0.25532194256E+04  0.25500000920E-02 0.  1.
       -2   -1    0    0    0  501  0.00000000000E+00  0.00000000000E+00 -0.10704183575E+04  0.10704183575E+04  0.25500000920E-02 0. -1.
    10030    2    1    2    0    0  0.00000000000E+00  0.00000000000E+00  0.14828010681E+04  0.36236377831E+04  0.33063653421E+04 0.  0.
        3    1    3    3  502    0  0.10795558176E+04 -0.12004600775E+04  0.11311485151E+04  0.19713046782E+04  0.10100000352E+00 0.  1.
       -3    1    3    3    0  502 -0.10795558176E+04  0.12004600775E+04  0.35165255300E+03  0.16523331048E+04  0.10100000352E+00 0. -1.
</event>
<event>
 5   0  0.9181760E-08  0.3308264E+04  0.7818609E-02  0.8160796E-01
        1   -1    0    0  501    0  0.00000000000E+00  0.00000000000E+00  0.18884923232E+04  0.18884923233E+04  0.50400001928E-02 0. -1.
       -1   -1    0    0    0  501  0.00000000000E+00  0.00000000000E+00 -0.14488552193E+04  0.14488552193E+04  0.50400001928E-02 0.  1.
    10030    2    1    2    0    0  0.00000000000E+00  0.00000000000E+00  0.43963710394E+03  0.33373475426E+04  0.33082635682E+04 0.  0.
        1    1    3    3  502    0  0.32362897927E+03 -0.98502906524E+02  0.18532237809E+04  0.18838463103E+04  0.50400001928E-02 0. -1.
       -1    1    3    3    0  502 -0.32362897927E+03  0.98502906524E+02 -0.14135866770E+04  0.14535012322E+04  0.50400001928E-02 0.  1.
</event>
<event>
 5   0  0.8805125E-08  0.3292837E+04  0.7818609E-02  0.8164720E-01
        3   -1    0    0  501    0  0.00000000000E+00  0.00000000000E+00  0.15398845572E+04  0.15398845605E+04  0.10100000352E+00 0. -1.
       -3   -1    0    0    0  501  0.00000000000E+00  0.00000000000E+00 -0.17603226986E+04  0.17603227015E+04  0.10100000352E+00 0.  1.
    10030    2    1    2    0    0  0.00000000000E+00  0.00000000000E+00 -0.22043814136E+03  0.33002072620E+04  0.32928369225E+04 0.  0.
        1    1    3    3  502    0  0.87559963621E+03 -0.68587707451E+03  0.11064138702E+04  0.15688383398E+04  0.50400001928E-02 0. -1.
       -1    1    3    3    0  502 -0.87559963621E+03  0.68587707451E+03 -0.13268520115E+04  0.17313689222E+04  0.50400001928E-02 0.  1.
</event>
<event>
 5   0  0.2703956E-07  0.3296731E+04  0.7818609E-02  0.8163728E-01
       -2   -1    0    0    0  501  0.00000000000E+00  0.00000000000E+00  0.13255647835E+04  0.13255647835E+04  0.25500000920E-02 0.  1.
        2   -1    0    0  501    0  0.00000000000E+00  0.00000000000E+00 -0.20497749291E+04  0.20497749291E+04  0.25500000920E-02 0. -1.
    10030    2    1    2    0    0  0.00000000000E+00  0.00000000000E+00 -0.72421014554E+03  0.33753397126E+04  0.32967313874E+04 0.  0.
        5    1    3    3  502    0 -0.11245454310E+04 -0.21162231746E+03  0.85265113267E+03  0.14270327521E+04  0.46999998093E+01 0.  1.
       -5    1    3    3    0  502  0.11245454310E+04  0.21162231746E+03 -0.15768612782E+04  0.19483069605E+04  0.46999998093E+01 0. -1.
</event>
<event>
 5   0  0.9181760E-08  0.3303196E+04  0.7818609E-02  0.8162083E-01
        1   -1    0    0  501    0  0.00000000000E+00  0.00000000000E+00  0.19662817143E+04  0.19662817143E+04  0.50400001928E-02 0.  1.
       -1   -1    0    0    0  501  0.00000000000E+00  0.00000000000E+00 -0.13872761243E+04  0.13872761244E+04  0.50400001928E-02 0. -1.
    10030    2    1    2    0    0  0.00000000000E+00  0.00000000000E+00  0.57900558994E+03  0.33535578386E+04  0.33031958319E+04 0.  0.
        1    1    3    3  502    0 -0.27887229016E+03 -0.93518209411E+03 -0.10632689534E+04  0.14432172985E+04  0.50400001928E-02 0. -1.
       -1    1    3    3    0  502  0.27887229016E+03  0.93518209411E+03  0.16422745434E+04  0.19103405401E+04  0.50400001928E-02 0.  1.
</event>
<event>
 5   0  0.9810351E-08  0.3299815E+04  0.7818609E-02  0.8162943E-01
        1   -1    0    0  501    0  0.00000000000E+00  0.00000000000E+00  0.18546387104E+04  0.18546387104E+04  0.50400001928E-02 0. -1.
       -1   -1    0    0    0  501  0.00000000000E+00  0.00000000000E+00 -0.14677758778E+04  0.14677758778E+04  0.50400001928E-02 0.  1.
    10030    2    1    2    0    0  0.00000000000E+00  0.00000000000E+00  0.38686283261E+03  0.33224145883E+04  0.32998145168E+04 0.  0.
        5    1    3    3  502    0 -0.99465574656E+03 -0.50642658418E+02  0.15178366127E+04  0.18154213852E+04  0.46999998093E+01 0. -1.
       -5    1    3    3    0  502  0.99465574656E+03  0.50642658418E+02 -0.11309737801E+04  0.15069932031E+04  0.46999998093E+01 0.  1.
</event>
<event>
 5   0  0.9283910E-08  0.3298386E+04  0.7818609E-02  0.8163306E-01
        1   -1    0    0  501    0  0.00000000000E+00  0.00000000000E+00  0.26907304416E+04  0.26907304416E+04  0.50400001928E-02 0. -1.
       -1   -1    0    0    0  501  0.00000000000E+00  0.00000000000E+00 -0.10108175455E+04  0.10108175455E+04  0.50400001928E-02 0.  1.
    10030    2    1    2    0    0  0.00000000000E+00  0.00000000000E+00  0.16799128962E+04  0.37015479871E+04  0.32983859935E+04 0.  0.
        3    1    3    3  502    0  0.57678241114E+03 -0.41334669149E+03 -0.83073627374E+03  0.10925457445E+04  0.10100000352E+00 0.  1.
       -3    1    3    3    0  502 -0.57678241114E+03  0.41334669149E+03  0.25106491699E+04  0.26090022426E+04  0.10100000352E+00 0. -1.
</event>
<event>
 5   0  0.2713815E-07  0.3300917E+04  0.7818609E-02  0.8162662E-01
       -2   -1    0    0    0  501  0.00000000000E+00  0.00000000000E+00  0.84345582964E+03  0.84345582964E+03  0.25500000920E-02 0. -1.
        2   -1    0    0  501    0  0.00000000000E+00  0.00000000000E+00 -0.32295864354E+04  0.32295864354E+04  0.25500000920E-02 0.  1.
    10030    2    1    2    0    0  0.00000000000E+00  0.00000000000E+00 -0.23861306057E+04  0.40730422650E+04  0.33009171491E+04 0.  0.
        4    1    3    3  502    0 -0.12655555892E+04 -0.71638483711E+03 -0.23000192457E+03  0.14723249242E+04  0.12699999809E+01 0. -1.
       -4    1    3    3    0  502  0.12655555892E+04  0.71638483711E+03 -0.21561286811E+04  0.26007173408E+04  0.12699999809E+01 0.  1.
</event>
<event>
 5   0  0.9454010E-08  0.3296615E+04  0.7818609E-02  0.8163757E-01
        1   -1    0    0  501    0  0.00000000000E+00  0.00000000000E+00  0.12324238357E+04  0.12324238357E+04  0.50400001928E-02 0. -1.
       -1   -1    0    0    0  501  0.00000000000E+00  0.00000000000E+00 -0.22045316251E+04  0.22045316251E+04  0.50400001928E-02 0.  1.
    10030    2    1    2    0    0  0.00000000000E+00  0.00000000000E+00 -0.97210778939E+03  0.34369554608E+04  0.32966148221E+04 0.  0.
        2    1    3    3  502    0  0.29239942154E+03  0.81256929240E+03  0.97769186335E+03  0.13044721754E+04  0.25500000920E-02 0. -1.
       -2    1    3    3    0  502 -0.29239942154E+03 -0.81256929240E+03 -0.19497996527E+04  0.21324832854E+04  0.25500000920E-02 0.  1.
</event>
<event>
 5   0  0.2824402E-07  0.3293209E+04  0.7818609E-02  0.8164625E-01
       -2   -1    0    0    0  501  0.00000000000E+00  0.00000000000E+00  0.23792724073E+04  0.23792724073E+04  0.25500000920E-02 0.  1.
        2   -1    0    0  501    0  0.00000000000E+00  0.00000000000E+00 -0.11395528852E+04  0.11395528852E+04  0.25500000920E-02 0. -1.
    10030    2    1    2    0    0  0.00000000000E+00  0.00000000000E+00  0.12397195221E+04  0.35188252925E+04  0.32932092168E+04 0.  0.
        1    1    3    3  502    0  0.33293933879E+03 -0.74070547800E+03 -0.91068955329E+03  0.12201838677E+04  0.50400001928E-02 0. -1.
       -1    1    3    3    0  502 -0.33293933879E+03  0.74070547800E+03  0.21504090754E+04  0.22986414248E+04  0.50400001928E-02 0.  1.
</event>
<event>
 5   0  0.2713815E-07  0.3301626E+04  0.7818609E-02  0.8162482E-01
        2   -1    0    0  501    0  0.00000000000E+00  0.00000000000E+00  0.90348845326E+03  0.90348845326E+03  0.25500000920E-02 0. -1.
       -2   -1    0    0    0  501  0.00000000000E+00  0.00000000000E+00 -0.30162899355E+04  0.30162899355E+04  0.25500000920E-02 0.  1.
    10030    2    1    2    0    0  0.00000000000E+00  0.00000000000E+00 -0.21128014823E+04  0.39197783888E+04  0.33016257380E+04 0.  0.
        4    1    3    3  502    0 -0.64658055393E+03 -0.18734997978E+03  0.73313047391E+03  0.99531318303E+03  0.12699999809E+01 0. -1.
       -4    1    3    3    0  502  0.64658055393E+03  0.18734997978E+03 -0.28459319562E+04  0.29244652058E+04  0.12699999809E+01 0.  1.
</event>
<event>
 5   0  0.2713815E-07  0.3301497E+04  0.7818609E-02  0.8162515E-01
       -2   -1    0    0    0  501  0.00000000000E+00  0.00000000000E+00  0.12025249196E+04  0.12025249196E+04  0.25500000920E-02 0. -1.
        2   -1    0    0  501    0  0.00000000000E+00  0.00000000000E+00 -0.22660408637E+04  0.22660408637E+04  0.25500000920E-02 0.  1.
    10030    2    1    2    0    0  0.00000000000E+00  0.00000000000E+00 -0.10635159441E+04  0.34685657834E+04  0.33014969984E+04 0.  0.
        4    1    3    3  502    0 -0.12418089122E+04  0.84962681788E+03 -0.12450970800E+04  0.19530037009E+04  0.12699999809E+01 0.  1.
       -4    1    3    3    0  502  0.12418089122E+04 -0.84962681788E+03  0.18158113584E+03  0.15155620825E+04  0.12699999809E+01 0. -1.
</event>
<event>
 5   0  0.2727168E-07  0.3299676E+04  0.7818609E-02  0.8162978E-01
        2   -1    0    0  501    0  0.00000000000E+00  0.00000000000E+00  0.18072383918E+04  0.18072383918E+04  0.25500000920E-02 0.  1.
       -2   -1    0    0    0  501  0.00000000000E+00  0.00000000000E+00 -0.15061463026E+04  0.15061463026E+04  0.25500000920E-02 0. -1.
    10030    2    1    2    0    0  0.00000000000E+00  0.00000000000E+00  0.30109208925E+03  0.33133846944E+04  0.32996759972E+04 0.  0.
        2    1    3    3  502    0 -0.49961321561E+03 -0.14040043136E+04 -0.56029605526E+03  0.15920970911E+04  0.25500000920E-02 0. -1.
       -2    1    3    3    0  502  0.49961321561E+03  0.14040043136E+04  0.86138814450E+03  0.17212876033E+04  0.25500000920E-02 0.  1.
</event>
<event>
 5   0  0.2875829E-07  0.3299973E+04  0.7818609E-02  0.8162902E-01
        2   -1    0    0  501    0  0.00000000000E+00  0.00000000000E+00  0.20094156185E+04  0.20094156185E+04  0.25500000920E-02 0.  1.
       -2   -1    0    0    0  501  0.00000000000E+00  0.00000000000E+00 -0.13548493499E+04  0.13548493499E+04  0.25500000920E-02 0. -1.
    10030    2    1    2    0    0  0.00000000000E+00  0.00000000000E+00  0.65456626860E+03  0.33642649685E+04  0.32999729966E+04 0.  0.
        3    1    3    3  502    0 -0.14666152347E+03  0.95106363610E+03 -0.10391368542E+04  0.14162757692E+04  0.10100000352E+00 0. -1.
       -3    1    3    3    0  502  0.14666152347E+03 -0.95106363610E+03  0.16937031228E+04  0.19479891993E+04  0.10100000352E+00 0.  1.
</event>
<event>
 5   0  0.9283910E-08  0.3264778E+04  0.7818609E-02  0.8171916E-01
       -1   -1    0    0    0  501  0.00000000000E+00  0.00000000000E+00  0.11436622992E+04  0.11436622992E+04  0.50400001928E-02 0. -1.
        1   -1    0    0  501    0  0.00000000000E+00  0.00000000000E+00 -0.23299658116E+04  0.23299658116E+04  0.50400001928E-02 0.  1.
    10030    2    1    2    0    0  0.00000000000E+00  0.00000000000E+00 -0.11863035125E+04  0.34736281108E+04  0.32647781285E+04 0.  0.
        3    1    3    3  502    0  0.63110462513E+03 -0.14746193067E+04 -0.91569266360E+03  0.18469673013E+04  0.10100000352E+00 0.  1.
       -3    1    3    3    0  502 -0.63110462513E+03  0.14746193067E+04 -0.27061084886E+03  0.16266608095E+04  0.10100000352E+00 0. -1.
</event>
<event>
 5   0  0.8805125E-08  0.3301058E+04  0.7818609E-02  0.8162626E-01
        1   -1    0    0  501    0  0.00000000000E+00  0.00000000000E+00  0.15762169954E+04  0.15762169954E+04  0.50400001928E-02 0.  1.
       -1   -1    0    0    0  501  0.00000000000E+00  0.00000000000E+00 -0.17283441353E+04  0.17283441353E+04  0.50400001928E-02 0. -1.
    10030    2    1    2    0    0  0.00000000000E+00  0.00000000000E+00 -0.15212713996E+03  0.33045611307E+04  0.33010576487E+04 0.  0.
        4    1    3    3  502    0 -0.10562405228E+04  0.31604137392E+03 -0.13056658480E+04  0.17088859270E+04  0.12699999809E+01 0. -1.
       -4    1    3    3    0  502  0.10562405228E+04 -0.31604137392E+03  0.11535387080E+04  0.15956752037E+04  0.12699999809E+01 0.  1.
</event>
<event>
 5   0  0.2875829E-07  0.3317091E+04  0.7818609E-02  0.8158560E-01
        2   -1    0    0  501    0  0.00000000000E+00  0.00000000000E+00  0.15323098934E+04  0.15323098934E+04  0.25500000920E-02 0.  1.
       -2   -1    0    0    0  501  0.00000000000E+00  0.00000000000E+00 -0.17951804829E+04  0.17951804829E+04  0.25500000920E-02 0. -1.
    10030    2    1    2    0    0  0.00000000000E+00  0.00000000000E+00 -0.26287058949E+03  0.33274903763E+04  0.33170907822E+04 0.  0.
        3    1    3    3  502    0 -0.35318952882E+02 -0.59258922113E+03  0.14220850454E+04  0.15410176183E+04  0.10100000352E+00 0.  1.
       -3    1    3    3    0  502  0.35318952882E+02  0.59258922113E+03 -0.16849556348E+04  0.17864727580E+04  0.10100000352E+00 0. -1.
</event>
<event>
 5   0  0.2727168E-07  0.3303681E+04  0.7818609E-02  0.8161959E-01
        2   -1    0    0  501    0  0.00000000000E+00  0.00000000000E+00  0.92231014165E+03  0.92231014165E+03  0.25500000920E-02 0. -1.
       -2   -1    0    0    0  501  0.00000000000E+00  0.00000000000E+00 -0.29584160517E+04  0.29584160517E+04  0.25500000920E-02 0.  1.
    10030    2    1    2    0    0  0.00000000000E+00  0.00000000000E+00 -0.20361059100E+04  0.38807261933E+04  0.33036810546E+04 0.  0.
        2    1    3    3  502    0  0.41273987185E+03  0.14479870849E+04 -0.18160977030E+04  0.23590743241E+04  0.25500000920E-02 0.  1.
       -2    1    3    3    0  502 -0.41273987185E+03 -0.14479870849E+04 -0.22000820700E+03  0.15216518692E+04  0.25500000920E-02 0. -1.
</event>
<event>
 5   0  0.9181760E-08  0.3304626E+04  0.7818609E-02  0.8161719E-01
        1   -1    0    0  501    0  0.00000000000E+00  0.00000000000E+00  0.25449968123E+04  0.25449968123E+04  0.50400001928E-02 0. -1.
       -1   -1    0    0    0  501  0.00000000000E+00  0.00000000000E+00 -0.10727474111E+04  0.10727474111E+04  0.50400001928E-02 0.  1.
    10030    2    1    2    0    0  0.00000000000E+00  0.00000000000E+00  0.14722494012E+04  0.36177442233E+04  0.33046262975E+04 0.  0.
        1    1    3    3  502    0 -0.10394986607E+04 -0.12109651621E+04  0.12046279689E+04  0.19995306031E+04  0.50400001928E-02 0. -1.
       -1    1    3    3    0  502  0.10394986607E+04  0.12109651621E+04  0.26762143235E+03  0.16182136202E+04  0.50400001928E-02 0.  1.
</event>
<event>
 5   0  0.2824402E-07  0.3297591E+04  0.7818609E-02  0.8163509E-01
       -2   -1    0    0    0  501  0.00000000000E+00  0.00000000000E+00  0.15107939570E+04  0.15107939570E+04  0.25500000920E-02 0.  1.
        2   -1    0    0  501    0  0.00000000000E+00  0.00000000000E+00 -0.17994031153E+04  0.17994031153E+04  0.25500000920E-02 0. -1.
    10030    2    1    2    0    0  0.00000000000E+00  0.00000000000E+00 -0.28860915829E+03  0.33101970723E+04  0.32975914561E+04 0.  0.
        1    1    3    3  502    0  0.14699773847E+04 -0.55203509498E+03 -0.64916960116E+03  0.16991166613E+04  0.50400001928E-02 0.  1.
       -1    1    3    3    0  502 -0.14699773847E+04  0.55203509498E+03  0.36056044287E+03  0.16110804110E+04  0.50400001928E-02 0. -1.
</event>
<event>
 5   0  0.9454010E-08  0.3298943E+04  0.7818609E-02  0.8163164E-01
       -1   -1    0    0    0  501  0.00000000000E+00  0.00000000000E+00  0.19366335606E+04  0.19366335606E+04  0.50400001928E-02 0. -1.
        1   -1    0    0  501    0  0.00000000000E+00  0.00000000000E+00 -0.14048898030E+04  0.14048898031E+04  0.50400001928E-02 0.  1.
    10030    2    1    2    0    0  0.00000000000E+00  0.00000000000E+00  0.53174375759E+03  0.33415233637E+04  0.32989433106E+04 0.  0.
        2    1    3    3  502    0 -0.76604279878E+03  0.62953078021E+03 -0.10693327327E+04  0.14582877171E+04  0.25500000920E-02 0.  1.
       -2    1    3    3    0  502  0.76604279878E+03 -0.62953078021E+03  0.16010764903E+04  0.18832356466E+04  0.25500000920E-02 0. -1.
</event>
<event>
 5   0  0.2703956E-07  0.3300173E+04  0.7818609E-02  0.8162851E-01
       -2   -1    0    0    0  501  0.00000000000E+00  0.00000000000E+00  0.22359722557E+04  0.22359722557E+04  0.25500000920E-02 0.  1.
        2   -1    0    0  501    0  0.00000000000E+00  0.00000000000E+00 -0.12177187911E+04  0.12177187911E+04  0.25500000920E-02 0. -1.
    10030    2    1    2    0    0  0.00000000000E+00  0.00000000000E+00  0.10182534646E+04  0.34536910467E+04  0.33001729846E+04 0.  0.
        5    1    3    3  502    0  0.11318705681E+04 -0.26201266080E+03 -0.71712365679E+03  0.13653095058E+04  0.46999998093E+01 0. -1.
       -5    1    3    3    0  502 -0.11318705681E+04  0.26201266080E+03  0.17353771214E+04  0.20883815410E+04  0.46999998093E+01 0.  1.
</event>
<event>
 5   0  0.9454010E-08  0.3289319E+04  0.7818609E-02  0.8165619E-01
        1   -1    0    0  501    0  0.00000000000E+00  0.00000000000E+00  0.20170012298E+04  0.20170012298E+04  0.50400001928E-02 0. -1.
       -1   -1    0    0    0  501  0.00000000000E+00  0.00000000000E+00 -0.13410526082E+04  0.13410526083E+04  0.50400001928E-02 0.  1.
    10030    2    1    2    0    0  0.00000000000E+00  0.00000000000E+00  0.67594862154E+03  0.33580538380E+04  0.32893189326E+04 0.  0.
        2    1    3    3  502    0 -0.30379619430E+03 -0.82571635697E+03  0.17565447055E+04  0.19645734734E+04  0.25500000920E-02 0. -1.
       -2    1    3    3    0  502  0.30379619430E+03  0.82571635697E+03 -0.10805960840E+04  0.13934803646E+04  0.25500000920E-02 0.  1.
</event>
<event>
 5   0  0.9283910E-08  0.3297637E+04  0.7818609E-02  0.8163497E-01
        1   -1    0    0  501    0  0.00000000000E+00  0.00000000000E+00  0.22768902225E+04  0.22768902225E+04  0.50400001928E-02 0. -1.
       -1   -1    0    0    0  501  0.00000000000E+00  0.00000000000E+00 -0.11939978814E+04  0.11939978814E+04  0.50400001928E-02 0.  1.
    10030    2    1    2    0    0  0.00000000000E+00  0.00000000000E+00  0.10828923411E+04  0.34708881039E+04  0.32976367913E+04 0.  0.
        3    1    3    3  502    0  0.61734530091E+03 -0.13433775766E+04 -0.22685147470E+03  0.14957406646E+04  0.10100000352E+00 0.  1.
       -3    1    3    3    0  502 -0.61734530091E+03  0.13433775766E+04  0.13097438158E+04  0.19751474394E+04  0.10100000352E+00 0. -1.
</event>
<event>
 5   0  0.9810351E-08  0.3297777E+04  0.7818609E-02  0.8163461E-01
        1   -1    0    0  501    0  0.00000000000E+00  0.00000000000E+00  0.13397581588E+04  0.13397581588E+04  0.50400001928E-02 0. -1.
       -1   -1    0    0    0  501  0.00000000000E+00  0.00000000000E+00 -0.20293468903E+04  0.20293468903E+04  0.50400001928E-02 0.  1.
    10030    2    1    2    0    0  0.00000000000E+00  0.00000000000E+00 -0.68958873156E+03  0.33691050491E+04  0.32977774657E+04 0.  0.
        5    1    3    3  502    0 -0.12545702147E+04 -0.10214383876E+04 -0.19266176196E+02  0.16179233847E+04  0.46999998093E+01 0. -1.
       -5    1    3    3    0  502  0.12545702147E+04  0.10214383876E+04 -0.67032255536E+03  0.17511816644E+04  0.46999998093E+01 0.  1.
</event>
<event>
 5   0  0.2824402E-07  0.3305852E+04  0.7818609E-02  0.8161408E-01
       -2   -1    0    0    0  501  0.00000000000E+00  0.00000000000E+00  0.15837608906E+04  0.15837608906E+04  0.25500000920E-02 0.  1.
        2   -1    0    0  501    0  0.00000000000E+00  0.00000000000E+00 -0.17251111599E+04  0.17251111599E+04  0.25500000920E-02 0. -1.
    10030    2    1    2    0    0  0.00000000000E+00  0.00000000000E+00 -0.14135026930E+03  0.33088720506E+04  0.33058515315E+04 0.  0.
        1    1    3    3  502    0  0.69393150130E+03 -0.98806584637E+03  0.10592267732E+04  0.16061682360E+04  0.50400001928E-02 0.  1.
       -1    1    3    3    0  502 -0.69393150130E+03  0.98806584637E+03 -0.12005770425E+04  0.17027038146E+04  0.50400001928E-02 0. -1.
</event>
<event>
 5   0  0.9283910E-08  0.3300758E+04  0.7818609E-02  0.8162703E-01
        1   -1    0    0  501    0  0.00000000000E+00  0.00000000000E+00  0.19312435574E+04  0.19312435574E+04  0.50400001928E-02 0.  1.
       -1   -1    0    0    0  501  0.00000000000E+00  0.00000000000E+00 -0.14103611349E+04  0.14103611349E+04  0.50400001928E-02 0. -1.
    10030    2    1    2    0    0  0.00000000000E+00  0.00000000000E+00  0.52088242247E+03  0.33416046923E+04  0.33007580071E+04 0.  0.
        3    1    3    3  502    0 -0.14385951215E+04  0.60764209675E+03  0.80086929912E+03  0.17550431578E+04  0.10100000352E+00 0.  1.
       -3    1    3    3    0  502  0.14385951215E+04 -0.60764209675E+03 -0.27998687665E+03  0.15865615345E+04  0.10100000352E+00 0. -1.
</event>
<event>
 5   0  0.2727168E-07  0.3278239E+04  0.7818609E-02  0.8168455E-01
       -2   -1    0    0    0  501  0.00000000000E+00  0.00000000000E+00  0.11686761989E+04  0.11686761989E+04  0.25500000920E-02 0.  1.
        2   -1    0    0  501    0  0.00000000000E+00  0.00000000000E+00 -0.22989364398E+04  0.22989364398E+04  0.25500000920E-02 0. -1.
    10030    2    1    2    0    0  0.00000000000E+00  0.00000000000E+00 -0.11302602409E+04  0.34676126386E+04  0.32782387344E+04 0.  0.
        2    1    3    3  502    0 -0.13306255168E+04 -0.89797716844E+03 -0.21465146022E+03  0.16195686186E+04  0.25500000920E-02 0. -1.
       -2    1    3    3    0  502  0.13306255168E+04  0.89797716844E+03 -0.91560878064E+03  0.18480440201E+04  0.25500000920E-02 0.  1.
</event>
<event>
 5   0  0.8805125E-08  0.3301757E+04  0.7818609E-02  0.8162449E-01
       -1   -1    0    0    0  501  0.00000000000E+00  0.00000000000E+00  0.18801809011E+04  0.18801809011E+04  0.50400001928E-02 0. -1.
        1   -1    0    0  501    0  0.00000000000E+00  0.00000000000E+00 -0.14495408619E+04  0.14495408619E+04  0.50400001928E-02 0.  1.
    10030    2    1    2    0    0  0.00000000000E+00  0.00000000000E+00  0.43064003924E+03  0.33297217630E+04  0.33017565288E+04 0.  0.
        4    1    3    3  502    0 -0.32288714110E+03  0.53053011722E+03 -0.13272363699E+04  0.14653587635E+04  0.12699999809E+01 0.  1.
       -4    1    3    3    0  502  0.32288714110E+03 -0.53053011722E+03  0.17578764092E+04  0.18643629995E+04  0.12699999809E+01 0. -1.
</event>
<event>
 5   0  0.9810351E-08  0.3296336E+04  0.7818609E-02  0.8163828E-01
        1   -1    0    0  501    0  0.00000000000E+00  0.00000000000E+00  0.18092662170E+04  0.18092662170E+04  0.50400001928E-02 0. -1.
       -1   -1    0    0    0  501  0.00000000000E+00  0.00000000000E+00 -0.15014141922E+04  0.15014141922E+04  0.50400001928E-02 0.  1.
    10030    2    1    2    0    0  0.00000000000E+00  0.00000000000E+00  0.30785202477E+03  0.33106804091E+04  0.32963361331E+04 0.  0.
        5    1    3    3  502    0  0.13289853900E+04  0.39601670897E+03  0.10485346631E+04  0.17385276617E+04  0.46999998093E+01 0. -1.
       -5    1    3    3    0  502 -0.13289853900E+04 -0.39601670897E+03 -0.74068263829E+03  0.15721527475E+04  0.46999998093E+01 0.  1.
</event>
<event>
 5   0  0.2703956E-07  0.3296562E+04  0.7818609E-02  0.8163771E-01
        2   -1    0    0  501    0  0.00000000000E+00  0.00000000000E+00  0.16731002659E+04  0.16731002659E+04  0.25500000920E-02 0. -1.
       -2   -1    0    0    0  501  0.00000000000E+00  0.00000000000E+00 -0.16238299923E+04  0.16238299923E+04  0.25500000920E-02 0.  1.
    10030    2    1    2    0    0  0.00000000000E+00  0.00000000000E+00  0.49270273613E+02  0.32969302582E+04  0.32965620831E+04 0.  0.
        5    1    3    3  502    0  0.10714224756E+03 -0.14273690667E+04 -0.79273601216E+03  0.16362500997E+04  0.46999998093E+01 0.  1.
       -5    1    3    3    0  502 -0.10714224756E+03  0.14273690667E+04  0.84200628578E+03  0.16606801586E+04  0.46999998093E+01 0. -1.
</event>
<event>
 5   0  0.9810351E-08  0.3302705E+04  0.7818609E-02  0.8162207E-01
       -1   -1    0    0    0  501  0.00000000000E+00  0.00000000000E+00  0.15009223411E+04  0.15009223411E+04  0.50400001928E-02 0. -1.
        1   -1    0    0  501    0  0.00000000000E+00  0.00000000000E+00 -0.18168599083E+04  0.18168599083E+04  0.50400001928E-02 0.  1.
    10030    2    1    2    0    0  0.00000000000E+00  0.00000000000E+00 -0.31593756714E+03  0.33177822494E+04  0.33027053317E+04 0.  0.
        5    1    3    3  502    0 -0.16760230866E+03  0.43529559694E+03  0.14333620112E+04  0.15073558093E+04  0.46999998093E+01 0. -1.
       -5    1    3    3    0  502  0.16760230866E+03 -0.43529559694E+03 -0.17492995783E+04  0.18104264402E+04  0.46999998093E+01 0.  1.
</event>
<event>
 5   0  0.9454010E-08  0.3298902E+04  0.7818609E-02  0.8163175E-01
        1   -1    0    0  501    0  0.00000000000E+00  0.00000000000E+00  0.18981302018E+04  0.18981302018E+04  0.50400001928E-02 0.  1.
       -1   -1    0    0    0  501  0.00000000000E+00  0.00000000000E+00 -0.14333515509E+04  0.14333515509E+04  0.50400001928E-02 0. -1.
    10030    2    1    2    0    0  0.00000000000E+00  0.00000000000E+00  0.46477865086E+03  0.33314817527E+04  0.32989015557E+04 0.  0.
        2    1    3    3  502    0 -0.12997962173E+04 -0.87041541791E+03  0.76061790312E+03  0.17394346210E+04  0.25500000920E-02 0.  1.
       -2    1    3    3    0  502  0.12997962173E+04  0.87041541791E+03 -0.29583925226E+03  0.15920471317E+04  0.25500000920E-02 0. -1.
</event>
<event>
 5   0  0.2824402E-07  0.3306356E+04  0.7818609E-02  0.8161280E-01
        2   -1    0    0  501    0  0.00000000000E+00  0.00000000000E+00  0.15634862174E+04  0.15634862174E+04  0.25500000920E-02 0. -1.
       -2   -1    0    0    0  501  0.00000000000E+00  0.00000000000E+00 -0.17480149590E+04  0.17480149590E+04  0.25500000920E-02 0.  1.
    10030    2    1    2    0    0  0.00000000000E+00  0.00000000000E+00 -0.18452874157E+03  0.33115011764E+04  0.33063558769E+04 0.  0.
        1    1    3    3  502    0  0.12320109551E+04 -0.53126954814E+03  0.87510564878E+03  0.16018452556E+04  0.50400001928E-02 0. -1.
       -1    1    3    3    0  502 -0.12320109551E+04  0.53126954814E+03 -0.10596343903E+04  0.17096559208E+04  0.50400001928E-02 0.  1.
</event>
<event>
 5   0  0.8805125E-08  0.3297396E+04  0.7818609E-02  0.8163558E-01
        1   -1    0    0  501    0  0.00000000000E+00  0.00000000000E+00  0.19458774803E+04  0.19458774803E+04  0.50400001928E-02 0. -1.
       -1   -1    0    0    0  501  0.00000000000E+00  0.00000000000E+00 -0.13969046974E+04  0.13969046974E+04  0.50400001928E-02 0.  1.
    10030    2    1    2    0    0  0.00000000000E+00  0.00000000000E+00  0.54897278295E+03  0.33427821777E+04  0.32973961805E+04 0.  0.
        4    1    3    3  502    0 -0.78574025119E+03  0.55624726237E+03 -0.10823698634E+04  0.14485595926E+04  0.12699999809E+01 0.  1.
       -4    1    3    3    0  502  0.78574025119E+03 -0.55624726237E+03  0.16313426463E+04  0.18942225851E+04  0.12699999809E+01 0. -1.
</event>
<event>
 5   0  0.2824402E-07  0.3294315E+04  0.7818609E-02  0.8164343E-01
        2   -1    0    0  501    0  0.00000000000E+00  0.00000000000E+00  0.10040852746E+04  0.10040852746E+04  0.25500000920E-02 0. -1.
       -2   -1    0    0    0  501  0.00000000000E+00  0.00000000000E+00 -0.27020893697E+04  0.27020893697E+04  0.25500000920E-02 0.  1.
    10030    2    1    2    0    0  0.00000000000E+00  0.00000000000E+00 -0.16980040950E+04  0.37061746443E+04  0.32943151925E+04 0.  0.
        1    1    3    3  502    0  0.11668561095E+04  0.20223198708E+03 -0.21369805137E+04  0.24431816700E+04  0.50400001928E-02 0.  1.
       -1    1    3    3    0  502 -0.11668561095E+04 -0.20223198708E+03  0.43897641865E+03  0.12629929743E+04  0.50400001928E-02 0. -1.
</event>
<event>
 5   0  0.2824402E-07  0.3298422E+04  0.7818609E-02  0.8163297E-01
        2   -1    0    0  501    0  0.00000000000E+00  0.00000000000E+00  0.14863513097E+04  0.14863513097E+04  0.25500000920E-02 0.  1.
       -2   -1    0    0    0  501  0.00000000000E+00  0.00000000000E+00 -0.18299150382E+04  0.18299150382E+04  0.25500000920E-02 0. -1.
    10030    2    1    2    0    0  0.00000000000E+00  0.00000000000E+00 -0.34356372851E+03  0.33162663479E+04  0.32984218127E+04 0.  0.
        1    1    3    3  502    0  0.13780821789E+04  0.49106169431E+03 -0.93724465181E+03  0.17374347806E+04  0.50400001928E-02 0. -1.
       -1    1    3    3    0  502 -0.13780821789E+04 -0.49106169431E+03  0.59368092330E+03  0.15788315673E+04  0.50400001928E-02 0.  1.
</event>
<event>
 5   0  0.8805125E-08  0.3306320E+04  0.7818609E-02  0.8161289E-01
        1   -1    0    0  501    0  0.00000000000E+00  0.00000000000E+00  0.16255886556E+04  0.16255886556E+04  0.50400001928E-02 0. -1.
       -1   -1    0    0    0  501  0.00000000000E+00  0.00000000000E+00 -0.16811994718E+04  0.16811994718E+04  0.50400001928E-02 0.  1.
    10030    2    1    2    0    0  0.00000000000E+00  0.00000000000E+00 -0.55610816185E+02  0.33067881274E+04  0.33063204860E+04 0.  0.
        4    1    3    3  502    0 -0.95989164964E+03  0.11882096585E+04  0.60450470521E+03  0.16427603974E+04  0.12699999809E+01 0.  1.
       -4    1    3    3    0  502  0.95989164964E+03 -0.11882096585E+04 -0.66011552140E+03  0.16640277300E+04  0.12699999809E+01 0. -1.
</event>
<event>
 5   0  0.9810351E-08  0.3301700E+04  0.7818609E-02  0.8162463E-01
       -1   -1    0    0    0  501  0.00000000000E+00  0.00000000000E+00  0.15298430199E+04  0.15298430199E+04  0.50400001928E-02 0. -1.
        1   -1    0    0  501    0  0.00000000000E+00  0.00000000000E+00 -0.17814280825E+04  0.17814280825E+04  0.50400001928E-02 0.  1.
    10030    2    1    2    0    0  0.00000000000E+00  0.00000000000E+00 -0.25158506258E+03  0.33112711025E+04  0.33016997547E+04 0.  0.
        5    1    3    3  502    0 -0.54209116109E+03  0.64305745523E+03 -0.15504377136E+04  0.17638778051E+04  0.46999998093E+01 0.  1.
       -5    1    3    3    0  502  0.54209116109E+03 -0.64305745523E+03  0.12988526510E+04  0.15473932974E+04  0.46999998093E+01 0. -1.
</event>
<event>
 5   0  0.2713815E-07  0.3294417E+04  0.7818609E-02  0.8164317E-01
       -2   -1    0    0    0  501  0.00000000000E+00  0.00000000000E+00  0.15319509862E+04  0.15319509862E+04  0.25500000920E-02 0.  1.
        2   -1    0    0  501    0  0.00000000000E+00  0.00000000000E+00 -0.17711375075E+04  0.17711375075E+04  0.25500000920E-02 0. -1.
    10030    2    1    2    0    0  0.00000000000E+00  0.00000000000E+00 -0.23918652130E+03  0.33030884937E+04  0.32944170053E+04 0.  0.
        4    1    3    3  502    0 -0.14865690289E+04  0.23638645212E+03 -0.79032961225E+03  0.17001142730E+04  0.12699999809E+01 0. -1.
       -4    1    3    3    0  502  0.14865690289E+04 -0.23638645212E+03  0.55114309095E+03  0.16029742206E+04  0.12699999809E+01 0.  1.
</event>
<event>
 5   0  0.8805125E-08  0.3300502E+04  0.7818609E-02  0.8162768E-01
       -1   -1    0    0    0  501  0.00000000000E+00  0.00000000000E+00  0.18052931793E+04  0.18052931793E+04  0.50400001928E-02 0.  1.
        1   -1    0    0  501    0  0.00000000000E+00  0.00000000000E+00 -0.15085243398E+04  0.15085243398E+04  0.50400001928E-02 0. -1.
    10030    2    1    2    0    0  0.00000000000E+00  0.00000000000E+00  0.29676883943E+03  0.33138175191E+04  0.33005022051E+04 0.  0.
        4    1    3    3  502    0  0.15560141497E+04  0.52161082125E+03 -0.25719897588E+02  0.16413168521E+04  0.12699999809E+01 0.  1.
       -4    1    3    3    0  502 -0.15560141497E+04 -0.52161082125E+03  0.32248873701E+03  0.16725006670E+04  0.12699999809E+01 0. -1.
</event>
<event>
 5   0  0.9181760E-08  0.3305431E+04  0.7818609E-02  0.8161515E-01
       -1   -1    0    0    0  501  0.00000000000E+00  0.00000000000E+00  0.14980600332E+04  0.14980600332E+04  0.50400001928E-02 0. -1.
        1   -1    0    0  501    0  0.00000000000E+00  0.00000000000E+00 -0.18233374889E+04  0.18233374889E+04  0.50400001928E-02 0.  1.
    10030    2    1    2    0    0  0.00000000000E+00  0.00000000000E+00 -0.32527745567E+03  0.33213975221E+04  0.33054312997E+04 0.  0.
        1    1    3    3  502    0  0.32550324530E+03  0.12508298005E+04  0.87235670692E+03  0.15593376083E+04  0.50400001928E-02 0. -1.
       -1    1    3    3    0  502 -0.32550324530E+03 -0.12508298005E+04 -0.11976341626E+04  0.17620599138E+04  0.50400001928E-02 0.  1.
</event>
<event>
 5   0  0.9810351E-08  0.3297133E+04  0.7818609E-02  0.8163625E-01
        1   -1    0    0  501    0  0.00000000000E+00  0.00000000000E+00  0.11923993797E+04  0.11923993797E+04  0.50400001928E-02 0.  1.
       -1   -1    0    0    0  501  0.00000000000E+00  0.00000000000E+00 -0.22792462745E+04  0.22792462746E+04  0.50400001928E-02 0. -1.
    10030    2    1    2    0    0  0.00000000000E+00  0.00000000000E+00 -0.10868468949E+04  0.34716456543E+04  0.32971332057E+04 0.  0.
        5    1    3    3  502    0  0.14144021974E+04  0.19829665760E+03 -0.14103453776E+04  0.20072247793E+04  0.46999998093E+01 0. -1.
       -5    1    3    3    0  502 -0.14144021974E+04 -0.19829665760E+03  0.32349848279E+03  0.14644208749E+04  0.46999998093E+01 0.  1.
</event>
<event>
 5   0  0.2713815E-07  0.3292955E+04  0.7818609E-02  0.8164690E-01
       -2   -1    0    0    0  501  0.00000000000E+00  0.00000000000E+00  0.10681993060E+04  0.10681993060E+04  0.25500000920E-02 0.  1.
        2   -1    0    0  501    0  0.00000000000E+00  0.00000000000E+00 -0.25378107741E+04  0.25378107741E+04  0.25500000920E-02 0. -1.
    10030    2    1    2    0    0  0.00000000000E+00  0.00000000000E+00 -0.14696114681E+04  0.36060100801E+04  0.32929547265E+04 0.  0.
        4    1    3    3  502    0  0.71604514938E+03 -0.22320386190E+03  0.87026153021E+03  0.11488678618E+04  0.12699999809E+01 0.  1.
       -4    1    3    3    0  502 -0.71604514938E+03  0.22320386190E+03 -0.23398729983E+04  0.24571422183E+04  0.12699999809E+01 0. -1.
</event>
<event>
 5   0  0.2727168E-07  0.3296930E+04  0.7818609E-02  0.8163677E-01
        2   -1    0    0  501    0  0.00000000000E+00  0.00000000000E+00  0.19741149697E+04  0.19741149697E+04  0.25500000920E-02 0.  1.
       -2   -1    0    0    0  501  0.00000000000E+00  0.00000000000E+00 -0.13765343843E+04  0.13765343843E+04  0.25500000920E-02 0. -1.
    10030    2    1    2    0    0  0.00000000000E+00  0.00000000000E+00  0.59758058548E+03  0.33506493540E+04  0.32969301687E+04 0.  0.
        2    1    3    3  502    0 -0.39279189283E+03 -0.47707896640E+03  0.18519408912E+04  0.19523255046E+04  0.25500000920E-02 0.  1.
       -2    1    3    3    0  502  0.39279189283E+03  0.47707896640E+03 -0.12543603057E+04  0.13983238494E+04  0.25500000920E-02 0. -1.
</event>
<event>
 5   0  0.9810351E-08  0.3299069E+04  0.7818609E-02  0.8163132E-01
        1   -1    0    0  501    0  0.00000000000E+00  0.00000000000E+00  0.18013807323E+04  0.18013807323E+04  0.50400001928E-02 0. -1.
       -1   -1    0    0    0  501  0.00000000000E+00  0.00000000000E+00 -0.15104883505E+04  0.15104883505E+04  0.50400001928E-02 0.  1.
    10030    2    1    2    0    0  0.00000000000E+00  0.00000000000E+00  0.29089238180E+03  0.33118690827E+04  0.32990693299E+04 0.  0.
        5    1    3    3  502    0 -0.12299465585E+04 -0.27141011890E+03 -0.92382036765E+03  0.15620173338E+04  0.46999998093E+01 0.  1.
       -5    1    3    3    0  502  0.12299465585E+04  0.27141011890E+03  0.12147127495E+04  0.17498517489E+04  0.46999998093E+01 0. -1.
</event>
<event>
 5   0  0.9181760E-08  0.3272249E+04  0.7818609E-02  0.8169993E-01
       -1   -1    0    0    0  501  0.00000000000E+00  0.00000000000E+00  0.13936128180E+04  0.13936128180E+04  0.50400001928E-02 0. -1.
        1   -1    0    0  501    0  0.00000000000E+00  0.00000000000E+00 -0.19208372398E+04  0.19208372398E+04  0.50400001928E-02 0.  1.
    10030    2    1    2    0    0  0.00000000000E+00  0.00000000000E+00 -0.52722442180E+03  0.33144500578E+04  0.32722490118E+04 0.  0.
        1    1    3    3  502    0  0.14200094443E+04 -0.57013247022E+03  0.32301634562E+03  0.15639109357E+04  0.50400001928E-02 0. -1.
       -1    1    3    3    0  502 -0.14200094443E+04  0.57013247022E+03 -0.85024076742E+03  0.17505391221E+04  0.50400001928E-02 0.  1.
</event>
<event>
 5   0  0.2875829E-07  0.3297234E+04  0.7818609E-02  0.8163600E-01
       -2   -1    0    0    0  501  0.00000000000E+00  0.00000000000E+00  0.23392237797E+04  0.23392237797E+04  0.25500000920E-02 0. -1.
        2   -1    0    0  501    0  0.00000000000E+00  0.00000000000E+00 -0.11618971044E+04  0.11618971044E+04  0.25500000920E-02 0.  1.
    10030    2    1    2    0    0  0.00000000000E+00  0.00000000000E+00  0.11773266753E+04  0.35011208841E+04  0.32972335897E+04 0.  0.
        3    1    3    3  502    0  0.65793913645E+03  0.14529332513E+04  0.10316390488E+04  0.18995204861E+04  0.10100000352E+00 0. -1.
       -3    1    3    3    0  502 -0.65793913645E+03 -0.14529332513E+04  0.14568762655E+03  0.16016003980E+04  0.10100000352E+00 0.  1.
</event>
<event>
 5   0  0.2713815E-07  0.3296763E+04  0.7818609E-02  0.8163720E-01
        2   -1    0    0  501    0  0.00000000000E+00  0.00000000000E+00  0.35076884371E+04  0.35076884371E+04  0.25500000920E-02 0.  1.
       -2   -1    0    0    0  501  0.00000000000E+00  0.00000000000E+00 -0.77463017291E+03  0.77463017291E+03  0.25500000920E-02 0. -1.
    10030    2    1    2    0    0  0.00000000000E+00  0.00000000000E+00  0.27330582642E+04  0.42823186100E+04  0.32967628368E+04 0.  0.
        4    1    3    3  502    0 -0.12376020178E+04 -0.97592936773E+02  0.27751385946E+04  0.30401610102E+04  0.12699999809E+01 0.  1.
       -4    1    3    3    0  502  0.12376020178E+04  0.97592936773E+02 -0.42080330435E+02  0.12421575998E+04  0.12699999809E+01 0. -1.
</event>
<event>
 5   0  0.2713815E-07  0.3305603E+04  0.7818609E-02  0.8161471E-01
        2   -1    0    0  501    0  0.00000000000E+00  0.00000000000E+00  0.14187080041E+04  0.14187080041E+04  0.25500000920E-02 0.  1.
       -2   -1    0    0    0  501  0.00000000000E+00  0.00000000000E+00 -0.19255215734E+04  0.19255215734E+04  0.25500000920E-02 0. -1.
    10030    2    1    2    0    0  0.00000000000E+00  0.00000000000E+00 -0.50681356931E+03  0.33442295774E+04  0.33056030422E+04 0.  0.
        4    1    3    3  502    0  0.51407665051E+03  0.13812513440E+04 -0.10102265305E+04  0.17868098202E+04  0.12699999809E+01 0.  1.
       -4    1    3    3    0  502 -0.51407665051E+03 -0.13812513440E+04  0.50341296118E+03  0.15574197572E+04  0.12699999809E+01 0. -1.
</event>
<event>
 5   0  0.9283910E-08  0.3297743E+04  0.7818609E-02  0.8163470E-01
        1   -1    0    0  501    0  0.00000000000E+00  0.00000000000E+00  0.10955373930E+04  0.10955373930E+04  0.50400001928E-02 0.  1.
       -1   -1    0    0    0  501  0.00000000000E+00  0.00000000000E+00 -0.24816828976E+04  0.24816828977E+04  0.50400001928E-02 0. -1.
    10030    2    1    2    0    0  0.00000000000E+00  0.00000000000E+00 -0.13861455047E+04  0.35772202907E+04  0.32977425078E+04 0.  0.
        3    1    3    3  502    0 -0.34347590832E+03 -0.11144141233E+04  0.57143004487E+03  0.12986249821E+04  0.10100000352E+00 0.  1.
       -3    1    3    3    0  502  0.34347590832E+03  0.11144141233E+04 -0.19575755495E+04  0.22785953085E+04  0.10100000352E+00 0. -1.
</event>
<event>
 5   0  0.9810351E-08  0.3300254E+04  0.7818609E-02  0.8162831E-01
       -1   -1    0    0    0  501  0.00000000000E+00  0.00000000000E+00  0.13802099581E+04  0.13802099581E+04  0.50400001928E-02 0. -1.
        1   -1    0    0  501    0  0.00000000000E+00  0.00000000000E+00 -0.19728293478E+04  0.19728293478E+04  0.50400001928E-02 0.  1.
    10030    2    1    2    0    0  0.00000000000E+00  0.00000000000E+00 -0.59261938970E+03  0.33530393059E+04  0.33002537548E+04 0.  0.
        5    1    3    3  502    0  0.95109902880E+02  0.57084106148E+02  0.13764108743E+04  0.13808814118E+04  0.46999998093E+01 0. -1.
       -5    1    3    3    0  502 -0.95109902880E+02 -0.57084106148E+02 -0.19690302640E+04  0.19721578941E+04  0.46999998093E+01 0.  1.
</event>
<event>
 5   0  0.9283910E-08  0.3239667E+04  0.7818609E-02  0.8178419E-01
        1   -1    0    0  501    0  0.00000000000E+00  0.00000000000E+00  0.15076246346E+04  0.15076246346E+04  0.50400001928E-02 0. -1.
       -1   -1    0    0    0  501  0.00000000000E+00  0.00000000000E+00 -0.17403941670E+04  0.17403941670E+04  0.50400001928E-02 0.  1.
    10030    2    1    2    0    0  0.00000000000E+00  0.00000000000E+00 -0.23276953244E+03  0.32480188016E+04  0.32396673410E+04 0.  0.
        3    1    3    3  502    0  0.55373963096E+03 -0.12713841967E+04 -0.95569021996E+03  0.16841582946E+04  0.10100000352E+00 0.  1.
       -3    1    3    3    0  502 -0.55373963096E+03  0.12713841967E+04  0.72292068752E+03  0.15638605070E+04  0.10100000352E+00 0. -1.
</event>
<event>
 5   0  0.9454010E-08  0.3299333E+04  0.7818609E-02  0.8163065E-01
       -1   -1    0    0    0  501  0.00000000000E+00  0.00000000000E+00  0.13490010155E+04  0.13490010155E+04  0.50400001928E-02 0. -1.
        1   -1    0    0  501    0  0.00000000000E+00  0.00000000000E+00 -0.20173441319E+04  0.20173441319E+04  0.50400001928E-02 0.  1.
    10030    2    1    2    0    0  0.00000000000E+00  0.00000000000E+00 -0.66834311645E+03  0.33663451474E+04  0.32993328311E+04 0.  0.
        2    1    3    3  502    0  0.83022624170E+03  0.34790825297E+03  0.10763260252E+04  0.14031370131E+04  0.25500000920E-02 0. -1.
       -2    1    3    3    0  502 -0.83022624170E+03 -0.34790825297E+03 -0.17446691417E+04  0.19632081343E+04  0.25500000920E-02 0.  1.
</event>
<event>
 5   0  0.2875829E-07  0.3312178E+04  0.7818609E-02  0.8159804E-01
       -2   -1    0    0    0  501  0.00000000000E+00  0.00000000000E+00  0.14916404389E+04  0.14916404389E+04  0.25500000920E-02 0.  1.
        2   -1    0    0  501    0  0.00000000000E+00  0.00000000000E+00 -0.18386674942E+04  0.18386674942E+04  0.25500000920E-02 0. -1.
    10030    2    1    2    0    0  0.00000000000E+00  0.00000000000E+00 -0.34702705528E+03  0.33303079331E+04  0.33121780073E+04 0.  0.
        3    1    3    3  502    0  0.85157041411E+03 -0.49259194655E+03  0.11659992919E+04  0.15255731234E+04  0.10100000352E+00 0.  1.
       -3    1    3    3    0  502 -0.85157041411E+03  0.49259194655E+03 -0.15130263472E+04  0.18047348097E+04  0.10100000352E+00 0. -1.
</event>
<event>
 5   0  0.2875829E-07  0.3308650E+04  0.7818609E-02  0.8160698E-01
       -2   -1    0    0    0  501  0.00000000000E+00  0.00000000000E+00  0.14610336772E+04  0.14610336772E+04  0.25500000920E-02 0.  1.
        2   -1    0    0  501    0  0.00000000000E+00  0.00000000000E+00 -0.18731887453E+04  0.18731887453E+04  0.25500000920E-02 0. -1.
    10030    2    1    2    0    0  0.00000000000E+00  0.00000000000E+00 -0.41215506801E+03  0.33342224225E+04  0.33086503839E+04 0.  0.
        3    1    3    3  502    0  0.85778155020E+03 -0.84689472727E+03  0.93571613957E+03  0.15259700426E+04  0.10100000352E+00 0.  1.
       -3    1    3    3    0  502 -0.85778155020E+03  0.84689472727E+03 -0.13478712076E+04  0.18082523799E+04  0.10100000352E+00 0. -1.
</event>
<event>
 5   0  0.9283910E-08  0.3297746E+04  0.7818609E-02  0.8163469E-01
       -1   -1    0    0    0  501  0.00000000000E+00  0.00000000000E+00  0.13705557575E+04  0.13705557575E+04  0.50400001928E-02 0. -1.
        1   -1    0    0  501    0  0.00000000000E+00  0.00000000000E+00 -0.19837075769E+04  0.19837075769E+04  0.50400001928E-02 0.  1.
    10030    2    1    2    0    0  0.00000000000E+00  0.00000000000E+00 -0.61315181945E+03  0.33542633344E+04  0.32977458002E+04 0.  0.
        3    1    3    3  502    0  0.11562440589E+03 -0.42071047456E+03 -0.19239266180E+04  0.19727797516E+04  0.10100000352E+00 0.  1.
       -3    1    3    3    0  502 -0.11562440589E+03  0.42071047456E+03  0.13107747986E+04  0.13814835828E+04  0.10100000352E+00 0. -1.
</event>
<event>
 5   0  0.2727168E-07  0.3300135E+04  0.7818609E-02  0.8162861E-01
       -2   -1    0    0    0  501  0.00000000000E+00  0.00000000000E+00  0.14142989216E+04  0.14142989216E+04  0.25500000920E-02 0.  1.
        2   -1    0    0  501    0  0.00000000000E+00  0.00000000000E+00 -0.19251392898E+04  0.19251392899E+04  0.25500000920E-02 0. -1.
    10030    2    1    2    0    0  0.00000000000E+00  0.00000000000E+00 -0.51084036821E+03  0.33394382115E+04  0.33001347982E+04 0.  0.
        2    1    3    3  502    0  0.90301279087E+03 -0.59963712630E+03  0.10034725329E+04  0.14771438346E+04  0.25500000920E-02 0.  1.
       -2    1    3    3    0  502 -0.90301279087E+03  0.59963712630E+03 -0.15143129011E+04  0.18622943769E+04  0.25500000920E-02 0. -1.
</event>
<event>
 5   0  0.2824402E-07  0.3301016E+04  0.7818609E-02  0.8162637E-01
       -2   -1    0    0    0  501  0.00000000000E+00  0.00000000000E+00  0.17074298603E+04  0.17074298603E+04  0.25500000920E-02 0. -1.
        2   -1    0    0  501    0  0.00000000000E+00  0.00000000000E+00 -0.15954839437E+04  0.15954839437E+04  0.25500000920E-02 0.  1.
    10030    2    1    2    0    0  0.00000000000E+00  0.00000000000E+00  0.11194591665E+03  0.33029138040E+04  0.33010161630E+04 0.  0.
        1    1    3    3  502    0  0.63054349269E+03 -0.14309172509E+04  0.58454518332E+03  0.16693718419E+04  0.50400001928E-02 0. -1.
       -1    1    3    3    0  502 -0.63054349269E+03  0.14309172509E+04 -0.47259926667E+03  0.16335419621E+04  0.50400001928E-02 0.  1.
</event>
<event>
 5   0  0.2713815E-07  0.3302967E+04  0.7818609E-02  0.8162141E-01
       -2   -1    0    0    0  501  0.00000000000E+00  0.00000000000E+00  0.11753331506E+04  0.11753331506E+04  0.25500000920E-02 0.  1.
        2   -1    0    0  501    0  0.00000000000E+00  0.00000000000E+00 -0.23205321830E+04  0.23205321830E+04  0.25500000920E-02 0. -1.
    10030    2    1    2    0    0  0.00000000000E+00  0.00000000000E+00 -0.11451990323E+04  0.34958653336E+04  0.33029673942E+04 0.  0.
        4    1    3    3  502    0 -0.10686717615E+03 -0.10950234152E+04 -0.18761530510E+04  0.21749594840E+04  0.12699999809E+01 0. -1.
       -4    1    3    3    0  502  0.10686717615E+03  0.10950234152E+04  0.73095401869E+03  0.13209058496E+04  0.12699999809E+01 0.  1.
</event>
<event>
 5   0  0.9810351E-08  0.3294382E+04  0.7818609E-02  0.8164326E-01
        1   -1    0    0  501    0  0.00000000000E+00  0.00000000000E+00  0.23670957087E+04  0.23670957087E+04  0.50400001928E-02 0.  1.
       -1   -1    0    0    0  501  0.00000000000E+00  0.00000000000E+00 -0.11462310573E+04  0.11462310573E+04  0.50400001928E-02 0. -1.
    10030    2    1    2    0    0  0.00000000000E+00  0.00000000000E+00  0.12208646514E+04  0.35133267661E+04  0.32943822589E+04 0.  0.
        5    1    3    3  502    0 -0.16367870258E+03 -0.84955326626E+03 -0.88439498843E+03  0.12372178690E+04  0.46999998093E+01 0. -1.
       -5    1    3    3    0  502  0.16367870258E+03  0.84955326626E+03  0.21052596399E+04  0.22761088970E+04  0.46999998093E+01 0.  1.
</event>
<event>
 5   0  0.2824402E-07  0.3270625E+04  0.7818609E-02  0.8170410E-01
        2   -1    0    0  501    0  0.00000000000E+00  0.00000000000E+00  0.17424057562E+04  0.17424057562E+04  0.25500000920E-02 0.  1.
       -2   -1    0    0    0  501  0.00000000000E+00  0.00000000000E+00 -0.15348019190E+04  0.15348019190E+04  0.25500000920E-02 0. -1.
    10030    2    1    2    0    0  0.00000000000E+00  0.00000000000E+00  0.20760383718E+03  0.32772076751E+04  0.32706254437E+04 0.  0.
        1    1    3    3  502    0  0.63558419423E+03  0.20743559682E+03 -0.13915992792E+04  0.15438734886E+04  0.50400001928E-02 0. -1.
       -1    1    3    3    0  502 -0.63558419423E+03 -0.20743559682E+03  0.15992031164E+04  0.17333341866E+04  0.50400001928E-02 0.  1.
</event>
<event>
 5   0  0.2875829E-07  0.3288446E+04  0.7818609E-02  0.8165842E-01
        2   -1    0    0  501    0  0.00000000000E+00  0.00000000000E+00  0.24588860003E+04  0.24588860003E+04  0.25500000920E-02 0.  1.
       -2   -1    0    0    0  501  0.00000000000E+00  0.00000000000E+00 -0.10994688117E+04  0.10994688117E+04  0.25500000920E-02 0. -1.
    10030    2    1    2    0    0  0.00000000000E+00  0.00000000000E+00  0.13594171886E+04  0.35583548120E+04  0.32884455105E+04 0.  0.
        3    1    3    3  502    0  0.11052561159E+04 -0.62165901796E+03  0.18122352339E+04  0.22118425734E+04  0.10100000352E+00 0.  1.
       -3    1    3    3    0  502 -0.11052561159E+04  0.62165901796E+03 -0.45281804530E+03  0.13465122386E+04  0.10100000352E+00 0. -1.
</event>
<event>
 5   0  0.8805125E-08  0.3300433E+04  0.7818609E-02  0.8162785E-01
       -1   -1    0    0    0  501  0.00000000000E+00  0.00000000000E+00  0.20322727853E+04  0.20322727853E+04  0.50400001928E-02 0. -1.
        1   -1    0    0  501    0  0.00000000000E+00  0.00000000000E+00 -0.13399849478E+04  0.13399849478E+04  0.50400001928E-02 0.  1.
    10030    2    1    2    0    0  0.00000000000E+00  0.00000000000E+00  0.69228783750E+03  0.33722577331E+04  0.33004332698E+04 0.  0.
        4    1    3    3  502    0 -0.72161647323E+03  0.12285980957E+04 -0.50445677124E+03  0.15115097956E+04  0.12699999809E+01 0. -1.
       -4    1    3    3    0  502  0.72161647323E+03 -0.12285980957E+04  0.11967446087E+04  0.18607479375E+04  0.12699999809E+01 0.  1.
</event>
<event>
 5   0  0.2703956E-07  0.3308035E+04  0.7818609E-02  0.8160854E-01
        2   -1    0    0  501    0  0.00000000000E+00  0.00000000000E+00  0.26208840286E+04  0.26208840286E+04  0.25500000920E-02 0. -1.
       -2   -1    0    0    0  501  0.00000000000E+00  0.00000000000E+00 -0.10438364960E+04  0.10438364960E+04  0.25500000920E-02 0.  1.
    10030    2    1    2    0    0  0.00000000000E+00  0.00000000000E+00  0.15770475326E+04  0.36647205247E+04  0.33080353087E+04 0.  0.
        5    1    3    3  502    0 -0.11920306121E+04 -0.69250267956E+03  0.18009895665E+04  0.22680569768E+04  0.46999998093E+01 0. -1.
       -5    1    3    3    0  502  0.11920306121E+04  0.69250267956E+03 -0.22394203390E+03  0.13966635478E+04  0.46999998093E+01 0.  1.
</event>
<event>
 5   0  0.2727168E-07  0.3253724E+04  0.7818609E-02  0.8174771E-01
        2   -1    0    0  501    0  0.00000000000E+00  0.00000000000E+00  0.15723870242E+04  0.15723870242E+04  0.25500000920E-02 0. -1.
       -2   -1    0    0    0  501  0.00000000000E+00  0.00000000000E+00 -0.16832241455E+04  0.16832241455E+04  0.25500000920E-02 0.  1.
    10030    2    1    2    0    0  0.00000000000E+00  0.00000000000E+00 -0.11083712125E+03  0.32556111697E+04  0.32537239005E+04 0.  0.
        2    1    3    3  502    0  0.12144783580E+04 -0.67825771603E+03 -0.89952426481E+03  0.16565431218E+04  0.25500000920E-02 0.  1.
       -2    1    3    3    0  502 -0.12144783580E+04  0.67825771603E+03  0.78868714356E+03  0.15990680479E+04  0.25500000920E-02 0. -1.
</event>
<event>
 5   0  0.2727168E-07  0.3296133E+04  0.7818609E-02  0.8163880E-01
       -2   -1    0    0    0  501  0.00000000000E+00  0.00000000000E+00  0.14059271554E+04  0.14059271554E+04  0.25500000920E-02 0. -1.
        2   -1    0    0  501    0  0.00000000000E+00  0.00000000000E+00 -0.19319084135E+04  0.19319084135E+04  0.25500000920E-02 0.  1.
    10030    2    1    2    0    0  0.00000000000E+00  0.00000000000E+00 -0.52598125817E+03  0.33378355689E+04  0.32961325824E+04 0.  0.
        2    1    3    3  502    0  0.27756999257E+03  0.10228099672E+04 -0.15410751917E+04  0.18703203138E+04  0.25500000920E-02 0.  1.
       -2    1    3    3    0  502 -0.27756999257E+03 -0.10228099672E+04  0.10150939336E+04  0.14675152550E+04  0.25500000920E-02 0. -1.
</event>
<event>
 5   0  0.9283910E-08  0.3297712E+04  0.7818609E-02  0.8163478E-01
       -1   -1    0    0    0  501  0.00000000000E+00  0.00000000000E+00  0.15828101655E+04  0.15828101655E+04  0.50400001928E-02 0.  1.
        1   -1    0    0  501    0  0.00000000000E+00  0.00000000000E+00 -0.17176577657E+04  0.17176577657E+04  0.50400001928E-02 0. -1.
    10030    2    1    2    0    0  0.00000000000E+00  0.00000000000E+00 -0.13484760018E+03  0.33004679312E+04  0.32977120386E+04 0.  0.
        3    1    3    3  502    0  0.83447091511E+03 -0.12061019190E+04 -0.82151389272E+03  0.16810439118E+04  0.10100000352E+00 0. -1.
       -3    1    3    3    0  502 -0.83447091511E+03  0.12061019190E+04  0.68666629253E+03  0.16194240194E+04  0.10100000352E+00 0.  1.
</event>
<event>
 5   0  0.9454010E-08  0.3297964E+04  0.7818609E-02  0.8163414E-01
        1   -1    0    0  501    0  0.00000000000E+00  0.00000000000E+00  0.16641714601E+04  0.16641714601E+04  0.50400001928E-02 0. -1.
       -1   -1    0    0    0  501  0.00000000000E+00  0.00000000000E+00 -0.16339309649E+04  0.16339309649E+04  0.50400001928E-02 0.  1.
    10030    2    1    2    0    0  0.00000000000E+00  0.00000000000E+00  0.30240495256E+02  0.32981024250E+04  0.32979637836E+04 0.  0.
        2    1    3    3  502    0  0.72552043688E+03  0.13024787727E+04 -0.68940239296E+03  0.16425914029E+04  0.25500000920E-02 0.  1.
       -2    1    3    3    0  502 -0.72552043688E+03 -0.13024787727E+04  0.71964288821E+03  0.16555110221E+04  0.25500000920E-02 0. -1.
</event>
<event>
 5   0  0.2824402E-07  0.3293183E+04  0.7818609E-02  0.8164632E-01
        2   -1    0    0  501    0  0.00000000000E+00  0.00000000000E+00  0.15325533903E+04  0.15325533903E+04  0.25500000920E-02 0. -1.
       -2   -1    0    0    0  501  0.00000000000E+00  0.00000000000E+00 -0.17691156697E+04  0.17691156697E+04  0.25500000920E-02 0.  1.
    10030    2    1    2    0    0  0.00000000000E+00  0.00000000000E+00 -0.23656227936E+03  0.33016690601E+04  0.32931833945E+04 0.  0.
        1    1    3    3  502    0 -0.20905192416E+02 -0.15802795122E+04  0.34501764521E+03  0.16176394961E+04  0.50400001928E-02 0. -1.
       -1    1    3    3    0  502  0.20905192416E+02  0.15802795122E+04 -0.58157992457E+03  0.16840295640E+04  0.50400001928E-02 0.  1.
</event>
<event>
 5   0  0.9454010E-08  0.3302864E+04  0.7818609E-02  0.8162167E-01
       -1   -1    0    0    0  501  0.00000000000E+00  0.00000000000E+00  0.13613626434E+04  0.13613626434E+04  0.50400001928E-02 0.  1.
        1   -1    0    0  501    0  0.00000000000E+00  0.00000000000E+00 -0.20033070733E+04  0.20033070734E+04  0.50400001928E-02 0. -1.
    10030    2    1    2    0    0  0.00000000000E+00  0.00000000000E+00 -0.64194442993E+03  0.33646697168E+04  0.33028638561E+04 0.  0.
        2    1    3    3  502    0  0.69997372577E+03  0.25575933788E+03 -0.18222699044E+04  0.19687670406E+04  0.25500000920E-02 0. -1.
       -2    1    3    3    0  502 -0.69997372577E+03 -0.25575933788E+03  0.11803254745E+04  0.13959026762E+04  0.25500000920E-02 0.  1.
</event>
<event>
 5   0  0.9810351E-08  0.3296307E+04  0.7818609E-02  0.8163836E-01
        1   -1    0    0  501    0  0.00000000000E+00  0.00000000000E+00  0.23792342103E+04  0.23792342103E+04  0.50400001928E-02 0.  1.
       -1   -1    0    0    0  501  0.00000000000E+00  0.00000000000E+00 -0.11417161097E+04  0.11417161097E+04  0.50400001928E-02 0. -1.
    10030    2    1    2    0    0  0.00000000000E+00  0.00000000000E+00  0.12375181007E+04  0.35209503200E+04  0.32963070407E+04 0.  0.
        5    1    3    3  502    0 -0.22785524440E+03 -0.14925007457E+04  0.13247984737E+04  0.20086287796E+04  0.46999998093E+01 0.  1.
       -5    1    3    3    0  502  0.22785524440E+03  0.14925007457E+04 -0.87280373026E+02  0.15123215405E+04  0.46999998093E+01 0. -1.
</event>
<event>
 5   0  0.2703956E-07  0.3295144E+04  0.7818609E-02  0.8164132E-01
       -2   -1    0    0    0  501  0.00000000000E+00  0.00000000000E+00  0.12122211826E+04  0.12122211826E+04  0.25500000920E-02 0.  1.
        2   -1    0    0  501    0  0.00000000000E+00  0.00000000000E+00 -0.22392730089E+04  0.22392730089E+04  0.25500000920E-02 0. -1.
    10030    2    1    2    0    0  0.00000000000E+00  0.00000000000E+00 -0.10270518263E+04  0.34514941915E+04  0.32951444126E+04 0.  0.
        5    1    3    3  502    0 -0.13479337716E+04 -0.88618499314E+03 -0.86441771812E+03  0.18301610246E+04  0.46999998093E+01 0. -1.
       -5    1    3    3    0  502  0.13479337716E+04  0.88618499314E+03 -0.16263410821E+03  0.16213331668E+04  0.46999998093E+01 0.  1.
</event>
<event>
 5   0  0.9454010E-08  0.3296086E+04  0.7818609E-02  0.8163892E-01
       -1   -1    0    0    0  501  0.00000000000E+00  0.00000000000E+00  0.12661681762E+04  0.12661681762E+04  0.50400001928E-02 0. -1.
        1   -1    0    0  501    0  0.00000000000E+00  0.00000000000E+00 -0.21450913153E+04  0.21450913153E+04  0.50400001928E-02 0.  1.
    10030    2    1    2    0    0  0.00000000000E+00  0.00000000000E+00 -0.87892313909E+03  0.34112594914E+04  0.32960863814E+04 0.  0.
        2    1    3    3  502    0  0.31406475719E+03 -0.79324223573E+03  0.10198352434E+04  0.13296367323E+04  0.25500000920E-02 0. -1.
       -2    1    3    3    0  502 -0.31406475719E+03  0.79324223573E+03 -0.18987583825E+04  0.20816227591E+04  0.25500000920E-02 0.  1.
</event>
<event>
 5   0  0.9283910E-08  0.3302118E+04  0.7818609E-02  0.8162357E-01
        1   -1    0    0  501    0  0.00000000000E+00  0.00000000000E+00  0.23178030722E+04  0.23178030722E+04  0.50400001928E-02 0. -1.
       -1   -1    0    0    0  501  0.00000000000E+00  0.00000000000E+00 -0.11761120474E+04  0.11761120474E+04  0.50400001928E-02 0.  1.
    10030    2    1    2    0    0  0.00000000000E+00  0.00000000000E+00  0.11416910247E+04  0.34939151196E+04  0.33021181789E+04 0.  0.
        3    1    3    3  502    0 -0.71922423368E+03 -0.60722054938E+02  0.21420276760E+04  0.22603657317E+04  0.10100000352E+00 0. -1.
       -3    1    3    3    0  502  0.71922423368E+03  0.60722054938E+02 -0.10003366513E+04  0.12335493879E+04  0.10100000352E+00 0.  1.
</event>
<event>
 5   0  0.9810351E-08  0.3243911E+04  0.7818609E-02  0.8177316E-01
       -1   -1    0    0    0  501  0.00000000000E+00  0.00000000000E+00  0.16815005625E+04  0.16815005625E+04  0.50400001928E-02 0.  1.
        1   -1    0    0  501    0  0.00000000000E+00  0.00000000000E+00 -0.15645194760E+04  0.15645194760E+04  0.50400001928E-02 0. -1.
    10030    2    1    2    0    0  0.00000000000E+00  0.00000000000E+00  0.11698108649E+03  0.32460200385E+04  0.32439114531E+04 0.  0.
        5    1    3    3  502    0  0.27139412264E+03  0.15918430398E+04 -0.93592642334E+02  0.16175291978E+04  0.46999998093E+01 0. -1.
       -5    1    3    3    0  502 -0.27139412264E+03 -0.15918430398E+04  0.21057372883E+03  0.16284908407E+04  0.46999998093E+01 0.  1.
</event>
<event>
 5   0  0.2727168E-07  0.3301479E+04  0.7818609E-02  0.8162519E-01
        2   -1    0    0  501    0  0.00000000000E+00  0.00000000000E+00  0.27668873425E+04  0.27668873425E+04  0.25500000920E-02 0. -1.
       -2   -1    0    0    0  501  0.00000000000E+00  0.00000000000E+00 -0.98484000242E+03  0.98484000242E+03  0.25500000920E-02 0.  1.
    10030    2    1    2    0    0  0.00000000000E+00  0.00000000000E+00  0.17820473401E+04  0.37517273449E+04  0.33014792667E+04 0.  0.
        2    1    3    3  502    0  0.45804137759E+03  0.88412518969E+03  0.23871899676E+04  0.25865334322E+04  0.25500000920E-02 0. -1.
       -2    1    3    3    0  502 -0.45804137759E+03 -0.88412518969E+03 -0.60514262749E+03  0.11651939127E+04  0.25500000920E-02 0.  1.
</event>
<event>
 5   0  0.2824402E-07  0.3304019E+04  0.7818609E-02  0.8161874E-01
        2   -1    0    0  501    0  0.00000000000E+00  0.00000000000E+00  0.20985699513E+04  0.20985699513E+04  0.25500000920E-02 0.  1.
       -2   -1    0    0    0  501  0.00000000000E+00  0.00000000000E+00 -0.13004737369E+04  0.13004737369E+04  0.25500000920E-02 0. -1.
    10030    2    1    2    0    0  0.00000000000E+00  0.00000000000E+00  0.79809621436E+03  0.33990436882E+04  0.33040188297E+04 0.  0.
        1    1    3    3  502    0 -0.81631636596E+03 -0.14350833957E+04  0.45813106888E+03  0.17133945367E+04  0.50400001928E-02 0. -1.
       -1    1    3    3    0  502  0.81631636596E+03  0.14350833957E+04  0.33996514548E+03  0.16856491516E+04  0.50400001928E-02 0.  1.
</event>
<event>
 5   0  0.9283910E-08  0.3295821E+04  0.7818609E-02  0.8163959E-01
       -1   -1    0    0    0  501  0.00000000000E+00  0.00000000000E+00  0.15853370738E+04  0.15853370738E+04  0.50400001928E-02 0. -1.
        1   -1    0    0  501    0  0.00000000000E+00  0.00000000000E+00 -0.17129541978E+04  0.17129541978E+04  0.50400001928E-02 0.  1.
    10030    2    1    2    0    0  0.00000000000E+00  0.00000000000E+00 -0.12761712399E+03  0.32982912716E+04  0.32958214730E+04 0.  0.
        3    1    3    3  502    0 -0.10853393718E+04 -0.89503622579E+03 -0.92268149501E+03  0.16823770531E+04  0.10100000352E+00 0.  1.
       -3    1    3    3    0  502  0.10853393718E+04  0.89503622579E+03  0.79506437102E+03  0.16159142185E+04  0.10100000352E+00 0. -1.
</event>
<event>
 5   0  0.2824402E-07  0.3300999E+04  0.7818609E-02  0.8162641E-01
       -2   -1    0    0    0  501  0.00000000000E+00  0.00000000000E+00  0.14467302162E+04  0.14467302162E+04  0.25500000920E-02 0. -1.
        2   -1    0    0  501    0  0.00000000000E+00  0.00000000000E+00 -0.18829688904E+04  0.18829688904E+04  0.25500000920E-02 0.  1.
    10030    2    1    2    0    0  0.00000000000E+00  0.00000000000E+00 -0.43623867416E+03  0.33296991066E+04  0.33009986307E+04 0.  0.
        1    1    3    3  502    0  0.81526457779E+03 -0.12859454277E+04 -0.86071077995E+03  0.17490383133E+04  0.50400001928E-02 0. -1.
       -1    1    3    3    0  502 -0.81526457779E+03  0.12859454277E+04  0.42447210579E+03  0.15806607933E+04  0.50400001928E-02 0.  1.
</event>
<event>
 5   0  0.2824402E-07  0.3307597E+04  0.7818609E-02  0.8160965E-01
        2   -1    0    0  501    0  0.00000000000E+00  0.00000000000E+00  0.13360632359E+04  0.13360632359E+04  0.25500000920E-02 0.  1.
       -2   -1    0    0    0  501  0.00000000000E+00  0.00000000000E+00 -0.20470952676E+04  0.20470952676E+04  0.25500000920E-02 0. -1.
    10030    2    1    2    0    0  0.00000000000E+00  0.00000000000E+00 -0.71103203171E+03  0.33831585036E+04  0.33075965458E+04 0.  0.
        1    1    3    3  502    0  0.11785926136E+04  0.26881527153E+03  0.79885257883E+03  0.14489677849E+04  0.50400001928E-02 0.  1.
       -1    1    3    3    0  502 -0.11785926136E+04 -0.26881527153E+03 -0.15098846105E+04  0.19341907187E+04  0.50400001928E-02 0. -1.
</event>
<event>
 5   0  0.2703956E-07  0.3295046E+04  0.7818609E-02  0.8164157E-01
        2   -1    0    0  501    0  0.00000000000E+00  0.00000000000E+00  0.17785338680E+04  0.17785338680E+04  0.25500000920E-02 0. -1.
       -2   -1    0    0    0  501  0.00000000000E+00  0.00000000000E+00 -0.15261629615E+04  0.15261629615E+04  0.25500000920E-02 0.  1.
    10030    2    1    2    0    0  0.00000000000E+00  0.00000000000E+00  0.25237090654E+03  0.33046968295E+04  0.32950462911E+04 0.  0.
        5    1    3    3  502    0 -0.68514782835E+03 -0.62547019749E+03  0.14916684724E+04  0.17566267208E+04  0.46999998093E+01 0. -1.
       -5    1    3    3    0  502  0.68514782835E+03  0.62547019749E+03 -0.12392975659E+04  0.15480701087E+04  0.46999998093E+01 0.  1.
</event>
<event>
 5   0  0.2875829E-07  0.3299487E+04  0.7818609E-02  0.8163026E-01
        2   -1    0    0  501    0  0.00000000000E+00  0.00000000000E+00  0.20965175923E+04  0.20965175923E+04  0.25500000920E-02 0.  1.
       -2   -1    0    0    0  501  0.00000000000E+00  0.00000000000E+00 -0.12981781989E+04  0.12981781989E+04  0.25500000920E-02 0. -1.
    10030    2    1    2    0    0  0.00000000000E+00  0.00000000000E+00  0.79833939339E+03  0.33946957912E+04  0.32994868886E+04 0.  0.
        3    1    3    3  502    0  0.11239130987E+03 -0.45839095499E+03 -0.12272358130E+04  0.13148619034E+04  0.10100000352E+00 0. -1.
       -3    1    3    3    0  502 -0.11239130987E+03  0.45839095499E+03  0.20255752064E+04  0.20798338878E+04  0.10100000352E+00 0.  1.
</event>
<event>
 5   0  0.9181760E-08  0.3302295E+04  0.7818609E-02  0.8162312E-01
       -1   -1    0    0    0  501  0.00000000000E+00  0.00000000000E+00  0.12263017007E+04  0.12263017007E+04  0.50400001928E-02 0. -1.
        1   -1    0    0  501    0  0.00000000000E+00  0.00000000000E+00 -0.22231788626E+04  0.22231788626E+04  0.50400001928E-02 0.  1.
    10030    2    1    2    0    0  0.00000000000E+00  0.00000000000E+00 -0.99687716190E+03  0.34494805633E+04  0.33022949718E+04 0.  0.
        1    1    3    3  502    0  0.35895015573E+03 -0.27458868020E+03  0.11604383077E+04  0.12453357875E+04  0.50400001928E-02 0. -1.
       -1    1    3    3    0  502 -0.35895015573E+03  0.27458868020E+03 -0.21573154696E+04  0.22041447758E+04  0.50400001928E-02 0.  1.
</event>
<event>
 5   0  0.9181760E-08  0.3297072E+04  0.7818609E-02  0.8163641E-01
       -1   -1    0    0    0  501  0.00000000000E+00  0.00000000000E+00  0.30312978975E+04  0.30312978975E+04  0.50400001928E-02 0. -1.
        1   -1    0    0  501    0  0.00000000000E+00  0.00000000000E+00 -0.89653701483E+03  0.89653701485E+03  0.50400001928E-02 0.  1.
    10030    2    1    2    0    0  0.00000000000E+00  0.00000000000E+00  0.21347608826E+04  0.39278349123E+04  0.32970718937E+04 0.  0.
        1    1    3    3  502    0 -0.66012521051E+03  0.10336812776E+04  0.23796659216E+04  0.26771388040E+04  0.50400001928E-02 0. -1.
       -1    1    3    3    0  502  0.66012521051E+03 -0.10336812776E+04 -0.24490503899E+03  0.12506961083E+04  0.50400001928E-02 0.  1.
</event>
<event>
 5   0  0.9283910E-08  0.3314588E+04  0.7818609E-02  0.8159193E-01
       -1   -1    0    0    0  501  0.00000000000E+00  0.00000000000E+00  0.11790380877E+04  0.11790380877E+04  0.50400001928E-02 0.  1.
        1   -1    0    0  501    0  0.00000000000E+00  0.00000000000E+00 -0.23295461364E+04  0.23295461364E+04  0.50400001928E-02 0. -1.
    10030    2    1    2    0    0  0.00000000000E+00  0.00000000000E+00 -0.11505080487E+04  0.35085842240E+04  0.33145881323E+04 0.  0.
        3    1    3    3  502    0  0.11453558373E+03  0.13661147403E+04 -0.15610133989E+04  0.20775347712E+04  0.10100000352E+00 0. -1.
       -3    1    3    3    0  502 -0.11453558373E+03 -0.13661147403E+04  0.41050535023E+03  0.14310494528E+04  0.10100000352E+00 0.  1.
</event>
<event>
 5   0  0.2703956E-07  0.3291887E+04  0.7818609E-02  0.8164963E-01
       -2   -1    0    0    0  501  0.00000000000E+00  0.00000000000E+00  0.12043230074E+04  0.12043230074E+04  0.25500000920E-02 0. -1.
        2   -1    0    0  501    0  0.00000000000E+00  0.00000000000E+00 -0.22495044729E+04  0.22495044729E+04  0.25500000920E-02 0.  1.
    10030    2    1    2    0    0  0.00000000000E+00  0.00000000000E+00 -0.10451814655E+04  0.34538274803E+04  0.32918869920E+04 0.  0.
        5    1    3    3  502    0 -0.15716539090E+04  0.31966163321E+03 -0.13449064580E+03  0.16094686680E+04  0.46999998093E+01 0. -1.
       -5    1    3    3    0  502  0.15716539090E+04 -0.31966163321E+03 -0.91069081970E+03  0.18443588123E+04  0.46999998093E+01 0.  1.
</event>
<event>
 5   0  0.2824402E-07  0.3280261E+04  0.7818609E-02  0.8167936E-01
       -2   -1    0    0    0  501  0.00000000000E+00  0.00000000000E+00  0.11138476669E+04  0.11138476669E+04  0.25500000920E-02 0. -1.
        2   -1    0    0  501    0  0.00000000000E+00  0.00000000000E+00 -0.24150777123E+04  0.24150777123E+04  0.25500000920E-02 0.  1.
    10030    2    1    2    0    0  0.00000000000E+00  0.00000000000E+00 -0.13012300454E+04  0.35289253792E+04  0.32802613769E+04 0.  0.
        1    1    3    3  502    0  0.88178441332E+03 -0.60529655390E+03 -0.19882972468E+04  0.22577098156E+04  0.50400001928E-02 0.  1.
       -1    1    3    3    0  502 -0.88178441332E+03  0.60529655390E+03  0.68706720143E+03  0.12712155636E+04  0.50400001928E-02 0. -1.
</event>
<event>
 5   0  0.9810351E-08  0.3303359E+04  0.7818609E-02  0.8162041E-01
       -1   -1    0    0    0  501  0.00000000000E+00  0.00000000000E+00  0.14048359812E+04  0.14048359812E+04  0.50400001928E-02 0.  1.
        1   -1    0    0  501    0  0.00000000000E+00  0.00000000000E+00 -0.19418960794E+04  0.19418960794E+04  0.50400001928E-02 0. -1.
    10030    2    1    2    0    0  0.00000000000E+00  0.00000000000E+00 -0.53706009819E+03  0.33467320606E+04  0.33033591898E+04 0.  0.
        5    1    3    3  502    0 -0.11552310610E+04 -0.50564947825E+03  0.81214444760E+03  0.14999469634E+04  0.46999998093E+01 0. -1.
       -5    1    3    3    0  502  0.11552310610E+04  0.50564947825E+03 -0.13492045458E+04  0.18467850973E+04  0.46999998093E+01 0.  1.
</event>
<event>
 5   0  0.9810351E-08  0.3298154E+04  0.7818609E-02  0.8163365E-01
        1   -1    0    0  501    0  0.00000000000E+00  0.00000000000E+00  0.19757926115E+04  0.19757926115E+04  0.50400001928E-02 0. -1.
       -1   -1    0    0    0  501  0.00000000000E+00  0.00000000000E+00 -0.13763865298E+04  0.13763865298E+04  0.50400001928E-02 0.  1.
    10030    2    1    2    0    0  0.00000000000E+00  0.00000000000E+00  0.59940608172E+03  0.33521791413E+04  0.32981536266E+04 0.  0.
        5    1    3    3  502    0 -0.60318201424E+03  0.66637248199E+03  0.17049392462E+04  0.19273610846E+04  0.46999998093E+01 0. -1.
       -5    1    3    3    0  502  0.60318201424E+03 -0.66637248199E+03 -0.11055331645E+04  0.14248180568E+04  0.46999998093E+01 0.  1.
</event>
<event>
 5   0  0.2824402E-07  0.3298027E+04  0.7818609E-02  0.8163398E-01
        2   -1    0    0  501    0  0.00000000000E+00  0.00000000000E+00  0.27128187660E+04  0.27128187660E+04  0.25500000920E-02 0. -1.
       -2   -1    0    0    0  501  0.00000000000E+00  0.00000000000E+00 -0.10023687892E+04  0.10023687892E+04  0.25500000920E-02 0.  1.
    10030    2    1    2    0    0  0.00000000000E+00  0.00000000000E+00  0.17104499767E+04  0.37151875552E+04  0.32980265989E+04 0.  0.
        1    1    3    3  502    0 -0.58626225894E+03 -0.87825797641E+03 -0.57155311122E+03  0.12007137329E+04  0.50400001928E-02 0.  1.
       -1    1    3    3    0  502  0.58626225894E+03  0.87825797641E+03  0.22820030880E+04  0.25144738223E+04  0.50400001928E-02 0. -1.
</event>
<event>
 5   0  0.9283910E-08  0.3296657E+04  0.7818609E-02  0.8163747E-01
        1   -1    0    0  501    0  0.00000000000E+00  0.00000000000E+00  0.25823210070E+04  0.25823210070E+04  0.50400001928E-02 0.  1.
       -1   -1    0    0    0  501  0.00000000000E+00  0.00000000000E+00 -0.10521489081E+04  0.10521489081E+04  0.50400001928E-02 0. -1.
    10030    2    1    2    0    0  0.00000000000E+00  0.00000000000E+00  0.15301720989E+04  0.36344699151E+04  0.32966566263E+04 0.  0.
        3    1    3    3  502    0  0.34686926475E+03 -0.34658599467E+03  0.25000504603E+04  0.25476837427E+04  0.10100000352E+00 0.  1.
       -3    1    3    3    0  502 -0.34686926475E+03  0.34658599467E+03 -0.96987836141E+03  0.10867861725E+04  0.10100000352E+00 0. -1.
</event>
<event>
 5   0  0.9454010E-08  0.3302005E+04  0.7818609E-02  0.8162385E-01
       -1   -1    0    0    0  501  0.00000000000E+00  0.00000000000E+00  0.14750993558E+04  0.14750993558E+04  0.50400001928E-02 0.  1.
        1   -1    0    0  501    0  0.00000000000E+00  0.00000000000E+00 -0.18478818610E+04  0.18478818610E+04  0.50400001928E-02 0. -1.
    10030    2    1    2    0    0  0.00000000000E+00  0.00000000000E+00 -0.37278250521E+03  0.33229812169E+04  0.33020050532E+04 0.  0.
        2    1    3    3  502    0 -0.11977316166E+04  0.82332228231E+03  0.60177539206E+03  0.15730715903E+04  0.25500000920E-02 0.  1.
       -2    1    3    3    0  502  0.11977316166E+04 -0.82332228231E+03 -0.97455789727E+03  0.17499096265E+04  0.25500000920E-02 0. -1.
</event>
<event>
 5   0  0.8805125E-08  0.3288595E+04  0.7818609E-02  0.8165803E-01
       -1   -1    0    0    0  501  0.00000000000E+00  0.00000000000E+00  0.18953504966E+04  0.18953504966E+04  0.50400001928E-02 0. -1.
        1   -1    0    0  501    0  0.00000000000E+00  0.00000000000E+00 -0.14264984879E+04  0.14264984879E+04  0.50400001928E-02 0.  1.
    10030    2    1    2    0    0  0.00000000000E+00  0.00000000000E+00  0.46885200872E+03  0.33218489845E+04  0.32885952122E+04 0.  0.
        4    1    3    3  502    0  0.54596642757E+03 -0.12796849181E+04  0.11196668284E+04  0.17858690459E+04  0.12699999809E+01 0.  1.
       -4    1    3    3    0  502 -0.54596642757E+03  0.12796849181E+04 -0.65081481964E+03  0.15359799387E+04  0.12699999809E+01 0. -1.
</event>
<event>
 5   0  0.8805125E-08  0.3297999E+04  0.7818609E-02  0.8163405E-01
       -1   -1    0    0    0  501  0.00000000000E+00  0.00000000000E+00  0.14155613082E+04  0.14155613082E+04  0.50400001928E-02 0. -1.
        1   -1    0    0  501    0  0.00000000000E+00  0.00000000000E+00 -0.19209331575E+04  0.19209331575E+04  0.50400001928E-02 0.  1.
    10030    2    1    2    0    0  0.00000000000E+00  0.00000000000E+00 -0.50537184937E+03  0.33364944657E+04  0.32979985770E+04 0.  0.
        4    1    3    3  502    0  0.98680748384E+03 -0.11864293410E+04 -0.84066998983E+03  0.17573079514E+04  0.12699999809E+01 0.  1.
       -4    1    3    3    0  502 -0.98680748384E+03  0.11864293410E+04  0.33529814046E+03  0.15791865144E+04  0.12699999809E+01 0. -1.
</event>
<event>
 5   0  0.9181760E-08  0.3297123E+04  0.7818609E-02  0.8163628E-01
       -1   -1    0    0    0  501  0.00000000000E+00  0.00000000000E+00  0.14988681771E+04  0.14988681771E+04  0.50400001928E-02 0. -1.
        1   -1    0    0  501    0  0.00000000000E+00  0.00000000000E+00 -0.18132050779E+04  0.18132050779E+04  0.50400001928E-02 0.  1.
    10030    2    1    2    0    0  0.00000000000E+00  0.00000000000E+00 -0.31433690081E+03  0.33120732550E+04  0.32971232247E+04 0.  0.
        1    1    3    3  502    0  0.35596189729E+03 -0.11787416706E+04  0.94398375245E+03  0.15515302521E+04  0.50400001928E-02 0. -1.
       -1    1    3    3    0  502 -0.35596189729E+03  0.11787416706E+04 -0.12583206533E+04  0.17605430028E+04  0.50400001928E-02 0.  1.
</event>
<event>
 5   0  0.9283910E-08  0.3301157E+04  0.7818609E-02  0.8162601E-01
       -1   -1    0    0    0  501  0.00000000000E+00  0.00000000000E+00  0.14906553519E+04  0.14906553519E+04  0.50400001928E-02 0. -1.
        1   -1    0    0  501    0  0.00000000000E+00  0.00000000000E+00 -0.18276584506E+04  0.18276584506E+04  0.50400001928E-02 0.  1.
    10030    2    1    2    0    0  0.00000000000E+00  0.00000000000E+00 -0.33700309869E+03  0.33183138025E+04  0.33011566765E+04 0.  0.
        3    1    3    3  502    0 -0.45389119160E+03  0.15128799071E+04  0.31314009467E+03  0.16102420800E+04  0.10100000352E+00 0.  1.
       -3    1    3    3    0  502  0.45389119160E+03 -0.15128799071E+04 -0.65014319336E+03  0.17080717225E+04  0.10100000352E+00 0. -1.
</event>
<event>
 5   0  0.8805125E-08  0.3302823E+04  0.7818609E-02  0.8162177E-01
       -1   -1    0    0    0  501  0.00000000000E+00  0.00000000000E+00  0.16737533058E+04  0.16737533058E+04  0.50400001928E-02 0. -1.
        1   -1    0    0  501    0  0.00000000000E+00  0.00000000000E+00 -0.16293679922E+04  0.16293679922E+04  0.50400001928E-02 0.  1.
    10030    2    1    2    0    0  0.00000000000E+00  0.00000000000E+00  0.44385313556E+02  0.33031212980E+04  0.33028230733E+04 0.  0.
        4    1    3    3  502    0 -0.38382262664E+03  0.90418719073E+03  0.13498230373E+04  0.16694005300E+04  0.12699999809E+01 0. -1.
       -4    1    3    3    0  502  0.38382262664E+03 -0.90418719073E+03 -0.13054377237E+04  0.16337207680E+04  0.12699999809E+01 0.  1.
</event>
<event>
 5   0  0.2703956E-07  0.3301891E+04  0.7818609E-02  0.8162414E-01
       -2   -1    0    0    0  501  0.00000000000E+00  0.00000000000E+00  0.18761150841E+04  0.18761150841E+04  0.25500000920E-02 0. -1.
        2   -1    0    0  501    0  0.00000000000E+00  0.00000000000E+00 -0.14528001735E+04  0.14528001735E+04  0.25500000920E-02 0.  1.
    10030    2    1    2    0    0  0.00000000000E+00  0.00000000000E+00  0.42331491062E+03  0.33289152576E+04  0.33018905613E+04 0.  0.
        5    1    3    3  502    0  0.87247126789E+02  0.14161388404E+04  0.10626852826E+04  0.17726768957E+04  0.46999998093E+01 0. -1.
       -5    1    3    3    0  502 -0.87247126789E+02 -0.14161388404E+04 -0.63937037198E+03  0.15562383619E+04  0.46999998093E+01 0.  1.
</event>
<event>
 5   0  0.9454010E-08  0.3295636E+04  0.7818609E-02  0.8164007E-01
       -1   -1    0    0    0  501  0.00000000000E+00  0.00000000000E+00  0.14893085762E+04  0.14893085762E+04  0.50400001928E-02 0.  1.
        1   -1    0    0  501    0  0.00000000000E+00  0.00000000000E+00 -0.18231981577E+04  0.18231981577E+04  0.50400001928E-02 0. -1.
    10030    2    1    2    0    0  0.00000000000E+00  0.00000000000E+00 -0.33388958154E+03  0.33125067339E+04  0.32956362981E+04 0.  0.
        2    1    3    3  502    0  0.78454336241E+03  0.32241055184E+03  0.12530318569E+04  0.15131244780E+04  0.25500000920E-02 0.  1.
       -2    1    3    3    0  502 -0.78454336241E+03 -0.32241055184E+03 -0.15869214384E+04  0.17993822560E+04  0.25500000920E-02 0. -1.
</event>
<event>
 5   0  0.9283910E-08  0.3298084E+04  0.7818609E-02  0.8163383E-01
        1   -1    0    0  501    0  0.00000000000E+00  0.00000000000E+00  0.21809829133E+04  0.21809829133E+04  0.50400001928E-02 0. -1.
       -1   -1    0    0    0  501  0.00000000000E+00  0.00000000000E+00 -0.12468410791E+04  0.12468410791E+04  0.50400001928E-02 0.  1.
    10030    2    1    2    0    0  0.00000000000E+00  0.00000000000E+00  0.93414183424E+03  0.34278239924E+04  0.32980837400E+04 0.  0.
        3    1    3    3  502    0 -0.13783930126E+04 -0.59631233100E+03  0.11748772257E+04  0.19068015625E+04  0.10100000352E+00 0. -1.
       -3    1    3    3    0  502  0.13783930126E+04  0.59631233100E+03 -0.24073539146E+03  0.15210224299E+04  0.10100000352E+00 0.  1.
</event>
<event>
 5   0  0.9454010E-08  0.3305609E+04  0.7818609E-02  0.8161470E-01
       -1   -1    0    0    0  501  0.00000000000E+00  0.00000000000E+00  0.12698138687E+04  0.12698138687E+04  0.50400001928E-02 0. -1.
        1   -1    0    0  501    0  0.00000000000E+00  0.00000000000E+00 -0.21513101339E+04  0.21513101339E+04  0.50400001928E-02 0.  1.
    10030    2    1    2    0    0  0.00000000000E+00  0.00000000000E+00 -0.88149626527E+03  0.34211240026E+04  0.33056094409E+04 0.  0.
        2    1    3    3  502    0 -0.79813972107E+03  0.48174779436E+03  0.97173589146E+03  0.13466174641E+04  0.25500000920E-02 0. -1.
       -2    1    3    3    0  502  0.79813972107E+03 -0.48174779436E+03 -0.18532321567E+04  0.20745065385E+04  0.25500000920E-02 0.  1.
</event>
<event>
 5   0  0.2824402E-07  0.3308800E+04  0.7818609E-02  0.8160660E-01
       -2   -1    0    0    0  501  0.00000000000E+00  0.00000000000E+00  0.18275114472E+04  0.18275114472E+04  0.25500000920E-02 0.  1.
        2   -1    0    0  501    0  0.00000000000E+00  0.00000000000E+00 -0.14976863353E+04  0.14976863354E+04  0.25500000920E-02 0. -1.
    10030    2    1    2    0    0  0.00000000000E+00  0.00000000000E+00  0.32982511184E+03  0.33251977825E+04  0.33087997353E+04 0.  0.
        1    1    3    3  502    0  0.15966907242E+03  0.31371428764E+03 -0.14596159867E+04  0.15014625189E+04  0.50400001928E-02 0. -1.
       -1    1    3    3    0  502 -0.15966907242E+03 -0.31371428764E+03  0.17894410985E+04  0.18237352637E+04  0.50400001928E-02 0.  1.
</event>
<event>
 5   0  0.9181760E-08  0.3299812E+04  0.7818609E-02  0.8162943E-01
        1   -1    0    0  501    0  0.00000000000E+00  0.00000000000E+00  0.17345548811E+04  0.17345548811E+04  0.50400001928E-02 0.  1.
       -1   -1    0    0    0  501  0.00000000000E+00  0.00000000000E+00 -0.15693883558E+04  0.15693883558E+04  0.50400001928E-02 0. -1.
    10030    2    1    2    0    0  0.00000000000E+00  0.00000000000E+00  0.16516652529E+03  0.33039432368E+04  0.32998122570E+04 0.  0.
        1    1    3    3  502    0  0.61629847950E+03 -0.13055189733E+04 -0.71715731827E+03  0.16119920052E+04  0.50400001928E-02 0. -1.
       -1    1    3    3    0  502 -0.61629847950E+03  0.13055189733E+04  0.88232384356E+03  0.16919512317E+04  0.50400001928E-02 0.  1.
</event>
<event>
 5   0  0.2727168E-07  0.3301491E+04  0.7818609E-02  0.8162516E-01
       -2   -1    0    0    0  501  0.00000000000E+00  0.00000000000E+00  0.14675386886E+04  0.14675386886E+04  0.25500000920E-02 0.  1.
        2   -1    0    0  501    0  0.00000000000E+00  0.00000000000E+00 -0.18568237088E+04  0.18568237088E+04  0.25500000920E-02 0. -1.
    10030    2    1    2    0    0  0.00000000000E+00  0.00000000000E+00 -0.38928502011E+03  0.33243623974E+04  0.33014909545E+04 0.  0.
        2    1    3    3  502    0 -0.53354385870E+03  0.11026265904E+04 -0.13088824991E+04  0.17926594332E+04  0.25500000920E-02 0. -1.
       -2    1    3    3    0  502  0.53354385870E+03 -0.11026265904E+04  0.91959747901E+03  0.15317029642E+04  0.25500000920E-02 0.  1.
</event>
<event>
 5   0  0.8805125E-08  0.3337187E+04  0.7818609E-02  0.8153497E-01
        3   -1    0    0  501    0  0.00000000000E+00  0.00000000000E+00  0.10568792944E+04  0.10568792992E+04  0.10100000352E+00 0. -1.
       -3   -1    0    0    0  501  0.00000000000E+00  0.00000000000E+00 -0.26343637483E+04  0.26343637503E+04  0.10100000352E+00 0.  1.
    10030    2    1    2    0    0  0.00000000000E+00  0.00000000000E+00 -0.15774844539E+04  0.36912430495E+04  0.33371871461E+04 0.  0.
        5    1    3    3  502    0 -0.36376501433E+03  0.55249360025E+03  0.90564386291E+03  0.11215110612E+04  0.46999998093E+01 0. -1.
       -5    1    3    3    0  502  0.36376501433E+03 -0.55249360025E+03 -0.24831283168E+04  0.25697319883E+04  0.46999998093E+01 0.  1.
</event>
<event>
 5   0  0.9181760E-08  0.3298845E+04  0.7818609E-02  0.8163189E-01
        1   -1    0    0  501    0  0.00000000000E+00  0.00000000000E+00  0.10484490714E+04  0.10484490714E+04  0.50400001928E-02 0. -1.
       -1   -1    0    0    0  501  0.00000000000E+00  0.00000000000E+00 -0.25948755822E+04  0.25948755822E+04  0.50400001928E-02 0.  1.
    10030    2    1    2    0    0  0.00000000000E+00  0.00000000000E+00 -0.15464265108E+04  0.36433246536E+04  0.32988451886E+04 0.  0.
        1    1    3    3  502    0  0.54910958492E+03  0.30323547707E+03 -0.24580021656E+04  0.25367790083E+04  0.50400001928E-02 0.  1.
       -1    1    3    3    0  502 -0.54910958492E+03 -0.30323547707E+03  0.91157565477E+03  0.11065456453E+04  0.50400001928E-02 0. -1.
</event>
<event>
 5   0  0.9283910E-08  0.3285757E+04  0.7818609E-02  0.8166529E-01
        1   -1    0    0  501    0  0.00000000000E+00  0.00000000000E+00  0.22171131431E+04  0.22171131431E+04  0.50400001928E-02 0.  1.
       -1   -1    0    0    0  501  0.00000000000E+00  0.00000000000E+00 -0.12173713572E+04  0.12173713572E+04  0.50400001928E-02 0. -1.
    10030    2    1    2    0    0  0.00000000000E+00  0.00000000000E+00  0.99974178588E+03  0.34344845003E+04  0.32857571646E+04 0.  0.
        3    1    3    3  502    0 -0.14555270084E+03 -0.52182678501E+03  0.21210623491E+04  0.21891537820E+04  0.10100000352E+00 0.  1.
       -3    1    3    3    0  502  0.14555270084E+03  0.52182678501E+03 -0.11213205632E+04  0.12453307183E+04  0.10100000352E+00 0. -1.
</event>
<event>
 5   0  0.2875829E-07  0.3305160E+04  0.7818609E-02  0.8161584E-01
       -2   -1    0    0    0  501  0.00000000000E+00  0.00000000000E+00  0.13185963782E+04  0.13185963782E+04  0.25500000920E-02 0. -1.
        2   -1    0    0  501    0  0.00000000000E+00  0.00000000000E+00 -0.20711572607E+04  0.20711572607E+04  0.25500000920E-02 0.  1.
    10030    2    1    2    0    0  0.00000000000E+00  0.00000000000E+00 -0.75256088246E+03  0.33897536389E+04  0.33051598828E+04 0.  0.
        3    1    3    3  502    0 -0.90917119980E+01  0.16500980077E+04 -0.28389516694E+03  0.16743663190E+04  0.10100000352E+00 0. -1.
       -3    1    3    3    0  502  0.90917119980E+01 -0.16500980077E+04 -0.46866571551E+03  0.17153873199E+04  0.10100000352E+00 0.  1.
</event>
<event>
 5   0  0.2713815E-07  0.3304299E+04  0.7818609E-02  0.8161802E-01
       -2   -1    0    0    0  501  0.00000000000E+00  0.00000000000E+00  0.12923012021E+04  0.12923012021E+04  0.25500000920E-02 0.  1.
        2   -1    0    0  501    0  0.00000000000E+00  0.00000000000E+00 -0.21121989159E+04  0.21121989159E+04  0.25500000920E-02 0. -1.
    10030    2    1    2    0    0  0.00000000000E+00  0.00000000000E+00 -0.81989771383E+03  0.34045001181E+04  0.33042985326E+04 0.  0.
        4    1    3    3  502    0  0.11279476067E+04  0.11153038761E+04  0.66042210141E+02  0.15876182558E+04  0.12699999809E+01 0. -1.
       -4    1    3    3    0  502 -0.11279476067E+04 -0.11153038761E+04 -0.88593992397E+03  0.18168818623E+04  0.12699999809E+01 0.  1.
</event>
<event>
 5   0  0.9181760E-08  0.3298698E+04  0.7818609E-02  0.8163227E-01
        1   -1    0    0  501    0  0.00000000000E+00  0.00000000000E+00  0.31288513095E+04  0.31288513095E+04  0.50400001928E-02 0.  1.
       -1   -1    0    0    0  501  0.00000000000E+00  0.00000000000E+00 -0.86944117187E+03  0.86944117188E+03  0.50400001928E-02 0. -1.
    10030    2    1    2    0    0  0.00000000000E+00  0.00000000000E+00  0.22594101376E+04  0.39982924814E+04  0.32986980154E+04 0.  0.
        1    1    3    3  502    0  0.13890139882E+04  0.69836250409E+03  0.17972114046E+04  0.23763499068E+04  0.50400001928E-02 0. -1.
       -1    1    3    3    0  502 -0.13890139882E+04 -0.69836250409E+03  0.46219873305E+03  0.16219425746E+04  0.50400001928E-02 0.  1.
</event>
<event>
 5   0  0.9810351E-08  0.3299523E+04  0.7818609E-02  0.8163017E-01
        1   -1    0    0  501    0  0.00000000000E+00  0.00000000000E+00  0.18199334113E+04  0.18199334113E+04  0.50400001928E-02 0.  1.
       -1   -1    0    0    0  501  0.00000000000E+00  0.00000000000E+00 -0.14955010999E+04  0.14955010999E+04  0.50400001928E-02 0. -1.
    10030    2    1    2    0    0  0.00000000000E+00  0.00000000000E+00  0.32443231138E+03  0.33154345112E+04  0.32995226432E+04 0.  0.
        5    1    3    3  502    0  0.45786524538E+03  0.22678518549E+03 -0.14139843370E+04  0.15034779342E+04  0.46999998093E+01 0. -1.
       -5    1    3    3    0  502 -0.45786524538E+03 -0.22678518549E+03  0.17384166484E+04  0.18119565770E+04  0.46999998093E+01 0.  1.
</event>
<event>
 5   0  0.2875829E-07  0.3302184E+04  0.7818609E-02  0.8162340E-01
       -2   -1    0    0    0  501  0.00000000000E+00  0.00000000000E+00  0.15958114605E+04  0.15958114605E+04  0.25500000920E-02 0.  1.
        2   -1    0    0  501    0  0.00000000000E+00  0.00000000000E+00 -0.17082870111E+04  0.17082870111E+04  0.25500000920E-02 0. -1.
    10030    2    1    2    0    0  0.00000000000E+00  0.00000000000E+00 -0.11247555067E+03  0.33040984716E+04  0.33021835141E+04 0.  0.
        3    1    3    3  502    0  0.90671627924E+03 -0.12430139565E+04 -0.65565602174E+03  0.16724541656E+04  0.10100000352E+00 0. -1.
       -3    1    3    3    0  502 -0.90671627924E+03  0.12430139565E+04  0.54318047108E+03  0.16316443060E+04  0.10100000352E+00 0.  1.
</event>
<event>
 5   0  0.8805125E-08  0.3298818E+04  0.7818609E-02  0.8163196E-01
        1   -1    0    0  501    0  0.00000000000E+00  0.00000000000E+00  0.18132289186E+04  0.18132289186E+04  0.50400001928E-02 0.  1.
       -1   -1    0    0    0  501  0.00000000000E+00  0.00000000000E+00 -0.15003895270E+04  0.15003895270E+04  0.50400001928E-02 0. -1.
    10030    2    1    2    0    0  0.00000000000E+00  0.00000000000E+00  0.31283939159E+03  0.33136184456E+04  0.32988177758E+04 0.  0.
        4    1    3    3  502    0  0.15070523946E+04 -0.32984843454E+03 -0.42975757746E+03  0.16014681072E+04  0.12699999809E+01 0. -1.
       -4    1    3    3    0  502 -0.15070523946E+04  0.32984843454E+03  0.74259696905E+03  0.17121503384E+04  0.12699999809E+01 0.  1.
</event>
<event>
 5   0  0.2875829E-07  0.3299704E+04  0.7818609E-02  0.8162971E-01
        2   -1    0    0  501    0  0.00000000000E+00  0.00000000000E+00  0.13871668832E+04  0.13871668832E+04  0.25500000920E-02 0.  1.
       -2   -1    0    0    0  501  0.00000000000E+00  0.00000000000E+00 -0.19622807837E+04  0.19622807837E+04  0.25500000920E-02 0. -1.
    10030    2    1    2    0    0  0.00000000000E+00  0.00000000000E+00 -0.57511390045E+03  0.33494476669E+04  0.32997035738E+04 0.  0.
        3    1    3    3  502    0 -0.13560988091E+04  0.77260670164E+03  0.25537628848E+03  0.15814999698E+04  0.10100000352E+00 0. -1.
       -3    1    3    3    0  502  0.13560988091E+04 -0.77260670164E+03 -0.83049018894E+03  0.17679476971E+04  0.10100000352E+00 0.  1.
</event>
<event>
 5   0  0.8805125E-08  0.3297590E+04  0.7818609E-02  0.8163509E-01
       -3   -1    0    0    0  501  0.00000000000E+00  0.00000000000E+00  0.17362997163E+04  0.17362997192E+04  0.10100000352E+00 0. -1.
        3   -1    0    0  501    0  0.00000000000E+00  0.00000000000E+00 -0.15657004641E+04  0.15657004673E+04  0.10100000352E+00 0.  1.
    10030    2    1    2    0    0  0.00000000000E+00  0.00000000000E+00  0.17059925224E+03  0.33020001865E+04  0.32975902000E+04 0.  0.
        1    1    3    3  502    0  0.15939359031E+03  0.77822198946E+03 -0.13614472709E+04  0.15762532959E+04  0.50400001928E-02 0.  1.
       -1    1    3    3    0  502 -0.15939359031E+03 -0.77822198946E+03  0.15320465231E+04  0.17257468906E+04  0.50400001928E-02 0. -1.
</event>
<event>
 5   0  0.9454010E-08  0.3292113E+04  0.7818609E-02  0.8164905E-01
        1   -1    0    0  501    0  0.00000000000E+00  0.00000000000E+00  0.23139012850E+04  0.23139012850E+04  0.50400001928E-02 0. -1.
       -1   -1    0    0    0  501  0.00000000000E+00  0.00000000000E+00 -0.11709669020E+04  0.11709669020E+04  0.50400001928E-02 0.  1.
    10030    2    1    2    0    0  0.00000000000E+00  0.00000000000E+00  0.11429343830E+04  0.34848681870E+04  0.32921128894E+04 0.  0.
        2    1    3    3  502    0  0.98821207823E+03 -0.66181314996E+03 -0.63311601880E+03  0.13473661901E+04  0.25500000920E-02 0.  1.
       -2    1    3    3    0  502 -0.98821207823E+03  0.66181314996E+03  0.17760504017E+04  0.21375019969E+04  0.25500000920E-02 0. -1.
</event>
<event>
 5   0  0.2703956E-07  0.3302785E+04  0.7818609E-02  0.8162187E-01
       -2   -1    0    0    0  501  0.00000000000E+00  0.00000000000E+00  0.86433675937E+03  0.86433675937E+03  0.25500000920E-02 0.  1.
        2   -1    0    0  501    0  0.00000000000E+00  0.00000000000E+00 -0.31551329092E+04  0.31551329092E+04  0.25500000920E-02 0. -1.
    10030    2    1    2    0    0  0.00000000000E+00  0.00000000000E+00 -0.22907961498E+04  0.40194696685E+04  0.33027850999E+04 0.  0.
        5    1    3    3  502    0  0.16151952253E+04  0.30824367864E+03 -0.13307869818E+04  0.21153926024E+04  0.46999998093E+01 0.  1.
       -5    1    3    3    0  502 -0.16151952253E+04 -0.30824367864E+03 -0.96000916800E+03  0.19040770662E+04  0.46999998093E+01 0. -1.
</event>
<event>
 5   0  0.9181760E-08  0.3302736E+04  0.7818609E-02  0.8162200E-01
       -1   -1    0    0    0  501  0.00000000000E+00  0.00000000000E+00  0.13397694019E+04  0.13397694019E+04  0.50400001928E-02 0.  1.
        1   -1    0    0  501    0  0.00000000000E+00  0.00000000000E+00 -0.20354367645E+04  0.20354367645E+04  0.50400001928E-02 0. -1.
    10030    2    1    2    0    0  0.00000000000E+00  0.00000000000E+00 -0.69566736266E+03  0.33752061664E+04  0.33027357730E+04 0.  0.
        1    1    3    3  502    0 -0.23231167642E+02 -0.23361860133E+03 -0.20182951333E+04  0.20319036845E+04  0.50400001928E-02 0. -1.
       -1    1    3    3    0  502  0.23231167642E+02  0.23361860133E+03  0.13226277707E+04  0.13433024819E+04  0.50400001928E-02 0.  1.
</event>
<event>
 5   0  0.9181760E-08  0.3298878E+04  0.7818609E-02  0.8163181E-01
       -1   -1    0    0    0  501  0.00000000000E+00  0.00000000000E+00  0.10349396679E+04  0.10349396679E+04  0.50400001928E-02 0. -1.
        1   -1    0    0  501    0  0.00000000000E+00  0.00000000000E+00 -0.26287991632E+04  0.26287991632E+04  0.50400001928E-02 0.  1.
    10030    2    1    2    0    0  0.00000000000E+00  0.00000000000E+00 -0.15938594954E+04  0.36637388311E+04  0.32988777079E+04 0.  0.
        1    1    3    3  502    0 -0.11739295210E+04 -0.10692183181E+04 -0.12927486217E+04  0.20475686389E+04  0.50400001928E-02 0.  1.
       -1    1    3    3    0  502  0.11739295210E+04  0.10692183181E+04 -0.30111087363E+03  0.16161701922E+04  0.50400001928E-02 0. -1.
</event>
<event>
 5   0  0.2703956E-07  0.3290767E+04  0.7818609E-02  0.8165249E-01
        2   -1    0    0  501    0  0.00000000000E+00  0.00000000000E+00  0.24867978896E+04  0.24867978896E+04  0.25500000920E-02 0.  1.
       -2   -1    0    0    0  501  0.00000000000E+00  0.00000000000E+00 -0.10886639757E+04  0.10886639757E+04  0.25500000920E-02 0. -1.
    10030    2    1    2    0    0  0.00000000000E+00  0.00000000000E+00  0.13981339139E+04  0.35754618653E+04  0.32907672523E+04 0.  0.
        5    1    3    3  502    0 -0.66184264992E+03 -0.15024412752E+04  0.58054381716E+03  0.17413841311E+04  0.46999998093E+01 0.  1.
       -5    1    3    3    0  502  0.66184264992E+03  0.15024412752E+04  0.81759009673E+03  0.18340777341E+04  0.46999998093E+01 0. -1.
</event>
<event>
 5   0  0.8805125E-08  0.3297047E+04  0.7818609E-02  0.8163647E-01
       -1   -1    0    0    0  501  0.00000000000E+00  0.00000000000E+00  0.22975852949E+04  0.22975852949E+04  0.50400001928E-02 0.  1.
        1   -1    0    0  501    0  0.00000000000E+00  0.00000000000E+00 -0.11828198871E+04  0.11828198871E+04  0.50400001928E-02 0. -1.
    10030    2    1    2    0    0  0.00000000000E+00  0.00000000000E+00  0.11147654079E+04  0.34804051820E+04  0.32970469085E+04 0.  0.
        4    1    3    3  502    0 -0.47579286232E+03 -0.15504814589E+04  0.24556322848E+03  0.16403275631E+04  0.12699999809E+01 0. -1.
       -4    1    3    3    0  502  0.47579286232E+03  0.15504814589E+04  0.86920217938E+03  0.18400776189E+04  0.12699999809E+01 0.  1.
</event>
<event>
 5   0  0.9181760E-08  0.3300418E+04  0.7818609E-02  0.8162789E-01
        1   -1    0    0  501    0  0.00000000000E+00  0.00000000000E+00  0.19830579230E+04  0.19830579230E+04  0.50400001928E-02 0. -1.
       -1   -1    0    0    0  501  0.00000000000E+00  0.00000000000E+00 -0.13732275336E+04  0.13732275336E+04  0.50400001928E-02 0.  1.
    10030    2    1    2    0    0  0.00000000000E+00  0.00000000000E+00  0.60983038943E+03  0.33562854565E+04  0.33004179981E+04 0.  0.
        1    1    3    3  502    0 -0.40927580899E+03 -0.64070487816E+03 -0.11845208013E+04  0.14075151713E+04  0.50400001928E-02 0.  1.
       -1    1    3    3    0  502  0.40927580899E+03  0.64070487816E+03  0.17943511908E+04  0.19487702852E+04  0.50400001928E-02 0. -1.
</event>
<event>
 5   0  0.2703956E-07  0.3303068E+04  0.7818609E-02  0.8162115E-01
       -2   -1    0    0    0  501  0.00000000000E+00  0.00000000000E+00  0.11613683598E+04  0.11613683598E+04  0.25500000920E-02 0.  1.
        2   -1    0    0  501    0  0.00000000000E+00  0.00000000000E+00 -0.23485777782E+04  0.23485777782E+04  0.25500000920E-02 0. -1.
    10030    2    1    2    0    0  0.00000000000E+00  0.00000000000E+00 -0.11872094184E+04  0.35099461380E+04  0.33030676179E+04 0.  0.
        5    1    3    3  502    0  0.57822731530E+03  0.11860505738E+04  0.46181917701E+03  0.13979849191E+04  0.46999998093E+01 0.  1.
       -5    1    3    3    0  502 -0.57822731530E+03 -0.11860505738E+04 -0.16490285954E+04  0.21119612189E+04  0.46999998093E+01 0. -1.
</event>
<event>
 5   0  0.9810351E-08  0.3302581E+04  0.7818609E-02  0.8162239E-01
       -1   -1    0    0    0  501  0.00000000000E+00  0.00000000000E+00  0.16155786766E+04  0.16155786766E+04  0.50400001928E-02 0. -1.
        1   -1    0    0  501    0  0.00000000000E+00  0.00000000000E+00 -0.16877918183E+04  0.16877918183E+04  0.50400001928E-02 0.  1.
    10030    2    1    2    0    0  0.00000000000E+00  0.00000000000E+00 -0.72213141710E+02  0.33033704949E+04  0.33025810949E+04 0.  0.
        5    1    3    3  502    0 -0.64884658557E+03 -0.13185330111E+04 -0.78941817648E+03  0.16681529727E+04  0.46999998093E+01 0. -1.
       -5    1    3    3    0  502  0.64884658557E+03  0.13185330111E+04  0.71720503477E+03  0.16352175222E+04  0.46999998093E+01 0.  1.
</event>
<event>
 5   0  0.2875829E-07  0.3333202E+04  0.7818609E-02  0.8154498E-01
       -2   -1    0    0    0  501  0.00000000000E+00  0.00000000000E+00  0.18045173418E+04  0.18045173418E+04  0.25500000920E-02 0.  1.
        2   -1    0    0  501    0  0.00000000000E+00  0.00000000000E+00 -0.15392254324E+04  0.15392254324E+04  0.25500000920E-02 0. -1.
    10030    2    1    2    0    0  0.00000000000E+00  0.00000000000E+00  0.26529190945E+03  0.33437427742E+04  0.33332020555E+04 0.  0.
        3    1    3    3  502    0  0.61158613052E+03 -0.15500917683E+04  0.10541438850E+03  0.16697108399E+04  0.10100000352E+00 0. -1.
       -3    1    3    3    0  502 -0.61158613052E+03  0.15500917683E+04  0.15987752094E+03  0.16740319343E+04  0.10100000352E+00 0.  1.
</event>
<event>
 5   0  0.9454010E-08  0.3302452E+04  0.7818609E-02  0.8162272E-01
       -1   -1    0    0    0  501  0.00000000000E+00  0.00000000000E+00  0.21624570265E+04  0.21624570265E+04  0.50400001928E-02 0. -1.
        1   -1    0    0  501    0  0.00000000000E+00  0.00000000000E+00 -0.12608560710E+04  0.12608560710E+04  0.50400001928E-02 0.  1.
    10030    2    1    2    0    0  0.00000000000E+00  0.00000000000E+00  0.90160095549E+03  0.34233130974E+04  0.33024518589E+04 0.  0.
        2    1    3    3  502    0  0.48541825442E+03  0.61491956314E+03  0.19575404327E+04  0.21084879645E+04  0.25500000920E-02 0. -1.
       -2    1    3    3    0  502 -0.48541825442E+03 -0.61491956314E+03 -0.10559394772E+04  0.13148251330E+04  0.25500000920E-02 0.  1.
</event>
<event>
 5   0  0.8805125E-08  0.3295899E+04  0.7818609E-02  0.8163940E-01
        1   -1    0    0  501    0  0.00000000000E+00  0.00000000000E+00  0.14478159604E+04  0.14478159604E+04  0.50400001928E-02 0.  1.
       -1   -1    0    0    0  501  0.00000000000E+00  0.00000000000E+00 -0.18757473734E+04  0.18757473734E+04  0.50400001928E-02 0. -1.
    10030    2    1    2    0    0  0.00000000000E+00  0.00000000000E+00 -0.42793141298E+03  0.33235633338E+04  0.32958986543E+04 0.  0.
        4    1    3    3  502    0 -0.32966111368E+03  0.16006622357E+04 -0.19735740529E+00  0.16342575362E+04  0.12699999809E+01 0.  1.
       -4    1    3    3    0  502  0.32966111368E+03 -0.16006622357E+04 -0.42773405557E+03  0.16893057976E+04  0.12699999809E+01 0. -1.
</event>
<event>
 5   0  0.9181760E-08  0.3304113E+04  0.7818609E-02  0.8161850E-01
        1   -1    0    0  501    0  0.00000000000E+00  0.00000000000E+00  0.27132535278E+04  0.27132535278E+04  0.50400001928E-02 0.  1.
       -1   -1    0    0    0  501  0.00000000000E+00  0.00000000000E+00 -0.10059109549E+04  0.10059109549E+04  0.50400001928E-02 0. -1.
    10030    2    1    2    0    0  0.00000000000E+00  0.00000000000E+00  0.17073425729E+04  0.37191644827E+04  0.33041134648E+04 0.  0.
        1    1    3    3  502    0 -0.14575425764E+04 -0.28850273975E+03  0.40708679541E+02  0.14863786158E+04  0.50400001928E-02 0. -1.
       -1    1    3    3    0  502  0.14575425764E+04  0.28850273975E+03  0.16666338934E+04  0.22327858669E+04  0.50400001928E-02 0.  1.
</event>
<event>
 5   0  0.8805125E-08  0.3298404E+04  0.7818609E-02  0.8163301E-01
        1   -1    0    0  501    0  0.00000000000E+00  0.00000000000E+00  0.24610628277E+04  0.24610628277E+04  0.50400001928E-02 0. -1.
       -1   -1    0    0    0  501  0.00000000000E+00  0.00000000000E+00 -0.11051599103E+04  0.11051599103E+04  0.50400001928E-02 0.  1.
    10030    2    1    2    0    0  0.00000000000E+00  0.00000000000E+00  0.13559029173E+04  0.35662227380E+04  0.32984044470E+04 0.  0.
        4    1    3    3  502    0  0.13929296105E+04  0.50904437900E+03  0.14579784272E+04  0.20796830977E+04  0.12699999809E+01 0. -1.
       -4    1    3    3    0  502 -0.13929296105E+04 -0.50904437900E+03 -0.10207550989E+03  0.14865396403E+04  0.12699999809E+01 0.  1.
</event>
<event>
 5   0  0.2727168E-07  0.3299038E+04  0.7818609E-02  0.8163140E-01
       -2   -1    0    0    0  501  0.00000000000E+00  0.00000000000E+00  0.11585449195E+04  0.11585449195E+04  0.25500000920E-02 0.  1.
        2   -1    0    0  501    0  0.00000000000E+00  0.00000000000E+00 -0.23485605864E+04  0.23485605864E+04  0.25500000920E-02 0. -1.
    10030    2    1    2    0    0  0.00000000000E+00  0.00000000000E+00 -0.11900156669E+04  0.35071055059E+04  0.32990380025E+04 0.  0.
        2    1    3    3  502    0 -0.29478614034E+03  0.85127176555E+02  0.11279407774E+04  0.11689293828E+04  0.25500000920E-02 0.  1.
       -2    1    3    3    0  502  0.29478614034E+03 -0.85127176555E+02 -0.23179564443E+04  0.23381761230E+04  0.25500000920E-02 0. -1.
</event>
<event>
 5   0  0.2824402E-07  0.3299863E+04  0.7818609E-02  0.8162930E-01
       -2   -1    0    0    0  501  0.00000000000E+00  0.00000000000E+00  0.13792819774E+04  0.13792819774E+04  0.25500000920E-02 0.  1.
        2   -1    0    0  501    0  0.00000000000E+00  0.00000000000E+00 -0.19736892525E+04  0.19736892525E+04  0.25500000920E-02 0. -1.
    10030    2    1    2    0    0  0.00000000000E+00  0.00000000000E+00 -0.59440727507E+03  0.33529712299E+04  0.32998630365E+04 0.  0.
        1    1    3    3  502    0 -0.10675740413E+04  0.12578660555E+04 -0.31573636063E+03  0.16797710548E+04  0.50400001928E-02 0.  1.
       -1    1    3    3    0  502  0.10675740413E+04 -0.12578660555E+04 -0.27867091443E+03  0.16732001751E+04  0.50400001928E-02 0. -1.
</event>
<event>
 5   0  0.2875829E-07  0.3304922E+04  0.7818609E-02  0.8161644E-01
        2   -1    0    0  501    0  0.00000000000E+00  0.00000000000E+00  0.16250839431E+04  0.16250839431E+04  0.25500000920E-02 0.  1.
       -2   -1    0    0    0  501  0.00000000000E+00  0.00000000000E+00 -0.16802991932E+04  0.16802991932E+04  0.25500000920E-02 0. -1.
    10030    2    1    2    0    0  0.00000000000E+00  0.00000000000E+00 -0.55215250115E+02  0.33053831363E+04  0.33049219285E+04 0.  0.
        3    1    3    3  502    0  0.15869328619E+04 -0.41667576595E+03 -0.22423777222E+03  0.16559762048E+04  0.10100000352E+00 0. -1.
       -3    1    3    3    0  502 -0.15869328619E+04  0.41667576595E+03  0.16902252210E+03  0.16494069314E+04  0.10100000352E+00 0.  1.
</event>
<event>
 5   0  0.2824402E-07  0.3302912E+04  0.7818609E-02  0.8162155E-01
       -2   -1    0    0    0  501  0.00000000000E+00  0.00000000000E+00  0.13290086717E+04  0.13290086717E+04  0.25500000920E-02 0.  1.
        2   -1    0    0  501    0  0.00000000000E+00  0.00000000000E+00 -0.20521361300E+04  0.20521361300E+04  0.25500000920E-02 0. -1.
    10030    2    1    2    0    0  0.00000000000E+00  0.00000000000E+00 -0.72312745830E+03  0.33811448017E+04  0.33029118742E+04 0.  0.
        1    1    3    3  502    0 -0.22038119729E+03 -0.84900643798E+03 -0.17939660683E+04  0.19969211447E+04  0.50400001928E-02 0. -1.
       -1    1    3    3    0  502  0.22038119729E+03  0.84900643798E+03  0.10708386100E+04  0.13842236570E+04  0.50400001928E-02 0.  1.
</event>
<event>
 5   0  0.2713815E-07  0.3298841E+04  0.7818609E-02  0.8163190E-01
        2   -1    0    0  501    0  0.00000000000E+00  0.00000000000E+00  0.22126347531E+04  0.22126347531E+04  0.25500000920E-02 0. -1.
       -2   -1    0    0    0  501  0.00000000000E+00  0.00000000000E+00 -0.12295697215E+04  0.12295697215E+04  0.25500000920E-02 0.  1.
    10030    2    1    2    0    0  0.00000000000E+00  0.00000000000E+00  0.98306503153E+03  0.34422044746E+04  0.32988414313E+04 0.  0.
        4    1    3    3  502    0  0.14232440657E+04 -0.82512380993E+03  0.36747888247E+03  0.16856735491E+04  0.12699999809E+01 0.  1.
       -4    1    3    3    0  502 -0.14232440657E+04  0.82512380993E+03  0.61558614907E+03  0.17565309255E+04  0.12699999809E+01 0. -1.
</event>
<event>
 5   0  0.9283910E-08  0.3303977E+04  0.7818609E-02  0.8161884E-01
       -1   -1    0    0    0  501  0.00000000000E+00  0.00000000000E+00  0.12542516558E+04  0.12542516558E+04  0.50400001928E-02 0.  1.
        1   -1    0    0  501    0  0.00000000000E+00  0.00000000000E+00 -0.21758524433E+04  0.21758524433E+04  0.50400001928E-02 0. -1.
    10030    2    1    2    0    0  0.00000000000E+00  0.00000000000E+00 -0.92160078744E+03  0.34301040991E+04  0.33039773182E+04 0.  0.
        3    1    3    3  502    0  0.56269826786E+03  0.31053497850E+03 -0.20407382636E+04  0.21395499490E+04  0.10100000352E+00 0. -1.
       -3    1    3    3    0  502 -0.56269826786E+03 -0.31053497850E+03  0.11191374762E+04  0.12905541501E+04  0.10100000352E+00 0.  1.
</event>
<event>
 5   0  0.9181760E-08  0.3301732E+04  0.7818609E-02  0.8162455E-01
        1   -1    0    0  501    0  0.00000000000E+00  0.00000000000E+00  0.13444842571E+04  0.13444842571E+04  0.50400001928E-02 0. -1.
       -1   -1    0    0    0  501  0.00000000000E+00  0.00000000000E+00 -0.20270656616E+04  0.20270656616E+04  0.50400001928E-02 0.  1.
    10030    2    1    2    0    0  0.00000000000E+00  0.00000000000E+00 -0.68258140452E+03  0.33715499188E+04  0.33017315883E+04 0.  0.
        1    1    3    3  502    0 -0.77882565588E+03  0.13807006046E+04 -0.81196512733E+03  0.17810645496E+04  0.50400001928E-02 0.  1.
       -1    1    3    3    0  502  0.77882565588E+03 -0.13807006046E+04  0.12938372282E+03  0.15904853692E+04  0.50400001928E-02 0. -1.
</event>
<event>
 5   0  0.8805125E-08  0.3298991E+04  0.7818609E-02  0.8163152E-01
       -3   -1    0    0    0  501  0.00000000000E+00  0.00000000000E+00  0.21481870999E+04  0.21481871022E+04  0.10100000352E+00 0. -1.
        3   -1    0    0  501    0  0.00000000000E+00  0.00000000000E+00 -0.12665730506E+04  0.12665730546E+04  0.10100000352E+00 0.  1.
    10030    2    1    2    0    0  0.00000000000E+00  0.00000000000E+00  0.88161404924E+03  0.34147601569E+04  0.32989913000E+04 0.  0.
        5    1    3    3  502    0 -0.99960942195E+03 -0.10232164875E+04  0.12909844189E+04  0.19268767051E+04  0.46999998093E+01 0. -1.
       -5    1    3    3    0  502  0.99960942195E+03  0.10232164875E+04 -0.40937036964E+03  0.14878834518E+04  0.46999998093E+01 0.  1.
</event>
<event>
 5   0  0.9181760E-08  0.3294058E+04  0.7818609E-02  0.8164409E-01
        1   -1    0    0  501    0  0.00000000000E+00  0.00000000000E+00  0.23182495650E+04  0.23182495650E+04  0.50400001928E-02 0. -1.
       -1   -1    0    0    0  501  0.00000000000E+00  0.00000000000E+00 -0.11701519504E+04  0.11701519504E+04  0.50400001928E-02 0.  1.
    10030    2    1    2    0    0  0.00000000000E+00  0.00000000000E+00  0.11480976147E+04  0.34884015154E+04  0.32940578319E+04 0.  0.
        1    1    3    3  502    0  0.43974969427E+03  0.42745700885E+03 -0.10447314319E+04  0.12114301683E+04  0.50400001928E-02 0.  1.
       -1    1    3    3    0  502 -0.43974969427E+03 -0.42745700885E+03  0.21928290465E+04  0.22769713471E+04  0.50400001928E-02 0. -1.
</event>
<event>
 5   0  0.8805125E-08  0.3368314E+04  0.7818609E-02  0.8145727E-01
       -1   -1    0    0    0  501  0.00000000000E+00  0.00000000000E+00  0.12687383389E+04  0.12687383390E+04  0.50400001928E-02 0.  1.
        1   -1    0    0  501    0  0.00000000000E+00  0.00000000000E+00 -0.22355946752E+04  0.22355946752E+04  0.50400001928E-02 0. -1.
    10030    2    1    2    0    0  0.00000000000E+00  0.00000000000E+00 -0.96685633626E+03  0.35043330142E+04  0.33683139253E+04 0.  0.
        4    1    3    3  502    0  0.14722061609E+04 -0.70939064241E+03 -0.59854702990E+02  0.16353012757E+04  0.12699999809E+01 0.  1.
       -4    1    3    3    0  502 -0.14722061609E+04  0.70939064241E+03 -0.90700163327E+03  0.18690317385E+04  0.12699999809E+01 0. -1.
</event>
<event>
 5   0  0.9283910E-08  0.3301077E+04  0.7818609E-02  0.8162621E-01
       -1   -1    0    0    0  501  0.00000000000E+00  0.00000000000E+00  0.13350085286E+04  0.13350085286E+04  0.50400001928E-02 0.  1.
        1   -1    0    0  501    0  0.00000000000E+00  0.00000000000E+00 -0.20406445970E+04  0.20406445970E+04  0.50400001928E-02 0. -1.
    10030    2    1    2    0    0  0.00000000000E+00  0.00000000000E+00 -0.70563606840E+03  0.33756531257E+04  0.33010773641E+04 0.  0.
        3    1    3    3  502    0  0.38885209968E+03  0.12007951102E+04 -0.14404068207E+04  0.19151727524E+04  0.10100000352E+00 0. -1.
       -3    1    3    3    0  502 -0.38885209968E+03 -0.12007951102E+04  0.73477075234E+03  0.14604803733E+04  0.10100000352E+00 0.  1.
</event>
<event>
 5   0  0.2713815E-07  0.3299524E+04  0.7818609E-02  0.8163016E-01
       -2   -1    0    0    0  501  0.00000000000E+00  0.00000000000E+00  0.17760583859E+04  0.17760583860E+04  0.25500000920E-02 0.  1.
        2   -1    0    0  501    0  0.00000000000E+00  0.00000000000E+00 -0.15324470634E+04  0.15324470634E+04  0.25500000920E-02 0. -1.
    10030    2    1    2    0    0  0.00000000000E+00  0.00000000000E+00  0.24361132258E+03  0.33085054493E+04  0.32995244857E+04 0.  0.
        4    1    3    3  502    0 -0.60212091407E+03 -0.14193495951E+04 -0.46682794349E+03  0.16109105530E+04  0.12699999809E+01 0.  1.
       -4    1    3    3    0  502  0.60212091407E+03  0.14193495951E+04  0.71043926607E+03  0.16975948963E+04  0.12699999809E+01 0. -1.
</event>
<event>
 5   0  0.9454010E-08  0.3312175E+04  0.7818609E-02  0.8159804E-01
       -1   -1    0    0    0  501  0.00000000000E+00  0.00000000000E+00  0.10768448441E+04  0.10768448441E+04  0.50400001928E-02 0.  1.
        1   -1    0    0  501    0  0.00000000000E+00  0.00000000000E+00 -0.25469095566E+04  0.25469095566E+04  0.50400001928E-02 0. -1.
    10030    2    1    2    0    0  0.00000000000E+00  0.00000000000E+00 -0.14700647125E+04  0.36237544007E+04  0.33121753724E+04 0.  0.
        2    1    3    3  502    0 -0.14049692638E+04 -0.68862014684E+03 -0.14131359681E+03  0.15710206464E+04  0.25500000920E-02 0.  1.
       -2    1    3    3    0  502  0.14049692638E+04  0.68862014684E+03 -0.13287511157E+04  0.20527337543E+04  0.25500000920E-02 0. -1.
</event>
<event>
 5   0  0.9283910E-08  0.3293539E+04  0.7818609E-02  0.8164541E-01
        1   -1    0    0  501    0  0.00000000000E+00  0.00000000000E+00  0.24032503088E+04  0.24032503088E+04  0.50400001928E-02 0.  1.
       -1   -1    0    0    0  501  0.00000000000E+00  0.00000000000E+00 -0.11284090518E+04  0.11284090518E+04  0.50400001928E-02 0. -1.
    10030    2    1    2    0    0  0.00000000000E+00  0.00000000000E+00  0.12748412571E+04  0.35316593606E+04  0.32935387668E+04 0.  0.
        3    1    3    3  502    0 -0.73323439307E+03  0.13494978352E+04  0.26157647307E+00  0.15358310978E+04  0.10100000352E+00 0. -1.
       -3    1    3    3    0  502  0.73323439307E+03 -0.13494978352E+04  0.12745796806E+04  0.19958282628E+04  0.10100000352E+00 0.  1.
</event>
<event>
 5   0  0.2703956E-07  0.3281089E+04  0.7818609E-02  0.8167724E-01
        2   -1    0    0  501    0  0.00000000000E+00  0.00000000000E+00  0.16001671249E+04  0.16001671249E+04  0.25500000920E-02 0. -1.
       -2   -1    0    0    0  501  0.00000000000E+00  0.00000000000E+00 -0.16819408981E+04  0.16819408981E+04  0.25500000920E-02 0.  1.
    10030    2    1    2    0    0  0.00000000000E+00  0.00000000000E+00 -0.81773773226E+02  0.32821080231E+04  0.32810891675E+04 0.  0.
        5    1    3    3  502    0  0.26995499847E+03 -0.12260321887E+04  0.10155347124E+04  0.16147332507E+04  0.46999998093E+01 0. -1.
       -5    1    3    3    0  502 -0.26995499847E+03  0.12260321887E+04 -0.10973084856E+04  0.16673747724E+04  0.46999998093E+01 0.  1.
</event>
<event>
 5   0  0.9454010E-08  0.3283645E+04  0.7818609E-02  0.8167069E-01
        1   -1    0    0  501    0  0.00000000000E+00  0.00000000000E+00  0.18141589358E+04  0.18141589358E+04  0.50400001928E-02 0. -1.
       -1   -1    0    0    0  501  0.00000000000E+00  0.00000000000E+00 -0.14858570502E+04  0.14858570502E+04  0.50400001928E-02 0.  1.
    10030    2    1    2    0    0  0.00000000000E+00  0.00000000000E+00  0.32830188559E+03  0.33000159860E+04  0.32836448316E+04 0.  0.
        2    1    3    3  502    0 -0.26364824870E+03 -0.12697639934E+04 -0.84773031545E+03  0.15493410488E+04  0.25500000920E-02 0.  1.
       -2    1    3    3    0  502  0.26364824870E+03  0.12697639934E+04  0.11760322010E+04  0.17506749372E+04  0.25500000920E-02 0. -1.
</event>
<event>
 5   0  0.9810351E-08  0.3284690E+04  0.7818609E-02  0.8166802E-01
       -1   -1    0    0    0  501  0.00000000000E+00  0.00000000000E+00  0.15108100468E+04  0.15108100468E+04  0.50400001928E-02 0. -1.
        1   -1    0    0  501    0  0.00000000000E+00  0.00000000000E+00 -0.17853315401E+04  0.17853315401E+04  0.50400001928E-02 0.  1.
    10030    2    1    2    0    0  0.00000000000E+00  0.00000000000E+00 -0.27452149322E+03  0.32961415869E+04  0.32846898348E+04 0.  0.
        5    1    3    3  502    0  0.30848845754E+03  0.52495745524E+03  0.13933535076E+04  0.15205924981E+04  0.46999998093E+01 0. -1.
       -5    1    3    3    0  502 -0.30848845754E+03 -0.52495745524E+03 -0.16678750008E+04  0.17755490888E+04  0.46999998093E+01 0.  1.
</event>
<event>
 5   0  0.9810351E-08  0.3284792E+04  0.7818609E-02  0.8166776E-01
       -1   -1    0    0    0  501  0.00000000000E+00  0.00000000000E+00  0.12764031145E+04  0.12764031145E+04  0.50400001928E-02 0. -1.
        1   -1    0    0  501    0  0.00000000000E+00  0.00000000000E+00 -0.21133323192E+04  0.21133323192E+04  0.50400001928E-02 0.  1.
    10030    2    1    2    0    0  0.00000000000E+00  0.00000000000E+00 -0.83692920468E+03  0.33897354338E+04  0.32847915942E+04 0.  0.
        5    1    3    3  502    0  0.23419281847E+03 -0.14153812375E+04 -0.12435662634E+04  0.18985861753E+04  0.46999998093E+01 0.  1.
       -5    1    3    3    0  502 -0.23419281847E+03  0.14153812375E+04  0.40663705869E+03  0.14911492585E+04  0.46999998093E+01 0. -1.
</event>
<event>
 5   0  0.2727168E-07  0.3294893E+04  0.7818609E-02  0.8164196E-01
        2   -1    0    0  501    0  0.00000000000E+00  0.00000000000E+00  0.17671593899E+04  0.17671593899E+04  0.25500000920E-02 0. -1.
       -2   -1    0    0    0  501  0.00000000000E+00  0.00000000000E+00 -0.15358432499E+04  0.15358432499E+04  0.25500000920E-02 0.  1.
    10030    2    1    2    0    0  0.00000000000E+00  0.00000000000E+00  0.23131613995E+03  0.33030026398E+04  0.32948929090E+04 0.  0.
        2    1    3    3  502    0  0.12118454005E+04 -0.10725108172E+04  0.42501297102E+03  0.16731660866E+04  0.25500000920E-02 0. -1.
       -2    1    3    3    0  502 -0.12118454005E+04  0.10725108172E+04 -0.19369683107E+03  0.16298365532E+04  0.25500000920E-02 0.  1.
</event>
<event>
 5   0  0.2727168E-07  0.3291201E+04  0.7818609E-02  0.8165138E-01
        2   -1    0    0  501    0  0.00000000000E+00  0.00000000000E+00  0.21985004217E+04  0.21985004217E+04  0.25500000920E-02 0. -1.
       -2   -1    0    0    0  501  0.00000000000E+00  0.00000000000E+00 -0.12317489966E+04  0.12317489966E+04  0.25500000920E-02 0.  1.
    10030    2    1    2    0    0  0.00000000000E+00  0.00000000000E+00  0.96675142507E+03  0.34302494183E+04  0.32912008073E+04 0.  0.
        2    1    3    3  502    0 -0.26436004770E+03 -0.15138597817E+04  0.10967485432E+04  0.18879923307E+04  0.25500000920E-02 0. -1.
       -2    1    3    3    0  502  0.26436004770E+03  0.15138597817E+04 -0.12999711814E+03  0.15422570876E+04  0.25500000920E-02 0.  1.
</event>
<event>
 5   0  0.2703956E-07  0.3298395E+04  0.7818609E-02  0.8163304E-01
        2   -1    0    0  501    0  0.00000000000E+00  0.00000000000E+00  0.15133420598E+04  0.15133420598E+04  0.25500000920E-02 0.  1.
       -2   -1    0    0    0  501  0.00000000000E+00  0.00000000000E+00 -0.17972492363E+04  0.17972492363E+04  0.25500000920E-02 0. -1.
    10030    2    1    2    0    0  0.00000000000E+00  0.00000000000E+00 -0.28390717647E+03  0.33105912962E+04  0.32983952834E+04 0.  0.
        5    1    3    3  502    0  0.70943161381E+03  0.14824402947E+04 -0.27996959189E+03  0.16671315198E+04  0.46999998093E+01 0. -1.
       -5    1    3    3    0  502 -0.70943161381E+03 -0.14824402947E+04 -0.39375845863E+01  0.16434597764E+04  0.46999998093E+01 0.  1.
</event>
<event>
 5   0  0.2713815E-07  0.3299304E+04  0.7818609E-02  0.8163073E-01
       -2   -1    0    0    0  501  0.00000000000E+00  0.00000000000E+00  0.16152517930E+04  0.16152517930E+04  0.25500000920E-02 0.  1.
        2   -1    0    0  501    0  0.00000000000E+00  0.00000000000E+00 -0.16847844049E+04  0.16847844049E+04  0.25500000920E-02 0. -1.
    10030    2    1    2    0    0  0.00000000000E+00  0.00000000000E+00 -0.69532611918E+02  0.33000361980E+04  0.32993035816E+04 0.  0.
        4    1    3    3  502    0 -0.16133622571E+04 -0.34358209327E+03 -0.15709759477E+02  0.16496165726E+04  0.12699999809E+01 0. -1.
       -4    1    3    3    0  502  0.16133622571E+04  0.34358209327E+03 -0.53822852441E+02  0.16504196253E+04  0.12699999809E+01 0.  1.
</event>
<event>
 5   0  0.9181760E-08  0.3292793E+04  0.7818609E-02  0.8164732E-01
        1   -1    0    0  501    0  0.00000000000E+00  0.00000000000E+00  0.14636471254E+04  0.14636471254E+04  0.50400001928E-02 0.  1.
       -1   -1    0    0    0  501  0.00000000000E+00  0.00000000000E+00 -0.18519636561E+04  0.18519636561E+04  0.50400001928E-02 0. -1.
    10030    2    1    2    0    0  0.00000000000E+00  0.00000000000E+00 -0.38831653063E+03  0.33156107815E+04  0.32927929067E+04 0.  0.
        1    1    3    3  502    0 -0.43123451763E+03 -0.15611157785E+04 -0.49214071258E+03  0.16927043936E+04  0.50400001928E-02 0. -1.
       -1    1    3    3    0  502  0.43123451763E+03  0.15611157785E+04  0.10382418195E+03  0.16229063879E+04  0.50400001928E-02 0.  1.
</event>
<event>
 5   0  0.2713815E-07  0.3301663E+04  0.7818609E-02  0.8162472E-01
        2   -1    0    0  501    0  0.00000000000E+00  0.00000000000E+00  0.23727974302E+04  0.23727974302E+04  0.25500000920E-02 0.  1.
       -2   -1    0    0    0  501  0.00000000000E+00  0.00000000000E+00 -0.11485368598E+04  0.11485368598E+04  0.25500000920E-02 0. -1.
    10030    2    1    2    0    0  0.00000000000E+00  0.00000000000E+00  0.12242605703E+04  0.35213342900E+04  0.33016634047E+04 0.  0.
        4    1    3    3  502    0  0.95541675278E+03 -0.92363006251E+03 -0.43249006022E+03  0.13974845004E+04  0.12699999809E+01 0. -1.
       -4    1    3    3    0  502 -0.95541675278E+03  0.92363006251E+03  0.16567506305E+04  0.21238497895E+04  0.12699999809E+01 0.  1.
</event>
<event>
 5   0  0.8805125E-08  0.3315190E+04  0.7818609E-02  0.8159041E-01
       -1   -1    0    0    0  501  0.00000000000E+00  0.00000000000E+00  0.17747568121E+04  0.17747568121E+04  0.50400001928E-02 0.  1.
        1   -1    0    0  501    0  0.00000000000E+00  0.00000000000E+00 -0.15481679129E+04  0.15481679130E+04  0.50400001928E-02 0. -1.
    10030    2    1    2    0    0  0.00000000000E+00  0.00000000000E+00  0.22658889918E+03  0.33229247251E+04  0.33151902207E+04 0.  0.
        4    1    3    3  502    0  0.59114007460E+03 -0.12711975096E+04  0.99979569768E+03  0.17219125257E+04  0.12699999809E+01 0.  1.
       -4    1    3    3    0  502 -0.59114007460E+03  0.12711975096E+04 -0.77320679850E+03  0.16010121993E+04  0.12699999809E+01 0. -1.
</event>
<event>
 5   0  0.2824402E-07  0.3300011E+04  0.7818609E-02  0.8162893E-01
        2   -1    0    0  501    0  0.00000000000E+00  0.00000000000E+00  0.25816206218E+04  0.25816206218E+04  0.25500000920E-02 0. -1.
       -2   -1    0    0    0  501  0.00000000000E+00  0.00000000000E+00 -0.10545771745E+04  0.10545771745E+04  0.25500000920E-02 0.  1.
    10030    2    1    2    0    0  0.00000000000E+00  0.00000000000E+00  0.15270434474E+04  0.36361977963E+04  0.33000110187E+04 0.  0.
        1    1    3    3  502    0  0.98177185678E+02  0.10031524591E+04 -0.67591795878E+03  0.12135974221E+04  0.50400001928E-02 0.  1.
       -1    1    3    3    0  502 -0.98177185678E+02 -0.10031524591E+04  0.22029614061E+04  0.24226003742E+04  0.50400001928E-02 0. -1.
</event>
<event>
 5   0  0.9283910E-08  0.3299344E+04  0.7818609E-02  0.8163062E-01
       -1   -1    0    0    0  501  0.00000000000E+00  0.00000000000E+00  0.32151577840E+04  0.32151577841E+04  0.50400001928E-02 0. -1.
        1   -1    0    0  501    0  0.00000000000E+00  0.00000000000E+00 -0.84643362983E+03  0.84643362984E+03  0.50400001928E-02 0.  1.
    10030    2    1    2    0    0  0.00000000000E+00  0.00000000000E+00  0.23687241542E+04  0.40615914139E+04  0.32993439794E+04 0.  0.
        3    1    3    3  502    0  0.52311984659E+03  0.20081532501E+02 -0.74146623418E+03  0.90765071943E+03  0.10100000352E+00 0.  1.
       -3    1    3    3    0  502 -0.52311984659E+03 -0.20081532501E+02  0.31101903884E+04  0.31539406945E+04  0.10100000352E+00 0. -1.
</event>
<event>
 5   0  0.2875829E-07  0.3295618E+04  0.7818609E-02  0.8164011E-01
       -2   -1    0    0    0  501  0.00000000000E+00  0.00000000000E+00  0.14227338082E+04  0.14227338082E+04  0.25500000920E-02 0. -1.
        2   -1    0    0  501    0  0.00000000000E+00  0.00000000000E+00 -0.19084914551E+04  0.19084914551E+04  0.25500000920E-02 0.  1.
    10030    2    1    2    0    0  0.00000000000E+00  0.00000000000E+00 -0.48575764693E+03  0.33312252633E+04  0.32956184948E+04 0.  0.
        3    1    3    3  502    0 -0.43834440303E+03  0.53532623423E+03  0.12687908192E+04  0.14451816999E+04  0.10100000352E+00 0. -1.
       -3    1    3    3    0  502  0.43834440303E+03 -0.53532623423E+03 -0.17545484661E+04  0.18860435634E+04  0.10100000352E+00 0.  1.
</event>
<event>
 5   0  0.9810351E-08  0.3304765E+04  0.7818609E-02  0.8161684E-01
        1   -1    0    0  501    0  0.00000000000E+00  0.00000000000E+00  0.27514573674E+04  0.27514573674E+04  0.50400001928E-02 0. -1.
       -1   -1    0    0    0  501  0.00000000000E+00  0.00000000000E+00 -0.99233502550E+03  0.99233502551E+03  0.50400001928E-02 0.  1.
    10030    2    1    2    0    0  0.00000000000E+00  0.00000000000E+00  0.17591223419E+04  0.37437923929E+04  0.33047647522E+04 0.  0.
        5    1    3    3  502    0 -0.15666139436E+03 -0.14700006730E+04  0.17157991212E+04  0.22648252660E+04  0.46999998093E+01 0. -1.
       -5    1    3    3    0  502  0.15666139436E+03  0.14700006730E+04  0.43323220748E+02  0.14789671270E+04  0.46999998093E+01 0.  1.
</event>
<event>
 5   0  0.2824402E-07  0.3270944E+04  0.7818609E-02  0.8170328E-01
        2   -1    0    0  501    0  0.00000000000E+00  0.00000000000E+00  0.22307295449E+04  0.22307295449E+04  0.25500000920E-02 0.  1.
       -2   -1    0    0    0  501  0.00000000000E+00  0.00000000000E+00 -0.11990552640E+04  0.11990552640E+04  0.25500000920E-02 0. -1.
    10030    2    1    2    0    0  0.00000000000E+00  0.00000000000E+00  0.10316742809E+04  0.34297848089E+04  0.32709435968E+04 0.  0.
        1    1    3    3  502    0 -0.12449755949E+04  0.94393328234E+03  0.88344697384E+01  0.15623867387E+04  0.50400001928E-02 0.  1.
       -1    1    3    3    0  502  0.12449755949E+04 -0.94393328234E+03  0.10228398112E+04  0.18673980702E+04  0.50400001928E-02 0. -1.
</event>
<event>
 5   0  0.2875829E-07  0.3331455E+04  0.7818609E-02  0.8154937E-01
       -2   -1    0    0    0  501  0.00000000000E+00  0.00000000000E+00  0.13844157201E+04  0.13844157201E+04  0.25500000920E-02 0.  1.
        2   -1    0    0  501    0  0.00000000000E+00  0.00000000000E+00 -0.20042020560E+04  0.20042020560E+04  0.25500000920E-02 0. -1.
    10030    2    1    2    0    0  0.00000000000E+00  0.00000000000E+00 -0.61978633587E+03  0.33886177761E+04  0.33314554373E+04 0.  0.
        3    1    3    3  502    0  0.88365437801E+02  0.16586752222E+04 -0.18270004877E+03  0.16710449609E+04  0.10100000352E+00 0.  1.
       -3    1    3    3    0  502 -0.88365437801E+02 -0.16586752222E+04 -0.43708628711E+03  0.17175728153E+04  0.10100000352E+00 0. -1.
</event>
<event>
 5   0  0.8805125E-08  0.3299795E+04  0.7818609E-02  0.8162948E-01
        3   -1    0    0  501    0  0.00000000000E+00  0.00000000000E+00  0.23263254745E+04  0.23263254767E+04  0.10100000352E+00 0.  1.
       -3   -1    0    0    0  501  0.00000000000E+00  0.00000000000E+00 -0.11701548671E+04  0.11701548714E+04  0.10100000352E+00 0. -1.
    10030    2    1    2    0    0  0.00000000000E+00  0.00000000000E+00  0.11561706075E+04  0.34964803481E+04  0.32997945923E+04 0.  0.
        5    1    3    3  502    0 -0.13262681211E+04  0.82676032912E+03  0.17776171964E+02  0.15629644440E+04  0.46999998093E+01 0.  1.
       -5    1    3    3    0  502  0.13262681211E+04 -0.82676032912E+03  0.11383944355E+04  0.19335159041E+04  0.46999998093E+01 0. -1.
</event>
<event>
 5   0  0.8805125E-08  0.3287753E+04  0.7818609E-02  0.8166019E-01
       -1   -1    0    0    0  501  0.00000000000E+00  0.00000000000E+00  0.21458700794E+04  0.21458700794E+04  0.50400001928E-02 0.  1.
        1   -1    0    0  501    0  0.00000000000E+00  0.00000000000E+00 -0.12593168746E+04  0.12593168746E+04  0.50400001928E-02 0. -1.
    10030    2    1    2    0    0  0.00000000000E+00  0.00000000000E+00  0.88655320487E+03  0.34051869540E+04  0.32877532764E+04 0.  0.
        4    1    3    3  502    0  0.87965646974E+03  0.59581006065E+03  0.17424919426E+04  0.20408490674E+04  0.12699999809E+01 0.  1.
       -4    1    3    3    0  502 -0.87965646974E+03 -0.59581006065E+03 -0.85593873771E+03  0.13643378866E+04  0.12699999809E+01 0. -1.
</event>
<event>
 5   0  0.8805125E-08  0.3299411E+04  0.7818609E-02  0.8163045E-01
        1   -1    0    0  501    0  0.00000000000E+00  0.00000000000E+00  0.25209302891E+04  0.25209302891E+04  0.50400001928E-02 0.  1.
       -1   -1    0    0    0  501  0.00000000000E+00  0.00000000000E+00 -0.10795730177E+04  0.10795730178E+04  0.50400001928E-02 0. -1.
    10030    2    1    2    0    0  0.00000000000E+00  0.00000000000E+00  0.14413572713E+04  0.36005033068E+04  0.32994110503E+04 0.  0.
        4    1    3    3  502    0 -0.74315437116E+03 -0.99806375516E+03  0.19026241558E+04  0.22734093274E+04  0.12699999809E+01 0.  1.
       -4    1    3    3    0  502  0.74315437116E+03  0.99806375516E+03 -0.46126688446E+03  0.13270939795E+04  0.12699999809E+01 0. -1.
</event>
<event>
 5   0  0.2713815E-07  0.3297390E+04  0.7818609E-02  0.8163560E-01
       -2   -1    0    0    0  501  0.00000000000E+00  0.00000000000E+00  0.11407379244E+04  0.11407379244E+04  0.25500000920E-02 0. -1.
        2   -1    0    0  501    0  0.00000000000E+00  0.00000000000E+00 -0.23828393090E+04  0.23828393090E+04  0.25500000920E-02 0.  1.
    10030    2    1    2    0    0  0.00000000000E+00  0.00000000000E+00 -0.12421013846E+04  0.35235772334E+04  0.32973899785E+04 0.  0.
        4    1    3    3  502    0 -0.12489754946E+04 -0.99060996700E+03 -0.17154681582E+03  0.16033333451E+04  0.12699999809E+01 0.  1.
       -4    1    3    3    0  502  0.12489754946E+04  0.99060996700E+03 -0.10705545687E+04  0.19202438882E+04  0.12699999809E+01 0. -1.
</event>
<event>
 5   0  0.2824402E-07  0.3301303E+04  0.7818609E-02  0.8162564E-01
        2   -1    0    0  501    0  0.00000000000E+00  0.00000000000E+00  0.18236655048E+04  0.18236655048E+04  0.25500000920E-02 0. -1.
       -2   -1    0    0    0  501  0.00000000000E+00  0.00000000000E+00 -0.14940518775E+04  0.14940518775E+04  0.25500000920E-02 0.  1.
    10030    2    1    2    0    0  0.00000000000E+00  0.00000000000E+00  0.32961362732E+03  0.33177173823E+04  0.33013033010E+04 0.  0.
        1    1    3    3  502    0 -0.80528012416E+03 -0.74264745050E+03 -0.10760994536E+04  0.15355752499E+04  0.50400001928E-02 0.  1.
       -1    1    3    3    0  502  0.80528012416E+03  0.74264745050E+03  0.14057130809E+04  0.17821421324E+04  0.50400001928E-02 0. -1.
</event>
<event>
 5   0  0.9181760E-08  0.3213138E+04  0.7818609E-02  0.8185356E-01
        1   -1    0    0  501    0  0.00000000000E+00  0.00000000000E+00  0.13509340922E+04  0.13509340922E+04  0.50400001928E-02 0.  1.
       -1   -1    0    0    0  501  0.00000000000E+00  0.00000000000E+00 -0.19105768613E+04  0.19105768613E+04  0.50400001928E-02 0. -1.
    10030    2    1    2    0    0  0.00000000000E+00  0.00000000000E+00 -0.55964276913E+03  0.32615109535E+04  0.32131376675E+04 0.  0.
        1    1    3    3  502    0 -0.43042337392E+03  0.43352841338E+03 -0.17880754744E+04  0.18895568444E+04  0.50400001928E-02 0. -1.
       -1    1    3    3    0  502  0.43042337392E+03 -0.43352841338E+03  0.12284327053E+04  0.13719541091E+04  0.50400001928E-02 0.  1.
</event>
<event>
 5   0  0.2703956E-07  0.3292879E+04  0.7818609E-02  0.8164710E-01
       -2   -1    0    0    0  501  0.00000000000E+00  0.00000000000E+00  0.12787240917E+04  0.12787240917E+04  0.25500000920E-02 0. -1.
        2   -1    0    0  501    0  0.00000000000E+00  0.00000000000E+00 -0.21198967853E+04  0.21198967853E+04  0.25500000920E-02 0.  1.
    10030    2    1    2    0    0  0.00000000000E+00  0.00000000000E+00 -0.84117269354E+03  0.33986208770E+04  0.32928790390E+04 0.  0.
        5    1    3    3  502    0 -0.18891120726E+03  0.90457447595E+03  0.98581521598E+03  0.13512202473E+04  0.46999998093E+01 0. -1.
       -5    1    3    3    0  502  0.18891120726E+03 -0.90457447595E+03 -0.18269879095E+04  0.20474006297E+04  0.46999998093E+01 0.  1.
</event>
<event>
 5   0  0.8805125E-08  0.3330620E+04  0.7818609E-02  0.8155147E-01
        1   -1    0    0  501    0  0.00000000000E+00  0.00000000000E+00  0.12452872719E+04  0.12452872720E+04  0.50400001928E-02 0.  1.
       -1   -1    0    0    0  501  0.00000000000E+00  0.00000000000E+00 -0.22270024443E+04  0.22270024443E+04  0.50400001928E-02 0. -1.
    10030    2    1    2    0    0  0.00000000000E+00  0.00000000000E+00 -0.98171517236E+03  0.34722897163E+04  0.33306202416E+04 0.  0.
        4    1    3    3  502    0 -0.96006059680E+03 -0.82698429067E+03 -0.16173926855E+04  0.20546484076E+04  0.12699999809E+01 0. -1.
       -4    1    3    3    0  502  0.96006059680E+03  0.82698429067E+03  0.63567751317E+03  0.14176413087E+04  0.12699999809E+01 0.  1.
</event>
<event>
 5   0  0.9810351E-08  0.3287306E+04  0.7818609E-02  0.8166133E-01
        1   -1    0    0  501    0  0.00000000000E+00  0.00000000000E+00  0.24024550765E+04  0.24024550765E+04  0.50400001928E-02 0. -1.
       -1   -1    0    0    0  501  0.00000000000E+00  0.00000000000E+00 -0.11245140117E+04  0.11245140117E+04  0.50400001928E-02 0.  1.
    10030    2    1    2    0    0  0.00000000000E+00  0.00000000000E+00  0.12779410648E+04  0.35269690883E+04  0.32873055204E+04 0.  0.
        5    1    3    3  502    0  0.74651478794E+03 -0.53564384936E+03 -0.82324443016E+03  0.12336742454E+04  0.46999998093E+01 0. -1.
       -5    1    3    3    0  502 -0.74651478794E+03  0.53564384936E+03  0.21011854950E+04  0.22932948429E+04  0.46999998093E+01 0.  1.
</event>
<event>
 5   0  0.9454010E-08  0.3301914E+04  0.7818609E-02  0.8162408E-01
       -1   -1    0    0    0  501  0.00000000000E+00  0.00000000000E+00  0.12805906028E+04  0.12805906028E+04  0.50400001928E-02 0. -1.
        1   -1    0    0  501    0  0.00000000000E+00  0.00000000000E+00 -0.21284393804E+04  0.21284393804E+04  0.50400001928E-02 0.  1.
    10030    2    1    2    0    0  0.00000000000E+00  0.00000000000E+00 -0.84784877761E+03  0.34090299833E+04  0.33019142746E+04 0.  0.
        2    1    3    3  502    0 -0.73656534678E+03 -0.13414684325E+04  0.21551677803E+03  0.15454816554E+04  0.25500000920E-02 0. -1.
       -2    1    3    3    0  502  0.73656534678E+03  0.13414684325E+04 -0.10633655556E+04  0.18635483279E+04  0.25500000920E-02 0.  1.
</event>
<event>
 5   0  0.2713815E-07  0.3261968E+04  0.7818609E-02  0.8172641E-01
       -2   -1    0    0    0  501  0.00000000000E+00  0.00000000000E+00  0.20982299847E+04  0.20982299847E+04  0.25500000920E-02 0.  1.
        2   -1    0    0  501    0  0.00000000000E+00  0.00000000000E+00 -0.12677869299E+04  0.12677869299E+04  0.25500000920E-02 0. -1.
    10030    2    1    2    0    0  0.00000000000E+00  0.00000000000E+00  0.83044305486E+03  0.33660169146E+04  0.32619678419E+04 0.  0.
        4    1    3    3  502    0  0.53147181480E+03 -0.79008862635E+03 -0.95117796123E+03  0.13458987533E+04  0.12699999809E+01 0. -1.
       -4    1    3    3    0  502 -0.53147181480E+03  0.79008862635E+03  0.17816210161E+04  0.20201181612E+04  0.12699999809E+01 0.  1.
</event>
<event>
 5   0  0.9181760E-08  0.3335367E+04  0.7818609E-02  0.8153954E-01
        1   -1    0    0  501    0  0.00000000000E+00  0.00000000000E+00  0.28052224834E+04  0.28052224834E+04  0.50400001928E-02 0. -1.
       -1   -1    0    0    0  501  0.00000000000E+00  0.00000000000E+00 -0.99142520052E+03  0.99142520054E+03  0.50400001928E-02 0.  1.
    10030    2    1    2    0    0  0.00000000000E+00  0.00000000000E+00  0.18137972828E+04  0.37966476839E+04  0.33353670042E+04 0.  0.
        1    1    3    3  502    0 -0.68073491223E+03  0.48827703200E+03 -0.73452567631E+03  0.11141554873E+04  0.50400001928E-02 0.  1.
       -1    1    3    3    0  502  0.68073491223E+03 -0.48827703200E+03  0.25483229591E+04  0.26824921966E+04  0.50400001928E-02 0. -1.
</event>
<event>
 5   0  0.9283910E-08  0.3296526E+04  0.7818609E-02  0.8163780E-01
        1   -1    0    0  501    0  0.00000000000E+00  0.00000000000E+00  0.18515796102E+04  0.18515796102E+04  0.50400001928E-02 0. -1.
       -1   -1    0    0    0  501  0.00000000000E+00  0.00000000000E+00 -0.14672716754E+04  0.14672716754E+04  0.50400001928E-02 0.  1.
    10030    2    1    2    0    0  0.00000000000E+00  0.00000000000E+00  0.38430793485E+03  0.33188512856E+04  0.32965256357E+04 0.  0.
        3    1    3    3  502    0 -0.51815355187E+03  0.28952576296E+03  0.17402486103E+04  0.18386879851E+04  0.10100000352E+00 0. -1.
       -3    1    3    3    0  502  0.51815355187E+03 -0.28952576296E+03 -0.13559406754E+04  0.14801633005E+04  0.10100000352E+00 0.  1.
</event>
<event>
 5   0  0.2727168E-07  0.3301156E+04  0.7818609E-02  0.8162601E-01
        2   -1    0    0  501    0  0.00000000000E+00  0.00000000000E+00  0.20677251532E+04  0.20677251532E+04  0.25500000920E-02 0. -1.
       -2   -1    0    0    0  501  0.00000000000E+00  0.00000000000E+00 -0.13175868270E+04  0.13175868270E+04  0.25500000920E-02 0.  1.
    10030    2    1    2    0    0  0.00000000000E+00  0.00000000000E+00  0.75013832615E+03  0.33853119802E+04  0.33011558120E+04 0.  0.
        2    1    3    3  502    0  0.64551779039E+03  0.54102927472E+03 -0.10806257524E+04  0.13700941247E+04  0.25500000920E-02 0.  1.
       -2    1    3    3    0  502 -0.64551779039E+03 -0.54102927472E+03  0.18307640786E+04  0.20152178555E+04  0.25500000920E-02 0. -1.
</event>
<event>
 5   0  0.2713815E-07  0.3299112E+04  0.7818609E-02  0.8163121E-01
       -2   -1    0    0    0  501  0.00000000000E+00  0.00000000000E+00  0.14956409642E+04  0.14956409642E+04  0.25500000920E-02 0.  1.
        2   -1    0    0  501    0  0.00000000000E+00  0.00000000000E+00 -0.18193100027E+04  0.18193100027E+04  0.25500000920E-02 0. -1.
    10030    2    1    2    0    0  0.00000000000E+00  0.00000000000E+00 -0.32366903853E+03  0.33149509669E+04  0.32991117390E+04 0.  0.
        4    1    3    3  502    0  0.16452250332E+03  0.11792816525E+04 -0.13089195987E+04  0.17694759108E+04  0.12699999809E+01 0. -1.
       -4    1    3    3    0  502 -0.16452250332E+03 -0.11792816525E+04  0.98525056015E+03  0.15454750562E+04  0.12699999809E+01 0.  1.
</event>
<event>
 5   0  0.9810351E-08  0.3302552E+04  0.7818609E-02  0.8162246E-01
        1   -1    0    0  501    0  0.00000000000E+00  0.00000000000E+00  0.19231775524E+04  0.19231775524E+04  0.50400001928E-02 0. -1.
       -1   -1    0    0    0  501  0.00000000000E+00  0.00000000000E+00 -0.14178164883E+04  0.14178164883E+04  0.50400001928E-02 0.  1.
    10030    2    1    2    0    0  0.00000000000E+00  0.00000000000E+00  0.50536106412E+03  0.33409940407E+04  0.33025522517E+04 0.  0.
        5    1    3    3  502    0  0.27997423879E+03 -0.62459143428E+03  0.17729000796E+04  0.19004464782E+04  0.46999998093E+01 0. -1.
       -5    1    3    3    0  502 -0.27997423879E+03  0.62459143428E+03 -0.12675390155E+04  0.14405475625E+04  0.46999998093E+01 0.  1.
</event>
<event>
 5   0  0.2713815E-07  0.3299535E+04  0.7818609E-02  0.8163014E-01
       -2   -1    0    0    0  501  0.00000000000E+00  0.00000000000E+00  0.13301779299E+04  0.13301779299E+04  0.25500000920E-02 0.  1.
        2   -1    0    0  501    0  0.00000000000E+00  0.00000000000E+00 -0.20461418524E+04  0.20461418524E+04  0.25500000920E-02 0. -1.
    10030    2    1    2    0    0  0.00000000000E+00  0.00000000000E+00 -0.71596392250E+03  0.33763197823E+04  0.32995349572E+04 0.  0.
        4    1    3    3  502    0  0.38975320218E+03  0.72390013356E+03  0.11056153207E+04  0.13777974496E+04  0.12699999809E+01 0.  1.
       -4    1    3    3    0  502 -0.38975320218E+03 -0.72390013356E+03 -0.18215792432E+04  0.19985223326E+04  0.12699999809E+01 0. -1.
</event>
<event>
 5   0  0.9454010E-08  0.3309018E+04  0.7818609E-02  0.8160605E-01
       -1   -1    0    0    0  501  0.00000000000E+00  0.00000000000E+00  0.12636579024E+04  0.12636579024E+04  0.50400001928E-02 0. -1.
        1   -1    0    0  501    0  0.00000000000E+00  0.00000000000E+00 -0.21662507491E+04  0.21662507491E+04  0.50400001928E-02 0.  1.
    10030    2    1    2    0    0  0.00000000000E+00  0.00000000000E+00 -0.90259284672E+03  0.34299086516E+04  0.33090179074E+04 0.  0.
        2    1    3    3  502    0  0.89219727536E+03  0.20270738075E+02  0.99278999334E+03  0.13349377708E+04  0.25500000920E-02 0. -1.
       -2    1    3    3    0  502 -0.89219727536E+03 -0.20270738075E+02 -0.18953828401E+04  0.20949708808E+04  0.25500000920E-02 0.  1.
</event>
<event>
 5   0  0.2703956E-07  0.3307555E+04  0.7818609E-02  0.8160976E-01
        2   -1    0    0  501    0  0.00000000000E+00  0.00000000000E+00  0.25978513481E+04  0.25978513481E+04  0.25500000920E-02 0.  1.
       -2   -1    0    0    0  501  0.00000000000E+00  0.00000000000E+00 -0.10527852224E+04  0.10527852224E+04  0.25500000920E-02 0. -1.
    10030    2    1    2    0    0  0.00000000000E+00  0.00000000000E+00  0.15450661257E+04  0.36506365704E+04  0.33075546914E+04 0.  0.
        5    1    3    3  502    0  0.11190064604E+04  0.11514191983E+04  0.12098871918E+04  0.20104205370E+04  0.46999998093E+01 0. -1.
       -5    1    3    3    0  502 -0.11190064604E+04 -0.11514191983E+04  0.33517893390E+03  0.16402160334E+04  0.46999998093E+01 0.  1.
</event>
<event>
 5   0  0.8805125E-08  0.3300253E+04  0.7818609E-02  0.8162831E-01
        1   -1    0    0  501    0  0.00000000000E+00  0.00000000000E+00  0.16230172849E+04  0.16230172849E+04  0.50400001928E-02 0.  1.
       -1   -1    0    0    0  501  0.00000000000E+00  0.00000000000E+00 -0.16776884213E+04  0.16776884213E+04  0.50400001928E-02 0. -1.
    10030    2    1    2    0    0  0.00000000000E+00  0.00000000000E+00 -0.54671136454E+02  0.33007057062E+04  0.33002529033E+04 0.  0.
        4    1    3    3  502    0 -0.96361557423E+03  0.43765395167E+03  0.12388633060E+04  0.16293802074E+04  0.12699999809E+01 0.  1.
       -4    1    3    3    0  502  0.96361557423E+03 -0.43765395167E+03 -0.12935344425E+04  0.16713254988E+04  0.12699999809E+01 0. -1.
</event>
<event>
 5   0  0.2875829E-07  0.3314159E+04  0.7818609E-02  0.8159302E-01
       -2   -1    0    0    0  501  0.00000000000E+00  0.00000000000E+00  0.11766163415E+04  0.11766163415E+04  0.25500000920E-02 0. -1.
        2   -1    0    0  501    0  0.00000000000E+00  0.00000000000E+00 -0.23337359566E+04  0.23337359566E+04  0.25500000920E-02 0.  1.
    10030    2    1    2    0    0  0.00000000000E+00  0.00000000000E+00 -0.11571196151E+04  0.35103522981E+04  0.33141586343E+04 0.  0.
        3    1    3    3  502    0 -0.15295396166E+04  0.60996128966E+03 -0.38220015133E+03  0.16904499932E+04  0.10100000352E+00 0. -1.
       -3    1    3    3    0  502  0.15295396166E+04 -0.60996128966E+03 -0.77491946376E+03  0.18199023049E+04  0.10100000352E+00 0.  1.
</event>
<event>
 5   0  0.9454010E-08  0.3299811E+04  0.7818609E-02  0.8162944E-01
        1   -1    0    0  501    0  0.00000000000E+00  0.00000000000E+00  0.97908515541E+03  0.97908515542E+03  0.50400001928E-02 0. -1.
       -1   -1    0    0    0  501  0.00000000000E+00  0.00000000000E+00 -0.27803376985E+04  0.27803376985E+04  0.50400001928E-02 0.  1.
    10030    2    1    2    0    0  0.00000000000E+00  0.00000000000E+00 -0.18012525431E+04  0.37594228539E+04  0.32998105204E+04 0.  0.
        2    1    3    3  502    0  0.55256541187E+02  0.13015871494E+04 -0.20540666775E+04  0.24323594118E+04  0.25500000920E-02 0.  1.
       -2    1    3    3    0  502 -0.55256541187E+02 -0.13015871494E+04  0.25281413436E+03  0.13270634421E+04  0.25500000920E-02 0. -1.
</event>
<event>
 5   0  0.2727168E-07  0.3287572E+04  0.7818609E-02  0.8166065E-01
       -2   -1    0    0    0  501  0.00000000000E+00  0.00000000000E+00  0.12875081930E+04  0.12875081930E+04  0.25500000920E-02 0. -1.
        2   -1    0    0  501    0  0.00000000000E+00  0.00000000000E+00 -0.20986520541E+04  0.20986520541E+04  0.25500000920E-02 0.  1.
    10030    2    1    2    0    0  0.00000000000E+00  0.00000000000E+00 -0.81114386109E+03  0.33861602471E+04  0.32875715742E+04 0.  0.
        2    1    3    3  502    0 -0.22052164441E+03  0.49314509155E+03  0.11934695044E+04  0.13100348602E+04  0.25500000920E-02 0. -1.
       -2    1    3    3    0  502  0.22052164441E+03 -0.49314509155E+03 -0.20046133655E+04  0.20761253869E+04  0.25500000920E-02 0.  1.
</event>
<event>
 5   0  0.2713815E-07  0.3303772E+04  0.7818609E-02  0.8161936E-01
        2   -1    0    0  501    0  0.00000000000E+00  0.00000000000E+00  0.20043666212E+04  0.20043666212E+04  0.25500000920E-02 0.  1.
       -2   -1    0    0    0  501  0.00000000000E+00  0.00000000000E+00 -0.13613916841E+04  0.13613916841E+04  0.25500000920E-02 0. -1.
    10030    2    1    2    0    0  0.00000000000E+00  0.00000000000E+00  0.64297493708E+03  0.33657583053E+04  0.33037724195E+04 0.  0.
        4    1    3    3  502    0 -0.17464092470E+03  0.13207706943E+04 -0.67345870334E+03  0.14928104091E+04  0.12699999809E+01 0. -1.
       -4    1    3    3    0  502  0.17464092470E+03 -0.13207706943E+04  0.13164336404E+04  0.18729478962E+04  0.12699999809E+01 0.  1.
</event>
<event>
 5   0  0.2703956E-07  0.3296514E+04  0.7818609E-02  0.8163783E-01
       -2   -1    0    0    0  501  0.00000000000E+00  0.00000000000E+00  0.16326566397E+04  0.16326566397E+04  0.25500000920E-02 0. -1.
        2   -1    0    0  501    0  0.00000000000E+00  0.00000000000E+00 -0.16640062852E+04  0.16640062852E+04  0.25500000920E-02 0.  1.
    10030    2    1    2    0    0  0.00000000000E+00  0.00000000000E+00 -0.31349645510E+02  0.32966629249E+04  0.32965138616E+04 0.  0.
        5    1    3    3  502    0 -0.90374131434E+02 -0.40187861845E+03  0.15803468768E+04  0.16331540798E+04  0.46999998093E+01 0. -1.
       -5    1    3    3    0  502  0.90374131434E+02  0.40187861845E+03 -0.16116965223E+04  0.16635088450E+04  0.46999998093E+01 0.  1.
</event>
<event>
 5   0  0.9181760E-08  0.3284966E+04  0.7818609E-02  0.8166731E-01
        1   -1    0    0  501    0  0.00000000000E+00  0.00000000000E+00  0.78236026807E+03  0.78236026808E+03  0.50400001928E-02 0.  1.
       -1   -1    0    0    0  501  0.00000000000E+00  0.00000000000E+00 -0.34482201462E+04  0.34482201462E+04  0.50400001928E-02 0. -1.
    10030    2    1    2    0    0  0.00000000000E+00  0.00000000000E+00 -0.26658598781E+04  0.42305804143E+04  0.32849660199E+04 0.  0.
        1    1    3    3  502    0 -0.12143672524E+04 -0.11053021626E+04 -0.12852661323E+04  0.20852553141E+04  0.50400001928E-02 0.  1.
       -1    1    3    3    0  502  0.12143672524E+04  0.11053021626E+04 -0.13805937458E+04  0.21453251001E+04  0.50400001928E-02 0. -1.
</event>
<event>
 5   0  0.9454010E-08  0.3304068E+04  0.7818609E-02  0.8161861E-01
        1   -1    0    0  501    0  0.00000000000E+00  0.00000000000E+00  0.21142405036E+04  0.21142405036E+04  0.50400001928E-02 0.  1.
       -1   -1    0    0    0  501  0.00000000000E+00  0.00000000000E+00 -0.12908734975E+04  0.12908734975E+04  0.50400001928E-02 0. -1.
    10030    2    1    2    0    0  0.00000000000E+00  0.00000000000E+00  0.82336700613E+03  0.34051140011E+04  0.33040684214E+04 0.  0.
        2    1    3    3  502    0 -0.10387600287E+02 -0.98938414411E+03 -0.95173742516E+03  0.13728776396E+04  0.25500000920E-02 0. -1.
       -2    1    3    3    0  502  0.10387600287E+02  0.98938414411E+03  0.17751044313E+04  0.20322363615E+04  0.25500000920E-02 0.  1.
</event>
<event>
 5   0  0.2703956E-07  0.3297384E+04  0.7818609E-02  0.8163561E-01
       -2   -1    0    0    0  501  0.00000000000E+00  0.00000000000E+00  0.14908190863E+04  0.14908190863E+04  0.25500000920E-02 0.  1.
        2   -1    0    0  501    0  0.00000000000E+00  0.00000000000E+00 -0.18232828320E+04  0.18232828320E+04  0.25500000920E-02 0. -1.
    10030    2    1    2    0    0  0.00000000000E+00  0.00000000000E+00 -0.33246374579E+03  0.33141019183E+04  0.32973837178E+04 0.  0.
        5    1    3    3  502    0 -0.11560106898E+04 -0.11659574127E+04 -0.31647339495E+03  0.16721228732E+04  0.46999998093E+01 0. -1.
       -5    1    3    3    0  502  0.11560106898E+04  0.11659574127E+04 -0.15990350835E+02  0.16419790451E+04  0.46999998093E+01 0.  1.
</event>
<event>
 5   0  0.9283910E-08  0.3304722E+04  0.7818609E-02  0.8161695E-01
       -1   -1    0    0    0  501  0.00000000000E+00  0.00000000000E+00  0.12205009755E+04  0.12205009755E+04  0.50400001928E-02 0.  1.
        1   -1    0    0  501    0  0.00000000000E+00  0.00000000000E+00 -0.22370299802E+04  0.22370299802E+04  0.50400001928E-02 0. -1.
    10030    2    1    2    0    0  0.00000000000E+00  0.00000000000E+00 -0.10165290047E+04  0.34575309557E+04  0.33047222413E+04 0.  0.
        3    1    3    3  502    0  0.19854273951E+03 -0.15808266285E+04 -0.96654274064E+03  0.18635012553E+04  0.10100000352E+00 0. -1.
       -3    1    3    3    0  502 -0.19854273951E+03  0.15808266285E+04 -0.49986264053E+02  0.15940297004E+04  0.10100000352E+00 0.  1.
</event>
<event>
 5   0  0.2824402E-07  0.3298503E+04  0.7818609E-02  0.8163276E-01
        2   -1    0    0  501    0  0.00000000000E+00  0.00000000000E+00  0.20376709271E+04  0.20376709271E+04  0.25500000920E-02 0. -1.
       -2   -1    0    0    0  501  0.00000000000E+00  0.00000000000E+00 -0.13348721175E+04  0.13348721175E+04  0.25500000920E-02 0.  1.
    10030    2    1    2    0    0  0.00000000000E+00  0.00000000000E+00  0.70279880957E+03  0.33725430446E+04  0.32985027544E+04 0.  0.
        1    1    3    3  502    0 -0.13221525034E+04 -0.27153167504E+03  0.13204142227E+04  0.18882029584E+04  0.50400001928E-02 0. -1.
       -1    1    3    3    0  502  0.13221525034E+04  0.27153167504E+03 -0.61761541313E+03  0.14843400861E+04  0.50400001928E-02 0.  1.
</event>
<event>
 5   0  0.9181760E-08  0.3299840E+04  0.7818609E-02  0.8162936E-01
       -1   -1    0    0    0  501  0.00000000000E+00  0.00000000000E+00  0.14885860879E+04  0.14885860879E+04  0.50400001928E-02 0. -1.
        1   -1    0    0  501    0  0.00000000000E+00  0.00000000000E+00 -0.18287389650E+04  0.18287389650E+04  0.50400001928E-02 0.  1.
    10030    2    1    2    0    0  0.00000000000E+00  0.00000000000E+00 -0.34015287715E+03  0.33173250529E+04  0.32998396214E+04 0.  0.
        1    1    3    3  502    0  0.11993854526E+04  0.10851076198E+04 -0.49776589462E+03  0.16922632468E+04  0.50400001928E-02 0. -1.
       -1    1    3    3    0  502 -0.11993854526E+04 -0.10851076198E+04  0.15761301747E+03  0.16250618061E+04  0.50400001928E-02 0.  1.
</event>
<event>
 5   0  0.2824402E-07  0.3302881E+04  0.7818609E-02  0.8162163E-01
        2   -1    0    0  501    0  0.00000000000E+00  0.00000000000E+00  0.24163036586E+04  0.24163036586E+04  0.25500000920E-02 0. -1.
       -2   -1    0    0    0  501  0.00000000000E+00  0.00000000000E+00 -0.11286890161E+04  0.11286890161E+04  0.25500000920E-02 0.  1.
    10030    2    1    2    0    0  0.00000000000E+00  0.00000000000E+00  0.12876146425E+04  0.35449926747E+04  0.33028808026E+04 0.  0.
        1    1    3    3  502    0  0.78823261742E+03 -0.33576342824E+03  0.21591076419E+04  0.23228847471E+04  0.50400001928E-02 0. -1.
       -1    1    3    3    0  502 -0.78823261742E+03  0.33576342824E+03 -0.87149299933E+03  0.12221079276E+04  0.50400001928E-02 0.  1.
</event>
<event>
 5   0  0.2824402E-07  0.3297620E+04  0.7818609E-02  0.8163501E-01
        2   -1    0    0  501    0  0.00000000000E+00  0.00000000000E+00  0.13493817712E+04  0.13493817712E+04  0.25500000920E-02 0.  1.
       -2   -1    0    0    0  501  0.00000000000E+00  0.00000000000E+00 -0.20146816655E+04  0.20146816655E+04  0.25500000920E-02 0. -1.
    10030    2    1    2    0    0  0.00000000000E+00  0.00000000000E+00 -0.66529989432E+03  0.33640634368E+04  0.32976201809E+04 0.  0.
        1    1    3    3  502    0 -0.10440994483E+04 -0.10067408798E+04  0.46730799260E+03  0.15238266361E+04  0.50400001928E-02 0.  1.
       -1    1    3    3    0  502  0.10440994483E+04  0.10067408798E+04 -0.11326078869E+04  0.18402368007E+04  0.50400001928E-02 0. -1.
</event>
<event>
 5   0  0.2703956E-07  0.3298559E+04  0.7818609E-02  0.8163262E-01
       -2   -1    0    0    0  501  0.00000000000E+00  0.00000000000E+00  0.95660005864E+03  0.95660005864E+03  0.25500000920E-02 0. -1.
        2   -1    0    0  501    0  0.00000000000E+00  0.00000000000E+00 -0.28435313225E+04  0.28435313225E+04  0.25500000920E-02 0.  1.
    10030    2    1    2    0    0  0.00000000000E+00  0.00000000000E+00 -0.18869312639E+04  0.38001313812E+04  0.32985586124E+04 0.  0.
        5    1    3    3  502    0  0.59586307424E+03  0.27875124926E+03  0.79890382950E+03  0.10349031264E+04  0.46999998093E+01 0. -1.
       -5    1    3    3    0  502 -0.59586307424E+03 -0.27875124926E+03 -0.26858350934E+04  0.27652282548E+04  0.46999998093E+01 0.  1.
</event>
<event>
 5   0  0.2875829E-07  0.3297964E+04  0.7818609E-02  0.8163414E-01
       -2   -1    0    0    0  501  0.00000000000E+00  0.00000000000E+00  0.15414591986E+04  0.15414591986E+04  0.25500000920E-02 0.  1.
        2   -1    0    0  501    0  0.00000000000E+00  0.00000000000E+00 -0.17640045637E+04  0.17640045637E+04  0.25500000920E-02 0. -1.
    10030    2    1    2    0    0  0.00000000000E+00  0.00000000000E+00 -0.22254536504E+03  0.33054637623E+04  0.32979636512E+04 0.  0.
        3    1    3    3  502    0  0.14551777747E+04  0.47550007881E+03 -0.72544546111E+03  0.16940819957E+04  0.10100000352E+00 0. -1.
       -3    1    3    3    0  502 -0.14551777747E+04 -0.47550007881E+03  0.50290009607E+03  0.16113817666E+04  0.10100000352E+00 0.  1.
</event>
<event>
 5   0  0.8805125E-08  0.3286653E+04  0.7818609E-02  0.8166300E-01
        1   -1    0    0  501    0  0.00000000000E+00  0.00000000000E+00  0.11942789897E+04  0.11942789897E+04  0.50400001928E-02 0. -1.
       -1   -1    0    0    0  501  0.00000000000E+00  0.00000000000E+00 -0.22612149964E+04  0.22612149964E+04  0.50400001928E-02 0.  1.
    10030    2    1    2    0    0  0.00000000000E+00  0.00000000000E+00 -0.10669360068E+04  0.34554939861E+04  0.32866527418E+04 0.  0.
        4    1    3    3  502    0  0.65745174588E+03 -0.15029780948E+04 -0.43189222733E+03  0.16963839366E+04  0.12699999809E+01 0.  1.
       -4    1    3    3    0  502 -0.65745174588E+03  0.15029780948E+04 -0.63504377944E+03  0.17591100495E+04  0.12699999809E+01 0. -1.
</event>
<event>
 5   0  0.9283910E-08  0.3304120E+04  0.7818609E-02  0.8161848E-01
       -1   -1    0    0    0  501  0.00000000000E+00  0.00000000000E+00  0.13870613370E+04  0.13870613370E+04  0.50400001928E-02 0. -1.
        1   -1    0    0  501    0  0.00000000000E+00  0.00000000000E+00 -0.19676869527E+04  0.19676869527E+04  0.50400001928E-02 0.  1.
    10030    2    1    2    0    0  0.00000000000E+00  0.00000000000E+00 -0.58062561567E+03  0.33547482897E+04  0.33041201524E+04 0.  0.
        3    1    3    3  502    0 -0.55164242610E+02 -0.86235051705E+03 -0.17199402025E+04  0.19248079952E+04  0.10100000352E+00 0.  1.
       -3    1    3    3    0  502  0.55164242610E+02  0.86235051705E+03  0.11393145868E+04  0.14299402945E+04  0.10100000352E+00 0. -1.
</event>
<event>
 5   0  0.9454010E-08  0.3297238E+04  0.7818609E-02  0.8163598E-01
       -1   -1    0    0    0  501  0.00000000000E+00  0.00000000000E+00  0.18941045946E+04  0.18941045946E+04  0.50400001928E-02 0. -1.
        1   -1    0    0  501    0  0.00000000000E+00  0.00000000000E+00 -0.14349499969E+04  0.14349499969E+04  0.50400001928E-02 0.  1.
    10030    2    1    2    0    0  0.00000000000E+00  0.00000000000E+00  0.45915459772E+03  0.33290545915E+04  0.32972384700E+04 0.  0.
        2    1    3    3  502    0  0.32552689001E+03 -0.12944203835E+04 -0.74746567625E+03  0.15297701862E+04  0.25500000920E-02 0.  1.
       -2    1    3    3    0  502 -0.32552689001E+03  0.12944203835E+04  0.12066202740E+04  0.17992844053E+04  0.25500000920E-02 0. -1.
</event>
<event>
 5   0  0.9181760E-08  0.3299473E+04  0.7818609E-02  0.8163030E-01
        1   -1    0    0  501    0  0.00000000000E+00  0.00000000000E+00  0.15971239686E+04  0.15971239686E+04  0.50400001928E-02 0. -1.
       -1   -1    0    0    0  501  0.00000000000E+00  0.00000000000E+00 -0.17040820089E+04  0.17040820089E+04  0.50400001928E-02 0.  1.
    10030    2    1    2    0    0  0.00000000000E+00  0.00000000000E+00 -0.10695804030E+03  0.33012059776E+04  0.32994728191E+04 0.  0.
        1    1    3    3  502    0 -0.39132751154E+02 -0.70343556138E+03 -0.15459989284E+04  0.16989601666E+04  0.50400001928E-02 0.  1.
       -1    1    3    3    0  502  0.39132751154E+02  0.70343556138E+03  0.14390408881E+04  0.16022458110E+04  0.50400001928E-02 0. -1.
</event>
<event>
 5   0  0.2824402E-07  0.3299697E+04  0.7818609E-02  0.8162972E-01
        2   -1    0    0  501    0  0.00000000000E+00  0.00000000000E+00  0.18657064646E+04  0.18657064646E+04  0.25500000920E-02 0. -1.
       -2   -1    0    0    0  501  0.00000000000E+00  0.00000000000E+00 -0.14589649682E+04  0.14589649682E+04  0.25500000920E-02 0.  1.
    10030    2    1    2    0    0  0.00000000000E+00  0.00000000000E+00  0.40674149638E+03  0.33246714328E+04  0.32996971817E+04 0.  0.
        1    1    3    3  502    0  0.10919497902E+04  0.21131892332E+02 -0.10425967555E+04  0.15099036048E+04  0.50400001928E-02 0. -1.
       -1    1    3    3    0  502 -0.10919497902E+04 -0.21131892332E+02  0.14493382519E+04  0.18147678280E+04  0.50400001928E-02 0.  1.
</event>
<event>
 5   0  0.9283910E-08  0.3288075E+04  0.7818609E-02  0.8165936E-01
        1   -1    0    0  501    0  0.00000000000E+00  0.00000000000E+00  0.15422896476E+04  0.15422896476E+04  0.50400001928E-02 0.  1.
       -1   -1    0    0    0  501  0.00000000000E+00  0.00000000000E+00 -0.17524983244E+04  0.17524983244E+04  0.50400001928E-02 0. -1.
    10030    2    1    2    0    0  0.00000000000E+00  0.00000000000E+00 -0.21020867679E+03  0.32947879720E+04  0.32880754390E+04 0.  0.
        3    1    3    3  502    0  0.93014338864E+03 -0.46565432868E+02  0.12524769544E+04  0.15607798034E+04  0.10100000352E+00 0.  1.
       -3    1    3    3    0  502 -0.93014338864E+03  0.46565432868E+02 -0.14626856312E+04  0.17340081687E+04  0.10100000352E+00 0. -1.
</event>
<event>
 5   0  0.2727168E-07  0.3297574E+04  0.7818609E-02  0.8163513E-01
        2   -1    0    0  501    0  0.00000000000E+00  0.00000000000E+00  0.17893406347E+04  0.17893406347E+04  0.25500000920E-02 0.  1.
       -2   -1    0    0    0  501  0.00000000000E+00  0.00000000000E+00 -0.15192743828E+04  0.15192743828E+04  0.25500000920E-02 0. -1.
    10030    2    1    2    0    0  0.00000000000E+00  0.00000000000E+00  0.27006625191E+03  0.33086150175E+04  0.32975744955E+04 0.  0.
        2    1    3    3  502    0 -0.80659736264E+03  0.10377883908E+04  0.11338031833E+04  0.17358322810E+04  0.25500000920E-02 0.  1.
       -2    1    3    3    0  502  0.80659736264E+03 -0.10377883908E+04 -0.86373693136E+03  0.15727827364E+04  0.25500000920E-02 0. -1.
</event>
<event>
 5   0  0.9810351E-08  0.3299861E+04  0.7818609E-02  0.8162931E-01
       -1   -1    0    0    0  501  0.00000000000E+00  0.00000000000E+00  0.16777035200E+04  0.16777035200E+04  0.50400001928E-02 0. -1.
        1   -1    0    0  501    0  0.00000000000E+00  0.00000000000E+00 -0.16226167521E+04  0.16226167521E+04  0.50400001928E-02 0.  1.
    10030    2    1    2    0    0  0.00000000000E+00  0.00000000000E+00  0.55086767923E+02  0.33003202721E+04  0.32998605041E+04 0.  0.
        5    1    3    3  502    0 -0.43940565028E+03  0.10777341084E+04 -0.11420893575E+04  0.16306373982E+04  0.46999998093E+01 0.  1.
       -5    1    3    3    0  502  0.43940565028E+03 -0.10777341084E+04  0.11971761254E+04  0.16696828739E+04  0.46999998093E+01 0. -1.
</event>
<event>
 5   0  0.2713815E-07  0.3293606E+04  0.7818609E-02  0.8164524E-01
        2   -1    0    0  501    0  0.00000000000E+00  0.00000000000E+00  0.16014058513E+04  0.16014058513E+04  0.25500000920E-02 0.  1.
       -2   -1    0    0    0  501  0.00000000000E+00  0.00000000000E+00 -0.16934868144E+04  0.16934868144E+04  0.25500000920E-02 0. -1.
    10030    2    1    2    0    0  0.00000000000E+00  0.00000000000E+00 -0.92080963139E+02  0.32948926657E+04  0.32936057407E+04 0.  0.
        4    1    3    3  502    0  0.54749460201E+03 -0.70961043965E+02  0.15060721978E+04  0.16040701003E+04  0.12699999809E+01 0.  1.
       -4    1    3    3    0  502 -0.54749460201E+03  0.70961043965E+02 -0.15981531609E+04  0.16908225654E+04  0.12699999809E+01 0. -1.
</event>
<event>
 5   0  0.2824402E-07  0.3261504E+04  0.7818609E-02  0.8172760E-01
        2   -1    0    0  501    0  0.00000000000E+00  0.00000000000E+00  0.19980934550E+04  0.19980934550E+04  0.25500000920E-02 0.  1.
       -2   -1    0    0    0  501  0.00000000000E+00  0.00000000000E+00 -0.13309451525E+04  0.13309451525E+04  0.25500000920E-02 0. -1.
    10030    2    1    2    0    0  0.00000000000E+00  0.00000000000E+00  0.66714830250E+03  0.33290386074E+04  0.32615044370E+04 0.  0.
        1    1    3    3  502    0 -0.69869471519E+03  0.49345465572E+02  0.18367332678E+04  0.19657564389E+04  0.50400001928E-02 0.  1.
       -1    1    3    3    0  502  0.69869471519E+03 -0.49345465572E+02 -0.11695849653E+04  0.13632821685E+04  0.50400001928E-02 0. -1.
</event>
<event>
 5   0  0.2824402E-07  0.3276230E+04  0.7818609E-02  0.8168970E-01
       -2   -1    0    0    0  501  0.00000000000E+00  0.00000000000E+00  0.14015037140E+04  0.14015037140E+04  0.25500000920E-02 0. -1.
        2   -1    0    0  501    0  0.00000000000E+00  0.00000000000E+00 -0.19146721359E+04  0.19146721359E+04  0.25500000920E-02 0.  1.
    10030    2    1    2    0    0  0.00000000000E+00  0.00000000000E+00 -0.51316842194E+03  0.33161758499E+04  0.32762296071E+04 0.  0.
        1    1    3    3  502    0 -0.67668662494E+03 -0.91142185779E+03  0.93884307257E+03  0.14730990823E+04  0.50400001928E-02 0. -1.
       -1    1    3    3    0  502  0.67668662494E+03  0.91142185779E+03 -0.14520114945E+04  0.18430767676E+04  0.50400001928E-02 0.  1.
</event>
<event>
 5   0  0.8805125E-08  0.3305615E+04  0.7818609E-02  0.8161468E-01
        1   -1    0    0  501    0  0.00000000000E+00  0.00000000000E+00  0.16839103733E+04  0.16839103733E+04  0.50400001928E-02 0.  1.
       -1   -1    0    0    0  501  0.00000000000E+00  0.00000000000E+00 -0.16222791063E+04  0.16222791063E+04  0.50400001928E-02 0. -1.
    10030    2    1    2    0    0  0.00000000000E+00  0.00000000000E+00  0.61631267055E+02  0.33061894796E+04  0.33056149899E+04 0.  0.
        4    1    3    3  502    0  0.47562637976E+03 -0.10834828899E+04  0.11849725836E+04  0.16746095851E+04  0.12699999809E+01 0.  1.
       -4    1    3    3    0  502 -0.47562637976E+03  0.10834828899E+04 -0.11233413165E+04  0.16315798945E+04  0.12699999809E+01 0. -1.
</event>
<event>
 5   0  0.2713815E-07  0.3303226E+04  0.7818609E-02  0.8162075E-01
       -2   -1    0    0    0  501  0.00000000000E+00  0.00000000000E+00  0.12943821560E+04  0.12943821560E+04  0.25500000920E-02 0. -1.
        2   -1    0    0  501    0  0.00000000000E+00  0.00000000000E+00 -0.21074343679E+04  0.21074343679E+04  0.25500000920E-02 0.  1.
    10030    2    1    2    0    0  0.00000000000E+00  0.00000000000E+00 -0.81305221196E+03  0.34018165239E+04  0.33032259630E+04 0.  0.
        4    1    3    3  502    0 -0.12207860230E+04  0.56145595550E+03  0.58248743603E+03  0.14645287740E+04  0.12699999809E+01 0. -1.
       -4    1    3    3    0  502  0.12207860230E+04 -0.56145595550E+03 -0.13955396480E+04  0.19372877499E+04  0.12699999809E+01 0.  1.
</event>
<event>
 5   0  0.2713815E-07  0.3301380E+04  0.7818609E-02  0.8162544E-01
        2   -1    0    0  501    0  0.00000000000E+00  0.00000000000E+00  0.17179694255E+04  0.17179694255E+04  0.25500000920E-02 0. -1.
       -2   -1    0    0    0  501  0.00000000000E+00  0.00000000000E+00 -0.15860450641E+04  0.15860450641E+04  0.25500000920E-02 0.  1.
    10030    2    1    2    0    0  0.00000000000E+00  0.00000000000E+00  0.13192436148E+03  0.33040144896E+04  0.33013796677E+04 0.  0.
        4    1    3    3  502    0 -0.15598775716E+04 -0.53699720550E+03  0.12249866033E+03  0.16542646620E+04  0.12699999809E+01 0.  1.
       -4    1    3    3    0  502  0.15598775716E+04  0.53699720550E+03  0.94257011466E+01  0.16497498277E+04  0.12699999809E+01 0. -1.
</event>
<event>
 5   0  0.9454010E-08  0.3301647E+04  0.7818609E-02  0.8162477E-01
        1   -1    0    0  501    0  0.00000000000E+00  0.00000000000E+00  0.17985079434E+04  0.17985079434E+04  0.50400001928E-02 0. -1.
       -1   -1    0    0    0  501  0.00000000000E+00  0.00000000000E+00 -0.15152658621E+04  0.15152658621E+04  0.50400001928E-02 0.  1.
    10030    2    1    2    0    0  0.00000000000E+00  0.00000000000E+00  0.28324208129E+03  0.33137738056E+04  0.33016466737E+04 0.  0.
        2    1    3    3  502    0 -0.92661632264E+03 -0.13646704446E+04  0.20724052049E+03  0.16624956737E+04  0.25500000920E-02 0.  1.
       -2    1    3    3    0  502  0.92661632264E+03  0.13646704446E+04  0.76001560796E+02  0.16512781319E+04  0.25500000920E-02 0. -1.
</event>
<event>
 5   0  0.2824402E-07  0.3304632E+04  0.7818609E-02  0.8161718E-01
       -2   -1    0    0    0  501  0.00000000000E+00  0.00000000000E+00  0.11220645877E+04  0.11220645877E+04  0.25500000920E-02 0.  1.
        2   -1    0    0  501    0  0.00000000000E+00  0.00000000000E+00 -0.24331466195E+04  0.24331466195E+04  0.25500000920E-02 0. -1.
    10030    2    1    2    0    0  0.00000000000E+00  0.00000000000E+00 -0.13110820317E+04  0.35552112072E+04  0.33046316941E+04 0.  0.
        1    1    3    3  502    0 -0.25439679041E+03  0.82446095397E+03 -0.21715386083E+04  0.23366714615E+04  0.50400001928E-02 0. -1.
       -1    1    3    3    0  502  0.25439679041E+03 -0.82446095397E+03  0.86045657658E+03  0.12185397457E+04  0.50400001928E-02 0.  1.
</event>
<event>
 5   0  0.9810351E-08  0.3303146E+04  0.7818609E-02  0.8162095E-01
       -1   -1    0    0    0  501  0.00000000000E+00  0.00000000000E+00  0.10606306869E+04  0.10606306869E+04  0.50400001928E-02 0. -1.
        1   -1    0    0  501    0  0.00000000000E+00  0.00000000000E+00 -0.25717659189E+04  0.25717659189E+04  0.50400001928E-02 0.  1.
    10030    2    1    2    0    0  0.00000000000E+00  0.00000000000E+00 -0.15111352320E+04  0.36323966058E+04  0.33031462899E+04 0.  0.
        5    1    3    3  502    0  0.78616012457E+03 -0.11231178579E+04  0.25722923834E+03  0.13948585717E+04  0.46999998093E+01 0. -1.
       -5    1    3    3    0  502 -0.78616012457E+03  0.11231178579E+04 -0.17683644703E+04  0.22375380341E+04  0.46999998093E+01 0.  1.
</event>
<event>
 5   0  0.9810351E-08  0.3299575E+04  0.7818609E-02  0.8163004E-01
        1   -1    0    0  501    0  0.00000000000E+00  0.00000000000E+00  0.10362766393E+04  0.10362766394E+04  0.50400001928E-02 0.  1.
       -1   -1    0    0    0  501  0.00000000000E+00  0.00000000000E+00 -0.26265175831E+04  0.26265175831E+04  0.50400001928E-02 0. -1.
    10030    2    1    2    0    0  0.00000000000E+00  0.00000000000E+00 -0.15902409437E+04  0.36627942224E+04  0.32995750115E+04 0.  0.
        5    1    3    3  502    0 -0.17590730425E+03  0.94391609772E+03 -0.22843902069E+04  0.24779793555E+04  0.46999998093E+01 0. -1.
       -5    1    3    3    0  502  0.17590730425E+03 -0.94391609772E+03  0.69414926317E+03  0.11848148669E+04  0.46999998093E+01 0.  1.
</event>
<event>
 5   0  0.9810351E-08  0.3298719E+04  0.7818609E-02  0.8163221E-01
       -1   -1    0    0    0  501  0.00000000000E+00  0.00000000000E+00  0.14460270915E+04  0.14460270915E+04  0.50400001928E-02 0.  1.
        1   -1    0    0  501    0  0.00000000000E+00  0.00000000000E+00 -0.18812835646E+04  0.18812835646E+04  0.50400001928E-02 0. -1.
    10030    2    1    2    0    0  0.00000000000E+00  0.00000000000E+00 -0.43525647304E+03  0.33273106561E+04  0.32987191461E+04 0.  0.
        5    1    3    3  502    0 -0.37981491839E+03 -0.40388824271E+03 -0.17844689764E+04  0.18686189292E+04  0.46999998093E+01 0. -1.
       -5    1    3    3    0  502  0.37981491839E+03  0.40388824271E+03  0.13492125034E+04  0.14586917269E+04  0.46999998093E+01 0.  1.
</event>
<event>
 5   0  0.9454010E-08  0.3286462E+04  0.7818609E-02  0.8166349E-01
        1   -1    0    0  501    0  0.00000000000E+00  0.00000000000E+00  0.20568702935E+04  0.20568702935E+04  0.50400001928E-02 0. -1.
       -1   -1    0    0    0  501  0.00000000000E+00  0.00000000000E+00 -0.13127748016E+04  0.13127748016E+04  0.50400001928E-02 0.  1.
    10030    2    1    2    0    0  0.00000000000E+00  0.00000000000E+00  0.74409549193E+03  0.33696450951E+04  0.32864616179E+04 0.  0.
        2    1    3    3  502    0 -0.33577435465E+03 -0.82233122060E+03 -0.10454180178E+04  0.13718133567E+04  0.25500000920E-02 0.  1.
       -2    1    3    3    0  502  0.33577435465E+03  0.82233122060E+03  0.17895135097E+04  0.19978317384E+04  0.25500000920E-02 0. -1.
</event>
<event>
 5   0  0.2875829E-07  0.3296752E+04  0.7818609E-02  0.8163722E-01
       -2   -1    0    0    0  501  0.00000000000E+00  0.00000000000E+00  0.18222208869E+04  0.18222208869E+04  0.25500000920E-02 0.  1.
        2   -1    0    0  501    0  0.00000000000E+00  0.00000000000E+00 -0.14911162376E+04  0.14911162376E+04  0.25500000920E-02 0. -1.
    10030    2    1    2    0    0  0.00000000000E+00  0.00000000000E+00  0.33110464928E+03  0.33133371245E+04  0.32967518275E+04 0.  0.
        3    1    3    3  502    0 -0.41520099276E+03 -0.14781871252E+04  0.76833130922E+03  0.17169047884E+04  0.10100000352E+00 0.  1.
       -3    1    3    3    0  502  0.41520099276E+03  0.14781871252E+04 -0.43722665994E+03  0.15964323361E+04  0.10100000352E+00 0. -1.
</event>
<event>
 5   0  0.2703956E-07  0.3372012E+04  0.7818609E-02  0.8144810E-01
       -2   -1    0    0    0  501  0.00000000000E+00  0.00000000000E+00  0.14281343662E+04  0.14281343662E+04  0.25500000920E-02 0. -1.
        2   -1    0    0  501    0  0.00000000000E+00  0.00000000000E+00 -0.19904407740E+04  0.19904407740E+04  0.25500000920E-02 0.  1.
    10030    2    1    2    0    0  0.00000000000E+00  0.00000000000E+00 -0.56230640773E+03  0.34185751402E+04  0.33720123803E+04 0.  0.
        5    1    3    3  502    0 -0.16359392158E+03  0.11971281970E+03  0.14157275882E+04  0.14301751027E+04  0.46999998093E+01 0. -1.
       -5    1    3    3    0  502  0.16359392158E+03 -0.11971281970E+03 -0.19780339959E+04  0.19884000375E+04  0.46999998093E+01 0.  1.
</event>
<event>
 5   0  0.2727168E-07  0.3296120E+04  0.7818609E-02  0.8163883E-01
        2   -1    0    0  501    0  0.00000000000E+00  0.00000000000E+00  0.13659580940E+04  0.13659580940E+04  0.25500000920E-02 0. -1.
       -2   -1    0    0    0  501  0.00000000000E+00  0.00000000000E+00 -0.19884230504E+04  0.19884230504E+04  0.25500000920E-02 0.  1.
    10030    2    1    2    0    0  0.00000000000E+00  0.00000000000E+00 -0.62246495632E+03  0.33543811444E+04  0.32961204832E+04 0.  0.
        2    1    3    3  502    0  0.13165901616E+04  0.99061099205E+03 -0.27338960192E+03  0.16701681549E+04  0.25500000920E-02 0. -1.
       -2    1    3    3    0  502 -0.13165901616E+04 -0.99061099205E+03 -0.34907535440E+03  0.16842129895E+04  0.25500000920E-02 0.  1.
</event>
<event>
 5   0  0.8805125E-08  0.3302747E+04  0.7818609E-02  0.8162197E-01
       -1   -1    0    0    0  501  0.00000000000E+00  0.00000000000E+00  0.11924475978E+04  0.11924475978E+04  0.50400001928E-02 0. -1.
        1   -1    0    0  501    0  0.00000000000E+00  0.00000000000E+00 -0.22869223191E+04  0.22869223191E+04  0.50400001928E-02 0.  1.
    10030    2    1    2    0    0  0.00000000000E+00  0.00000000000E+00 -0.10944747213E+04  0.34793699169E+04  0.33027473569E+04 0.  0.
        4    1    3    3  502    0 -0.15987830222E+04 -0.15527438109E+03 -0.95089403016E+03  0.18666596784E+04  0.12699999809E+01 0. -1.
       -4    1    3    3    0  502  0.15987830222E+04  0.15527438109E+03 -0.14358069115E+03  0.16127102385E+04  0.12699999809E+01 0.  1.
</event>
<event>
 5   0  0.2824402E-07  0.3296434E+04  0.7818609E-02  0.8163803E-01
        2   -1    0    0  501    0  0.00000000000E+00  0.00000000000E+00  0.83638174828E+03  0.83638174828E+03  0.25500000920E-02 0. -1.
       -2   -1    0    0    0  501  0.00000000000E+00  0.00000000000E+00 -0.32480604971E+04  0.32480604971E+04  0.25500000920E-02 0.  1.
    10030    2    1    2    0    0  0.00000000000E+00  0.00000000000E+00 -0.24116787488E+04  0.40844422454E+04  0.32964335377E+04 0.  0.
        1    1    3    3  502    0 -0.60680964487E+03 -0.27812981151E+02  0.69262732749E+03  0.92126224379E+03  0.50400001928E-02 0. -1.
       -1    1    3    3    0  502  0.60680964487E+03  0.27812981151E+02 -0.31043060763E+04  0.31631800016E+04  0.50400001928E-02 0.  1.
</event>
<event>
 5   0  0.9454010E-08  0.3306653E+04  0.7818609E-02  0.8161205E-01
       -1   -1    0    0    0  501  0.00000000000E+00  0.00000000000E+00  0.13021862968E+04  0.13021862968E+04  0.50400001928E-02 0.  1.
        1   -1    0    0  501    0  0.00000000000E+00  0.00000000000E+00 -0.20991528246E+04  0.20991528246E+04  0.50400001928E-02 0. -1.
    10030    2    1    2    0    0  0.00000000000E+00  0.00000000000E+00 -0.79696652782E+03  0.34013391214E+04  0.33066527142E+04 0.  0.
        2    1    3    3  502    0  0.15924254234E+04  0.37533144580E+03 -0.64362585420E+03  0.17581088315E+04  0.25500000920E-02 0. -1.
       -2    1    3    3    0  502 -0.15924254234E+04 -0.37533144580E+03 -0.15334067361E+03  0.16432302899E+04  0.25500000920E-02 0.  1.
</event>
<event>
 5   0  0.9181760E-08  0.3347631E+04  0.7818609E-02  0.8150880E-01
       -1   -1    0    0    0  501  0.00000000000E+00  0.00000000000E+00  0.16330739189E+04  0.16330739189E+04  0.50400001928E-02 0. -1.
        1   -1    0    0  501    0  0.00000000000E+00  0.00000000000E+00 -0.17155734642E+04  0.17155734642E+04  0.50400001928E-02 0.  1.
    10030    2    1    2    0    0  0.00000000000E+00  0.00000000000E+00 -0.82499545249E+02  0.33486473831E+04  0.33476309715E+04 0.  0.
        1    1    3    3  502    0 -0.77066285149E+03  0.86454898480E+03  0.11675425951E+04  0.16445430640E+04  0.50400001928E-02 0. -1.
       -1    1    3    3    0  502  0.77066285149E+03 -0.86454898480E+03 -0.12500421404E+04  0.17041043191E+04  0.50400001928E-02 0.  1.
</event>
<event>
 5   0  0.9283910E-08  0.3304816E+04  0.7818609E-02  0.8161671E-01
        1   -1    0    0  501    0  0.00000000000E+00  0.00000000000E+00  0.23150159790E+04  0.23150159790E+04  0.50400001928E-02 0.  1.
       -1   -1    0    0    0  501  0.00000000000E+00  0.00000000000E+00 -0.11794525864E+04  0.11794525864E+04  0.50400001928E-02 0. -1.
    10030    2    1    2    0    0  0.00000000000E+00  0.00000000000E+00  0.11355633927E+04  0.34944685654E+04  0.33048156281E+04 0.  0.
        3    1    3    3  502    0  0.49673079755E+02 -0.16516559051E+04  0.56343093824E+03  0.17458204592E+04  0.10100000352E+00 0.  1.
       -3    1    3    3    0  502 -0.49673079755E+02  0.16516559051E+04  0.57213245442E+03  0.17486481061E+04  0.10100000352E+00 0. -1.
</event>
<event>
 5   0  0.9454010E-08  0.3297859E+04  0.7818609E-02  0.8163440E-01
        1   -1    0    0  501    0  0.00000000000E+00  0.00000000000E+00  0.18025618131E+04  0.18025618131E+04  0.50400001928E-02 0. -1.
       -1   -1    0    0    0  501  0.00000000000E+00  0.00000000000E+00 -0.15083912477E+04  0.15083912477E+04  0.50400001928E-02 0.  1.
    10030    2    1    2    0    0  0.00000000000E+00  0.00000000000E+00  0.29417056539E+03  0.33109530608E+04  0.32978589796E+04 0.  0.
        2    1    3    3  502    0 -0.82606700493E+02 -0.12634480277E+04 -0.91344389488E+03  0.15612509518E+04  0.25500000920E-02 0.  1.
       -2    1    3    3    0  502  0.82606700493E+02  0.12634480277E+04  0.12076144603E+04  0.17497021090E+04  0.25500000920E-02 0. -1.
</event>
<event>
 5   0  0.9283910E-08  0.3298681E+04  0.7818609E-02  0.8163231E-01
       -1   -1    0    0    0  501  0.00000000000E+00  0.00000000000E+00  0.18228423577E+04  0.18228423577E+04  0.50400001928E-02 0.  1.
        1   -1    0    0  501    0  0.00000000000E+00  0.00000000000E+00 -0.14923532070E+04  0.14923532070E+04  0.50400001928E-02 0. -1.
    10030    2    1    2    0    0  0.00000000000E+00  0.00000000000E+00  0.33048915068E+03  0.33151955646E+04  0.32986813355E+04 0.  0.
        3    1    3    3  502    0 -0.13604567633E+04  0.46836261621E+03  0.97558041277E+03  0.17383795032E+04  0.10100000352E+00 0.  1.
       -3    1    3    3    0  502  0.13604567633E+04 -0.46836261621E+03 -0.64509126209E+03  0.15768160615E+04  0.10100000352E+00 0. -1.
</event>
<event>
 5   0  0.9181760E-08  0.3278003E+04  0.7818609E-02  0.8168515E-01
       -1   -1    0    0    0  501  0.00000000000E+00  0.00000000000E+00  0.11784525159E+04  0.11784525159E+04  0.50400001928E-02 0.  1.
        1   -1    0    0  501    0  0.00000000000E+00  0.00000000000E+00 -0.22795366132E+04  0.22795366132E+04  0.50400001928E-02 0. -1.
    10030    2    1    2    0    0  0.00000000000E+00  0.00000000000E+00 -0.11010840973E+04  0.34579891290E+04  0.32780028413E+04 0.  0.
        1    1    3    3  502    0  0.28008646521E+03 -0.14652110249E+04 -0.12668185760E+04  0.19570695133E+04  0.50400001928E-02 0. -1.
       -1    1    3    3    0  502 -0.28008646521E+03  0.14652110249E+04  0.16573447872E+03  0.15009196157E+04  0.50400001928E-02 0.  1.
</event>
<event>
 5   0  0.9454010E-08  0.3293952E+04  0.7818609E-02  0.8164436E-01
        1   -1    0    0  501    0  0.00000000000E+00  0.00000000000E+00  0.25498912178E+04  0.25498912178E+04  0.50400001928E-02 0.  1.
       -1   -1    0    0    0  501  0.00000000000E+00  0.00000000000E+00 -0.10637826210E+04  0.10637826210E+04  0.50400001928E-02 0. -1.
    10030    2    1    2    0    0  0.00000000000E+00  0.00000000000E+00  0.14861085968E+04  0.36136738389E+04  0.32939520112E+04 0.  0.
        2    1    3    3  502    0 -0.69725372744E+03 -0.14229242912E+04  0.12357000508E+04  0.20094354716E+04  0.25500000920E-02 0.  1.
       -2    1    3    3    0  502  0.69725372744E+03  0.14229242912E+04  0.25040854593E+03  0.16042383672E+04  0.25500000920E-02 0. -1.
</event>
<event>
 5   0  0.2727168E-07  0.3301101E+04  0.7818609E-02  0.8162615E-01
       -2   -1    0    0    0  501  0.00000000000E+00  0.00000000000E+00  0.27412128996E+04  0.27412128996E+04  0.25500000920E-02 0.  1.
        2   -1    0    0  501    0  0.00000000000E+00  0.00000000000E+00 -0.99383650853E+03  0.99383650854E+03  0.25500000920E-02 0. -1.
    10030    2    1    2    0    0  0.00000000000E+00  0.00000000000E+00  0.17473763911E+04  0.37350494082E+04  0.33011013055E+04 0.  0.
        2    1    3    3  502    0 -0.17488009650E+03 -0.10941268566E+04  0.22578708148E+04  0.25150899075E+04  0.25500000920E-02 0.  1.
       -2    1    3    3    0  502  0.17488009650E+03  0.10941268566E+04 -0.51049442373E+03  0.12199595006E+04  0.25500000920E-02 0. -1.
</event>
<event>
 5   0  0.9454010E-08  0.3303282E+04  0.7818609E-02  0.8162061E-01
        1   -1    0    0  501    0  0.00000000000E+00  0.00000000000E+00  0.14955573648E+04  0.14955573648E+04  0.50400001928E-02 0. -1.
       -1   -1    0    0    0  501  0.00000000000E+00  0.00000000000E+00 -0.18240144427E+04  0.18240144427E+04  0.50400001928E-02 0.  1.
    10030    2    1    2    0    0  0.00000000000E+00  0.00000000000E+00 -0.32845707792E+03  0.33195718075E+04  0.33032821455E+04 0.  0.
        2    1    3    3  502    0  0.11899092121E+04  0.11310435620E+04  0.17702234270E+02  0.16417846513E+04  0.25500000920E-02 0. -1.
       -2    1    3    3    0  502 -0.11899092121E+04 -0.11310435620E+04 -0.34615931219E+03  0.16777871562E+04  0.25500000920E-02 0.  1.
</event>
<event>
 5   0  0.9810351E-08  0.3303317E+04  0.7818609E-02  0.8162052E-01
        1   -1    0    0  501    0  0.00000000000E+00  0.00000000000E+00  0.17762369527E+04  0.17762369527E+04  0.50400001928E-02 0.  1.
       -1   -1    0    0    0  501  0.00000000000E+00  0.00000000000E+00 -0.15358177591E+04  0.15358177591E+04  0.50400001928E-02 0. -1.
    10030    2    1    2    0    0  0.00000000000E+00  0.00000000000E+00  0.24041919367E+03  0.33120547118E+04  0.33033172759E+04 0.  0.
        5    1    3    3  502    0 -0.11497252579E+04  0.13544234794E+03 -0.10609306847E+04  0.15702894020E+04  0.46999998093E+01 0. -1.
       -5    1    3    3    0  502  0.11497252579E+04 -0.13544234794E+03  0.13013498784E+04  0.17417653098E+04  0.46999998093E+01 0.  1.
</event>
<event>
 5   0  0.2875829E-07  0.3299221E+04  0.7818609E-02  0.8163094E-01
       -2   -1    0    0    0  501  0.00000000000E+00  0.00000000000E+00  0.15954677302E+04  0.15954677302E+04  0.25500000920E-02 0. -1.
        2   -1    0    0  501    0  0.00000000000E+00  0.00000000000E+00 -0.17055909036E+04  0.17055909036E+04  0.25500000920E-02 0.  1.
    10030    2    1    2    0    0  0.00000000000E+00  0.00000000000E+00 -0.11012317345E+03  0.33010586338E+04  0.32992212703E+04 0.  0.
        3    1    3    3  502    0  0.79128997791E+03  0.48507731558E+02 -0.15024917115E+04  0.16988155234E+04  0.10100000352E+00 0.  1.
       -3    1    3    3    0  502 -0.79128997791E+03 -0.48507731558E+02  0.13923685380E+04  0.16022431105E+04  0.10100000352E+00 0. -1.
</event>
<event>
 5   0  0.2875829E-07  0.3303039E+04  0.7818609E-02  0.8162122E-01
        2   -1    0    0  501    0  0.00000000000E+00  0.00000000000E+00  0.16501024814E+04  0.16501024814E+04  0.25500000920E-02 0. -1.
       -2   -1    0    0    0  501  0.00000000000E+00  0.00000000000E+00 -0.16529380908E+04  0.16529380908E+04  0.25500000920E-02 0.  1.
    10030    2    1    2    0    0  0.00000000000E+00  0.00000000000E+00 -0.28356094050E+01  0.33030405723E+04  0.33030393551E+04 0.  0.
        3    1    3    3  502    0 -0.93285822542E+03 -0.12655997563E+04  0.50410193927E+03  0.16510863052E+04  0.10100000352E+00 0.  1.
       -3    1    3    3    0  502  0.93285822542E+03  0.12655997563E+04 -0.50693754867E+03  0.16519542670E+04  0.10100000352E+00 0. -1.
</event>
<event>
 5   0  0.2713815E-07  0.3298449E+04  0.7818609E-02  0.8163290E-01
       -2   -1    0    0    0  501  0.00000000000E+00  0.00000000000E+00  0.22069300230E+04  0.22069300230E+04  0.25500000920E-02 0.  1.
        2   -1    0    0  501    0  0.00000000000E+00  0.00000000000E+00 -0.12324546905E+04  0.12324546905E+04  0.25500000920E-02 0. -1.
    10030    2    1    2    0    0  0.00000000000E+00  0.00000000000E+00  0.97447533255E+03  0.34393847135E+04  0.32984488830E+04 0.  0.
        4    1    3    3  502    0 -0.71667694471E+03  0.99900438916E+03 -0.65895892119E+03  0.13949423233E+04  0.12699999809E+01 0. -1.
       -4    1    3    3    0  502  0.71667694471E+03 -0.99900438916E+03  0.16334342537E+04  0.20444423902E+04  0.12699999809E+01 0.  1.
</event>
<event>
 5   0  0.2875829E-07  0.3282708E+04  0.7818609E-02  0.8167309E-01
       -2   -1    0    0    0  501  0.00000000000E+00  0.00000000000E+00  0.19729752316E+04  0.19729752316E+04  0.25500000920E-02 0.  1.
        2   -1    0    0  501    0  0.00000000000E+00  0.00000000000E+00 -0.13654724271E+04  0.13654724271E+04  0.25500000920E-02 0. -1.
    10030    2    1    2    0    0  0.00000000000E+00  0.00000000000E+00  0.60750280458E+03  0.33384476587E+04  0.32827081979E+04 0.  0.
        3    1    3    3  502    0 -0.97013801840E+03  0.27724637396E+03  0.16203415081E+04  0.19088058937E+04  0.10100000352E+00 0.  1.
       -3    1    3    3    0  502  0.97013801840E+03 -0.27724637396E+03 -0.10128387036E+04  0.14296417650E+04  0.10100000352E+00 0. -1.
</event>
<event>
 5   0  0.2824402E-07  0.3297469E+04  0.7818609E-02  0.8163540E-01
       -2   -1    0    0    0  501  0.00000000000E+00  0.00000000000E+00  0.14055840828E+04  0.14055840828E+04  0.25500000920E-02 0. -1.
        2   -1    0    0  501    0  0.00000000000E+00  0.00000000000E+00 -0.19339470656E+04  0.19339470656E+04  0.25500000920E-02 0.  1.
    10030    2    1    2    0    0  0.00000000000E+00  0.00000000000E+00 -0.52836298280E+03  0.33395311484E+04  0.32974688550E+04 0.  0.
        1    1    3    3  502    0 -0.10298250001E+04 -0.12820266265E+04 -0.14352569786E+03  0.16506760517E+04  0.50400001928E-02 0. -1.
       -1    1    3    3    0  502  0.10298250001E+04  0.12820266265E+04 -0.38483728495E+03  0.16888550967E+04  0.50400001928E-02 0.  1.
</event>
<event>
 5   0  0.2703956E-07  0.3304620E+04  0.7818609E-02  0.8161721E-01
        2   -1    0    0  501    0  0.00000000000E+00  0.00000000000E+00  0.21451767909E+04  0.21451767909E+04  0.25500000920E-02 0.  1.
       -2   -1    0    0    0  501  0.00000000000E+00  0.00000000000E+00 -0.12726822221E+04  0.12726822221E+04  0.25500000920E-02 0. -1.
    10030    2    1    2    0    0  0.00000000000E+00  0.00000000000E+00  0.87249456879E+03  0.34178590131E+04  0.33046200176E+04 0.  0.
        5    1    3    3  502    0 -0.30894445431E+03  0.14204366146E+04 -0.37617538378E+03  0.15015381651E+04  0.46999998093E+01 0. -1.
       -5    1    3    3    0  502  0.30894445431E+03 -0.14204366146E+04  0.12486699526E+04  0.19163208480E+04  0.46999998093E+01 0.  1.
</event>
<event>
 5   0  0.2703956E-07  0.3297851E+04  0.7818609E-02  0.8163442E-01
        2   -1    0    0  501    0  0.00000000000E+00  0.00000000000E+00  0.15568751893E+04  0.15568751893E+04  0.25500000920E-02 0.  1.
       -2   -1    0    0    0  501  0.00000000000E+00  0.00000000000E+00 -0.17464183436E+04  0.17464183436E+04  0.25500000920E-02 0. -1.
    10030    2    1    2    0    0  0.00000000000E+00  0.00000000000E+00 -0.18954315426E+03  0.33032935329E+04  0.32978510514E+04 0.  0.
        5    1    3    3  502    0  0.16187538868E+04  0.30247554357E+03 -0.10503678327E+02  0.16468114700E+04  0.46999998093E+01 0. -1.
       -5    1    3    3    0  502 -0.16187538868E+04 -0.30247554357E+03 -0.17903947594E+03  0.16564820628E+04  0.46999998093E+01 0.  1.
</event>
<event>
 5   0  0.9283910E-08  0.3314830E+04  0.7818609E-02  0.8159132E-01
        1   -1    0    0  501    0  0.00000000000E+00  0.00000000000E+00  0.23097292592E+04  0.23097292592E+04  0.50400001928E-02 0.  1.
       -1   -1    0    0    0  501  0.00000000000E+00  0.00000000000E+00 -0.11893273375E+04  0.11893273375E+04  0.50400001928E-02 0. -1.
    10030    2    1    2    0    0  0.00000000000E+00  0.00000000000E+00  0.11204019217E+04  0.34990565966E+04  0.33148297996E+04 0.  0.
        3    1    3    3  502    0 -0.11478929921E+04  0.18909545919E+03 -0.68591988514E+03  0.13505189791E+04  0.10100000352E+00 0. -1.
       -3    1    3    3    0  502  0.11478929921E+04 -0.18909545919E+03  0.18063218068E+04  0.21485376175E+04  0.10100000352E+00 0.  1.
</event>
<event>
 5   0  0.9181760E-08  0.3296851E+04  0.7818609E-02  0.8163697E-01
       -1   -1    0    0    0  501  0.00000000000E+00  0.00000000000E+00  0.12038378776E+04  0.12038378776E+04  0.50400001928E-02 0. -1.
        1   -1    0    0  501    0  0.00000000000E+00  0.00000000000E+00 -0.22572025335E+04  0.22572025335E+04  0.50400001928E-02 0.  1.
    10030    2    1    2    0    0  0.00000000000E+00  0.00000000000E+00 -0.10533646559E+04  0.34610404111E+04  0.32968505621E+04 0.  0.
        1    1    3    3  502    0  0.30283173344E+03 -0.11511267440E+04 -0.17238737582E+04  0.20948843820E+04  0.50400001928E-02 0.  1.
       -1    1    3    3    0  502 -0.30283173344E+03  0.11511267440E+04  0.67050910231E+03  0.13661560291E+04  0.50400001928E-02 0. -1.
</event>
<event>
 5   0  0.9283910E-08  0.3307031E+04  0.7818609E-02  0.8161109E-01
        1   -1    0    0  501    0  0.00000000000E+00  0.00000000000E+00  0.22348612969E+04  0.22348612969E+04  0.50400001928E-02 0. -1.
       -1   -1    0    0    0  501  0.00000000000E+00  0.00000000000E+00 -0.12233929027E+04  0.12233929027E+04  0.50400001928E-02 0.  1.
    10030    2    1    2    0    0  0.00000000000E+00  0.00000000000E+00  0.10114683943E+04  0.34582541996E+04  0.33070309639E+04 0.  0.
        3    1    3    3  502    0 -0.51697636088E+03 -0.19731477755E+03 -0.11236948680E+04  0.12525525321E+04  0.10100000352E+00 0.  1.
       -3    1    3    3    0  502  0.51697636088E+03  0.19731477755E+03  0.21351632623E+04  0.22057016675E+04  0.10100000352E+00 0. -1.
</event>
<event>
 5   0  0.9181760E-08  0.3261380E+04  0.7818609E-02  0.8172792E-01
       -1   -1    0    0    0  501  0.00000000000E+00  0.00000000000E+00  0.34848623986E+04  0.34848623986E+04  0.50400001928E-02 0. -1.
        1   -1    0    0  501    0  0.00000000000E+00  0.00000000000E+00 -0.76305744999E+03  0.76305745001E+03  0.50400001928E-02 0.  1.
    10030    2    1    2    0    0  0.00000000000E+00  0.00000000000E+00  0.27218049486E+04  0.42479198486E+04  0.32613802081E+04 0.  0.
        1    1    3    3  502    0  0.10090886438E+04 -0.47001965135E+03  0.29129847881E+04  0.31184385098E+04  0.50400001928E-02 0. -1.
       -1    1    3    3    0  502 -0.10090886438E+04  0.47001965135E+03 -0.19117983946E+03  0.11294813388E+04  0.50400001928E-02 0.  1.
</event>
<event>
 5   0  0.8805125E-08  0.3313577E+04  0.7818609E-02  0.8159449E-01
        1   -1    0    0  501    0  0.00000000000E+00  0.00000000000E+00  0.20217456217E+04  0.20217456217E+04  0.50400001928E-02 0.  1.
       -1   -1    0    0    0  501  0.00000000000E+00  0.00000000000E+00 -0.13577121488E+04  0.13577121488E+04  0.50400001928E-02 0. -1.
    10030    2    1    2    0    0  0.00000000000E+00  0.00000000000E+00  0.66403347289E+03  0.33794577704E+04  0.33135772768E+04 0.  0.
        4    1    3    3  502    0 -0.75272331268E+03 -0.70698517170E+03 -0.98932158172E+03  0.14300976272E+04  0.12699999809E+01 0. -1.
       -4    1    3    3    0  502  0.75272331268E+03  0.70698517170E+03  0.16533550546E+04  0.19493601432E+04  0.12699999809E+01 0.  1.
</event>
<event>
 5   0  0.2713815E-07  0.3375208E+04  0.7818609E-02  0.8144018E-01
       -2   -1    0    0    0  501  0.00000000000E+00  0.00000000000E+00  0.12657191569E+04  0.12657191569E+04  0.25500000920E-02 0.  1.
        2   -1    0    0  501    0  0.00000000000E+00  0.00000000000E+00 -0.22501094755E+04  0.22501094755E+04  0.25500000920E-02 0. -1.
    10030    2    1    2    0    0  0.00000000000E+00  0.00000000000E+00 -0.98439031864E+03  0.35158286324E+04  0.33752076488E+04 0.  0.
        4    1    3    3  502    0  0.16256705260E+02 -0.67519709530E+03 -0.21031899686E+04  0.22089737561E+04  0.12699999809E+01 0. -1.
       -4    1    3    3    0  502 -0.16256705260E+02  0.67519709530E+03  0.11187996500E+04  0.13068548763E+04  0.12699999809E+01 0.  1.
</event>
<event>
 5   0  0.2703956E-07  0.3298625E+04  0.7818609E-02  0.8163245E-01
        2   -1    0    0  501    0  0.00000000000E+00  0.00000000000E+00  0.24812443779E+04  0.24812443779E+04  0.25500000920E-02 0. -1.
       -2   -1    0    0    0  501  0.00000000000E+00  0.00000000000E+00 -0.10963176978E+04  0.10963176978E+04  0.25500000920E-02 0.  1.
    10030    2    1    2    0    0  0.00000000000E+00  0.00000000000E+00  0.13849266801E+04  0.35775620757E+04  0.32986252434E+04 0.  0.
        5    1    3    3  502    0  0.13176866086E+04  0.51421443325E+03 -0.22749520296E+03  0.14326516112E+04  0.46999998093E+01 0.  1.
       -5    1    3    3    0  502 -0.13176866086E+04 -0.51421443325E+03  0.16124218831E+04  0.21449104645E+04  0.46999998093E+01 0. -1.
</event>
<event>
 5   0  0.9181760E-08  0.3302645E+04  0.7818609E-02  0.8162223E-01
        1   -1    0    0  501    0  0.00000000000E+00  0.00000000000E+00  0.10536050357E+04  0.10536050357E+04  0.50400001928E-02 0. -1.
       -1   -1    0    0    0  501  0.00000000000E+00  0.00000000000E+00 -0.25881291844E+04  0.25881291844E+04  0.50400001928E-02 0.  1.
    10030    2    1    2    0    0  0.00000000000E+00  0.00000000000E+00 -0.15345241487E+04  0.36417342202E+04  0.33026449654E+04 0.  0.
        1    1    3    3  502    0 -0.34542731031E+03 -0.11880084712E+04 -0.19732555282E+04  0.23290387575E+04  0.50400001928E-02 0.  1.
       -1    1    3    3    0  502  0.34542731031E+03  0.11880084712E+04  0.43873137949E+03  0.13126954627E+04  0.50400001928E-02 0. -1.
</event>
<event>
 5   0  0.2875829E-07  0.3299117E+04  0.7818609E-02  0.8163120E-01
       -2   -1    0    0    0  501  0.00000000000E+00  0.00000000000E+00  0.12608802441E+04  0.12608802441E+04  0.25500000920E-02 0.  1.
        2   -1    0    0  501    0  0.00000000000E+00  0.00000000000E+00 -0.21580499536E+04  0.21580499536E+04  0.25500000920E-02 0. -1.
    10030    2    1    2    0    0  0.00000000000E+00  0.00000000000E+00 -0.89716970953E+03  0.34189301977E+04  0.32991165801E+04 0.  0.
        3    1    3    3  502    0  0.44040137095E+03  0.10898342477E+04  0.75074789164E+03  0.13947453036E+04  0.10100000352E+00 0.  1.
       -3    1    3    3    0  502 -0.44040137095E+03 -0.10898342477E+04 -0.16479176012E+04  0.20241848941E+04  0.10100000352E+00 0. -1.
</event>
<event>
 5   0  0.2824402E-07  0.3314163E+04  0.7818609E-02  0.8159301E-01
        2   -1    0    0  501    0  0.00000000000E+00  0.00000000000E+00  0.16700986103E+04  0.16700986103E+04  0.25500000920E-02 0. -1.
       -2   -1    0    0    0  501  0.00000000000E+00  0.00000000000E+00 -0.16441655608E+04  0.16441655608E+04  0.25500000920E-02 0.  1.
    10030    2    1    2    0    0  0.00000000000E+00  0.00000000000E+00  0.25933049486E+02  0.33142641711E+04  0.33141627107E+04 0.  0.
        1    1    3    3  502    0  0.46993053736E+02  0.38516075081E+03 -0.15980953547E+04  0.16445260453E+04  0.50400001928E-02 0.  1.
       -1    1    3    3    0  502 -0.46993053736E+02 -0.38516075081E+03  0.16240284042E+04  0.16697381258E+04  0.50400001928E-02 0. -1.
</event>
<event>
 5   0  0.2727168E-07  0.3298797E+04  0.7818609E-02  0.8163202E-01
        2   -1    0    0  501    0  0.00000000000E+00  0.00000000000E+00  0.16447919166E+04  0.16447919166E+04  0.25500000920E-02 0.  1.
       -2   -1    0    0    0  501  0.00000000000E+00  0.00000000000E+00 -0.16540178229E+04  0.16540178229E+04  0.25500000920E-02 0. -1.
    10030    2    1    2    0    0  0.00000000000E+00  0.00000000000E+00 -0.92259062848E+01  0.32988097395E+04  0.32987968383E+04 0.  0.
        2    1    3    3  502    0 -0.32844749771E+03  0.10896478230E+04 -0.11984790078E+04  0.16527438002E+04  0.25500000920E-02 0. -1.
       -2    1    3    3    0  502  0.32844749771E+03 -0.10896478230E+04  0.11892531016E+04  0.16460659393E+04  0.25500000920E-02 0.  1.
</event>
<event>
 5   0  0.9454010E-08  0.3302986E+04  0.7818609E-02  0.8162136E-01
        1   -1    0    0  501    0  0.00000000000E+00  0.00000000000E+00  0.14856452082E+04  0.14856452082E+04  0.50400001928E-02 0. -1.
       -1   -1    0    0    0  501  0.00000000000E+00  0.00000000000E+00 -0.18358554153E+04  0.18358554153E+04  0.50400001928E-02 0.  1.
    10030    2    1    2    0    0  0.00000000000E+00  0.00000000000E+00 -0.35021020711E+03  0.33215006235E+04  0.33029864067E+04 0.  0.
        2    1    3    3  502    0 -0.15921896159E+03  0.13804501672E+04  0.72233013460E+03  0.15661271230E+04  0.25500000920E-02 0. -1.
       -2    1    3    3    0  502  0.15921896159E+03 -0.13804501672E+04 -0.10725403417E+04  0.17553735006E+04  0.25500000920E-02 0.  1.
</event>
<event>
 5   0  0.8805125E-08  0.3287834E+04  0.7818609E-02  0.8165998E-01
        1   -1    0    0  501    0  0.00000000000E+00  0.00000000000E+00  0.16244184348E+04  0.16244184348E+04  0.50400001928E-02 0.  1.
       -1   -1    0    0    0  501  0.00000000000E+00  0.00000000000E+00 -0.16636494854E+04  0.16636494854E+04  0.50400001928E-02 0. -1.
    10030    2    1    2    0    0  0.00000000000E+00  0.00000000000E+00 -0.39231050594E+02  0.32880679202E+04  0.32878338724E+04 0.  0.
        4    1    3    3  502    0 -0.11697910596E+04  0.16950447468E+03 -0.11622021687E+04  0.16576665478E+04  0.12699999809E+01 0. -1.
       -4    1    3    3    0  502  0.11697910596E+04 -0.16950447468E+03  0.11229711181E+04  0.16304013724E+04  0.12699999809E+01 0.  1.
</event>
<event>
 5   0  0.2703956E-07  0.3295676E+04  0.7818609E-02  0.8163996E-01
        2   -1    0    0  501    0  0.00000000000E+00  0.00000000000E+00  0.19835135735E+04  0.19835135735E+04  0.25500000920E-02 0.  1.
       -2   -1    0    0    0  501  0.00000000000E+00  0.00000000000E+00 -0.13689699431E+04  0.13689699431E+04  0.25500000920E-02 0. -1.
    10030    2    1    2    0    0  0.00000000000E+00  0.00000000000E+00  0.61454363037E+03  0.33524835165E+04  0.32956762364E+04 0.  0.
        5    1    3    3  502    0  0.28927337726E+03  0.77952992105E+03  0.17544687070E+04  0.19415273674E+04  0.46999998093E+01 0.  1.
       -5    1    3    3    0  502 -0.28927337726E+03 -0.77952992105E+03 -0.11399250766E+04  0.14109561492E+04  0.46999998093E+01 0. -1.
</event>
<event>
 5   0  0.9454010E-08  0.3310216E+04  0.7818609E-02  0.8160301E-01
       -1   -1    0    0    0  501  0.00000000000E+00  0.00000000000E+00  0.97498600174E+03  0.97498600176E+03  0.50400001928E-02 0.  1.
        1   -1    0    0  501    0  0.00000000000E+00  0.00000000000E+00 -0.28096630979E+04  0.28096630979E+04  0.50400001928E-02 0. -1.
    10030    2    1    2    0    0  0.00000000000E+00  0.00000000000E+00 -0.18346770962E+04  0.37846490997E+04  0.33102158178E+04 0.  0.
        2    1    3    3  502    0  0.36039604180E+03 -0.65965435280E+03 -0.26032483571E+04  0.27095998193E+04  0.25500000920E-02 0. -1.
       -2    1    3    3    0  502 -0.36039604180E+03  0.65965435280E+03  0.76857126091E+03  0.10750492804E+04  0.25500000920E-02 0.  1.
</event>
<event>
 5   0  0.9810351E-08  0.3300830E+04  0.7818609E-02  0.8162684E-01
        1   -1    0    0  501    0  0.00000000000E+00  0.00000000000E+00  0.25498530165E+04  0.25498530165E+04  0.50400001928E-02 0.  1.
       -1   -1    0    0    0  501  0.00000000000E+00  0.00000000000E+00 -0.10682457311E+04  0.10682457311E+04  0.50400001928E-02 0. -1.
    10030    2    1    2    0    0  0.00000000000E+00  0.00000000000E+00  0.14816072854E+04  0.36180987477E+04  0.33008299562E+04 0.  0.
        5    1    3    3  502    0 -0.65151684299E+03 -0.82269582092E+03 -0.65542205024E+03  0.12372965548E+04  0.46999998093E+01 0. -1.
       -5    1    3    3    0  502  0.65151684299E+03  0.82269582092E+03  0.21370293356E+04  0.23808021929E+04  0.46999998093E+01 0.  1.
</event>
<event>
 5   0  0.8805125E-08  0.3288574E+04  0.7818609E-02  0.8165809E-01
        1   -1    0    0  501    0  0.00000000000E+00  0.00000000000E+00  0.27586083990E+04  0.27586083990E+04  0.50400001928E-02 0. -1.
       -1   -1    0    0    0  501  0.00000000000E+00  0.00000000000E+00 -0.98008834614E+03  0.98008834615E+03  0.50400001928E-02 0.  1.
    10030    2    1    2    0    0  0.00000000000E+00  0.00000000000E+00  0.17785200528E+04  0.37386967451E+04  0.32885741247E+04 0.  0.
        4    1    3    3  502    0  0.12364720491E+04  0.55101622546E+03  0.19503949818E+04  0.23741365181E+04  0.12699999809E+01 0. -1.
       -4    1    3    3    0  502 -0.12364720491E+04 -0.55101622546E+03 -0.17187492893E+03  0.13645602270E+04  0.12699999809E+01 0.  1.
</event>
<event>
 5   0  0.9283910E-08  0.3296600E+04  0.7818609E-02  0.8163761E-01
        1   -1    0    0  501    0  0.00000000000E+00  0.00000000000E+00  0.90247796477E+03  0.90247796479E+03  0.50400001928E-02 0.  1.
       -1   -1    0    0    0  501  0.00000000000E+00  0.00000000000E+00 -0.30104808422E+04  0.30104808422E+04  0.50400001928E-02 0. -1.
    10030    2    1    2    0    0  0.00000000000E+00  0.00000000000E+00 -0.21080028774E+04  0.39129588070E+04  0.32965998383E+04 0.  0.
        3    1    3    3  502    0  0.55116549599E+03 -0.72747805567E+03 -0.26831707629E+04  0.28341512096E+04  0.10100000352E+00 0. -1.
       -3    1    3    3    0  502 -0.55116549599E+03  0.72747805567E+03  0.57516788553E+03  0.10788075974E+04  0.10100000352E+00 0.  1.
</event>
<event>
 5   0  0.9810351E-08  0.3299007E+04  0.7818609E-02  0.8163148E-01
       -1   -1    0    0    0  501  0.00000000000E+00  0.00000000000E+00  0.12594473027E+04  0.12594473027E+04  0.50400001928E-02 0. -1.
        1   -1    0    0  501    0  0.00000000000E+00  0.00000000000E+00 -0.21603617554E+04  0.21603617554E+04  0.50400001928E-02 0.  1.
    10030    2    1    2    0    0  0.00000000000E+00  0.00000000000E+00 -0.90091445273E+03  0.34198090581E+04  0.32990069935E+04 0.  0.
        5    1    3    3  502    0  0.15027185668E+04  0.52999071885E+03 -0.84805339277E+01  0.15934701951E+04  0.46999998093E+01 0.  1.
       -5    1    3    3    0  502 -0.15027185668E+04 -0.52999071885E+03 -0.89243391880E+03  0.18263388630E+04  0.46999998093E+01 0. -1.
</event>
<event>
 5   0  0.9181760E-08  0.3308714E+04  0.7818609E-02  0.8160682E-01
       -1   -1    0    0    0  501  0.00000000000E+00  0.00000000000E+00  0.93685627993E+03  0.93685627994E+03  0.50400001928E-02 0. -1.
        1   -1    0    0  501    0  0.00000000000E+00  0.00000000000E+00 -0.29213632077E+04  0.29213632077E+04  0.50400001928E-02 0.  1.
    10030    2    1    2    0    0  0.00000000000E+00  0.00000000000E+00 -0.19845069278E+04  0.38582194877E+04  0.33087142319E+04 0.  0.
        1    1    3    3  502    0 -0.49689048414E+03 -0.15039037793E+04 -0.43512827967E+03  0.16425478229E+04  0.50400001928E-02 0. -1.
       -1    1    3    3    0  502  0.49689048414E+03  0.15039037793E+04 -0.15493786481E+04  0.22156716648E+04  0.50400001928E-02 0.  1.
</event>
<event>
 5   0  0.2824402E-07  0.3289416E+04  0.7818609E-02  0.8165594E-01
        2   -1    0    0  501    0  0.00000000000E+00  0.00000000000E+00  0.16275257987E+04  0.16275257987E+04  0.25500000920E-02 0.  1.
       -2   -1    0    0    0  501  0.00000000000E+00  0.00000000000E+00 -0.16620720264E+04  0.16620720264E+04  0.25500000920E-02 0. -1.
    10030    2    1    2    0    0  0.00000000000E+00  0.00000000000E+00 -0.34546227738E+02  0.32895978251E+04  0.32894164238E+04 0.  0.
        1    1    3    3  502    0  0.70249365469E+03 -0.98800476926E+03 -0.11288263541E+04  0.16564720633E+04  0.50400001928E-02 0. -1.
       -1    1    3    3    0  502 -0.70249365469E+03  0.98800476926E+03  0.10942801263E+04  0.16331257618E+04  0.50400001928E-02 0.  1.
</event>
<event>
 5   0  0.9181760E-08  0.3307616E+04  0.7818609E-02  0.8160960E-01
        1   -1    0    0  501    0  0.00000000000E+00  0.00000000000E+00  0.18390928380E+04  0.18390928380E+04  0.50400001928E-02 0.  1.
       -1   -1    0    0    0  501  0.00000000000E+00  0.00000000000E+00 -0.14871900706E+04  0.14871900706E+04  0.50400001928E-02 0. -1.
    10030    2    1    2    0    0  0.00000000000E+00  0.00000000000E+00  0.35190276737E+03  0.33262829086E+04  0.33076158226E+04 0.  0.
        1    1    3    3  502    0 -0.12051099470E+04  0.64596625167E+03  0.11115341902E+04  0.17621210624E+04  0.50400001928E-02 0.  1.
       -1    1    3    3    0  502  0.12051099470E+04 -0.64596625167E+03 -0.75963142279E+03  0.15641618462E+04  0.50400001928E-02 0. -1.
</event>
<event>
 5   0  0.2713815E-07  0.3298831E+04  0.7818609E-02  0.8163193E-01
        2   -1    0    0  501    0  0.00000000000E+00  0.00000000000E+00  0.90506545842E+03  0.90506545842E+03  0.25500000920E-02 0. -1.
       -2   -1    0    0    0  501  0.00000000000E+00  0.00000000000E+00 -0.30059387035E+04  0.30059387035E+04  0.25500000920E-02 0.  1.
    10030    2    1    2    0    0  0.00000000000E+00  0.00000000000E+00 -0.21008732451E+04  0.39110041619E+04  0.32988308782E+04 0.  0.
        4    1    3    3  502    0  0.27690287843E+03 -0.36423382564E+03 -0.29291966708E+04  0.29647152027E+04  0.12699999809E+01 0.  1.
       -4    1    3    3    0  502 -0.27690287843E+03  0.36423382564E+03  0.82832342574E+03  0.94628895923E+03  0.12699999809E+01 0. -1.
</event>
<event>
 5   0  0.2703956E-07  0.3313130E+04  0.7818609E-02  0.8159562E-01
        2   -1    0    0  501    0  0.00000000000E+00  0.00000000000E+00  0.17769536684E+04  0.17769536684E+04  0.25500000920E-02 0.  1.
       -2   -1    0    0    0  501  0.00000000000E+00  0.00000000000E+00 -0.15443326833E+04  0.15443326833E+04  0.25500000920E-02 0. -1.
    10030    2    1    2    0    0  0.00000000000E+00  0.00000000000E+00  0.23262098509E+03  0.33212863516E+04  0.33131300166E+04 0.  0.
        5    1    3    3  502    0  0.10777520709E+04 -0.11012541335E+04 -0.49336050044E+03  0.16179421703E+04  0.46999998093E+01 0. -1.
       -5    1    3    3    0  502 -0.10777520709E+04  0.11012541335E+04  0.72598148554E+03  0.17033441814E+04  0.46999998093E+01 0.  1.
</event>
<event>
 5   0  0.9454010E-08  0.3296516E+04  0.7818609E-02  0.8163783E-01
       -1   -1    0    0    0  501  0.00000000000E+00  0.00000000000E+00  0.10573600433E+04  0.10573600433E+04  0.50400001928E-02 0.  1.
        1   -1    0    0  501    0  0.00000000000E+00  0.00000000000E+00 -0.25693743244E+04  0.25693743244E+04  0.50400001928E-02 0. -1.
    10030    2    1    2    0    0  0.00000000000E+00  0.00000000000E+00 -0.15120142811E+04  0.36267343677E+04  0.32965155829E+04 0.  0.
        2    1    3    3  502    0  0.15787881399E+04 -0.39449475634E+03 -0.46794762876E+03  0.16932728920E+04  0.25500000920E-02 0.  1.
       -2    1    3    3    0  502 -0.15787881399E+04  0.39449475634E+03 -0.10440666523E+04  0.19334614757E+04  0.25500000920E-02 0. -1.
</event>
<event>
 5   0  0.9181760E-08  0.3298979E+04  0.7818609E-02  0.8163155E-01
       -1   -1    0    0    0  501  0.00000000000E+00  0.00000000000E+00  0.11190376462E+04  0.11190376462E+04  0.50400001928E-02 0.  1.
        1   -1    0    0  501    0  0.00000000000E+00  0.00000000000E+00 -0.24313893761E+04  0.24313893761E+04  0.50400001928E-02 0. -1.
    10030    2    1    2    0    0  0.00000000000E+00  0.00000000000E+00 -0.13123517299E+04  0.35504270223E+04  0.32989793842E+04 0.  0.
        1    1    3    3  502    0 -0.13247896283E+04 -0.39440227036E+03  0.31253888225E+03  0.14171454629E+04  0.50400001928E-02 0.  1.
       -1    1    3    3    0  502  0.13247896283E+04  0.39440227036E+03 -0.16248906121E+04  0.21332815594E+04  0.50400001928E-02 0. -1.
</event>
<event>
 5   0  0.2727168E-07  0.3315608E+04  0.7818609E-02  0.8158935E-01
       -2   -1    0    0    0  501  0.00000000000E+00  0.00000000000E+00  0.19571008008E+04  0.19571008008E+04  0.25500000920E-02 0. -1.
        2   -1    0    0  501    0  0.00000000000E+00  0.00000000000E+00 -0.14042782864E+04  0.14042782864E+04  0.25500000920E-02 0.  1.
    10030    2    1    2    0    0  0.00000000000E+00  0.00000000000E+00  0.55282251437E+03  0.33613790872E+04  0.33156080340E+04 0.  0.
        2    1    3    3  502    0 -0.80407281872E+03 -0.69010834928E+02 -0.11916880990E+04  0.14392415080E+04  0.25500000920E-02 0.  1.
       -2    1    3    3    0  502  0.80407281872E+03  0.69010834928E+02  0.17445106133E+04  0.19221375792E+04  0.25500000920E-02 0. -1.
</event>
<event>
 5   0  0.9283910E-08  0.3300444E+04  0.7818609E-02  0.8162782E-01
        1   -1    0    0  501    0  0.00000000000E+00  0.00000000000E+00  0.18427557110E+04  0.18427557110E+04  0.50400001928E-02 0. -1.
       -1   -1    0    0    0  501  0.00000000000E+00  0.00000000000E+00 -0.14778046180E+04  0.14778046180E+04  0.50400001928E-02 0.  1.
    10030    2    1    2    0    0  0.00000000000E+00  0.00000000000E+00  0.36495109294E+03  0.33205603290E+04  0.33004441517E+04 0.  0.
        3    1    3    3  502    0  0.11435906823E+04  0.82021017731E+02  0.13765987493E+04  0.17915220408E+04  0.10100000352E+00 0. -1.
       -3    1    3    3    0  502 -0.11435906823E+04 -0.82021017731E+02 -0.10116476564E+04  0.15290382882E+04  0.10100000352E+00 0.  1.
</event>
<event>
 5   0  0.9283910E-08  0.3299170E+04  0.7818609E-02  0.8163107E-01
       -1   -1    0    0    0  501  0.00000000000E+00  0.00000000000E+00  0.99692884358E+03  0.99692884360E+03  0.50400001928E-02 0. -1.
        1   -1    0    0  501    0  0.00000000000E+00  0.00000000000E+00 -0.27295139411E+04  0.27295139411E+04  0.50400001928E-02 0.  1.
    10030    2    1    2    0    0  0.00000000000E+00  0.00000000000E+00 -0.17325850976E+04  0.37264427847E+04  0.32991703060E+04 0.  0.
        3    1    3    3  502    0  0.51905518219E+03  0.60206324722E+03  0.76632001125E+03  0.11041489056E+04  0.10100000352E+00 0. -1.
       -3    1    3    3    0  502 -0.51905518219E+03 -0.60206324722E+03 -0.24989051088E+04  0.26222938792E+04  0.10100000352E+00 0.  1.
</event>
<event>
 5   0  0.2727168E-07  0.3287064E+04  0.7818609E-02  0.8166195E-01
        2   -1    0    0  501    0  0.00000000000E+00  0.00000000000E+00  0.24585505541E+04  0.24585505541E+04  0.25500000920E-02 0. -1.
       -2   -1    0    0    0  501  0.00000000000E+00  0.00000000000E+00 -0.10986951384E+04  0.10986951384E+04  0.25500000920E-02 0.  1.
    10030    2    1    2    0    0  0.00000000000E+00  0.00000000000E+00  0.13598554157E+04  0.35572456924E+04  0.32870640646E+04 0.  0.
        2    1    3    3  502    0 -0.69135681200E+03 -0.12502939931E+04  0.15590995882E+04  0.21147105799E+04  0.25500000920E-02 0. -1.
       -2    1    3    3    0  502  0.69135681200E+03  0.12502939931E+04 -0.19924417247E+03  0.14425351126E+04  0.25500000920E-02 0.  1.
</event>
<event>
 5   0  0.9810351E-08  0.3305872E+04  0.7818609E-02  0.8161403E-01
        1   -1    0    0  501    0  0.00000000000E+00  0.00000000000E+00  0.18961235823E+04  0.18961235823E+04  0.50400001928E-02 0. -1.
       -1   -1    0    0    0  501  0.00000000000E+00  0.00000000000E+00 -0.14409380811E+04  0.14409380812E+04  0.50400001928E-02 0.  1.
    10030    2    1    2    0    0  0.00000000000E+00  0.00000000000E+00  0.45518550115E+03  0.33370616635E+04  0.33058715500E+04 0.  0.
        5    1    3    3  502    0 -0.14561371268E+04  0.38782197985E+03 -0.45810504664E+03  0.15749995378E+04  0.46999998093E+01 0.  1.
       -5    1    3    3    0  502  0.14561371268E+04 -0.38782197985E+03  0.91329054779E+03  0.17620621257E+04  0.46999998093E+01 0. -1.
</event>
<event>
 5   0  0.2875829E-07  0.3305941E+04  0.7818609E-02  0.8161385E-01
        2   -1    0    0  501    0  0.00000000000E+00  0.00000000000E+00  0.11336519590E+04  0.11336519590E+04  0.25500000920E-02 0.  1.
       -2   -1    0    0    0  501  0.00000000000E+00  0.00000000000E+00 -0.24101849196E+04  0.24101849196E+04  0.25500000920E-02 0. -1.
    10030    2    1    2    0    0  0.00000000000E+00  0.00000000000E+00 -0.12765329607E+04  0.35438368786E+04  0.33059406260E+04 0.  0.
        3    1    3    3  502    0 -0.13114054499E+04  0.11515777063E+03  0.43329988299E+03  0.13859272582E+04  0.10100000352E+00 0.  1.
       -3    1    3    3    0  502  0.13114054499E+04 -0.11515777063E+03 -0.17098328436E+04  0.21579096204E+04  0.10100000352E+00 0. -1.
</event>
<event>
 5   0  0.2875829E-07  0.3299989E+04  0.7818609E-02  0.8162898E-01
        2   -1    0    0  501    0  0.00000000000E+00  0.00000000000E+00  0.18943503323E+04  0.18943503323E+04  0.25500000920E-02 0.  1.
       -2   -1    0    0    0  501  0.00000000000E+00  0.00000000000E+00 -0.14371583292E+04  0.14371583292E+04  0.25500000920E-02 0. -1.
    10030    2    1    2    0    0  0.00000000000E+00  0.00000000000E+00  0.45719200306E+03  0.33315086614E+04  0.32999887020E+04 0.  0.
        3    1    3    3  502    0 -0.83976060101E+02  0.43358328331E+03 -0.13763797793E+04  0.14454991350E+04  0.10100000352E+00 0. -1.
       -3    1    3    3    0  502  0.83976060101E+02 -0.43358328331E+03  0.18335717824E+04  0.18860095264E+04  0.10100000352E+00 0.  1.
</event>
<event>
 5   0  0.2727168E-07  0.3317512E+04  0.7818609E-02  0.8158454E-01
       -2   -1    0    0    0  501  0.00000000000E+00  0.00000000000E+00  0.15987292970E+04  0.15987292970E+04  0.25500000920E-02 0.  1.
        2   -1    0    0  501    0  0.00000000000E+00  0.00000000000E+00 -0.17210362623E+04  0.17210362623E+04  0.25500000920E-02 0. -1.
    10030    2    1    2    0    0  0.00000000000E+00  0.00000000000E+00 -0.12230696527E+03  0.33197655592E+04  0.33175117746E+04 0.  0.
        2    1    3    3  502    0 -0.72176662794E+03 -0.13463379862E+04  0.58573604019E+03  0.16360500442E+04  0.25500000920E-02 0.  1.
       -2    1    3    3    0  502  0.72176662794E+03  0.13463379862E+04 -0.70804300546E+03  0.16837155151E+04  0.25500000920E-02 0. -1.
</event>
<event>
 5   0  0.8805125E-08  0.3300810E+04  0.7818609E-02  0.8162689E-01
        1   -1    0    0  501    0  0.00000000000E+00  0.00000000000E+00  0.23851894754E+04  0.23851894754E+04  0.50400001928E-02 0.  1.
       -1   -1    0    0    0  501  0.00000000000E+00  0.00000000000E+00 -0.11419791687E+04  0.11419791687E+04  0.50400001928E-02 0. -1.
    10030    2    1    2    0    0  0.00000000000E+00  0.00000000000E+00  0.12432103067E+04  0.35271686441E+04  0.33008100184E+04 0.  0.
        4    1    3    3  502    0 -0.93509791888E+03  0.62460508148E+03 -0.66924940087E+03  0.13086007791E+04  0.12699999809E+01 0. -1.
       -4    1    3    3    0  502  0.93509791888E+03 -0.62460508148E+03  0.19124597075E+04  0.22185678650E+04  0.12699999809E+01 0.  1.
</event>
<event>
 5   0  0.2824402E-07  0.3254756E+04  0.7818609E-02  0.8174504E-01
       -2   -1    0    0    0  501  0.00000000000E+00  0.00000000000E+00  0.16317750279E+04  0.16317750279E+04  0.25500000920E-02 0.  1.
        2   -1    0    0  501    0  0.00000000000E+00  0.00000000000E+00 -0.16229927878E+04  0.16229927878E+04  0.25500000920E-02 0. -1.
    10030    2    1    2    0    0  0.00000000000E+00  0.00000000000E+00  0.87822401641E+01  0.32547678157E+04  0.32547559673E+04 0.  0.
        1    1    3    3  502    0  0.68014222342E+03 -0.14134701915E+04  0.43782974679E+03  0.16285534420E+04  0.50400001928E-02 0.  1.
       -1    1    3    3    0  502 -0.68014222342E+03  0.14134701915E+04 -0.42904750663E+03  0.16262143737E+04  0.50400001928E-02 0. -1.
</event>
<event>
 5   0  0.2727168E-07  0.3304191E+04  0.7818609E-02  0.8161830E-01
       -2   -1    0    0    0  501  0.00000000000E+00  0.00000000000E+00  0.26012391897E+04  0.26012391897E+04  0.25500000920E-02 0.  1.
        2   -1    0    0  501    0  0.00000000000E+00  0.00000000000E+00 -0.10492766210E+04  0.10492766210E+04  0.25500000920E-02 0. -1.
    10030    2    1    2    0    0  0.00000000000E+00  0.00000000000E+00  0.15519625687E+04  0.36505158107E+04  0.33041909553E+04 0.  0.
        2    1    3    3  502    0  0.60331166000E+03  0.10345887370E+04  0.20332674882E+04  0.23597744580E+04  0.25500000920E-02 0.  1.
       -2    1    3    3    0  502 -0.60331166000E+03 -0.10345887370E+04 -0.48130491955E+03  0.12907413527E+04  0.25500000920E-02 0. -1.
</event>
<event>
 5   0  0.2824402E-07  0.3304373E+04  0.7818609E-02  0.8161784E-01
       -2   -1    0    0    0  501  0.00000000000E+00  0.00000000000E+00  0.20180445532E+04  0.20180445532E+04  0.25500000920E-02 0. -1.
        2   -1    0    0  501    0  0.00000000000E+00  0.00000000000E+00 -0.13526559587E+04  0.13526559587E+04  0.25500000920E-02 0.  1.
    10030    2    1    2    0    0  0.00000000000E+00  0.00000000000E+00  0.66538859450E+03  0.33707005120E+04  0.33043728542E+04 0.  0.
        1    1    3    3  502    0 -0.28962527376E+03  0.13514310194E+04  0.12561116241E+04  0.18676362096E+04  0.50400001928E-02 0. -1.
       -1    1    3    3    0  502  0.28962527376E+03 -0.13514310194E+04 -0.59072302958E+03  0.15030643023E+04  0.50400001928E-02 0.  1.
</event>
<event>
 5   0  0.2875829E-07  0.3301749E+04  0.7818609E-02  0.8162450E-01
       -2   -1    0    0    0  501  0.00000000000E+00  0.00000000000E+00  0.78563708624E+03  0.78563708624E+03  0.25500000920E-02 0.  1.
        2   -1    0    0  501    0  0.00000000000E+00  0.00000000000E+00 -0.34690148805E+04  0.34690148805E+04  0.25500000920E-02 0. -1.
    10030    2    1    2    0    0  0.00000000000E+00  0.00000000000E+00 -0.26833777943E+04  0.42546519668E+04  0.33017490776E+04 0.  0.
        3    1    3    3  502    0  0.68626004203E+03 -0.47905038491E+03  0.49200377659E+03  0.97082946131E+03  0.10100000352E+00 0.  1.
       -3    1    3    3    0  502 -0.68626004203E+03  0.47905038491E+03 -0.31753815709E+04  0.32838225055E+04  0.10100000352E+00 0. -1.
</event>
<event>
 5   0  0.9454010E-08  0.3302438E+04  0.7818609E-02  0.8162275E-01
       -1   -1    0    0    0  501  0.00000000000E+00  0.00000000000E+00  0.15067826005E+04  0.15067826005E+04  0.50400001928E-02 0.  1.
        1   -1    0    0  501    0  0.00000000000E+00  0.00000000000E+00 -0.18095009335E+04  0.18095009335E+04  0.50400001928E-02 0. -1.
    10030    2    1    2    0    0  0.00000000000E+00  0.00000000000E+00 -0.30271833307E+03  0.33162835340E+04  0.33024382036E+04 0.  0.
        2    1    3    3  502    0 -0.15261325263E+04  0.62779158610E+03 -0.20923549969E+03  0.16634248578E+04  0.25500000920E-02 0.  1.
       -2    1    3    3    0  502  0.15261325263E+04 -0.62779158610E+03 -0.93482833381E+02  0.16528586762E+04  0.25500000920E-02 0. -1.
</event>
<event>
 5   0  0.2824402E-07  0.3303420E+04  0.7818609E-02  0.8162026E-01
       -2   -1    0    0    0  501  0.00000000000E+00  0.00000000000E+00  0.13136259430E+04  0.13136259430E+04  0.25500000920E-02 0.  1.
        2   -1    0    0  501    0  0.00000000000E+00  0.00000000000E+00 -0.20768055753E+04  0.20768055753E+04  0.25500000920E-02 0. -1.
    10030    2    1    2    0    0  0.00000000000E+00  0.00000000000E+00 -0.76317963237E+03  0.33904315183E+04  0.33034198536E+04 0.  0.
        1    1    3    3  502    0 -0.11343968066E+04 -0.13825006934E+03 -0.16055518567E+04  0.19707272671E+04  0.50400001928E-02 0. -1.
       -1    1    3    3    0  502  0.11343968066E+04  0.13825006934E+03  0.84237222438E+03  0.14197042512E+04  0.50400001928E-02 0.  1.
</event>
<event>
 5   0  0.2713815E-07  0.3294985E+04  0.7818609E-02  0.8164173E-01
       -2   -1    0    0    0  501  0.00000000000E+00  0.00000000000E+00  0.15746424992E+04  0.15746424992E+04  0.25500000920E-02 0. -1.
        2   -1    0    0  501    0  0.00000000000E+00  0.00000000000E+00 -0.17237132453E+04  0.17237132453E+04  0.25500000920E-02 0.  1.
    10030    2    1    2    0    0  0.00000000000E+00  0.00000000000E+00 -0.14907074607E+03  0.32983557444E+04  0.32949853610E+04 0.  0.
        4    1    3    3  502    0  0.87508909803E+03 -0.60933691747E+03 -0.13316695172E+04  0.17059946438E+04  0.12699999809E+01 0.  1.
       -4    1    3    3    0  502 -0.87508909803E+03  0.60933691747E+03  0.11825987712E+04  0.15923611007E+04  0.12699999809E+01 0. -1.
</event>
<event>
 5   0  0.9181760E-08  0.3306344E+04  0.7818609E-02  0.8161283E-01
        1   -1    0    0  501    0  0.00000000000E+00  0.00000000000E+00  0.11302572841E+04  0.11302572841E+04  0.50400001928E-02 0. -1.
       -1   -1    0    0    0  501  0.00000000000E+00  0.00000000000E+00 -0.24180141104E+04  0.24180141104E+04  0.50400001928E-02 0.  1.
    10030    2    1    2    0    0  0.00000000000E+00  0.00000000000E+00 -0.12877568264E+04  0.35482713946E+04  0.33063442418E+04 0.  0.
        1    1    3    3  502    0  0.72657025120E+03  0.11358613646E+03  0.94505635087E+03  0.11974713553E+04  0.50400001928E-02 0. -1.
       -1    1    3    3    0  502 -0.72657025120E+03 -0.11358613646E+03 -0.22328131772E+04  0.23508000393E+04  0.50400001928E-02 0.  1.
</event>
<event>
 5   0  0.9454010E-08  0.3300610E+04  0.7818609E-02  0.8162740E-01
        1   -1    0    0  501    0  0.00000000000E+00  0.00000000000E+00  0.21183048121E+04  0.21183048122E+04  0.50400001928E-02 0.  1.
       -1   -1    0    0    0  501  0.00000000000E+00  0.00000000000E+00 -0.12857008336E+04  0.12857008336E+04  0.50400001928E-02 0. -1.
    10030    2    1    2    0    0  0.00000000000E+00  0.00000000000E+00  0.83260397853E+03  0.34040056458E+04  0.33006097999E+04 0.  0.
        2    1    3    3  502    0 -0.49333525698E+02 -0.35989661656E+03 -0.12439561676E+04  0.12959113852E+04  0.25500000920E-02 0. -1.
       -2    1    3    3    0  502  0.49333525698E+02  0.35989661656E+03  0.20765601461E+04  0.21080942606E+04  0.25500000920E-02 0.  1.
</event>
<event>
 5   0  0.9810351E-08  0.3290749E+04  0.7818609E-02  0.8165253E-01
        1   -1    0    0  501    0  0.00000000000E+00  0.00000000000E+00  0.16007743239E+04  0.16007743239E+04  0.50400001928E-02 0.  1.
       -1   -1    0    0    0  501  0.00000000000E+00  0.00000000000E+00 -0.16912174819E+04  0.16912174819E+04  0.50400001928E-02 0. -1.
    10030    2    1    2    0    0  0.00000000000E+00  0.00000000000E+00 -0.90443157998E+02  0.32919918058E+04  0.32907491677E+04 0.  0.
        5    1    3    3  502    0  0.80190165199E+03 -0.18028895310E+03 -0.14711317258E+04  0.16851709144E+04  0.46999998093E+01 0. -1.
       -5    1    3    3    0  502 -0.80190165199E+03  0.18028895310E+03  0.13806885678E+04  0.16068208915E+04  0.46999998093E+01 0.  1.
</event>
<event>
 5   0  0.9283910E-08  0.3365834E+04  0.7818609E-02  0.8146343E-01
       -1   -1    0    0    0  501  0.00000000000E+00  0.00000000000E+00  0.17369770563E+04  0.17369770563E+04  0.50400001928E-02 0. -1.
        1   -1    0    0  501    0  0.00000000000E+00  0.00000000000E+00 -0.16305393169E+04  0.16305393169E+04  0.50400001928E-02 0.  1.
    10030    2    1    2    0    0  0.00000000000E+00  0.00000000000E+00  0.10643773942E+03  0.33675163733E+04  0.33658338539E+04 0.  0.
        3    1    3    3  502    0 -0.19813501336E+03  0.12973438360E+04  0.11072400870E+04  0.17170728385E+04  0.10100000352E+00 0. -1.
       -3    1    3    3    0  502  0.19813501336E+03 -0.12973438360E+04 -0.10008023476E+04  0.16504435348E+04  0.10100000352E+00 0.  1.
</event>
<event>
 5   0  0.2713815E-07  0.3309136E+04  0.7818609E-02  0.8160574E-01
       -2   -1    0    0    0  501  0.00000000000E+00  0.00000000000E+00  0.13160674315E+04  0.13160674315E+04  0.25500000920E-02 0.  1.
        2   -1    0    0  501    0  0.00000000000E+00  0.00000000000E+00 -0.20801335998E+04  0.20801335998E+04  0.25500000920E-02 0. -1.
    10030    2    1    2    0    0  0.00000000000E+00  0.00000000000E+00 -0.76406616825E+03  0.33962010313E+04  0.33091364939E+04 0.  0.
        4    1    3    3  502    0 -0.43427149402E+03  0.14810251570E+04 -0.99401638181E+03  0.18357825106E+04  0.12699999809E+01 0. -1.
       -4    1    3    3    0  502  0.43427149402E+03 -0.14810251570E+04  0.22995021356E+03  0.15604185207E+04  0.12699999809E+01 0.  1.
</event>
<event>
 5   0  0.9181760E-08  0.3302130E+04  0.7818609E-02  0.8162354E-01
       -1   -1    0    0    0  501  0.00000000000E+00  0.00000000000E+00  0.15827549656E+04  0.15827549657E+04  0.50400001928E-02 0. -1.
        1   -1    0    0  501    0  0.00000000000E+00  0.00000000000E+00 -0.17223236202E+04  0.17223236202E+04  0.50400001928E-02 0.  1.
    10030    2    1    2    0    0  0.00000000000E+00  0.00000000000E+00 -0.13956865451E+03  0.33050785858E+04  0.33021303804E+04 0.  0.
        1    1    3    3  502    0  0.14723702586E+04 -0.36203914687E+03  0.58430486579E+03  0.16249180590E+04  0.50400001928E-02 0. -1.
       -1    1    3    3    0  502 -0.14723702586E+04  0.36203914687E+03 -0.72387352030E+03  0.16801605268E+04  0.50400001928E-02 0.  1.
</event>
<event>
 5   0  0.2703956E-07  0.3298666E+04  0.7818609E-02  0.8163235E-01
        2   -1    0    0  501    0  0.00000000000E+00  0.00000000000E+00  0.18877131917E+04  0.18877131917E+04  0.25500000920E-02 0. -1.
       -2   -1    0    0    0  501  0.00000000000E+00  0.00000000000E+00 -0.14410556783E+04  0.14410556783E+04  0.25500000920E-02 0.  1.
    10030    2    1    2    0    0  0.00000000000E+00  0.00000000000E+00  0.44665751341E+03  0.33287688700E+04  0.32986662844E+04 0.  0.
        5    1    3    3  502    0  0.86722897636E+03  0.59754785647E+02  0.16377691486E+04  0.18541754518E+04  0.46999998093E+01 0. -1.
       -5    1    3    3    0  502 -0.86722897636E+03 -0.59754785647E+02 -0.11911116352E+04  0.14745934183E+04  0.46999998093E+01 0.  1.
</event>
<event>
 5   0  0.2703956E-07  0.3299716E+04  0.7818609E-02  0.8162968E-01
       -2   -1    0    0    0  501  0.00000000000E+00  0.00000000000E+00  0.16558243943E+04  0.16558243943E+04  0.25500000920E-02 0.  1.
        2   -1    0    0  501    0  0.00000000000E+00  0.00000000000E+00 -0.16439134982E+04  0.16439134982E+04  0.25500000920E-02 0. -1.
    10030    2    1    2    0    0  0.00000000000E+00  0.00000000000E+00  0.11910896067E+02  0.32997378926E+04  0.32997163954E+04 0.  0.
        5    1    3    3  502    0  0.42104871336E+03 -0.15655138591E+03  0.15934857516E+04  0.16555993737E+04  0.46999998093E+01 0.  1.
       -5    1    3    3    0  502 -0.42104871336E+03  0.15655138591E+03 -0.15815748556E+04  0.16441385189E+04  0.46999998093E+01 0. -1.
</event>
<event>
 5   0  0.2703956E-07  0.3295904E+04  0.7818609E-02  0.8163938E-01
        2   -1    0    0  501    0  0.00000000000E+00  0.00000000000E+00  0.21531430604E+04  0.21531430604E+04  0.25500000920E-02 0. -1.
       -2   -1    0    0    0  501  0.00000000000E+00  0.00000000000E+00 -0.12612934307E+04  0.12612934307E+04  0.25500000920E-02 0.  1.
    10030    2    1    2    0    0  0.00000000000E+00  0.00000000000E+00  0.89184962966E+03  0.34144364911E+04  0.32959036378E+04 0.  0.
        5    1    3    3  502    0 -0.84340312097E+03 -0.11056488061E+04  0.13619973444E+04  0.19464960732E+04  0.46999998093E+01 0.  1.
       -5    1    3    3    0  502  0.84340312097E+03  0.11056488061E+04 -0.47014771472E+03  0.14679404179E+04  0.46999998093E+01 0. -1.
</event>
<event>
 5   0  0.2727168E-07  0.3300046E+04  0.7818609E-02  0.8162884E-01
       -2   -1    0    0    0  501  0.00000000000E+00  0.00000000000E+00  0.21157329608E+04  0.21157329608E+04  0.25500000920E-02 0.  1.
        2   -1    0    0  501    0  0.00000000000E+00  0.00000000000E+00 -0.12868238056E+04  0.12868238056E+04  0.25500000920E-02 0. -1.
    10030    2    1    2    0    0  0.00000000000E+00  0.00000000000E+00  0.82890915517E+03  0.34025567664E+04  0.33000457816E+04 0.  0.
        2    1    3    3  502    0 -0.64311078516E+03 -0.22564823646E+03  0.19638198589E+04  0.20787248608E+04  0.25500000920E-02 0.  1.
       -2    1    3    3    0  502  0.64311078516E+03  0.22564823646E+03 -0.11349107038E+04  0.13238319055E+04  0.25500000920E-02 0. -1.
</event>
<event>
 5   0  0.8805125E-08  0.3303214E+04  0.7818609E-02  0.8162078E-01
       -1   -1    0    0    0  501  0.00000000000E+00  0.00000000000E+00  0.18793316267E+04  0.18793316267E+04  0.50400001928E-02 0. -1.
        1   -1    0    0  501    0  0.00000000000E+00  0.00000000000E+00 -0.14514761006E+04  0.14514761006E+04  0.50400001928E-02 0.  1.
    10030    2    1    2    0    0  0.00000000000E+00  0.00000000000E+00  0.42785552608E+03  0.33308077273E+04  0.33032135513E+04 0.  0.
        4    1    3    3  502    0 -0.69138748923E+03  0.13371732220E+04 -0.47127397078E+03  0.15773869704E+04  0.12699999809E+01 0. -1.
       -4    1    3    3    0  502  0.69138748923E+03 -0.13371732220E+04  0.89912949686E+03  0.17534207570E+04  0.12699999809E+01 0.  1.
</event>
<event>
 5   0  0.2824402E-07  0.3296918E+04  0.7818609E-02  0.8163680E-01
        2   -1    0    0  501    0  0.00000000000E+00  0.00000000000E+00  0.23832226046E+04  0.23832226046E+04  0.25500000920E-02 0. -1.
       -2   -1    0    0    0  501  0.00000000000E+00  0.00000000000E+00 -0.11402281262E+04  0.11402281262E+04  0.25500000920E-02 0.  1.
    10030    2    1    2    0    0  0.00000000000E+00  0.00000000000E+00  0.12429944784E+04  0.35234507308E+04  0.32969182245E+04 0.  0.
        1    1    3    3  502    0 -0.29727186786E+03  0.49919120304E+03  0.22701730976E+04  0.23433412713E+04  0.50400001928E-02 0. -1.
       -1    1    3    3    0  502  0.29727186786E+03 -0.49919120304E+03 -0.10271786192E+04  0.11801094595E+04  0.50400001928E-02 0.  1.
</event>
<event>
 5   0  0.2703956E-07  0.3278080E+04  0.7818609E-02  0.8168496E-01
        2   -1    0    0  501    0  0.00000000000E+00  0.00000000000E+00  0.19753379076E+04  0.19753379076E+04  0.25500000920E-02 0. -1.
       -2   -1    0    0    0  501  0.00000000000E+00  0.00000000000E+00 -0.13599958855E+04  0.13599958855E+04  0.25500000920E-02 0.  1.
    10030    2    1    2    0    0  0.00000000000E+00  0.00000000000E+00  0.61534202217E+03  0.33353337931E+04  0.32780795761E+04 0.  0.
        5    1    3    3  502    0 -0.11548768877E+04 -0.84052920624E+03 -0.51023438793E+03  0.15167699869E+04  0.46999998093E+01 0.  1.
       -5    1    3    3    0  502  0.11548768877E+04  0.84052920624E+03  0.11255764101E+04  0.18185638062E+04  0.46999998093E+01 0. -1.
</event>
<event>
 5   0  0.2713815E-07  0.3295069E+04  0.7818609E-02  0.8164151E-01
       -2   -1    0    0    0  501  0.00000000000E+00  0.00000000000E+00  0.15735058890E+04  0.15735058890E+04  0.25500000920E-02 0.  1.
        2   -1    0    0  501    0  0.00000000000E+00  0.00000000000E+00 -0.17250460653E+04  0.17250460653E+04  0.25500000920E-02 0. -1.
    10030    2    1    2    0    0  0.00000000000E+00  0.00000000000E+00 -0.15154017627E+03  0.32985519544E+04  0.32950691299E+04 0.  0.
        4    1    3    3  502    0 -0.11240140488E+04  0.11163241862E+04 -0.52877603466E+03  0.16700877158E+04  0.12699999809E+01 0. -1.
       -4    1    3    3    0  502  0.11240140488E+04 -0.11163241862E+04  0.37723585839E+03  0.16284642386E+04  0.12699999809E+01 0.  1.
</event>
<event>
 5   0  0.2703956E-07  0.3303416E+04  0.7818609E-02  0.8162027E-01
       -2   -1    0    0    0  501  0.00000000000E+00  0.00000000000E+00  0.86855506808E+03  0.86855506809E+03  0.25500000920E-02 0.  1.
        2   -1    0    0  501    0  0.00000000000E+00  0.00000000000E+00 -0.31410094576E+04  0.31410094576E+04  0.25500000920E-02 0. -1.
    10030    2    1    2    0    0  0.00000000000E+00  0.00000000000E+00 -0.22724543895E+04  0.40095645257E+04  0.33034162216E+04 0.  0.
        5    1    3    3  502    0  0.11005848435E+03 -0.49016643347E+03 -0.30460213776E+04  0.30871741650E+04  0.46999998093E+01 0. -1.
       -5    1    3    3    0  502 -0.11005848435E+03  0.49016643347E+03  0.77356698805E+03  0.92239036068E+03  0.46999998093E+01 0.  1.
</event>
<event>
 5   0  0.2703956E-07  0.3322207E+04  0.7818609E-02  0.8157268E-01
        2   -1    0    0  501    0  0.00000000000E+00  0.00000000000E+00  0.15343699315E+04  0.15343699315E+04  0.25500000920E-02 0.  1.
       -2   -1    0    0    0  501  0.00000000000E+00  0.00000000000E+00 -0.17983046958E+04  0.17983046958E+04  0.25500000920E-02 0. -1.
    10030    2    1    2    0    0  0.00000000000E+00  0.00000000000E+00 -0.26393476424E+03  0.33326746273E+04  0.33222068887E+04 0.  0.
        5    1    3    3  502    0 -0.44503509014E+03 -0.12312443513E+04 -0.11575504935E+04  0.17475594751E+04  0.46999998093E+01 0. -1.
       -5    1    3    3    0  502  0.44503509014E+03  0.12312443513E+04  0.89361572929E+03  0.15851151522E+04  0.46999998093E+01 0.  1.
</event>
<event>
 5   0  0.8805125E-08  0.3281843E+04  0.7818609E-02  0.8167531E-01
        1   -1    0    0  501    0  0.00000000000E+00  0.00000000000E+00  0.14897499840E+04  0.14897499841E+04  0.50400001928E-02 0. -1.
       -1   -1    0    0    0  501  0.00000000000E+00  0.00000000000E+00 -0.18074332535E+04  0.18074332536E+04  0.50400001928E-02 0.  1.
    10030    2    1    2    0    0  0.00000000000E+00  0.00000000000E+00 -0.31768326951E+03  0.32971832376E+04  0.32818431776E+04 0.  0.
        4    1    3    3  502    0 -0.39871109121E+03 -0.97474338897E+03  0.11054229519E+04  0.15267798545E+04  0.12699999809E+01 0. -1.
       -4    1    3    3    0  502  0.39871109121E+03  0.97474338897E+03 -0.14231062214E+04  0.17704033831E+04  0.12699999809E+01 0.  1.
</event>
<event>
 5   0  0.9283910E-08  0.3287630E+04  0.7818609E-02  0.8166050E-01
        1   -1    0    0  501    0  0.00000000000E+00  0.00000000000E+00  0.23247492445E+04  0.23247492445E+04  0.50400001928E-02 0.  1.
       -1   -1    0    0    0  501  0.00000000000E+00  0.00000000000E+00 -0.11623311448E+04  0.11623311448E+04  0.50400001928E-02 0. -1.
    10030    2    1    2    0    0  0.00000000000E+00  0.00000000000E+00  0.11624180998E+04  0.34870803893E+04  0.32876304237E+04 0.  0.
        3    1    3    3  502    0 -0.12114381558E+04 -0.66066973367E+03  0.15287481915E+04  0.20594023273E+04  0.10100000352E+00 0.  1.
       -3    1    3    3    0  502  0.12114381558E+04  0.66066973367E+03 -0.36633009174E+03  0.14276780620E+04  0.10100000352E+00 0. -1.
</event>
<event>
 5   0  0.9810351E-08  0.3302827E+04  0.7818609E-02  0.8162176E-01
       -1   -1    0    0    0  501  0.00000000000E+00  0.00000000000E+00  0.22966780533E+04  0.22966780533E+04  0.50400001928E-02 0. -1.
        1   -1    0    0  501    0  0.00000000000E+00  0.00000000000E+00 -0.11874397109E+04  0.11874397110E+04  0.50400001928E-02 0.  1.
    10030    2    1    2    0    0  0.00000000000E+00  0.00000000000E+00  0.11092383424E+04  0.34841177643E+04  0.33028271065E+04 0.  0.
        5    1    3    3  502    0  0.86163000427E+03 -0.97667421757E+03  0.16256546255E+04  0.20830443690E+04  0.46999998093E+01 0. -1.
       -5    1    3    3    0  502 -0.86163000427E+03  0.97667421757E+03 -0.51641628317E+03  0.14010733953E+04  0.46999998093E+01 0.  1.
</event>
<event>
 5   0  0.2824402E-07  0.3297312E+04  0.7818609E-02  0.8163580E-01
       -2   -1    0    0    0  501  0.00000000000E+00  0.00000000000E+00  0.30246347328E+04  0.30246347328E+04  0.25500000920E-02 0. -1.
        2   -1    0    0  501    0  0.00000000000E+00  0.00000000000E+00 -0.89864310485E+03  0.89864310485E+03  0.25500000920E-02 0.  1.
    10030    2    1    2    0    0  0.00000000000E+00  0.00000000000E+00  0.21259916280E+04  0.39232778377E+04  0.32973123282E+04 0.  0.
        1    1    3    3  502    0 -0.12079055136E+04  0.10673344490E+04  0.14748743932E+04  0.21848324951E+04  0.50400001928E-02 0. -1.
       -1    1    3    3    0  502  0.12079055136E+04 -0.10673344490E+04  0.65111723484E+03  0.17384453426E+04  0.50400001928E-02 0.  1.
</event>
<event>
 5   0  0.2703956E-07  0.3305304E+04  0.7818609E-02  0.8161547E-01
        2   -1    0    0  501    0  0.00000000000E+00  0.00000000000E+00  0.14474266763E+04  0.14474266763E+04  0.25500000920E-02 0.  1.
       -2   -1    0    0    0  501  0.00000000000E+00  0.00000000000E+00 -0.18869749676E+04  0.18869749676E+04  0.25500000920E-02 0. -1.
    10030    2    1    2    0    0  0.00000000000E+00  0.00000000000E+00 -0.43954829128E+03  0.33344016439E+04  0.33053035598E+04 0.  0.
        5    1    3    3  502    0 -0.97880542364E+03 -0.12941554456E+04  0.96574522891E+02  0.16254990321E+04  0.46999998093E+01 0. -1.
       -5    1    3    3    0  502  0.97880542364E+03  0.12941554456E+04 -0.53612281417E+03  0.17089026118E+04  0.46999998093E+01 0.  1.
</event>
<event>
 5   0  0.9810351E-08  0.3295998E+04  0.7818609E-02  0.8163914E-01
       -1   -1    0    0    0  501  0.00000000000E+00  0.00000000000E+00  0.23206779318E+04  0.23206779318E+04  0.50400001928E-02 0. -1.
        1   -1    0    0  501    0  0.00000000000E+00  0.00000000000E+00 -0.11703051710E+04  0.11703051710E+04  0.50400001928E-02 0.  1.
    10030    2    1    2    0    0  0.00000000000E+00  0.00000000000E+00  0.11503727608E+04  0.34909831028E+04  0.32959984125E+04 0.  0.
        5    1    3    3  502    0 -0.15802525366E+04  0.33421713000E+03  0.22875892650E+03  0.16313343943E+04  0.46999998093E+01 0.  1.
       -5    1    3    3    0  502  0.15802525366E+04 -0.33421713000E+03  0.92161383432E+03  0.18596487085E+04  0.46999998093E+01 0. -1.
</event>
<event>
 5   0  0.9181760E-08  0.3301840E+04  0.7818609E-02  0.8162427E-01
        1   -1    0    0  501    0  0.00000000000E+00  0.00000000000E+00  0.10338769866E+04  0.10338769866E+04  0.50400001928E-02 0.  1.
       -1   -1    0    0    0  501  0.00000000000E+00  0.00000000000E+00 -0.26362300483E+04  0.26362300484E+04  0.50400001928E-02 0. -1.
    10030    2    1    2    0    0  0.00000000000E+00  0.00000000000E+00 -0.16023530618E+04  0.36701070350E+04  0.33018404434E+04 0.  0.
        1    1    3    3  502    0  0.12682335001E+03  0.11471924081E+04  0.51090558897E+03  0.12622040659E+04  0.50400001928E-02 0.  1.
       -1    1    3    3    0  502 -0.12682335001E+03 -0.11471924081E+04 -0.21132586507E+04  0.24079029690E+04  0.50400001928E-02 0. -1.
</event>
<event>
 5   0  0.2713815E-07  0.3301546E+04  0.7818609E-02  0.8162502E-01
       -2   -1    0    0    0  501  0.00000000000E+00  0.00000000000E+00  0.13173228555E+04  0.13173228555E+04  0.25500000920E-02 0. -1.
        2   -1    0    0  501    0  0.00000000000E+00  0.00000000000E+00 -0.20686288218E+04  0.20686288218E+04  0.25500000920E-02 0.  1.
    10030    2    1    2    0    0  0.00000000000E+00  0.00000000000E+00 -0.75130596632E+03  0.33859516773E+04  0.33015463204E+04 0.  0.
        4    1    3    3  502    0 -0.11900946011E+03  0.56805906243E+03 -0.19605401545E+04  0.20446451184E+04  0.12699999809E+01 0.  1.
       -4    1    3    3    0  502  0.11900946011E+03 -0.56805906243E+03  0.12092341882E+04  0.13413065588E+04  0.12699999809E+01 0. -1.
</event>
<event>
 5   0  0.9181760E-08  0.3294921E+04  0.7818609E-02  0.8164189E-01
       -1   -1    0    0    0  501  0.00000000000E+00  0.00000000000E+00  0.17423574212E+04  0.17423574212E+04  0.50400001928E-02 0. -1.
        1   -1    0    0  501    0  0.00000000000E+00  0.00000000000E+00 -0.15577317494E+04  0.15577317494E+04  0.50400001928E-02 0.  1.
    10030    2    1    2    0    0  0.00000000000E+00  0.00000000000E+00  0.18462567177E+03  0.33000891706E+04  0.32949206204E+04 0.  0.
        1    1    3    3  502    0  0.87491508449E+03 -0.67310176909E+03  0.13171715320E+04  0.17185701153E+04  0.50400001928E-02 0. -1.
       -1    1    3    3    0  502 -0.87491508449E+03  0.67310176909E+03 -0.11325458602E+04  0.15815190552E+04  0.50400001928E-02 0.  1.
</event>
<event>
 5   0  0.2713815E-07  0.3302600E+04  0.7818609E-02  0.8162234E-01
       -2   -1    0    0    0  501  0.00000000000E+00  0.00000000000E+00  0.13980218963E+04  0.13980218963E+04  0.25500000920E-02 0.  1.
        2   -1    0    0  501    0  0.00000000000E+00  0.00000000000E+00 -0.19504637571E+04  0.19504637571E+04  0.25500000920E-02 0. -1.
    10030    2    1    2    0    0  0.00000000000E+00  0.00000000000E+00 -0.55244186079E+03  0.33484856534E+04  0.33025996066E+04 0.  0.
        4    1    3    3  502    0 -0.81668008886E+03  0.13619606947E+04 -0.73515340836E+03  0.17499586990E+04  0.12699999809E+01 0. -1.
       -4    1    3    3    0  502  0.81668008886E+03 -0.13619606947E+04  0.18271154757E+03  0.15985269544E+04  0.12699999809E+01 0.  1.
</event>
<event>
 5   0  0.2824402E-07  0.3303600E+04  0.7818609E-02  0.8161980E-01
       -2   -1    0    0    0  501  0.00000000000E+00  0.00000000000E+00  0.22238019876E+04  0.22238019876E+04  0.25500000920E-02 0.  1.
        2   -1    0    0  501    0  0.00000000000E+00  0.00000000000E+00 -0.12269271424E+04  0.12269271424E+04  0.25500000920E-02 0. -1.
    10030    2    1    2    0    0  0.00000000000E+00  0.00000000000E+00  0.99687484524E+03  0.34507291301E+04  0.33035998656E+04 0.  0.
        1    1    3    3  502    0 -0.11396210552E+04 -0.70119082174E+03  0.15100954123E+04  0.20176205967E+04  0.50400001928E-02 0.  1.
       -1    1    3    3    0  502  0.11396210552E+04  0.70119082174E+03 -0.51322056705E+03  0.14331085334E+04  0.50400001928E-02 0. -1.
</event>
<event>
 5   0  0.9454010E-08  0.3298162E+04  0.7818609E-02  0.8163363E-01
       -1   -1    0    0    0  501  0.00000000000E+00  0.00000000000E+00  0.11489194130E+04  0.11489194130E+04  0.50400001928E-02 0. -1.
        1   -1    0    0  501    0  0.00000000000E+00  0.00000000000E+00 -0.23669794881E+04  0.23669794881E+04  0.50400001928E-02 0.  1.
    10030    2    1    2    0    0  0.00000000000E+00  0.00000000000E+00 -0.12180600752E+04  0.35158989011E+04  0.32981623271E+04 0.  0.
        2    1    3    3  502    0 -0.70479924844E+03  0.54778091197E+03 -0.20871711992E+04  0.22700417447E+04  0.25500000920E-02 0.  1.
       -2    1    3    3    0  502  0.70479924844E+03 -0.54778091197E+03  0.86911112404E+03  0.12458571564E+04  0.25500000920E-02 0. -1.
</event>
<event>
 5   0  0.9181760E-08  0.3300012E+04  0.7818609E-02  0.8162892E-01
        1   -1    0    0  501    0  0.00000000000E+00  0.00000000000E+00  0.18825311472E+04  0.18825311472E+04  0.50400001928E-02 0.  1.
       -1   -1    0    0    0  501  0.00000000000E+00  0.00000000000E+00 -0.14462013512E+04  0.14462013512E+04  0.50400001928E-02 0. -1.
    10030    2    1    2    0    0  0.00000000000E+00  0.00000000000E+00  0.43632979598E+03  0.33287324985E+04  0.33000115690E+04 0.  0.
        1    1    3    3  502    0  0.17844239432E+02  0.29223889846E+03 -0.14197894367E+04  0.14496634213E+04  0.50400001928E-02 0. -1.
       -1    1    3    3    0  502 -0.17844239432E+02 -0.29223889846E+03  0.18561192327E+04  0.18790690771E+04  0.50400001928E-02 0.  1.
</event>
<event>
 5   0  0.2713815E-07  0.3295192E+04  0.7818609E-02  0.8164120E-01
        2   -1    0    0  501    0  0.00000000000E+00  0.00000000000E+00  0.20002113957E+04  0.20002113957E+04  0.25500000920E-02 0.  1.
       -2   -1    0    0    0  501  0.00000000000E+00  0.00000000000E+00 -0.13571429694E+04  0.13571429694E+04  0.25500000920E-02 0. -1.
    10030    2    1    2    0    0  0.00000000000E+00  0.00000000000E+00  0.64306842623E+03  0.33573543651E+04  0.32951921540E+04 0.  0.
        4    1    3    3  502    0 -0.51551231948E+03 -0.14384671010E+04  0.94929918998E+03  0.17989194304E+04  0.12699999809E+01 0.  1.
       -4    1    3    3    0  502  0.51551231948E+03  0.14384671010E+04 -0.30623076374E+03  0.15584349347E+04  0.12699999809E+01 0. -1.
</event>
<event>
 5   0  0.8805125E-08  0.3305029E+04  0.7818609E-02  0.8161617E-01
        1   -1    0    0  501    0  0.00000000000E+00  0.00000000000E+00  0.23899394114E+04  0.23899394114E+04  0.50400001928E-02 0. -1.
       -1   -1    0    0    0  501  0.00000000000E+00  0.00000000000E+00 -0.11426251483E+04  0.11426251483E+04  0.50400001928E-02 0.  1.
    10030    2    1    2    0    0  0.00000000000E+00  0.00000000000E+00  0.12473142631E+04  0.35325645597E+04  0.33050294246E+04 0.  0.
        4    1    3    3  502    0 -0.95153752961E+03  0.10260311193E+04 -0.31585695562E+03  0.14345489735E+04  0.12699999809E+01 0.  1.
       -4    1    3    3    0  502  0.95153752961E+03 -0.10260311193E+04  0.15631712188E+04  0.20980155862E+04  0.12699999809E+01 0. -1.
</event>
<event>
 5   0  0.2713815E-07  0.3300587E+04  0.7818609E-02  0.8162746E-01
        2   -1    0    0  501    0  0.00000000000E+00  0.00000000000E+00  0.21617831389E+04  0.21617831389E+04  0.25500000920E-02 0. -1.
       -2   -1    0    0    0  501  0.00000000000E+00  0.00000000000E+00 -0.12598251080E+04  0.12598251080E+04  0.25500000920E-02 0.  1.
    10030    2    1    2    0    0  0.00000000000E+00  0.00000000000E+00  0.90195803099E+03  0.34216082469E+04  0.33005870244E+04 0.  0.
        4    1    3    3  502    0 -0.14164179487E+03 -0.65402496187E+03 -0.11128612953E+04  0.12985657181E+04  0.12699999809E+01 0.  1.
       -4    1    3    3    0  502  0.14164179487E+03  0.65402496187E+03  0.20148193263E+04  0.21230425288E+04  0.12699999809E+01 0. -1.
</event>
<event>
 5   0  0.9454010E-08  0.3305018E+04  0.7818609E-02  0.8161620E-01
        1   -1    0    0  501    0  0.00000000000E+00  0.00000000000E+00  0.14746463826E+04  0.14746463826E+04  0.50400001928E-02 0.  1.
       -1   -1    0    0    0  501  0.00000000000E+00  0.00000000000E+00 -0.18518247924E+04  0.18518247924E+04  0.50400001928E-02 0. -1.
    10030    2    1    2    0    0  0.00000000000E+00  0.00000000000E+00 -0.37717840985E+03  0.33264711750E+04  0.33050184455E+04 0.  0.
        2    1    3    3  502    0  0.16265078050E+04  0.40824517053E+02  0.10241107354E+03  0.16302399544E+04  0.25500000920E-02 0.  1.
       -2    1    3    3    0  502 -0.16265078050E+04 -0.40824517053E+02 -0.47958948339E+03  0.16962312206E+04  0.25500000920E-02 0. -1.
</event>
<event>
 5   0  0.2824402E-07  0.3298699E+04  0.7818609E-02  0.8163227E-01
        2   -1    0    0  501    0  0.00000000000E+00  0.00000000000E+00  0.18517964172E+04  0.18517964172E+04  0.25500000920E-02 0.  1.
       -2   -1    0    0    0  501  0.00000000000E+00  0.00000000000E+00 -0.14690347505E+04  0.14690347505E+04  0.25500000920E-02 0. -1.
    10030    2    1    2    0    0  0.00000000000E+00  0.00000000000E+00  0.38276166672E+03  0.33208311678E+04  0.32986987057E+04 0.  0.
        1    1    3    3  502    0  0.10891497762E+04 -0.11858690484E+04  0.55129974098E+03  0.17019001262E+04  0.50400001928E-02 0.  1.
       -1    1    3    3    0  502 -0.10891497762E+04  0.11858690484E+04 -0.16853807426E+03  0.16189310416E+04  0.50400001928E-02 0. -1.
</event>
<event>
 5   0  0.9283910E-08  0.3298190E+04  0.7818609E-02  0.8163356E-01
       -1   -1    0    0    0  501  0.00000000000E+00  0.00000000000E+00  0.13025216043E+04  0.13025216043E+04  0.50400001928E-02 0. -1.
        1   -1    0    0  501    0  0.00000000000E+00  0.00000000000E+00 -0.20878842380E+04  0.20878842380E+04  0.50400001928E-02 0.  1.
    10030    2    1    2    0    0  0.00000000000E+00  0.00000000000E+00 -0.78536263370E+03  0.33904058423E+04  0.32981900050E+04 0.  0.
        3    1    3    3  502    0  0.15915710840E+04 -0.43022768081E+03 -0.35533448234E+03  0.16865518010E+04  0.10100000352E+00 0.  1.
       -3    1    3    3    0  502 -0.15915710840E+04  0.43022768081E+03 -0.43002815137E+03  0.17038540413E+04  0.10100000352E+00 0. -1.
</event>
<event>
 5   0  0.9181760E-08  0.3306513E+04  0.7818609E-02  0.8161240E-01
        1   -1    0    0  501    0  0.00000000000E+00  0.00000000000E+00  0.29654426664E+04  0.29654426665E+04  0.50400001928E-02 0. -1.
       -1   -1    0    0    0  501  0.00000000000E+00  0.00000000000E+00 -0.92170311397E+03  0.92170311398E+03  0.50400001928E-02 0.  1.
    10030    2    1    2    0    0  0.00000000000E+00  0.00000000000E+00  0.20437395525E+04  0.38871457804E+04  0.33065134145E+04 0.  0.
        1    1    3    3  502    0  0.35505605397E+03 -0.48240338572E+03  0.28333966842E+04  0.28960170231E+04  0.50400001928E-02 0. -1.
       -1    1    3    3    0  502 -0.35505605397E+03  0.48240338572E+03 -0.78965713169E+03  0.99112875737E+03  0.50400001928E-02 0.  1.
</event>
<event>
 5   0  0.9283910E-08  0.3302338E+04  0.7818609E-02  0.8162301E-01
       -1   -1    0    0    0  501  0.00000000000E+00  0.00000000000E+00  0.19788278036E+04  0.19788278036E+04  0.50400001928E-02 0. -1.
        1   -1    0    0  501    0  0.00000000000E+00  0.00000000000E+00 -0.13777648893E+04  0.13777648893E+04  0.50400001928E-02 0.  1.
    10030    2    1    2    0    0  0.00000000000E+00  0.00000000000E+00  0.60106291429E+03  0.33565926929E+04  0.33023382442E+04 0.  0.
        3    1    3    3  502    0 -0.15714187284E+04  0.46804846119E+03  0.10256697656E+03  0.16428469731E+04  0.10100000352E+00 0.  1.
       -3    1    3    3    0  502  0.15714187284E+04 -0.46804846119E+03  0.49849593773E+03  0.17137457198E+04  0.10100000352E+00 0. -1.
</event>
<event>
 5   0  0.2875829E-07  0.3295855E+04  0.7818609E-02  0.8163951E-01
       -2   -1    0    0    0  501  0.00000000000E+00  0.00000000000E+00  0.13579917702E+04  0.13579917702E+04  0.25500000920E-02 0.  1.
        2   -1    0    0  501    0  0.00000000000E+00  0.00000000000E+00 -0.19997654481E+04  0.19997654481E+04  0.25500000920E-02 0. -1.
    10030    2    1    2    0    0  0.00000000000E+00  0.00000000000E+00 -0.64177367790E+03  0.33577572183E+04  0.32958549852E+04 0.  0.
        3    1    3    3  502    0  0.20093402178E+03 -0.44107681533E+03 -0.19255060092E+04  0.19855721190E+04  0.10100000352E+00 0. -1.
       -3    1    3    3    0  502 -0.20093402178E+03  0.44107681533E+03  0.12837323313E+04  0.13721850993E+04  0.10100000352E+00 0.  1.
</event>
<event>
 5   0  0.2727168E-07  0.3299220E+04  0.7818609E-02  0.8163094E-01
        2   -1    0    0  501    0  0.00000000000E+00  0.00000000000E+00  0.19901368173E+04  0.19901368173E+04  0.25500000920E-02 0.  1.
       -2   -1    0    0    0  501  0.00000000000E+00  0.00000000000E+00 -0.13673500445E+04  0.13673500445E+04  0.25500000920E-02 0. -1.
    10030    2    1    2    0    0  0.00000000000E+00  0.00000000000E+00  0.62278677276E+03  0.33574868618E+04  0.32992203113E+04 0.  0.
        2    1    3    3  502    0  0.95391463208E+03  0.76062975221E+03  0.14412731152E+04  0.18883270209E+04  0.25500000920E-02 0.  1.
       -2    1    3    3    0  502 -0.95391463208E+03 -0.76062975221E+03 -0.81848634246E+03  0.14691598409E+04  0.25500000920E-02 0. -1.
</event>
<event>
 5   0  0.8805125E-08  0.3300330E+04  0.7818609E-02  0.8162811E-01
        1   -1    0    0  501    0  0.00000000000E+00  0.00000000000E+00  0.28442630993E+04  0.28442630993E+04  0.50400001928E-02 0. -1.
       -1   -1    0    0    0  501  0.00000000000E+00  0.00000000000E+00 -0.95738142018E+03  0.95738142019E+03  0.50400001928E-02 0.  1.
    10030    2    1    2    0    0  0.00000000000E+00  0.00000000000E+00  0.18868816791E+04  0.38016445195E+04  0.33003300716E+04 0.  0.
        4    1    3    3  502    0 -0.10152139150E+04  0.69446129787E+03  0.22105850943E+04  0.25297477857E+04  0.12699999809E+01 0. -1.
       -4    1    3    3    0  502  0.10152139150E+04 -0.69446129787E+03 -0.32370341519E+03  0.12718967337E+04  0.12699999809E+01 0.  1.
</event>
<event>
 5   0  0.2824402E-07  0.3297618E+04  0.7818609E-02  0.8163502E-01
       -2   -1    0    0    0  501  0.00000000000E+00  0.00000000000E+00  0.18859890690E+04  0.18859890690E+04  0.25500000920E-02 0. -1.
        2   -1    0    0  501    0  0.00000000000E+00  0.00000000000E+00 -0.14414563725E+04  0.14414563725E+04  0.25500000920E-02 0.  1.
    10030    2    1    2    0    0  0.00000000000E+00  0.00000000000E+00  0.44453269653E+03  0.33274454416E+04  0.32976179051E+04 0.  0.
        1    1    3    3  502    0  0.57943739764E+03  0.83109883861E+03  0.15348390413E+04  0.18390769043E+04  0.50400001928E-02 0. -1.
       -1    1    3    3    0  502 -0.57943739764E+03 -0.83109883861E+03 -0.10903063447E+04  0.14883685373E+04  0.50400001928E-02 0.  1.
</event>
<event>
 5   0  0.2703956E-07  0.3299316E+04  0.7818609E-02  0.8163070E-01
        2   -1    0    0  501    0  0.00000000000E+00  0.00000000000E+00  0.18907407067E+04  0.18907407067E+04  0.25500000920E-02 0. -1.
       -2   -1    0    0    0  501  0.00000000000E+00  0.00000000000E+00 -0.14393147196E+04  0.14393147196E+04  0.25500000920E-02 0.  1.
    10030    2    1    2    0    0  0.00000000000E+00  0.00000000000E+00  0.45142598704E+03  0.33300554263E+04  0.32993156443E+04 0.  0.
        5    1    3    3  502    0  0.70314095318E+03 -0.72031009363E+03 -0.10934048883E+04  0.14862066380E+04  0.46999998093E+01 0.  1.
       -5    1    3    3    0  502 -0.70314095318E+03  0.72031009363E+03  0.15448308753E+04  0.18438487884E+04  0.46999998093E+01 0. -1.
</event>
<event>
 5   0  0.8805125E-08  0.3303778E+04  0.7818609E-02  0.8161935E-01
       -1   -1    0    0    0  501  0.00000000000E+00  0.00000000000E+00  0.15372970781E+04  0.15372970781E+04  0.50400001928E-02 0.  1.
        1   -1    0    0  501    0  0.00000000000E+00  0.00000000000E+00 -0.17750224675E+04  0.17750224675E+04  0.50400001928E-02 0. -1.
    10030    2    1    2    0    0  0.00000000000E+00  0.00000000000E+00 -0.23772538945E+03  0.33123195456E+04  0.33037777485E+04 0.  0.
        4    1    3    3  502    0  0.10943788464E+04  0.46500673343E+03 -0.12684916105E+04  0.17386687149E+04  0.12699999809E+01 0. -1.
       -4    1    3    3    0  502 -0.10943788464E+04 -0.46500673343E+03  0.10307662210E+04  0.15736508307E+04  0.12699999809E+01 0.  1.
</event>
<event>
 5   0  0.2824402E-07  0.3301291E+04  0.7818609E-02  0.8162567E-01
        2   -1    0    0  501    0  0.00000000000E+00  0.00000000000E+00  0.30724007168E+04  0.30724007168E+04  0.25500000920E-02 0. -1.
       -2   -1    0    0    0  501  0.00000000000E+00  0.00000000000E+00 -0.88680809342E+03  0.88680809342E+03  0.25500000920E-02 0.  1.
    10030    2    1    2    0    0  0.00000000000E+00  0.00000000000E+00  0.21855926234E+04  0.39592088102E+04  0.33012905488E+04 0.  0.
        1    1    3    3  502    0  0.14883109975E+03 -0.38006264204E+03  0.30109243950E+04  0.30384640891E+04  0.50400001928E-02 0. -1.
       -1    1    3    3    0  502 -0.14883109975E+03  0.38006264204E+03 -0.82533177166E+03  0.92074472111E+03  0.50400001928E-02 0.  1.
</event>
<event>
 5   0  0.9181760E-08  0.3280743E+04  0.7818609E-02  0.8167813E-01
       -1   -1    0    0    0  501  0.00000000000E+00  0.00000000000E+00  0.11487465876E+04  0.11487465876E+04  0.50400001928E-02 0.  1.
        1   -1    0    0  501    0  0.00000000000E+00  0.00000000000E+00 -0.23423948460E+04  0.23423948461E+04  0.50400001928E-02 0. -1.
    10030    2    1    2    0    0  0.00000000000E+00  0.00000000000E+00 -0.11936482584E+04  0.34911414337E+04  0.32807426515E+04 0.  0.
        1    1    3    3  502    0  0.57454632094E+03 -0.30449977850E+03  0.10057431708E+04  0.11976405619E+04  0.50400001928E-02 0.  1.
       -1    1    3    3    0  502 -0.57454632094E+03  0.30449977850E+03 -0.21993914292E+04  0.22935008718E+04  0.50400001928E-02 0. -1.
</event>
<event>
 5   0  0.2824402E-07  0.3302614E+04  0.7818609E-02  0.8162231E-01
       -2   -1    0    0    0  501  0.00000000000E+00  0.00000000000E+00  0.11611828144E+04  0.11611828144E+04  0.25500000920E-02 0.  1.
        2   -1    0    0  501    0  0.00000000000E+00  0.00000000000E+00 -0.23483074726E+04  0.23483074726E+04  0.25500000920E-02 0. -1.
    10030    2    1    2    0    0  0.00000000000E+00  0.00000000000E+00 -0.11871246582E+04  0.35094902870E+04  0.33026136802E+04 0.  0.
        1    1    3    3  502    0 -0.97806006595E+02 -0.13336207265E+04  0.43599517607E+03  0.14064857094E+04  0.50400001928E-02 0.  1.
       -1    1    3    3    0  502  0.97806006595E+02  0.13336207265E+04 -0.16231198343E+04  0.21030045776E+04  0.50400001928E-02 0. -1.
</event>
<event>
 5   0  0.8805125E-08  0.3292804E+04  0.7818609E-02  0.8164729E-01
       -1   -1    0    0    0  501  0.00000000000E+00  0.00000000000E+00  0.29170405711E+04  0.29170405711E+04  0.50400001928E-02 0. -1.
        1   -1    0    0  501    0  0.00000000000E+00  0.00000000000E+00 -0.92924297635E+03  0.92924297637E+03  0.50400001928E-02 0.  1.
    10030    2    1    2    0    0  0.00000000000E+00  0.00000000000E+00  0.19877975947E+04  0.38462835474E+04  0.32928039495E+04 0.  0.
        4    1    3    3  502    0 -0.14909408872E+03  0.92618557748E+03 -0.58651516075E+03  0.11063681204E+04  0.12699999809E+01 0.  1.
       -4    1    3    3    0  502  0.14909408872E+03 -0.92618557748E+03  0.25743127555E+04  0.27399154270E+04  0.12699999809E+01 0. -1.
</event>
<event>
 5   0  0.2727168E-07  0.3299929E+04  0.7818609E-02  0.8162914E-01
       -2   -1    0    0    0  501  0.00000000000E+00  0.00000000000E+00  0.11027150205E+04  0.11027150205E+04  0.25500000920E-02 0. -1.
        2   -1    0    0  501    0  0.00000000000E+00  0.00000000000E+00 -0.24687995634E+04  0.24687995634E+04  0.25500000920E-02 0.  1.
    10030    2    1    2    0    0  0.00000000000E+00  0.00000000000E+00 -0.13660845428E+04  0.35715145839E+04  0.32999287030E+04 0.  0.
        2    1    3    3  502    0  0.36162185705E+03  0.98065620823E+03 -0.20647994650E+04  0.23142717638E+04  0.25500000920E-02 0.  1.
       -2    1    3    3    0  502 -0.36162185705E+03 -0.98065620823E+03  0.69871492212E+03  0.12572428201E+04  0.25500000920E-02 0. -1.
</event>
<event>
 5   0  0.2727168E-07  0.3295124E+04  0.7818609E-02  0.8164137E-01
        2   -1    0    0  501    0  0.00000000000E+00  0.00000000000E+00  0.15168412573E+04  0.15168412573E+04  0.25500000920E-02 0. -1.
       -2   -1    0    0    0  501  0.00000000000E+00  0.00000000000E+00 -0.17895482781E+04  0.17895482781E+04  0.25500000920E-02 0.  1.
    10030    2    1    2    0    0  0.00000000000E+00  0.00000000000E+00 -0.27270702079E+03  0.33063895354E+04  0.32951240706E+04 0.  0.
        2    1    3    3  502    0  0.85501100298E+03 -0.13609728466E+04  0.22705835352E+03  0.16232209955E+04  0.25500000920E-02 0. -1.
       -2    1    3    3    0  502 -0.85501100298E+03  0.13609728466E+04 -0.49976537431E+03  0.16831685399E+04  0.25500000920E-02 0.  1.
</event>
<event>
 5   0  0.8805125E-08  0.3296071E+04  0.7818609E-02  0.8163896E-01
        1   -1    0    0  501    0  0.00000000000E+00  0.00000000000E+00  0.21820631285E+04  0.21820631285E+04  0.50400001928E-02 0.  1.
       -1   -1    0    0    0  501  0.00000000000E+00  0.00000000000E+00 -0.12447034884E+04  0.12447034884E+04  0.50400001928E-02 0. -1.
    10030    2    1    2    0    0  0.00000000000E+00  0.00000000000E+00  0.93735964009E+03  0.34267666169E+04  0.32960713511E+04 0.  0.
        4    1    3    3  502    0  0.15652052764E+03  0.12432396141E+04 -0.64422197022E+03  0.14089595358E+04  0.12699999809E+01 0. -1.
       -4    1    3    3    0  502 -0.15652052764E+03 -0.12432396141E+04  0.15815816103E+04  0.20178070811E+04  0.12699999809E+01 0.  1.
</event>
<event>
 5   0  0.9810351E-08  0.3294734E+04  0.7818609E-02  0.8164237E-01
        1   -1    0    0  501    0  0.00000000000E+00  0.00000000000E+00  0.21196960455E+04  0.21196960455E+04  0.50400001928E-02 0. -1.
       -1   -1    0    0    0  501  0.00000000000E+00  0.00000000000E+00 -0.12802866565E+04  0.12802866565E+04  0.50400001928E-02 0.  1.
    10030    2    1    2    0    0  0.00000000000E+00  0.00000000000E+00  0.83940938892E+03  0.33999827020E+04  0.32947343219E+04 0.  0.
        5    1    3    3  502    0 -0.13039541789E+04  0.29490410431E+02 -0.61873615549E+03  0.14436144586E+04  0.46999998093E+01 0. -1.
       -5    1    3    3    0  502  0.13039541789E+04 -0.29490410431E+02  0.14581455444E+04  0.19563682434E+04  0.46999998093E+01 0.  1.
</event>
<event>
 5   0  0.9454010E-08  0.3275874E+04  0.7818609E-02  0.8169061E-01
        1   -1    0    0  501    0  0.00000000000E+00  0.00000000000E+00  0.17649873320E+04  0.17649873320E+04  0.50400001928E-02 0. -1.
       -1   -1    0    0    0  501  0.00000000000E+00  0.00000000000E+00 -0.15200326305E+04  0.15200326305E+04  0.50400001928E-02 0.  1.
    10030    2    1    2    0    0  0.00000000000E+00  0.00000000000E+00  0.24495470150E+03  0.32850199625E+04  0.32758744402E+04 0.  0.
        2    1    3    3  502    0 -0.15048134239E+04  0.69152962244E+02  0.76738455959E+03  0.16905988984E+04  0.25500000920E-02 0. -1.
       -2    1    3    3    0  502  0.15048134239E+04 -0.69152962244E+02 -0.52242985809E+03  0.15944210641E+04  0.25500000920E-02 0.  1.
</event>
<event>
 5   0  0.2875829E-07  0.3305004E+04  0.7818609E-02  0.8161623E-01
        2   -1    0    0  501    0  0.00000000000E+00  0.00000000000E+00  0.21924686980E+04  0.21924686980E+04  0.25500000920E-02 0. -1.
       -2   -1    0    0    0  501  0.00000000000E+00  0.00000000000E+00 -0.12455195268E+04  0.12455195268E+04  0.25500000920E-02 0.  1.
    10030    2    1    2    0    0  0.00000000000E+00  0.00000000000E+00  0.94694917121E+03  0.34379882248E+04  0.33050038277E+04 0.  0.
        3    1    3    3  502    0 -0.17806443367E+03  0.15194610119E+03 -0.12281857517E+04  0.12502938899E+04  0.10100000352E+00 0.  1.
       -3    1    3    3    0  502  0.17806443367E+03 -0.15194610119E+03  0.21751349229E+04  0.21876943350E+04  0.10100000352E+00 0. -1.
</event>
<event>
 5   0  0.9454010E-08  0.3300920E+04  0.7818609E-02  0.8162661E-01
       -1   -1    0    0    0  501  0.00000000000E+00  0.00000000000E+00  0.14743660498E+04  0.14743660498E+04  0.50400001928E-02 0.  1.
        1   -1    0    0  501    0  0.00000000000E+00  0.00000000000E+00 -0.18475864805E+04  0.18475864805E+04  0.50400001928E-02 0. -1.
    10030    2    1    2    0    0  0.00000000000E+00  0.00000000000E+00 -0.37322043071E+03  0.33219525303E+04  0.33009203449E+04 0.  0.
        2    1    3    3  502    0  0.16691697607E+03  0.85941768032E+03  0.12214323402E+04  0.15027830808E+04  0.25500000920E-02 0.  1.
       -2    1    3    3    0  502 -0.16691697607E+03 -0.85941768032E+03 -0.15946527709E+04  0.18191694495E+04  0.25500000920E-02 0. -1.
</event>
<event>
 5   0  0.9181760E-08  0.3301826E+04  0.7818609E-02  0.8162431E-01
       -1   -1    0    0    0  501  0.00000000000E+00  0.00000000000E+00  0.17628380438E+04  0.17628380438E+04  0.50400001928E-02 0.  1.
        1   -1    0    0  501    0  0.00000000000E+00  0.00000000000E+00 -0.15460941690E+04  0.15460941690E+04  0.50400001928E-02 0. -1.
    10030    2    1    2    0    0  0.00000000000E+00  0.00000000000E+00  0.21674387476E+03  0.33089322128E+04  0.33018259314E+04 0.  0.
        1    1    3    3  502    0 -0.16433372977E+02 -0.79009215599E+03 -0.13442296370E+04  0.15593168336E+04  0.50400001928E-02 0. -1.
       -1    1    3    3    0  502  0.16433372977E+02  0.79009215599E+03  0.15609735117E+04  0.17496153792E+04  0.50400001928E-02 0.  1.
</event>
<event>
 5   0  0.2824402E-07  0.3299304E+04  0.7818609E-02  0.8163073E-01
       -2   -1    0    0    0  501  0.00000000000E+00  0.00000000000E+00  0.14276752267E+04  0.14276752267E+04  0.25500000920E-02 0. -1.
        2   -1    0    0  501    0  0.00000000000E+00  0.00000000000E+00 -0.19061420032E+04  0.19061420032E+04  0.25500000920E-02 0.  1.
    10030    2    1    2    0    0  0.00000000000E+00  0.00000000000E+00 -0.47846677656E+03  0.33338172299E+04  0.32993039972E+04 0.  0.
        1    1    3    3  502    0  0.81731018804E+03  0.19246829031E+03  0.11955894869E+04  0.14609839860E+04  0.50400001928E-02 0. -1.
       -1    1    3    3    0  502 -0.81731018804E+03 -0.19246829031E+03 -0.16740562634E+04  0.18728332439E+04  0.50400001928E-02 0.  1.
</event>
<event>
 5   0  0.8805125E-08  0.3309647E+04  0.7818609E-02  0.8160445E-01
       -3   -1    0    0    0  501  0.00000000000E+00  0.00000000000E+00  0.10925046757E+04  0.10925046803E+04  0.10100000352E+00 0. -1.
        3   -1    0    0  501    0  0.00000000000E+00  0.00000000000E+00 -0.25065705138E+04  0.25065705159E+04  0.10100000352E+00 0.  1.
    10030    2    1    2    0    0  0.00000000000E+00  0.00000000000E+00 -0.14140658382E+04  0.35990751962E+04  0.33096465179E+04 0.  0.
        1    1    3    3  502    0 -0.10524984838E+04 -0.63704440317E+03 -0.19105514475E+04  0.22723964143E+04  0.50400001928E-02 0.  1.
       -1    1    3    3    0  502  0.10524984838E+04  0.63704440317E+03  0.49648560931E+03  0.13266787819E+04  0.50400001928E-02 0. -1.
</event>
<event>
 5   0  0.9810351E-08  0.3294117E+04  0.7818609E-02  0.8164394E-01
       -1   -1    0    0    0  501  0.00000000000E+00  0.00000000000E+00  0.13056464212E+04  0.13056464212E+04  0.50400001928E-02 0.  1.
        1   -1    0    0  501    0  0.00000000000E+00  0.00000000000E+00 -0.20777464181E+04  0.20777464182E+04  0.50400001928E-02 0. -1.
    10030    2    1    2    0    0  0.00000000000E+00  0.00000000000E+00 -0.77209999694E+03  0.33833928394E+04  0.32941172870E+04 0.  0.
        5    1    3    3  502    0 -0.32568756456E+03  0.26706414984E+03 -0.20214924913E+04  0.20649091099E+04  0.46999998093E+01 0. -1.
       -5    1    3    3    0  502  0.32568756456E+03 -0.26706414984E+03  0.12493924944E+04  0.13184837294E+04  0.46999998093E+01 0.  1.
</event>
<event>
 5   0  0.2727168E-07  0.3307223E+04  0.7818609E-02  0.8161060E-01
       -2   -1    0    0    0  501  0.00000000000E+00  0.00000000000E+00  0.18697467888E+04  0.18697467888E+04  0.25500000920E-02 0. -1.
        2   -1    0    0  501    0  0.00000000000E+00  0.00000000000E+00 -0.14624607943E+04  0.14624607943E+04  0.25500000920E-02 0.  1.
    10030    2    1    2    0    0  0.00000000000E+00  0.00000000000E+00  0.40728599447E+03  0.33322075831E+04  0.33072232303E+04 0.  0.
        2    1    3    3  502    0 -0.46595188550E+03 -0.15803806566E+04  0.34512170940E+03  0.16833963210E+04  0.25500000920E-02 0.  1.
       -2    1    3    3    0  502  0.46595188550E+03  0.15803806566E+04  0.62164285075E+02  0.16488112620E+04  0.25500000920E-02 0. -1.
</event>
<event>
 5   0  0.2727168E-07  0.3283599E+04  0.7818609E-02  0.8167081E-01
        2   -1    0    0  501    0  0.00000000000E+00  0.00000000000E+00  0.17801592928E+04  0.17801592928E+04  0.25500000920E-02 0.  1.
       -2   -1    0    0    0  501  0.00000000000E+00  0.00000000000E+00 -0.15141937995E+04  0.15141937995E+04  0.25500000920E-02 0. -1.
    10030    2    1    2    0    0  0.00000000000E+00  0.00000000000E+00  0.26596549326E+03  0.32943530923E+04  0.32835993442E+04 0.  0.
        2    1    3    3  502    0  0.93389333914E+03  0.44157599384E+03 -0.11472684865E+04  0.15438170576E+04  0.25500000920E-02 0. -1.
       -2    1    3    3    0  502 -0.93389333914E+03 -0.44157599384E+03  0.14132339798E+04  0.17505360347E+04  0.25500000920E-02 0.  1.
</event>
<event>
 5   0  0.9283910E-08  0.3301416E+04  0.7818609E-02  0.8162535E-01
       -1   -1    0    0    0  501  0.00000000000E+00  0.00000000000E+00  0.16147214227E+04  0.16147214228E+04  0.50400001928E-02 0.  1.
        1   -1    0    0  501    0  0.00000000000E+00  0.00000000000E+00 -0.16874968109E+04  0.16874968110E+04  0.50400001928E-02 0. -1.
    10030    2    1    2    0    0  0.00000000000E+00  0.00000000000E+00 -0.72775388197E+02  0.33022182337E+04  0.33014162122E+04 0.  0.
        3    1    3    3  502    0 -0.57107298370E+03  0.29155291874E+03 -0.15578455712E+04  0.16846395136E+04  0.10100000352E+00 0. -1.
       -3    1    3    3    0  502  0.57107298370E+03 -0.29155291874E+03  0.14850701830E+04  0.16175787201E+04  0.10100000352E+00 0.  1.
</event>
<event>
 5   0  0.2703956E-07  0.3299031E+04  0.7818609E-02  0.8163142E-01
        2   -1    0    0  501    0  0.00000000000E+00  0.00000000000E+00  0.16189584273E+04  0.16189584273E+04  0.25500000920E-02 0.  1.
       -2   -1    0    0    0  501  0.00000000000E+00  0.00000000000E+00 -0.16806489896E+04  0.16806489896E+04  0.25500000920E-02 0. -1.
    10030    2    1    2    0    0  0.00000000000E+00  0.00000000000E+00 -0.61690562320E+02  0.32996074170E+04  0.32990306729E+04 0.  0.
        5    1    3    3  502    0 -0.14770132289E+04 -0.70900757507E+03  0.16054891909E+03  0.16462253386E+04  0.46999998093E+01 0.  1.
       -5    1    3    3    0  502  0.14770132289E+04  0.70900757507E+03 -0.22223948141E+03  0.16533820784E+04  0.46999998093E+01 0. -1.
</event>
<event>
 5   0  0.8805125E-08  0.3301135E+04  0.7818609E-02  0.8162607E-01
       -1   -1    0    0    0  501  0.00000000000E+00  0.00000000000E+00  0.12670273711E+04  0.12670273711E+04  0.50400001928E-02 0.  1.
        1   -1    0    0  501    0  0.00000000000E+00  0.00000000000E+00 -0.21502088317E+04  0.21502088318E+04  0.50400001928E-02 0. -1.
    10030    2    1    2    0    0  0.00000000000E+00  0.00000000000E+00 -0.88318146066E+03  0.34172362028E+04  0.33011352250E+04 0.  0.
        4    1    3    3  502    0 -0.12337614166E+04 -0.51916811901E+03 -0.14413040288E+04  0.19669930567E+04  0.12699999809E+01 0. -1.
       -4    1    3    3    0  502  0.12337614166E+04  0.51916811901E+03  0.55812256818E+03  0.14502431461E+04  0.12699999809E+01 0.  1.
</event>
<event>
 5   0  0.2727168E-07  0.3301171E+04  0.7818609E-02  0.8162598E-01
        2   -1    0    0  501    0  0.00000000000E+00  0.00000000000E+00  0.24004008827E+04  0.24004008827E+04  0.25500000920E-02 0. -1.
       -2   -1    0    0    0  501  0.00000000000E+00  0.00000000000E+00 -0.11349903484E+04  0.11349903484E+04  0.25500000920E-02 0.  1.
    10030    2    1    2    0    0  0.00000000000E+00  0.00000000000E+00  0.12654105343E+04  0.35353912311E+04  0.33011706009E+04 0.  0.
        2    1    3    3  502    0 -0.10943458910E+04  0.45556835856E+03 -0.59739551962E+03  0.13274098333E+04  0.25500000920E-02 0.  1.
       -2    1    3    3    0  502  0.10943458910E+04 -0.45556835856E+03  0.18628060539E+04  0.22079813978E+04  0.25500000920E-02 0. -1.
</event>
<event>
 5   0  0.9810351E-08  0.3301542E+04  0.7818609E-02  0.8162503E-01
       -1   -1    0    0    0  501  0.00000000000E+00  0.00000000000E+00  0.17604265701E+04  0.17604265701E+04  0.50400001928E-02 0.  1.
        1   -1    0    0  501    0  0.00000000000E+00  0.00000000000E+00 -0.15479456116E+04  0.15479456116E+04  0.50400001928E-02 0. -1.
    10030    2    1    2    0    0  0.00000000000E+00  0.00000000000E+00  0.21248095847E+03  0.33083721817E+04  0.33015418118E+04 0.  0.
        5    1    3    3  502    0 -0.31040964782E+03  0.10743657791E+04  0.13230039966E+04  0.17323330055E+04  0.46999998093E+01 0.  1.
       -5    1    3    3    0  502  0.31040964782E+03 -0.10743657791E+04 -0.11105230381E+04  0.15760391762E+04  0.46999998093E+01 0. -1.
</event>
<event>
 5   0  0.8805125E-08  0.3296880E+04  0.7818609E-02  0.8163690E-01
        3   -1    0    0  501    0  0.00000000000E+00  0.00000000000E+00  0.91710896291E+03  0.91710896847E+03  0.10100000352E+00 0.  1.
       -3   -1    0    0    0  501  0.00000000000E+00  0.00000000000E+00 -0.29629570241E+04  0.29629570258E+04  0.10100000352E+00 0. -1.
    10030    2    1    2    0    0  0.00000000000E+00  0.00000000000E+00 -0.20458480612E+04  0.38800659943E+04  0.32968800146E+04 0.  0.
        3    1    3    3  502    0 -0.11020597370E+04  0.79312489670E+03 -0.21230310941E+04  0.25200880545E+04  0.10100000352E+00 0. -1.
       -3    1    3    3    0  502  0.11020597370E+04 -0.79312489670E+03  0.77183032986E+02  0.13599779397E+04  0.10100000352E+00 0.  1.
</event>
<event>
 5   0  0.9454010E-08  0.3293226E+04  0.7818609E-02  0.8164621E-01
        1   -1    0    0  501    0  0.00000000000E+00  0.00000000000E+00  0.18563090760E+04  0.18563090760E+04  0.50400001928E-02 0.  1.
       -1   -1    0    0    0  501  0.00000000000E+00  0.00000000000E+00 -0.14606052580E+04  0.14606052580E+04  0.50400001928E-02 0. -1.
    10030    2    1    2    0    0  0.00000000000E+00  0.00000000000E+00  0.39570381799E+03  0.33169143341E+04  0.32932262582E+04 0.  0.
        2    1    3    3  502    0  0.24119288917E+03 -0.10034267875E+03  0.18353048843E+04  0.18538033017E+04  0.25500000920E-02 0.  1.
       -2    1    3    3    0  502 -0.24119288917E+03  0.10034267875E+03 -0.14396010663E+04  0.14631110324E+04  0.25500000920E-02 0. -1.
</event>
<event>
 5   0  0.9810351E-08  0.3299714E+04  0.7818609E-02  0.8162968E-01
       -1   -1    0    0    0  501  0.00000000000E+00  0.00000000000E+00  0.17387922797E+04  0.17387922797E+04  0.50400001928E-02 0. -1.
        1   -1    0    0  501    0  0.00000000000E+00  0.00000000000E+00 -0.15654703666E+04  0.15654703666E+04  0.50400001928E-02 0.  1.
    10030    2    1    2    0    0  0.00000000000E+00  0.00000000000E+00  0.17332191309E+03  0.33042626463E+04  0.32997137982E+04 0.  0.
        5    1    3    3  502    0  0.17866351623E+03 -0.13587810394E+04  0.10065126775E+04  0.17003812588E+04  0.46999998093E+01 0. -1.
       -5    1    3    3    0  502 -0.17866351623E+03  0.13587810394E+04 -0.83319076445E+03  0.16038813875E+04  0.46999998093E+01 0.  1.
</event>
<event>
 5   0  0.2727168E-07  0.3299570E+04  0.7818609E-02  0.8163005E-01
        2   -1    0    0  501    0  0.00000000000E+00  0.00000000000E+00  0.19307200408E+04  0.19307200408E+04  0.25500000920E-02 0. -1.
       -2   -1    0    0    0  501  0.00000000000E+00  0.00000000000E+00 -0.14097281172E+04  0.14097281172E+04  0.25500000920E-02 0.  1.
    10030    2    1    2    0    0  0.00000000000E+00  0.00000000000E+00  0.52099192361E+03  0.33404481580E+04  0.32995698677E+04 0.  0.
        2    1    3    3  502    0  0.14761479163E+03  0.64387710952E+03 -0.12699945926E+04  0.14315216114E+04  0.25500000920E-02 0.  1.
       -2    1    3    3    0  502 -0.14761479163E+03 -0.64387710952E+03  0.17909865162E+04  0.19089265465E+04  0.25500000920E-02 0. -1.
</event>
<event>
 5   0  0.2727168E-07  0.3296160E+04  0.7818609E-02  0.8163873E-01
        2   -1    0    0  501    0  0.00000000000E+00  0.00000000000E+00  0.31813437586E+04  0.31813437586E+04  0.25500000920E-02 0. -1.
       -2   -1    0    0    0  501  0.00000000000E+00  0.00000000000E+00 -0.85377998231E+03  0.85377998232E+03  0.25500000920E-02 0.  1.
    10030    2    1    2    0    0  0.00000000000E+00  0.00000000000E+00  0.23275637763E+04  0.40351237409E+04  0.32961599585E+04 0.  0.
        2    1    3    3  502    0  0.39371182056E+03 -0.15296656828E+04  0.17396475067E+04  0.23497360588E+04  0.25500000920E-02 0. -1.
       -2    1    3    3    0  502 -0.39371182056E+03  0.15296656828E+04  0.58791626964E+03  0.16853876821E+04  0.25500000920E-02 0.  1.
</event>
<event>
 5   0  0.8805125E-08  0.3303641E+04  0.7818609E-02  0.8161969E-01
        1   -1    0    0  501    0  0.00000000000E+00  0.00000000000E+00  0.18394703348E+04  0.18394703348E+04  0.50400001928E-02 0. -1.
       -1   -1    0    0    0  501  0.00000000000E+00  0.00000000000E+00 -0.14833137926E+04  0.14833137927E+04  0.50400001928E-02 0.  1.
    10030    2    1    2    0    0  0.00000000000E+00  0.00000000000E+00  0.35615654212E+03  0.33227841274E+04  0.33036414568E+04 0.  0.
        4    1    3    3  502    0 -0.15675978901E+04  0.49929622165E+03  0.32675307114E+03  0.16773279478E+04  0.12699999809E+01 0. -1.
       -4    1    3    3    0  502  0.15675978901E+04 -0.49929622165E+03  0.29403470980E+02  0.16454561796E+04  0.12699999809E+01 0.  1.
</event>
<event>
 5   0  0.2713815E-07  0.3298511E+04  0.7818609E-02  0.8163274E-01
        2   -1    0    0  501    0  0.00000000000E+00  0.00000000000E+00  0.16755515939E+04  0.16755515939E+04  0.25500000920E-02 0.  1.
       -2   -1    0    0    0  501  0.00000000000E+00  0.00000000000E+00 -0.16233716262E+04  0.16233716262E+04  0.25500000920E-02 0. -1.
    10030    2    1    2    0    0  0.00000000000E+00  0.00000000000E+00  0.52179967707E+02  0.32989232201E+04  0.32985105219E+04 0.  0.
        4    1    3    3  502    0 -0.22202840590E+03 -0.11221839183E+04 -0.11621024065E+04  0.16306676472E+04  0.12699999809E+01 0. -1.
       -4    1    3    3    0  502  0.22202840590E+03  0.11221839183E+04  0.12142823742E+04  0.16682555730E+04  0.12699999809E+01 0.  1.
</event>
<event>
 5   0  0.8805125E-08  0.3302851E+04  0.7818609E-02  0.8162170E-01
        3   -1    0    0  501    0  0.00000000000E+00  0.00000000000E+00  0.21212809113E+04  0.21212809137E+04  0.10100000352E+00 0. -1.
       -3   -1    0    0    0  501  0.00000000000E+00  0.00000000000E+00 -0.12856415422E+04  0.12856415462E+04  0.10100000352E+00 0.  1.
    10030    2    1    2    0    0  0.00000000000E+00  0.00000000000E+00  0.83563936905E+03  0.34069224599E+04  0.33028514185E+04 0.  0.
        3    1    3    3  502    0  0.12212823157E+04  0.11108626393E+04  0.45985372633E+03  0.17137712093E+04  0.10100000352E+00 0. -1.
       -3    1    3    3    0  502 -0.12212823157E+04 -0.11108626393E+04  0.37578564271E+03  0.16931512506E+04  0.10100000352E+00 0.  1.
</event>
<event>
 5   0  0.9283910E-08  0.3293077E+04  0.7818609E-02  0.8164659E-01
        1   -1    0    0  501    0  0.00000000000E+00  0.00000000000E+00  0.15503834341E+04  0.15503834341E+04  0.50400001928E-02 0.  1.
       -1   -1    0    0    0  501  0.00000000000E+00  0.00000000000E+00 -0.17486576188E+04  0.17486576189E+04  0.50400001928E-02 0. -1.
    10030    2    1    2    0    0  0.00000000000E+00  0.00000000000E+00 -0.19827418479E+03  0.32990410529E+04  0.32930774689E+04 0.  0.
        3    1    3    3  502    0 -0.88507738963E+03  0.68199037255E+03 -0.13107142365E+04  0.17223369803E+04  0.10100000352E+00 0. -1.
       -3    1    3    3    0  502  0.88507738963E+03 -0.68199037255E+03  0.11124400517E+04  0.15767040726E+04  0.10100000352E+00 0.  1.
</event>
<event>
 5   0  0.2727168E-07  0.3303178E+04  0.7818609E-02  0.8162087E-01
        2   -1    0    0  501    0  0.00000000000E+00  0.00000000000E+00  0.10919403744E+04  0.10919403744E+04  0.25500000920E-02 0.  1.
       -2   -1    0    0    0  501  0.00000000000E+00  0.00000000000E+00 -0.24980722520E+04  0.24980722520E+04  0.25500000920E-02 0. -1.
    10030    2    1    2    0    0  0.00000000000E+00  0.00000000000E+00 -0.14061318776E+04  0.35900126264E+04  0.33031778336E+04 0.  0.
        2    1    3    3  502    0 -0.10424846619E+04  0.74146438581E+03  0.43224976683E+03  0.13503272073E+04  0.25500000920E-02 0.  1.
       -2    1    3    3    0  502  0.10424846619E+04 -0.74146438581E+03 -0.18383816445E+04  0.22396854191E+04  0.25500000920E-02 0. -1.
</event>
<event>
 5   0  0.9181760E-08  0.3302822E+04  0.7818609E-02  0.8162178E-01
       -1   -1    0    0    0  501  0.00000000000E+00  0.00000000000E+00  0.19844372483E+04  0.19844372483E+04  0.50400001928E-02 0. -1.
        1   -1    0    0  501    0  0.00000000000E+00  0.00000000000E+00 -0.13742728669E+04  0.13742728669E+04  0.50400001928E-02 0.  1.
    10030    2    1    2    0    0  0.00000000000E+00  0.00000000000E+00  0.61016438147E+03  0.33587101152E+04  0.33028219851E+04 0.  0.
        1    1    3    3  502    0 -0.40206500057E+03  0.36142993636E+03  0.18918934769E+04  0.19676251654E+04  0.50400001928E-02 0. -1.
       -1    1    3    3    0  502  0.40206500057E+03 -0.36142993636E+03 -0.12817290954E+04  0.13910849498E+04  0.50400001928E-02 0.  1.
</event>
<event>
 5   0  0.2727168E-07  0.3298464E+04  0.7818609E-02  0.8163286E-01
        2   -1    0    0  501    0  0.00000000000E+00  0.00000000000E+00  0.22301028023E+04  0.22301028023E+04  0.25500000920E-02 0. -1.
       -2   -1    0    0    0  501  0.00000000000E+00  0.00000000000E+00 -0.12196597474E+04  0.12196597474E+04  0.25500000920E-02 0.  1.
    10030    2    1    2    0    0  0.00000000000E+00  0.00000000000E+00  0.10104430549E+04  0.34497625497E+04  0.32984642611E+04 0.  0.
        2    1    3    3  502    0 -0.10425307268E+02  0.10515580105E+04  0.18339628583E+04  0.21140725395E+04  0.25500000920E-02 0. -1.
       -2    1    3    3    0  502  0.10425307268E+02 -0.10515580105E+04 -0.82351980343E+03  0.13356900102E+04  0.25500000920E-02 0.  1.
</event>
<event>
 5   0  0.2727168E-07  0.3303985E+04  0.7818609E-02  0.8161882E-01
       -2   -1    0    0    0  501  0.00000000000E+00  0.00000000000E+00  0.15382865301E+04  0.15382865301E+04  0.25500000920E-02 0.  1.
        2   -1    0    0  501    0  0.00000000000E+00  0.00000000000E+00 -0.17741033618E+04  0.17741033618E+04  0.25500000920E-02 0. -1.
    10030    2    1    2    0    0  0.00000000000E+00  0.00000000000E+00 -0.23581683175E+03  0.33123898919E+04  0.33039850511E+04 0.  0.
        2    1    3    3  502    0  0.99796203272E+03  0.87304440568E+03  0.86996339170E+03  0.15858660271E+04  0.25500000920E-02 0.  1.
       -2    1    3    3    0  502 -0.99796203272E+03 -0.87304440568E+03 -0.11057802235E+04  0.17265238648E+04  0.25500000920E-02 0. -1.
</event>
<event>
 5   0  0.9283910E-08  0.3300107E+04  0.7818609E-02  0.8162868E-01
        1   -1    0    0  501    0  0.00000000000E+00  0.00000000000E+00  0.25652591163E+04  0.25652591163E+04  0.50400001928E-02 0.  1.
       -1   -1    0    0    0  501  0.00000000000E+00  0.00000000000E+00 -0.10613649288E+04  0.10613649288E+04  0.50400001928E-02 0. -1.
    10030    2    1    2    0    0  0.00000000000E+00  0.00000000000E+00  0.15038941874E+04  0.36266240451E+04  0.33001067009E+04 0.  0.
        3    1    3    3  502    0  0.11170878019E+04 -0.22536068288E+03  0.20633316842E+04  0.23571190559E+04  0.10100000352E+00 0.  1.
       -3    1    3    3    0  502 -0.11170878019E+04  0.22536068288E+03 -0.55943749672E+03  0.12695049892E+04  0.10100000352E+00 0. -1.
</event>
<event>
 5   0  0.9181760E-08  0.3305719E+04  0.7818609E-02  0.8161442E-01
       -1   -1    0    0    0  501  0.00000000000E+00  0.00000000000E+00  0.88762485530E+03  0.88762485531E+03  0.50400001928E-02 0.  1.
        1   -1    0    0  501    0  0.00000000000E+00  0.00000000000E+00 -0.30778134553E+04  0.30778134553E+04  0.50400001928E-02 0. -1.
    10030    2    1    2    0    0  0.00000000000E+00  0.00000000000E+00 -0.21901886000E+04  0.39654383106E+04  0.33057185137E+04 0.  0.
        1    1    3    3  502    0  0.11388440811E+04  0.63983236423E+03 -0.23099165308E+04  0.26536890690E+04  0.50400001928E-02 0. -1.
       -1    1    3    3    0  502 -0.11388440811E+04 -0.63983236423E+03  0.11972793082E+03  0.13117492416E+04  0.50400001928E-02 0.  1.
</event>
<event>
 5   0  0.9283910E-08  0.3301104E+04  0.7818609E-02  0.8162615E-01
        1   -1    0    0  501    0  0.00000000000E+00  0.00000000000E+00  0.16483285974E+04  0.16483285975E+04  0.50400001928E-02 0.  1.
       -1   -1    0    0    0  501  0.00000000000E+00  0.00000000000E+00 -0.16527782489E+04  0.16527782489E+04  0.50400001928E-02 0. -1.
    10030    2    1    2    0    0  0.00000000000E+00  0.00000000000E+00 -0.44496514525E+01  0.33011068464E+04  0.33011038475E+04 0.  0.
        3    1    3    3  502    0  0.52551839340E+03 -0.14370570759E+04 -0.62111069360E+03  0.16513876362E+04  0.10100000352E+00 0. -1.
       -3    1    3    3    0  502 -0.52551839340E+03  0.14370570759E+04  0.61666104215E+03  0.16497192101E+04  0.10100000352E+00 0.  1.
</event>
<event>
 5   0  0.8805125E-08  0.3295505E+04  0.7818609E-02  0.8164040E-01
        1   -1    0    0  501    0  0.00000000000E+00  0.00000000000E+00  0.15969437705E+04  0.15969437705E+04  0.50400001928E-02 0.  1.
       -1   -1    0    0    0  501  0.00000000000E+00  0.00000000000E+00 -0.17001781697E+04  0.17001781697E+04  0.50400001928E-02 0. -1.
    10030    2    1    2    0    0  0.00000000000E+00  0.00000000000E+00 -0.10323439915E+03  0.32971219402E+04  0.32955053857E+04 0.  0.
        4    1    3    3  502    0  0.15243009501E+04  0.39094967030E+03 -0.54047973857E+03  0.16638674803E+04  0.12699999809E+01 0.  1.
       -4    1    3    3    0  502 -0.15243009501E+04 -0.39094967030E+03  0.43724533942E+03  0.16332544599E+04  0.12699999809E+01 0. -1.
</event>
<event>
 5   0  0.8805125E-08  0.3335194E+04  0.7818609E-02  0.8153997E-01
       -1   -1    0    0    0  501  0.00000000000E+00  0.00000000000E+00  0.14238992721E+04  0.14238992721E+04  0.50400001928E-02 0. -1.
        1   -1    0    0  501    0  0.00000000000E+00  0.00000000000E+00 -0.19530036941E+04  0.19530036941E+04  0.50400001928E-02 0.  1.
    10030    2    1    2    0    0  0.00000000000E+00  0.00000000000E+00 -0.52910442198E+03  0.33769029662E+04  0.33351944702E+04 0.  0.
        4    1    3    3  502    0 -0.24525795917E+03 -0.79466428014E+03 -0.17280470137E+04  0.19177567310E+04  0.12699999809E+01 0.  1.
       -4    1    3    3    0  502  0.24525795917E+03  0.79466428014E+03  0.11989425917E+04  0.14591462352E+04  0.12699999809E+01 0. -1.
</event>
<event>
 5   0  0.2824402E-07  0.3294759E+04  0.7818609E-02  0.8164230E-01
       -2   -1    0    0    0  501  0.00000000000E+00  0.00000000000E+00  0.88351451542E+03  0.88351451543E+03  0.25500000920E-02 0.  1.
        2   -1    0    0  501    0  0.00000000000E+00  0.00000000000E+00 -0.30716637222E+04  0.30716637222E+04  0.25500000920E-02 0. -1.
    10030    2    1    2    0    0  0.00000000000E+00  0.00000000000E+00 -0.21881492068E+04  0.39551782377E+04  0.32947591627E+04 0.  0.
        1    1    3    3  502    0 -0.77415969857E+03 -0.33932134000E+03 -0.27915048355E+04  0.29166695832E+04  0.50400001928E-02 0. -1.
       -1    1    3    3    0  502  0.77415969857E+03  0.33932134000E+03  0.60335562872E+03  0.10385086545E+04  0.50400001928E-02 0.  1.
</event>
<event>
 5   0  0.2875829E-07  0.3302531E+04  0.7818609E-02  0.8162252E-01
        2   -1    0    0  501    0  0.00000000000E+00  0.00000000000E+00  0.18399498653E+04  0.18399498653E+04  0.25500000920E-02 0. -1.
       -2   -1    0    0    0  501  0.00000000000E+00  0.00000000000E+00 -0.14819304611E+04  0.14819304611E+04  0.25500000920E-02 0.  1.
    10030    2    1    2    0    0  0.00000000000E+00  0.00000000000E+00  0.35801940421E+03  0.33218803264E+04  0.33025310005E+04 0.  0.
        3    1    3    3  502    0  0.16019105796E+04 -0.37282350813E+03  0.31306351069E+02  0.16450212677E+04  0.10100000352E+00 0. -1.
       -3    1    3    3    0  502 -0.16019105796E+04  0.37282350813E+03  0.32671305315E+03  0.16768590587E+04  0.10100000352E+00 0.  1.
</event>
<event>
 5   0  0.8805125E-08  0.3305179E+04  0.7818609E-02  0.8161579E-01
       -3   -1    0    0    0  501  0.00000000000E+00  0.00000000000E+00  0.18087418353E+04  0.18087418382E+04  0.10100000352E+00 0. -1.
        3   -1    0    0  501    0  0.00000000000E+00  0.00000000000E+00 -0.15099178572E+04  0.15099178606E+04  0.10100000352E+00 0.  1.
    10030    2    1    2    0    0  0.00000000000E+00  0.00000000000E+00  0.29882397813E+03  0.33186596987E+04  0.33051787283E+04 0.  0.
        3    1    3    3  502    0  0.43150129298E+03 -0.14886657804E+03 -0.14453663025E+04  0.15157303132E+04  0.10100000352E+00 0.  1.
       -3    1    3    3    0  502 -0.43150129298E+03  0.14886657804E+03  0.17441902806E+04  0.18029293855E+04  0.10100000352E+00 0. -1.
</event>
<event>
 5   0  0.2727168E-07  0.3297541E+04  0.7818609E-02  0.8163521E-01
       -2   -1    0    0    0  501  0.00000000000E+00  0.00000000000E+00  0.19509612853E+04  0.19509612853E+04  0.25500000920E-02 0. -1.
        2   -1    0    0  501    0  0.00000000000E+00  0.00000000000E+00 -0.13933867909E+04  0.13933867909E+04  0.25500000920E-02 0.  1.
    10030    2    1    2    0    0  0.00000000000E+00  0.00000000000E+00  0.55757449449E+03  0.33443480762E+04  0.32975407106E+04 0.  0.
        2    1    3    3  502    0 -0.94140042398E+03  0.13401470796E+04  0.47179019356E+03  0.17043517653E+04  0.25500000920E-02 0.  1.
       -2    1    3    3    0  502  0.94140042398E+03 -0.13401470796E+04  0.85784300931E+02  0.16399963108E+04  0.25500000920E-02 0. -1.
</event>
<event>
 5   0  0.2713815E-07  0.3279820E+04  0.7818609E-02  0.8168049E-01
       -2   -1    0    0    0  501  0.00000000000E+00  0.00000000000E+00  0.10150011176E+04  0.10150011176E+04  0.25500000920E-02 0.  1.
        2   -1    0    0  501    0  0.00000000000E+00  0.00000000000E+00 -0.26495585351E+04  0.26495585351E+04  0.25500000920E-02 0. -1.
    10030    2    1    2    0    0  0.00000000000E+00  0.00000000000E+00 -0.16345574175E+04  0.36645596528E+04  0.32798200404E+04 0.  0.
        4    1    3    3  502    0  0.52296218290E+03 -0.10677083863E+04  0.44473835515E+03  0.12693638014E+04  0.12699999809E+01 0.  1.
       -4    1    3    3    0  502 -0.52296218290E+03  0.10677083863E+04 -0.20792957727E+04  0.23951958513E+04  0.12699999809E+01 0. -1.
</event>
<event>
 5   0  0.8805125E-08  0.3300266E+04  0.7818609E-02  0.8162828E-01
        1   -1    0    0  501    0  0.00000000000E+00  0.00000000000E+00  0.24796216752E+04  0.24796216752E+04  0.50400001928E-02 0. -1.
       -1   -1    0    0    0  501  0.00000000000E+00  0.00000000000E+00 -0.10981268179E+04  0.10981268179E+04  0.50400001928E-02 0.  1.
    10030    2    1    2    0    0  0.00000000000E+00  0.00000000000E+00  0.13814948573E+04  0.35777484931E+04  0.33002660861E+04 0.  0.
        4    1    3    3  502    0 -0.14597107648E+04 -0.26495561603E+03  0.14739750056E+04  0.20913060334E+04  0.12699999809E+01 0. -1.
       -4    1    3    3    0  502  0.14597107648E+04  0.26495561603E+03 -0.92480148303E+02  0.14864424597E+04  0.12699999809E+01 0.  1.
</event>
<event>
 5   0  0.2703956E-07  0.3303473E+04  0.7818609E-02  0.8162012E-01
       -2   -1    0    0    0  501  0.00000000000E+00  0.00000000000E+00  0.14765716234E+04  0.14765716234E+04  0.25500000920E-02 0. -1.
        2   -1    0    0  501    0  0.00000000000E+00  0.00000000000E+00 -0.18476805879E+04  0.18476805879E+04  0.25500000920E-02 0.  1.
    10030    2    1    2    0    0  0.00000000000E+00  0.00000000000E+00 -0.37110896447E+03  0.33242522113E+04  0.33034725519E+04 0.  0.
        5    1    3    3  502    0 -0.49147815068E+03  0.15282471115E+04 -0.57674213594E+03  0.17057970535E+04  0.46999998093E+01 0. -1.
       -5    1    3    3    0  502  0.49147815068E+03 -0.15282471115E+04  0.20563317147E+03  0.16184551578E+04  0.46999998093E+01 0.  1.
</event>
<event>
 5   0  0.2875829E-07  0.3291735E+04  0.7818609E-02  0.8165002E-01
        2   -1    0    0  501    0  0.00000000000E+00  0.00000000000E+00  0.17200038365E+04  0.17200038365E+04  0.25500000920E-02 0.  1.
       -2   -1    0    0    0  501  0.00000000000E+00  0.00000000000E+00 -0.15749262934E+04  0.15749262934E+04  0.25500000920E-02 0. -1.
    10030    2    1    2    0    0  0.00000000000E+00  0.00000000000E+00  0.14507754311E+03  0.32949301298E+04  0.32917346593E+04 0.  0.
        3    1    3    3  502    0 -0.16896174809E+03  0.16369723134E+04  0.98114101107E+02  0.16485911604E+04  0.10100000352E+00 0.  1.
       -3    1    3    3    0  502  0.16896174809E+03 -0.16369723134E+04  0.46963442005E+02  0.16463389694E+04  0.10100000352E+00 0. -1.
</event>
<event>
 5   0  0.8805125E-08  0.3305915E+04  0.7818609E-02  0.8161392E-01
       -1   -1    0    0    0  501  0.00000000000E+00  0.00000000000E+00  0.18113023325E+04  0.18113023325E+04  0.50400001928E-02 0. -1.
        1   -1    0    0  501    0  0.00000000000E+00  0.00000000000E+00 -0.15084551235E+04  0.15084551235E+04  0.50400001928E-02 0.  1.
    10030    2    1    2    0    0  0.00000000000E+00  0.00000000000E+00  0.30284720902E+03  0.33197574559E+04  0.33059148710E+04 0.  0.
        4    1    3    3  502    0  0.15718388509E+04 -0.48666715312E+03  0.30938573130E+03  0.16742889341E+04  0.12699999809E+01 0.  1.
       -4    1    3    3    0  502 -0.15718388509E+04  0.48666715312E+03 -0.65385222796E+01  0.16454685218E+04  0.12699999809E+01 0. -1.
</event>
<event>
 5   0  0.9283910E-08  0.3307255E+04  0.7818609E-02  0.8161052E-01
        1   -1    0    0  501    0  0.00000000000E+00  0.00000000000E+00  0.18263592667E+04  0.18263592667E+04  0.50400001928E-02 0.  1.
       -1   -1    0    0    0  501  0.00000000000E+00  0.00000000000E+00 -0.14972320663E+04  0.14972320663E+04  0.50400001928E-02 0. -1.
    10030    2    1    2    0    0  0.00000000000E+00  0.00000000000E+00  0.32912720040E+03  0.33235913331E+04  0.33072548488E+04 0.  0.
        3    1    3    3  502    0 -0.10398894731E+04 -0.82402192708E+03 -0.82727735857E+03  0.15635760585E+04  0.10100000352E+00 0. -1.
       -3    1    3    3    0  502  0.10398894731E+04  0.82402192708E+03  0.11564045590E+04  0.17600152746E+04  0.10100000352E+00 0.  1.
</event>
<event>
 5   0  0.2713815E-07  0.3302696E+04  0.7818609E-02  0.8162210E-01
       -2   -1    0    0    0  501  0.00000000000E+00  0.00000000000E+00  0.15036170481E+04  0.15036170481E+04  0.25500000920E-02 0.  1.
        2   -1    0    0  501    0  0.00000000000E+00  0.00000000000E+00 -0.18135937225E+04  0.18135937225E+04  0.25500000920E-02 0. -1.
    10030    2    1    2    0    0  0.00000000000E+00  0.00000000000E+00 -0.30997667441E+03  0.33172107705E+04  0.33026961346E+04 0.  0.
        4    1    3    3  502    0 -0.20822388564E+02 -0.11926273979E+04 -0.13020032862E+04  0.17657881674E+04  0.12699999809E+01 0. -1.
       -4    1    3    3    0  502  0.20822388564E+02  0.11926273979E+04  0.99202661179E+03  0.15514226031E+04  0.12699999809E+01 0.  1.
</event>
<event>
 5   0  0.2875829E-07  0.3283228E+04  0.7818609E-02  0.8167176E-01
        2   -1    0    0  501    0  0.00000000000E+00  0.00000000000E+00  0.20860012618E+04  0.20860012618E+04  0.25500000920E-02 0. -1.
       -2   -1    0    0    0  501  0.00000000000E+00  0.00000000000E+00 -0.12918957024E+04  0.12918957024E+04  0.25500000920E-02 0.  1.
    10030    2    1    2    0    0  0.00000000000E+00  0.00000000000E+00  0.79410555947E+03  0.33778969642E+04  0.32832277200E+04 0.  0.
        3    1    3    3  502    0 -0.14996693522E+04  0.18683198889E+02  0.10837861810E+04  0.18503917758E+04  0.10100000352E+00 0. -1.
       -3    1    3    3    0  502  0.14996693522E+04 -0.18683198889E+02 -0.28968062152E+03  0.15275051884E+04  0.10100000352E+00 0.  1.
</event>
<event>
 5   0  0.2727168E-07  0.3341130E+04  0.7818609E-02  0.8152508E-01
       -2   -1    0    0    0  501  0.00000000000E+00  0.00000000000E+00  0.32669996633E+04  0.32669996633E+04  0.25500000920E-02 0. -1.
        2   -1    0    0  501    0  0.00000000000E+00  0.00000000000E+00 -0.85423585462E+03  0.85423585462E+03  0.25500000920E-02 0.  1.
    10030    2    1    2    0    0  0.00000000000E+00  0.00000000000E+00  0.24127638087E+04  0.41212355179E+04  0.33411304970E+04 0.  0.
        2    1    3    3  502    0  0.82359746017E+03 -0.13172044616E+03  0.29917961082E+04  0.31058826452E+04  0.25500000920E-02 0. -1.
       -2    1    3    3    0  502 -0.82359746017E+03  0.13172044616E+03 -0.57903229953E+03  0.10153528728E+04  0.25500000920E-02 0.  1.
</event>
<event>
 5   0  0.2727168E-07  0.3300238E+04  0.7818609E-02  0.8162835E-01
       -2   -1    0    0    0  501  0.00000000000E+00  0.00000000000E+00  0.17198605975E+04  0.17198605975E+04  0.25500000920E-02 0. -1.
        2   -1    0    0  501    0  0.00000000000E+00  0.00000000000E+00 -0.15832052400E+04  0.15832052400E+04  0.25500000920E-02 0.  1.
    10030    2    1    2    0    0  0.00000000000E+00  0.00000000000E+00  0.13665535750E+03  0.33030658375E+04  0.33002377551E+04 0.  0.
        2    1    3    3  502    0  0.11650103683E+04  0.56452419751E+03  0.10924129743E+04  0.16939016601E+04  0.25500000920E-02 0. -1.
       -2    1    3    3    0  502 -0.11650103683E+04 -0.56452419751E+03 -0.95575761676E+03  0.16091641774E+04  0.25500000920E-02 0.  1.
</event>
<event>
 5   0  0.2713815E-07  0.3305238E+04  0.7818609E-02  0.8161564E-01
       -2   -1    0    0    0  501  0.00000000000E+00  0.00000000000E+00  0.16119709979E+04  0.16119709979E+04  0.25500000920E-02 0.  1.
        2   -1    0    0  501    0  0.00000000000E+00  0.00000000000E+00 -0.16942916917E+04  0.16942916917E+04  0.25500000920E-02 0. -1.
    10030    2    1    2    0    0  0.00000000000E+00  0.00000000000E+00 -0.82320693870E+02  0.33062626896E+04  0.33052377034E+04 0.  0.
        4    1    3    3  502    0  0.10473878351E+04  0.51842685277E+03 -0.12100088107E+04  0.16822338166E+04  0.12699999809E+01 0. -1.
       -4    1    3    3    0  502 -0.10473878351E+04 -0.51842685277E+03  0.11276881168E+04  0.16240288730E+04  0.12699999809E+01 0.  1.
</event>
<event>
 5   0  0.2703956E-07  0.3294655E+04  0.7818609E-02  0.8164257E-01
        2   -1    0    0  501    0  0.00000000000E+00  0.00000000000E+00  0.20576299931E+04  0.20576299931E+04  0.25500000920E-02 0.  1.
       -2   -1    0    0    0  501  0.00000000000E+00  0.00000000000E+00 -0.13188416299E+04  0.13188416299E+04  0.25500000920E-02 0. -1.
    10030    2    1    2    0    0  0.00000000000E+00  0.00000000000E+00  0.73878836327E+03  0.33764716230E+04  0.32946551223E+04 0.  0.
        5    1    3    3  502    0  0.13994476619E+04 -0.39155769196E+03  0.11644789735E+04  0.18622042192E+04  0.46999998093E+01 0.  1.
       -5    1    3    3    0  502 -0.13994476619E+04  0.39155769196E+03 -0.42569061024E+03  0.15142674037E+04  0.46999998093E+01 0. -1.
</event>
<event>
 5   0  0.2703956E-07  0.3303691E+04  0.7818609E-02  0.8161957E-01
       -2   -1    0    0    0  501  0.00000000000E+00  0.00000000000E+00  0.12356160686E+04  0.12356160686E+04  0.25500000920E-02 0. -1.
        2   -1    0    0  501    0  0.00000000000E+00  0.00000000000E+00 -0.22082860884E+04  0.22082860884E+04  0.25500000920E-02 0.  1.
    10030    2    1    2    0    0  0.00000000000E+00  0.00000000000E+00 -0.97267001980E+03  0.34439021571E+04  0.33036911327E+04 0.  0.
        5    1    3    3  502    0  0.13258986641E+04 -0.14183165136E+03  0.52995017147E+03  0.14349190775E+04  0.46999998093E+01 0. -1.
       -5    1    3    3    0  502 -0.13258986641E+04  0.14183165136E+03 -0.15026201913E+04  0.20089830796E+04  0.46999998093E+01 0.  1.
</event>
<event>
 5   0  0.2875829E-07  0.3326476E+04  0.7818609E-02  0.8156191E-01
        2   -1    0    0  501    0  0.00000000000E+00  0.00000000000E+00  0.20635000992E+04  0.20635000992E+04  0.25500000920E-02 0. -1.
       -2   -1    0    0    0  501  0.00000000000E+00  0.00000000000E+00 -0.13406157906E+04  0.13406157906E+04  0.25500000920E-02 0.  1.
    10030    2    1    2    0    0  0.00000000000E+00  0.00000000000E+00  0.72288430859E+03  0.34041158898E+04  0.33264761036E+04 0.  0.
        3    1    3    3  502    0  0.59629096883E+02  0.85211039910E+02  0.20601692892E+04  0.20627927818E+04  0.10100000352E+00 0. -1.
       -3    1    3    3    0  502 -0.59629096883E+02 -0.85211039910E+02 -0.13372849806E+04  0.13413231080E+04  0.10100000352E+00 0.  1.
</event>
<event>
 5   0  0.9181760E-08  0.3301927E+04  0.7818609E-02  0.8162405E-01
        1   -1    0    0  501    0  0.00000000000E+00  0.00000000000E+00  0.23067275496E+04  0.23067275496E+04  0.50400001928E-02 0.  1.
       -1   -1    0    0    0  501  0.00000000000E+00  0.00000000000E+00 -0.11816222937E+04  0.11816222937E+04  0.50400001928E-02 0. -1.
    10030    2    1    2    0    0  0.00000000000E+00  0.00000000000E+00  0.11251052558E+04  0.34883498433E+04  0.33019271332E+04 0.  0.
        1    1    3    3  502    0  0.94221034142E+03  0.10887741940E+04  0.14159275041E+04  0.20194158240E+04  0.50400001928E-02 0.  1.
       -1    1    3    3    0  502 -0.94221034142E+03 -0.10887741940E+04 -0.29082224828E+03  0.14689340194E+04  0.50400001928E-02 0. -1.
</event>
<event>
 5   0  0.9181760E-08  0.3293937E+04  0.7818609E-02  0.8164440E-01
       -1   -1    0    0    0  501  0.00000000000E+00  0.00000000000E+00  0.14484340522E+04  0.14484340523E+04  0.50400001928E-02 0. -1.
        1   -1    0    0  501    0  0.00000000000E+00  0.00000000000E+00 -0.18727157198E+04  0.18727157198E+04  0.50400001928E-02 0.  1.
    10030    2    1    2    0    0  0.00000000000E+00  0.00000000000E+00 -0.42428166755E+03  0.33211497721E+04  0.32939369871E+04 0.  0.
        1    1    3    3  502    0  0.70965767829E+03  0.65418114955E+03 -0.15576838971E+04  0.18324699506E+04  0.50400001928E-02 0.  1.
       -1    1    3    3    0  502 -0.70965767829E+03 -0.65418114955E+03  0.11334022295E+04  0.14886798214E+04  0.50400001928E-02 0. -1.
</event>
<event>
 5   0  0.2727168E-07  0.3309540E+04  0.7818609E-02  0.8160472E-01
        2   -1    0    0  501    0  0.00000000000E+00  0.00000000000E+00  0.14072609403E+04  0.14072609403E+04  0.25500000920E-02 0.  1.
       -2   -1    0    0    0  501  0.00000000000E+00  0.00000000000E+00 -0.19458111859E+04  0.19458111859E+04  0.25500000920E-02 0. -1.
    10030    2    1    2    0    0  0.00000000000E+00  0.00000000000E+00 -0.53855024553E+03  0.33530721262E+04  0.33095401972E+04 0.  0.
        2    1    3    3  502    0 -0.13214660760E+04 -0.61999834170E+03  0.52046065019E+03  0.15496934607E+04  0.25500000920E-02 0.  1.
       -2    1    3    3    0  502  0.13214660760E+04  0.61999834170E+03 -0.10590108957E+04  0.18033786655E+04  0.25500000920E-02 0. -1.
</event>
<event>
 5   0  0.2713815E-07  0.3303760E+04  0.7818609E-02  0.8161939E-01
        2   -1    0    0  501    0  0.00000000000E+00  0.00000000000E+00  0.14202405548E+04  0.14202405548E+04  0.25500000920E-02 0.  1.
       -2   -1    0    0    0  501  0.00000000000E+00  0.00000000000E+00 -0.19212994235E+04  0.19212994235E+04  0.25500000920E-02 0. -1.
    10030    2    1    2    0    0  0.00000000000E+00  0.00000000000E+00 -0.50105886867E+03  0.33415399783E+04  0.33037598939E+04 0.  0.
        4    1    3    3  502    0 -0.93308464836E+03  0.11004181170E+04  0.56311917885E+03  0.15487646095E+04  0.12699999809E+01 0.  1.
       -4    1    3    3    0  502  0.93308464836E+03 -0.11004181170E+04 -0.10641780475E+04  0.17927753688E+04  0.12699999809E+01 0. -1.
</event>
<event>
 5   0  0.9810351E-08  0.3291664E+04  0.7818609E-02  0.8165020E-01
        1   -1    0    0  501    0  0.00000000000E+00  0.00000000000E+00  0.23936956924E+04  0.23936956924E+04  0.50400001928E-02 0. -1.
       -1   -1    0    0    0  501  0.00000000000E+00  0.00000000000E+00 -0.11316236482E+04  0.11316236482E+04  0.50400001928E-02 0.  1.
    10030    2    1    2    0    0  0.00000000000E+00  0.00000000000E+00  0.12620720442E+04  0.35253193406E+04  0.32916638055E+04 0.  0.
        5    1    3    3  502    0  0.20701235617E+03  0.16272118123E+04  0.48707662849E+03  0.17111218921E+04  0.46999998093E+01 0.  1.
       -5    1    3    3    0  502 -0.20701235617E+03 -0.16272118123E+04  0.77499541569E+03  0.18141974485E+04  0.46999998093E+01 0. -1.
</event>
<event>
 5   0  0.2824402E-07  0.3289776E+04  0.7818609E-02  0.8165502E-01
       -2   -1    0    0    0  501  0.00000000000E+00  0.00000000000E+00  0.23460749718E+04  0.23460749718E+04  0.25500000920E-02 0. -1.
        2   -1    0    0  501    0  0.00000000000E+00  0.00000000000E+00 -0.11532696251E+04  0.11532696251E+04  0.25500000920E-02 0.  1.
    10030    2    1    2    0    0  0.00000000000E+00  0.00000000000E+00  0.11928053466E+04  0.34993445969E+04  0.32897762861E+04 0.  0.
        1    1    3    3  502    0  0.98326585462E+03 -0.11796008649E+04 -0.30539038898E+02  0.15359695877E+04  0.50400001928E-02 0.  1.
       -1    1    3    3    0  502 -0.98326585462E+03  0.11796008649E+04  0.12233443855E+04  0.19633750092E+04  0.50400001928E-02 0. -1.
</event>
<event>
 5   0  0.9810351E-08  0.3268780E+04  0.7818609E-02  0.8170885E-01
       -1   -1    0    0    0  501  0.00000000000E+00  0.00000000000E+00  0.13067699420E+04  0.13067699421E+04  0.50400001928E-02 0.  1.
        1   -1    0    0  501    0  0.00000000000E+00  0.00000000000E+00 -0.20441476616E+04  0.20441476616E+04  0.50400001928E-02 0. -1.
    10030    2    1    2    0    0  0.00000000000E+00  0.00000000000E+00 -0.73737771958E+03  0.33509176037E+04  0.32687800301E+04 0.  0.
        5    1    3    3  502    0 -0.96558241795E+03  0.12834099466E+04 -0.58228855519E+02  0.16071413088E+04  0.46999998093E+01 0. -1.
       -5    1    3    3    0  502  0.96558241795E+03 -0.12834099466E+04 -0.67914886406E+03  0.17437762948E+04  0.46999998093E+01 0.  1.
</event>
<event>
 5   0  0.8805125E-08  0.3310902E+04  0.7818609E-02  0.8160127E-01
        1   -1    0    0  501    0  0.00000000000E+00  0.00000000000E+00  0.23100925774E+04  0.23100925774E+04  0.50400001928E-02 0. -1.
       -1   -1    0    0    0  501  0.00000000000E+00  0.00000000000E+00 -0.11863237539E+04  0.11863237539E+04  0.50400001928E-02 0.  1.
    10030    2    1    2    0    0  0.00000000000E+00  0.00000000000E+00  0.11237688235E+04  0.34964163314E+04  0.33109018097E+04 0.  0.
        4    1    3    3  502    0 -0.11341021490E+03  0.11237245287E+03  0.23019430610E+04  0.23074732748E+04  0.12699999809E+01 0. -1.
       -4    1    3    3    0  502  0.11341021490E+03 -0.11237245287E+03 -0.11781742375E+04  0.11889430566E+04  0.12699999809E+01 0.  1.
</event>
<event>
 5   0  0.9181760E-08  0.3298144E+04  0.7818609E-02  0.8163368E-01
       -1   -1    0    0    0  501  0.00000000000E+00  0.00000000000E+00  0.13868220077E+04  0.13868220077E+04  0.50400001928E-02 0.  1.
        1   -1    0    0  501    0  0.00000000000E+00  0.00000000000E+00 -0.19609134738E+04  0.19609134738E+04  0.50400001928E-02 0. -1.
    10030    2    1    2    0    0  0.00000000000E+00  0.00000000000E+00 -0.57409146610E+03  0.33477354815E+04  0.32981436965E+04 0.  0.
        1    1    3    3  502    0 -0.75331727669E+03 -0.83914599363E+03  0.93428589696E+03  0.14644258449E+04  0.50400001928E-02 0.  1.
       -1    1    3    3    0  502  0.75331727669E+03  0.83914599363E+03 -0.15083773631E+04  0.18833096366E+04  0.50400001928E-02 0. -1.
</event>
<event>
 5   0  0.9181760E-08  0.3306603E+04  0.7818609E-02  0.8161217E-01
        1   -1    0    0  501    0  0.00000000000E+00  0.00000000000E+00  0.16023466618E+04  0.16023466618E+04  0.50400001928E-02 0.  1.
       -1   -1    0    0    0  501  0.00000000000E+00  0.00000000000E+00 -0.17058764773E+04  0.17058764773E+04  0.50400001928E-02 0. -1.
    10030    2    1    2    0    0  0.00000000000E+00  0.00000000000E+00 -0.10352981553E+03  0.33082231391E+04  0.33066027755E+04 0.  0.
        1    1    3    3  502    0 -0.13661593062E+04 -0.87101942913E+03  0.27754587235E+03  0.16438058910E+04  0.50400001928E-02 0.  1.
       -1    1    3    3    0  502  0.13661593062E+04  0.87101942913E+03 -0.38107568788E+03  0.16644172481E+04  0.50400001928E-02 0. -1.
</event>
<event>
 5   0  0.9181760E-08  0.3296407E+04  0.7818609E-02  0.8163810E-01
        1   -1    0    0  501    0  0.00000000000E+00  0.00000000000E+00  0.24741010909E+04  0.24741010909E+04  0.50400001928E-02 0.  1.
       -1   -1    0    0    0  501  0.00000000000E+00  0.00000000000E+00 -0.10980050688E+04  0.10980050688E+04  0.50400001928E-02 0. -1.
    10030    2    1    2    0    0  0.00000000000E+00  0.00000000000E+00  0.13760960221E+04  0.35721061597E+04  0.32964074618E+04 0.  0.
        1    1    3    3  502    0  0.18169944654E+03 -0.16293793709E+04  0.87157552085E+03  0.18567540795E+04  0.50400001928E-02 0.  1.
       -1    1    3    3    0  502 -0.18169944654E+03  0.16293793709E+04  0.50452050129E+03  0.17153520803E+04  0.50400001928E-02 0. -1.
</event>
<event>
 5   0  0.9454010E-08  0.3284408E+04  0.7818609E-02  0.8166874E-01
       -1   -1    0    0    0  501  0.00000000000E+00  0.00000000000E+00  0.14461654202E+04  0.14461654203E+04  0.50400001928E-02 0.  1.
        1   -1    0    0  501    0  0.00000000000E+00  0.00000000000E+00 -0.18648170813E+04  0.18648170813E+04  0.50400001928E-02 0. -1.
    10030    2    1    2    0    0  0.00000000000E+00  0.00000000000E+00 -0.41865166105E+03  0.33109825016E+04  0.32844080003E+04 0.  0.
        2    1    3    3  502    0 -0.56552873988E+03 -0.94883582898E+03  0.10157109442E+04  0.15005935187E+04  0.25500000920E-02 0.  1.
       -2    1    3    3    0  502  0.56552873988E+03  0.94883582898E+03 -0.14343626053E+04  0.18103889829E+04  0.25500000920E-02 0. -1.
</event>
<event>
 5   0  0.9810351E-08  0.3294929E+04  0.7818609E-02  0.8164187E-01
       -1   -1    0    0    0  501  0.00000000000E+00  0.00000000000E+00  0.22807823846E+04  0.22807823846E+04  0.50400001928E-02 0.  1.
        1   -1    0    0  501    0  0.00000000000E+00  0.00000000000E+00 -0.11900038437E+04  0.11900038437E+04  0.50400001928E-02 0. -1.
    10030    2    1    2    0    0  0.00000000000E+00  0.00000000000E+00  0.10907785409E+04  0.34707862283E+04  0.32949293190E+04 0.  0.
        5    1    3    3  502    0  0.12377617809E+03  0.55415748149E+03 -0.10836656239E+04  0.12234232019E+04  0.46999998093E+01 0. -1.
       -5    1    3    3    0  502 -0.12377617809E+03 -0.55415748149E+03  0.21744441648E+04  0.22473630264E+04  0.46999998093E+01 0.  1.
</event>
<event>
 5   0  0.2875829E-07  0.3299057E+04  0.7818609E-02  0.8163135E-01
        2   -1    0    0  501    0  0.00000000000E+00  0.00000000000E+00  0.19196869458E+04  0.19196869458E+04  0.25500000920E-02 0.  1.
       -2   -1    0    0    0  501  0.00000000000E+00  0.00000000000E+00 -0.14173892549E+04  0.14173892549E+04  0.25500000920E-02 0. -1.
    10030    2    1    2    0    0  0.00000000000E+00  0.00000000000E+00  0.50229769087E+03  0.33370762007E+04  0.32990566226E+04 0.  0.
        3    1    3    3  502    0 -0.10572914154E+04  0.65738165254E+03 -0.84341582157E+03  0.15037839048E+04  0.10100000352E+00 0. -1.
       -3    1    3    3    0  502  0.10572914154E+04 -0.65738165254E+03  0.13457135124E+04  0.18332922958E+04  0.10100000352E+00 0.  1.
</event>
<event>
 5   0  0.9283910E-08  0.3306113E+04  0.7818609E-02  0.8161342E-01
       -1   -1    0    0    0  501  0.00000000000E+00  0.00000000000E+00  0.15511841125E+04  0.15511841125E+04  0.50400001928E-02 0. -1.
        1   -1    0    0  501    0  0.00000000000E+00  0.00000000000E+00 -0.17616191975E+04  0.17616191975E+04  0.50400001928E-02 0.  1.
    10030    2    1    2    0    0  0.00000000000E+00  0.00000000000E+00 -0.21043508499E+03  0.33128033100E+04  0.33061129511E+04 0.  0.
        3    1    3    3  502    0  0.77114989408E+03 -0.14620889213E+04 -0.90371073941E+02  0.16554585812E+04  0.10100000352E+00 0.  1.
       -3    1    3    3    0  502 -0.77114989408E+03  0.14620889213E+04 -0.12006401104E+03  0.16573447287E+04  0.10100000352E+00 0. -1.
</event>
<event>
 5   0  0.9454010E-08  0.3302600E+04  0.7818609E-02  0.8162234E-01
       -1   -1    0    0    0  501  0.00000000000E+00  0.00000000000E+00  0.11292677147E+04  0.11292677147E+04  0.50400001928E-02 0. -1.
        1   -1    0    0  501    0  0.00000000000E+00  0.00000000000E+00 -0.24146552854E+04  0.24146552854E+04  0.50400001928E-02 0.  1.
    10030    2    1    2    0    0  0.00000000000E+00  0.00000000000E+00 -0.12853875707E+04  0.35439230001E+04  0.33026003427E+04 0.  0.
        2    1    3    3  502    0 -0.60305748849E+03  0.46404138851E+03 -0.22153112818E+04  0.23423528385E+04  0.25500000920E-02 0.  1.
       -2    1    3    3    0  502  0.60305748849E+03 -0.46404138851E+03  0.92992371115E+03  0.12015701616E+04  0.25500000920E-02 0. -1.
</event>
<event>
 5   0  0.2703956E-07  0.3297916E+04  0.7818609E-02  0.8163426E-01
       -2   -1    0    0    0  501  0.00000000000E+00  0.00000000000E+00  0.13314690686E+04  0.13314690686E+04  0.25500000920E-02 0. -1.
        2   -1    0    0  501    0  0.00000000000E+00  0.00000000000E+00 -0.20421519999E+04  0.20421519999E+04  0.25500000920E-02 0.  1.
    10030    2    1    2    0    0  0.00000000000E+00  0.00000000000E+00 -0.71068293127E+03  0.33736210685E+04  0.32979158396E+04 0.  0.
        5    1    3    3  502    0 -0.91928773025E+03 -0.12251047298E+04 -0.98015593888E+03  0.18184331950E+04  0.46999998093E+01 0.  1.
       -5    1    3    3    0  502  0.91928773025E+03  0.12251047298E+04  0.26947300761E+03  0.15551878735E+04  0.46999998093E+01 0. -1.
</event>
<event>
 5   0  0.2875829E-07  0.3270461E+04  0.7818609E-02  0.8170452E-01
       -2   -1    0    0    0  501  0.00000000000E+00  0.00000000000E+00  0.18174197114E+04  0.18174197114E+04  0.25500000920E-02 0. -1.
        2   -1    0    0  501    0  0.00000000000E+00  0.00000000000E+00 -0.14713053415E+04  0.14713053415E+04  0.25500000920E-02 0.  1.
    10030    2    1    2    0    0  0.00000000000E+00  0.00000000000E+00  0.34611436990E+03  0.32887250530E+04  0.32704613309E+04 0.  0.
        3    1    3    3  502    0 -0.14018164465E+04  0.44403167635E+03  0.89240217263E+03  0.17200683496E+04  0.10100000352E+00 0. -1.
       -3    1    3    3    0  502  0.14018164465E+04 -0.44403167635E+03 -0.54628780272E+03  0.15686567034E+04  0.10100000352E+00 0.  1.
</event>
<event>
 5   0  0.9181760E-08  0.3301963E+04  0.7818609E-02  0.8162396E-01
        1   -1    0    0  501    0  0.00000000000E+00  0.00000000000E+00  0.21423589038E+04  0.21423589038E+04  0.50400001928E-02 0.  1.
       -1   -1    0    0    0  501  0.00000000000E+00  0.00000000000E+00 -0.12723081076E+04  0.12723081076E+04  0.50400001928E-02 0. -1.
    10030    2    1    2    0    0  0.00000000000E+00  0.00000000000E+00  0.87005079616E+03  0.34146670114E+04  0.33019634176E+04 0.  0.
        1    1    3    3  502    0 -0.11398817303E+04 -0.15169978309E+03 -0.79006021105E+03  0.13951839737E+04  0.50400001928E-02 0. -1.
       -1    1    3    3    0  502  0.11398817303E+04  0.15169978309E+03  0.16601110072E+04  0.20194830377E+04  0.50400001928E-02 0.  1.
</event>
<event>
 5   0  0.2713815E-07  0.3299531E+04  0.7818609E-02  0.8163015E-01
       -2   -1    0    0    0  501  0.00000000000E+00  0.00000000000E+00  0.11447998588E+04  0.11447998588E+04  0.25500000920E-02 0.  1.
        2   -1    0    0  501    0  0.00000000000E+00  0.00000000000E+00 -0.23774688503E+04  0.23774688503E+04  0.25500000920E-02 0. -1.
    10030    2    1    2    0    0  0.00000000000E+00  0.00000000000E+00 -0.12326689914E+04  0.35222687091E+04  0.32995308783E+04 0.  0.
        4    1    3    3  502    0  0.96363636635E+03  0.96319219588E+03 -0.16093962553E+04  0.21086707122E+04  0.12699999809E+01 0. -1.
       -4    1    3    3    0  502 -0.96363636635E+03 -0.96319219588E+03  0.37672726389E+03  0.14135979970E+04  0.12699999809E+01 0.  1.
</event>
<event>
 5   0  0.2824402E-07  0.3289970E+04  0.7818609E-02  0.8165452E-01
        2   -1    0    0  501    0  0.00000000000E+00  0.00000000000E+00  0.16186329467E+04  0.16186329467E+04  0.25500000920E-02 0.  1.
       -2   -1    0    0    0  501  0.00000000000E+00  0.00000000000E+00 -0.16717664760E+04  0.16717664760E+04  0.25500000920E-02 0. -1.
    10030    2    1    2    0    0  0.00000000000E+00  0.00000000000E+00 -0.53133529235E+02  0.32903994227E+04  0.32899703933E+04 0.  0.
        1    1    3    3  502    0  0.33161111670E+03  0.68395645307E+03  0.14324634035E+04  0.16216392215E+04  0.50400001928E-02 0.  1.
       -1    1    3    3    0  502 -0.33161111670E+03 -0.68395645307E+03 -0.14855969327E+04  0.16687602012E+04  0.50400001928E-02 0. -1.
</event>
<event>
 5   0  0.2875829E-07  0.3301538E+04  0.7818609E-02  0.8162504E-01
        2   -1    0    0  501    0  0.00000000000E+00  0.00000000000E+00  0.21494970697E+04  0.21494970697E+04  0.25500000920E-02 0. -1.
       -2   -1    0    0    0  501  0.00000000000E+00  0.00000000000E+00 -0.12677563559E+04  0.12677563559E+04  0.25500000920E-02 0.  1.
    10030    2    1    2    0    0  0.00000000000E+00  0.00000000000E+00  0.88174071380E+03  0.34172534255E+04  0.33015381700E+04 0.  0.
        3    1    3    3  502    0  0.44188279843E+02  0.63326648586E+03  0.20181094696E+04  0.21155956343E+04  0.10100000352E+00 0. -1.
       -3    1    3    3    0  502 -0.44188279843E+02 -0.63326648586E+03 -0.11363687558E+04  0.13016577913E+04  0.10100000352E+00 0.  1.
</event>
<event>
 5   0  0.9810351E-08  0.3286023E+04  0.7818609E-02  0.8166461E-01
       -1   -1    0    0    0  501  0.00000000000E+00  0.00000000000E+00  0.20381050508E+04  0.20381050508E+04  0.50400001928E-02 0.  1.
        1   -1    0    0  501    0  0.00000000000E+00  0.00000000000E+00 -0.13245080988E+04  0.13245080988E+04  0.50400001928E-02 0. -1.
    10030    2    1    2    0    0  0.00000000000E+00  0.00000000000E+00  0.71359695197E+03  0.33626131496E+04  0.32860229129E+04 0.  0.
        5    1    3    3  502    0 -0.75606730841E+03 -0.67741871943E+03 -0.96518329351E+03  0.14007622126E+04  0.46999998093E+01 0. -1.
       -5    1    3    3    0  502  0.75606730841E+03  0.67741871943E+03  0.16787802455E+04  0.19618509370E+04  0.46999998093E+01 0.  1.
</event>
<event>
 5   0  0.9454010E-08  0.3298383E+04  0.7818609E-02  0.8163307E-01
        1   -1    0    0  501    0  0.00000000000E+00  0.00000000000E+00  0.15925606415E+04  0.15925606415E+04  0.50400001928E-02 0. -1.
       -1   -1    0    0    0  501  0.00000000000E+00  0.00000000000E+00 -0.17078361041E+04  0.17078361041E+04  0.50400001928E-02 0.  1.
    10030    2    1    2    0    0  0.00000000000E+00  0.00000000000E+00 -0.11527546253E+03  0.33003967456E+04  0.32983829745E+04 0.  0.
        2    1    3    3  502    0 -0.97837182241E+03  0.12711380780E+04 -0.44105456453E+03  0.16635902636E+04  0.25500000920E-02 0. -1.
       -2    1    3    3    0  502  0.97837182241E+03 -0.12711380780E+04  0.32577910200E+03  0.16368064820E+04  0.25500000920E-02 0.  1.
</event>
<event>
 5   0  0.9283910E-08  0.3295832E+04  0.7818609E-02  0.8163957E-01
        1   -1    0    0  501    0  0.00000000000E+00  0.00000000000E+00  0.15194106882E+04  0.15194106882E+04  0.50400001928E-02 0.  1.
       -1   -1    0    0    0  501  0.00000000000E+00  0.00000000000E+00 -0.17872897974E+04  0.17872897974E+04  0.50400001928E-02 0. -1.
    10030    2    1    2    0    0  0.00000000000E+00  0.00000000000E+00 -0.26787910922E+03  0.33067004855E+04  0.32958320473E+04 0.  0.
        3    1    3    3  502    0  0.72022313899E+03  0.14516003680E+04 -0.43453096161E+03  0.16777014529E+04  0.10100000352E+00 0. -1.
       -3    1    3    3    0  502 -0.72022313899E+03 -0.14516003680E+04  0.16665185239E+03  0.16289990326E+04  0.10100000352E+00 0.  1.
</event>
<event>
 5   0  0.2727168E-07  0.3297587E+04  0.7818609E-02  0.8163510E-01
       -2   -1    0    0    0  501  0.00000000000E+00  0.00000000000E+00  0.24135931203E+04  0.24135931203E+04  0.25500000920E-02 0.  1.
        2   -1    0    0  501    0  0.00000000000E+00  0.00000000000E+00 -0.11263372833E+04  0.11263372833E+04  0.25500000920E-02 0. -1.
    10030    2    1    2    0    0  0.00000000000E+00  0.00000000000E+00  0.12872558370E+04  0.35399304036E+04  0.32975869470E+04 0.  0.
        2    1    3    3  502    0  0.82205420246E+03  0.14292222479E+04  0.65264604944E+03  0.17732445436E+04  0.25500000920E-02 0.  1.
       -2    1    3    3    0  502 -0.82205420246E+03 -0.14292222479E+04  0.63460978753E+03  0.17666858600E+04  0.25500000920E-02 0. -1.
</event>
<event>
 5   0  0.2713815E-07  0.3301292E+04  0.7818609E-02  0.8162567E-01
        2   -1    0    0  501    0  0.00000000000E+00  0.00000000000E+00  0.20667849565E+04  0.20667849565E+04  0.25500000920E-02 0.  1.
       -2   -1    0    0    0  501  0.00000000000E+00  0.00000000000E+00 -0.13182949830E+04  0.13182949830E+04  0.25500000920E-02 0. -1.
    10030    2    1    2    0    0  0.00000000000E+00  0.00000000000E+00  0.74848997351E+03  0.33850799395E+04  0.33012920132E+04 0.  0.
        4    1    3    3  502    0 -0.13317569988E+04 -0.96735427186E+03  0.24749688112E+03  0.16645141364E+04  0.12699999809E+01 0. -1.
       -4    1    3    3    0  502  0.13317569988E+04  0.96735427186E+03  0.50099309239E+03  0.17205658031E+04  0.12699999809E+01 0.  1.
</event>
<event>
 5   0  0.9454010E-08  0.3314353E+04  0.7818609E-02  0.8159253E-01
       -1   -1    0    0    0  501  0.00000000000E+00  0.00000000000E+00  0.16335046034E+04  0.16335046034E+04  0.50400001928E-02 0. -1.
        1   -1    0    0  501    0  0.00000000000E+00  0.00000000000E+00 -0.16811916097E+04  0.16811916097E+04  0.50400001928E-02 0.  1.
    10030    2    1    2    0    0  0.00000000000E+00  0.00000000000E+00 -0.47687006283E+02  0.33146962130E+04  0.33143531698E+04 0.  0.
        2    1    3    3  502    0 -0.27795890899E+02 -0.22635553753E+03 -0.16654227850E+04  0.16809647509E+04  0.25500000920E-02 0.  1.
       -2    1    3    3    0  502  0.27795890899E+02  0.22635553753E+03  0.16177357787E+04  0.16337314622E+04  0.25500000920E-02 0. -1.
</event>
<event>
 5   0  0.9810351E-08  0.3304086E+04  0.7818609E-02  0.8161857E-01
       -1   -1    0    0    0  501  0.00000000000E+00  0.00000000000E+00  0.12410471202E+04  0.12410471202E+04  0.50400001928E-02 0.  1.
        1   -1    0    0  501    0  0.00000000000E+00  0.00000000000E+00 -0.21991476485E+04  0.21991476485E+04  0.50400001928E-02 0. -1.
    10030    2    1    2    0    0  0.00000000000E+00  0.00000000000E+00 -0.95810052827E+03  0.34401947687E+04  0.33040858682E+04 0.  0.
        5    1    3    3  502    0  0.35232177136E+03  0.76085301059E+03  0.10030323559E+04  0.13073346669E+04  0.46999998093E+01 0.  1.
       -5    1    3    3    0  502 -0.35232177136E+03 -0.76085301059E+03 -0.19611328842E+04  0.21328601018E+04  0.46999998093E+01 0. -1.
</event>
<event>
 5   0  0.9454010E-08  0.3300730E+04  0.7818609E-02  0.8162710E-01
        1   -1    0    0  501    0  0.00000000000E+00  0.00000000000E+00  0.14089772570E+04  0.14089772570E+04  0.50400001928E-02 0. -1.
       -1   -1    0    0    0  501  0.00000000000E+00  0.00000000000E+00 -0.19331080988E+04  0.19331080988E+04  0.50400001928E-02 0.  1.
    10030    2    1    2    0    0  0.00000000000E+00  0.00000000000E+00 -0.52413084180E+03  0.33420853557E+04  0.33007304321E+04 0.  0.
        2    1    3    3  502    0 -0.99440117508E+03 -0.66626624532E+02  0.10698750558E+04  0.14621578024E+04  0.25500000920E-02 0. -1.
       -2    1    3    3    0  502  0.99440117508E+03  0.66626624532E+02 -0.15940058976E+04  0.18799275533E+04  0.25500000920E-02 0.  1.
</event>
<event>
 5   0  0.2727168E-07  0.3301345E+04  0.7818609E-02  0.8162553E-01
        2   -1    0    0  501    0  0.00000000000E+00  0.00000000000E+00  0.21704669521E+04  0.21704669521E+04  0.25500000920E-02 0. -1.
       -2   -1    0    0    0  501  0.00000000000E+00  0.00000000000E+00 -0.12553614375E+04  0.12553614375E+04  0.25500000920E-02 0.  1.
    10030    2    1    2    0    0  0.00000000000E+00  0.00000000000E+00  0.91510551458E+03  0.34258283896E+04  0.33013454912E+04 0.  0.
        2    1    3    3  502    0 -0.43965710780E+03 -0.10278745996E+04 -0.80269321743E+03  0.13762779393E+04  0.25500000920E-02 0.  1.
       -2    1    3    3    0  502  0.43965710780E+03  0.10278745996E+04  0.17177987320E+04  0.20495504504E+04  0.25500000920E-02 0. -1.
</event>
<event>
 5   0  0.2875829E-07  0.3305818E+04  0.7818609E-02  0.8161416E-01
       -2   -1    0    0    0  501  0.00000000000E+00  0.00000000000E+00  0.87751285443E+03  0.87751285443E+03  0.25500000920E-02 0. -1.
        2   -1    0    0  501    0  0.00000000000E+00  0.00000000000E+00 -0.31134685685E+04  0.31134685685E+04  0.25500000920E-02 0.  1.
    10030    2    1    2    0    0  0.00000000000E+00  0.00000000000E+00 -0.22359557140E+04  0.39909814229E+04  0.33058183197E+04 0.  0.
        3    1    3    3  502    0  0.40464409861E+03  0.51664165563E+03  0.71350054416E+03  0.96940109531E+03  0.10100000352E+00 0. -1.
       -3    1    3    3    0  502 -0.40464409861E+03 -0.51664165563E+03 -0.29494562582E+04  0.30215803276E+04  0.10100000352E+00 0.  1.
</event>
<event>
 5   0  0.2727168E-07  0.3306342E+04  0.7818609E-02  0.8161284E-01
       -2   -1    0    0    0  501  0.00000000000E+00  0.00000000000E+00  0.14081897697E+04  0.14081897697E+04  0.25500000920E-02 0. -1.
        2   -1    0    0  501    0  0.00000000000E+00  0.00000000000E+00 -0.19407715026E+04  0.19407715026E+04  0.25500000920E-02 0.  1.
    10030    2    1    2    0    0  0.00000000000E+00  0.00000000000E+00 -0.53258173294E+03  0.33489612723E+04  0.33063421331E+04 0.  0.
        2    1    3    3  502    0  0.10749236596E+04  0.57742631223E+03  0.86347559898E+03  0.14948150823E+04  0.25500000920E-02 0. -1.
       -2    1    3    3    0  502 -0.10749236596E+04 -0.57742631223E+03 -0.13960573319E+04  0.18541461901E+04  0.25500000920E-02 0.  1.
</event>
<event>
 5   0  0.9283910E-08  0.3303548E+04  0.7818609E-02  0.8161993E-01
        1   -1    0    0  501    0  0.00000000000E+00  0.00000000000E+00  0.16048521142E+04  0.16048521142E+04  0.50400001928E-02 0. -1.
       -1   -1    0    0    0  501  0.00000000000E+00  0.00000000000E+00 -0.17000673455E+04  0.17000673455E+04  0.50400001928E-02 0.  1.
    10030    2    1    2    0    0  0.00000000000E+00  0.00000000000E+00 -0.95215231224E+02  0.33049194597E+04  0.33035475924E+04 0.  0.
        3    1    3    3  502    0  0.12379525655E+04  0.19277170790E+03 -0.11244695849E+04  0.16834842866E+04  0.10100000352E+00 0.  1.
       -3    1    3    3    0  502 -0.12379525655E+04 -0.19277170790E+03  0.10292543537E+04  0.16214351731E+04  0.10100000352E+00 0. -1.
</event>
<event>
 5   0  0.9810351E-08  0.3304623E+04  0.7818609E-02  0.8161720E-01
        1   -1    0    0  501    0  0.00000000000E+00  0.00000000000E+00  0.24550796264E+04  0.24550796264E+04  0.50400001928E-02 0. -1.
       -1   -1    0    0    0  501  0.00000000000E+00  0.00000000000E+00 -0.11120348396E+04  0.11120348396E+04  0.50400001928E-02 0.  1.
    10030    2    1    2    0    0  0.00000000000E+00  0.00000000000E+00  0.13430447868E+04  0.35671144659E+04  0.33046234753E+04 0.  0.
        5    1    3    3  502    0  0.76730885341E+03  0.85417075790E+03 -0.61102269487E+03  0.13006695906E+04  0.46999998093E+01 0.  1.
       -5    1    3    3    0  502 -0.76730885341E+03 -0.85417075790E+03  0.19540674817E+04  0.22664448754E+04  0.46999998093E+01 0. -1.
</event>
<event>
 5   0  0.2703956E-07  0.3289209E+04  0.7818609E-02  0.8165647E-01
       -2   -1    0    0    0  501  0.00000000000E+00  0.00000000000E+00  0.18164608123E+04  0.18164608123E+04  0.25500000920E-02 0. -1.
        2   -1    0    0  501    0  0.00000000000E+00  0.00000000000E+00 -0.14890071970E+04  0.14890071970E+04  0.25500000920E-02 0.  1.
    10030    2    1    2    0    0  0.00000000000E+00  0.00000000000E+00  0.32745361531E+03  0.33054680094E+04  0.32892085508E+04 0.  0.
        5    1    3    3  502    0  0.46975673390E+02  0.14755268175E+04  0.89209582010E+03  0.17248893139E+04  0.46999998093E+01 0. -1.
       -5    1    3    3    0  502 -0.46975673390E+02 -0.14755268175E+04 -0.56464220479E+03  0.15805786954E+04  0.46999998093E+01 0.  1.
</event>
<event>
 5   0  0.9810351E-08  0.3299233E+04  0.7818609E-02  0.8163091E-01
        1   -1    0    0  501    0  0.00000000000E+00  0.00000000000E+00  0.20997749634E+04  0.20997749635E+04  0.50400001928E-02 0. -1.
       -1   -1    0    0    0  501  0.00000000000E+00  0.00000000000E+00 -0.12959649357E+04  0.12959649357E+04  0.50400001928E-02 0.  1.
    10030    2    1    2    0    0  0.00000000000E+00  0.00000000000E+00  0.80381002772E+03  0.33957398992E+04  0.32992330779E+04 0.  0.
        5    1    3    3  502    0 -0.67863763288E+02 -0.19309330355E+03  0.20866488828E+04  0.20966678718E+04  0.46999998093E+01 0. -1.
       -5    1    3    3    0  502  0.67863763288E+02  0.19309330355E+03 -0.12828388551E+04  0.12990720274E+04  0.46999998093E+01 0.  1.
</event>
<event>
 5   0  0.9454010E-08  0.3292424E+04  0.7818609E-02  0.8164826E-01
       -1   -1    0    0    0  501  0.00000000000E+00  0.00000000000E+00  0.13782408925E+04  0.13782408925E+04  0.50400001928E-02 0.  1.
        1   -1    0    0  501    0  0.00000000000E+00  0.00000000000E+00 -0.19662846256E+04  0.19662846256E+04  0.50400001928E-02 0. -1.
    10030    2    1    2    0    0  0.00000000000E+00  0.00000000000E+00 -0.58804373317E+03  0.33445255181E+04  0.32924239565E+04 0.  0.
        2    1    3    3  502    0 -0.68387829119E+03 -0.10455030283E+04 -0.13830161430E+04  0.18637327467E+04  0.25500000920E-02 0. -1.
       -2    1    3    3    0  502  0.68387829119E+03  0.10455030283E+04  0.79497240988E+03  0.14807927714E+04  0.25500000920E-02 0.  1.
</event>
<event>
 5   0  0.2703956E-07  0.3300667E+04  0.7818609E-02  0.8162726E-01
        2   -1    0    0  501    0  0.00000000000E+00  0.00000000000E+00  0.15401585046E+04  0.15401585046E+04  0.25500000920E-02 0.  1.
       -2   -1    0    0    0  501  0.00000000000E+00  0.00000000000E+00 -0.17683896137E+04  0.17683896137E+04  0.25500000920E-02 0. -1.
    10030    2    1    2    0    0  0.00000000000E+00  0.00000000000E+00 -0.22823110904E+03  0.33085481183E+04  0.33006667830E+04 0.  0.
        5    1    3    3  502    0 -0.70382266255E+03  0.67730393031E+02  0.13806273298E+04  0.15511633248E+04  0.46999998093E+01 0.  1.
       -5    1    3    3    0  502  0.70382266255E+03 -0.67730393031E+02 -0.16088584388E+04  0.17573847935E+04  0.46999998093E+01 0. -1.
</event>
<event>
 5   0  0.9181760E-08  0.3290951E+04  0.7818609E-02  0.8165202E-01
       -1   -1    0    0    0  501  0.00000000000E+00  0.00000000000E+00  0.18667897870E+04  0.18667897870E+04  0.50400001928E-02 0. -1.
        1   -1    0    0  501    0  0.00000000000E+00  0.00000000000E+00 -0.14503984229E+04  0.14503984229E+04  0.50400001928E-02 0.  1.
    10030    2    1    2    0    0  0.00000000000E+00  0.00000000000E+00  0.41639136415E+03  0.33171882099E+04  0.32909506000E+04 0.  0.
        1    1    3    3  502    0 -0.88641836917E+03  0.83374708287E+03 -0.90820729058E+03  0.15184571795E+04  0.50400001928E-02 0.  1.
       -1    1    3    3    0  502  0.88641836917E+03 -0.83374708287E+03  0.13245986547E+04  0.17987310303E+04  0.50400001928E-02 0. -1.
</event>
<event>
 5   0  0.2875829E-07  0.3303155E+04  0.7818609E-02  0.8162093E-01
        2   -1    0    0  501    0  0.00000000000E+00  0.00000000000E+00  0.12801146598E+04  0.12801146598E+04  0.25500000920E-02 0. -1.
       -2   -1    0    0    0  501  0.00000000000E+00  0.00000000000E+00 -0.21308311246E+04  0.21308311246E+04  0.25500000920E-02 0.  1.
    10030    2    1    2    0    0  0.00000000000E+00  0.00000000000E+00 -0.85071646472E+03  0.34109457844E+04  0.33031549526E+04 0.  0.
        3    1    3    3  502    0 -0.67903419675E+03 -0.92398548310E+03  0.80207310618E+03  0.13993419493E+04  0.10100000352E+00 0. -1.
       -3    1    3    3    0  502  0.67903419675E+03  0.92398548310E+03 -0.16527895709E+04  0.20116038351E+04  0.10100000352E+00 0.  1.
</event>
<event>
 5   0  0.2824402E-07  0.3304988E+04  0.7818609E-02  0.8161627E-01
       -2   -1    0    0    0  501  0.00000000000E+00  0.00000000000E+00  0.13652833809E+04  0.13652833809E+04  0.25500000920E-02 0.  1.
        2   -1    0    0  501    0  0.00000000000E+00  0.00000000000E+00 -0.20001245234E+04  0.20001245234E+04  0.25500000920E-02 0. -1.
    10030    2    1    2    0    0  0.00000000000E+00  0.00000000000E+00 -0.63484114251E+03  0.33654079042E+04  0.33049882126E+04 0.  0.
        1    1    3    3  502    0  0.66230385313E+03  0.11419572085E+04  0.69474501481E+03  0.14917718644E+04  0.50400001928E-02 0.  1.
       -1    1    3    3    0  502 -0.66230385313E+03 -0.11419572085E+04 -0.13295861573E+04  0.18736360398E+04  0.50400001928E-02 0. -1.
</event>
<event>
 5   0  0.2875829E-07  0.3273314E+04  0.7818609E-02  0.8169719E-01
        2   -1    0    0  501    0  0.00000000000E+00  0.00000000000E+00  0.10265076276E+04  0.10265076276E+04  0.25500000920E-02 0. -1.
       -2   -1    0    0    0  501  0.00000000000E+00  0.00000000000E+00 -0.26094752120E+04  0.26094752120E+04  0.25500000920E-02 0.  1.
    10030    2    1    2    0    0  0.00000000000E+00  0.00000000000E+00 -0.15829675844E+04  0.36359828396E+04  0.32733140449E+04 0.  0.
        3    1    3    3  502    0  0.11396209960E+04 -0.36996110862E+03  0.44696063073E+03  0.12788201797E+04  0.10100000352E+00 0. -1.
       -3    1    3    3    0  502 -0.11396209960E+04  0.36996110862E+03 -0.20299282152E+04  0.23571626599E+04  0.10100000352E+00 0.  1.
</event>
<event>
 5   0  0.9454010E-08  0.3299081E+04  0.7818609E-02  0.8163129E-01
       -1   -1    0    0    0  501  0.00000000000E+00  0.00000000000E+00  0.21222658193E+04  0.21222658193E+04  0.50400001928E-02 0. -1.
        1   -1    0    0  501    0  0.00000000000E+00  0.00000000000E+00 -0.12821125992E+04  0.12821125992E+04  0.50400001928E-02 0.  1.
    10030    2    1    2    0    0  0.00000000000E+00  0.00000000000E+00  0.84015322008E+03  0.34043784185E+04  0.32990809301E+04 0.  0.
        2    1    3    3  502    0 -0.21110541872E+03  0.44402974986E+03 -0.12047444175E+04  0.13012059898E+04  0.25500000920E-02 0.  1.
       -2    1    3    3    0  502  0.21110541872E+03 -0.44402974986E+03  0.20448976375E+04  0.21031724286E+04  0.25500000920E-02 0. -1.
</event>
<event>
 5   0  0.2713815E-07  0.3306440E+04  0.7818609E-02  0.8161259E-01
       -2   -1    0    0    0  501  0.00000000000E+00  0.00000000000E+00  0.14132822172E+04  0.14132822172E+04  0.25500000920E-02 0. -1.
        2   -1    0    0  501    0  0.00000000000E+00  0.00000000000E+00 -0.19338928529E+04  0.19338928529E+04  0.25500000920E-02 0.  1.
    10030    2    1    2    0    0  0.00000000000E+00  0.00000000000E+00 -0.52061063572E+03  0.33471750701E+04  0.33064400064E+04 0.  0.
        4    1    3    3  502    0 -0.83385296381E+03 -0.11468297642E+04 -0.11208400635E+04  0.18074328021E+04  0.12699999809E+01 0.  1.
       -4    1    3    3    0  502  0.83385296381E+03  0.11468297642E+04  0.60022942775E+03  0.15397422681E+04  0.12699999809E+01 0. -1.
</event>
<event>
 5   0  0.9810351E-08  0.3292137E+04  0.7818609E-02  0.8164899E-01
        1   -1    0    0  501    0  0.00000000000E+00  0.00000000000E+00  0.21758764046E+04  0.21758764046E+04  0.50400001928E-02 0. -1.
       -1   -1    0    0    0  501  0.00000000000E+00  0.00000000000E+00 -0.12452641798E+04  0.12452641798E+04  0.50400001928E-02 0.  1.
    10030    2    1    2    0    0  0.00000000000E+00  0.00000000000E+00  0.93061222475E+03  0.34211405844E+04  0.32921366596E+04 0.  0.
        5    1    3    3  502    0  0.83629317231E+02  0.14681002707E+04 -0.30341485183E+03  0.15014642619E+04  0.46999998093E+01 0.  1.
       -5    1    3    3    0  502 -0.83629317231E+02 -0.14681002707E+04  0.12340270766E+04  0.19196763225E+04  0.46999998093E+01 0. -1.
</event>
<event>
 5   0  0.9454010E-08  0.3299696E+04  0.7818609E-02  0.8162973E-01
       -1   -1    0    0    0  501  0.00000000000E+00  0.00000000000E+00  0.15910296459E+04  0.15910296459E+04  0.50400001928E-02 0. -1.
        1   -1    0    0  501    0  0.00000000000E+00  0.00000000000E+00 -0.17108407080E+04  0.17108407080E+04  0.50400001928E-02 0.  1.
    10030    2    1    2    0    0  0.00000000000E+00  0.00000000000E+00 -0.11981106207E+03  0.33018703539E+04  0.32996959169E+04 0.  0.
        2    1    3    3  502    0 -0.91203689636E+03  0.13729369003E+04  0.12469534821E+02  0.16483089886E+04  0.25500000920E-02 0.  1.
       -2    1    3    3    0  502  0.91203689636E+03 -0.13729369003E+04 -0.13228059689E+03  0.16535613653E+04  0.25500000920E-02 0. -1.
</event>
<event>
 5   0  0.9454010E-08  0.3300224E+04  0.7818609E-02  0.8162838E-01
        1   -1    0    0  501    0  0.00000000000E+00  0.00000000000E+00  0.12414133220E+04  0.12414133220E+04  0.50400001928E-02 0.  1.
       -1   -1    0    0    0  501  0.00000000000E+00  0.00000000000E+00 -0.21933621630E+04  0.21933621630E+04  0.50400001928E-02 0. -1.
    10030    2    1    2    0    0  0.00000000000E+00  0.00000000000E+00 -0.95194884099E+03  0.34347754849E+04  0.33002236342E+04 0.  0.
        2    1    3    3  502    0  0.12608905151E+04  0.88893567183E+03 -0.10853519971E+04  0.18862768825E+04  0.25500000920E-02 0. -1.
       -2    1    3    3    0  502 -0.12608905151E+04 -0.88893567183E+03  0.13340315614E+03  0.15484986024E+04  0.25500000920E-02 0.  1.
</event>
<event>
 5   0  0.9283910E-08  0.3310667E+04  0.7818609E-02  0.8160186E-01
       -1   -1    0    0    0  501  0.00000000000E+00  0.00000000000E+00  0.19263526086E+04  0.19263526086E+04  0.50400001928E-02 0.  1.
        1   -1    0    0  501    0  0.00000000000E+00  0.00000000000E+00 -0.14224442829E+04  0.14224442829E+04  0.50400001928E-02 0. -1.
    10030    2    1    2    0    0  0.00000000000E+00  0.00000000000E+00  0.50390832569E+03  0.33487968916E+04  0.33106671564E+04 0.  0.
        3    1    3    3  502    0 -0.12179019777E+04  0.43156102463E+03  0.12985686078E+04  0.18318871648E+04  0.10100000352E+00 0.  1.
       -3    1    3    3    0  502  0.12179019777E+04 -0.43156102463E+03 -0.79466028208E+03  0.15169097268E+04  0.10100000352E+00 0. -1.
</event>
<event>
 5   0  0.9810351E-08  0.3297227E+04  0.7818609E-02  0.8163601E-01
        1   -1    0    0  501    0  0.00000000000E+00  0.00000000000E+00  0.20260807491E+04  0.20260807491E+04  0.50400001928E-02 0. -1.
       -1   -1    0    0    0  501  0.00000000000E+00  0.00000000000E+00 -0.13414700626E+04  0.13414700626E+04  0.50400001928E-02 0.  1.
    10030    2    1    2    0    0  0.00000000000E+00  0.00000000000E+00  0.68461068655E+03  0.33675508117E+04  0.32972271195E+04 0.  0.
        5    1    3    3  502    0 -0.13106627670E+04 -0.88881350372E+03 -0.12581319014E+03  0.15886086308E+04  0.46999998093E+01 0.  1.
       -5    1    3    3    0  502  0.13106627670E+04  0.88881350372E+03  0.81042387669E+03  0.17789421809E+04  0.46999998093E+01 0. -1.
</event>
<event>
 5   0  0.2703956E-07  0.3297154E+04  0.7818609E-02  0.8163620E-01
       -2   -1    0    0    0  501  0.00000000000E+00  0.00000000000E+00  0.20491371868E+04  0.20491371868E+04  0.25500000920E-02 0.  1.
        2   -1    0    0  501    0  0.00000000000E+00  0.00000000000E+00 -0.13263174122E+04  0.13263174122E+04  0.25500000920E-02 0. -1.
    10030    2    1    2    0    0  0.00000000000E+00  0.00000000000E+00  0.72281977461E+03  0.33754545990E+04  0.32971541249E+04 0.  0.
        5    1    3    3  502    0 -0.69576936209E+03 -0.12146615722E+04  0.12528859466E+04  0.18786279635E+04  0.46999998093E+01 0.  1.
       -5    1    3    3    0  502  0.69576936209E+03  0.12146615722E+04 -0.53006617197E+03  0.14968266355E+04  0.46999998093E+01 0. -1.
</event>
<event>
 5   0  0.9283910E-08  0.3293650E+04  0.7818609E-02  0.8164513E-01
        1   -1    0    0  501    0  0.00000000000E+00  0.00000000000E+00  0.16369407750E+04  0.16369407750E+04  0.50400001928E-02 0. -1.
       -1   -1    0    0    0  501  0.00000000000E+00  0.00000000000E+00 -0.16567689125E+04  0.16567689125E+04  0.50400001928E-02 0.  1.
    10030    2    1    2    0    0  0.00000000000E+00  0.00000000000E+00 -0.19828137521E+02  0.32937096876E+04  0.32936500043E+04 0.  0.
        3    1    3    3  502    0  0.53917612019E+03 -0.11413682918E+04 -0.10675721664E+04  0.16532219472E+04  0.10100000352E+00 0.  1.
       -3    1    3    3    0  502 -0.53917612019E+03  0.11413682918E+04  0.10477440289E+04  0.16404877404E+04  0.10100000352E+00 0. -1.
</event>
<event>
 5   0  0.9810351E-08  0.3300266E+04  0.7818609E-02  0.8162828E-01
        1   -1    0    0  501    0  0.00000000000E+00  0.00000000000E+00  0.21913691735E+04  0.21913691735E+04  0.50400001928E-02 0. -1.
       -1   -1    0    0    0  501  0.00000000000E+00  0.00000000000E+00 -0.12425741927E+04  0.12425741927E+04  0.50400001928E-02 0.  1.
    10030    2    1    2    0    0  0.00000000000E+00  0.00000000000E+00  0.94879498083E+03  0.34339433661E+04  0.33002659175E+04 0.  0.
        5    1    3    3  502    0 -0.72203977244E+02 -0.15004878979E+04 -0.23607726986E+03  0.15206682457E+04  0.46999998093E+01 0.  1.
       -5    1    3    3    0  502  0.72203977244E+02  0.15004878979E+04  0.11848722507E+04  0.19132751205E+04  0.46999998093E+01 0. -1.
</event>
<event>
 5   0  0.8805125E-08  0.3326503E+04  0.7818609E-02  0.8156184E-01
        1   -1    0    0  501    0  0.00000000000E+00  0.00000000000E+00  0.25920224774E+04  0.25920224774E+04  0.50400001928E-02 0.  1.
       -1   -1    0    0    0  501  0.00000000000E+00  0.00000000000E+00 -0.10672768186E+04  0.10672768186E+04  0.50400001928E-02 0. -1.
    10030    2    1    2    0    0  0.00000000000E+00  0.00000000000E+00  0.15247456588E+04  0.36592992960E+04  0.33265029707E+04 0.  0.
        4    1    3    3  502    0 -0.16284986818E+04 -0.33821027889E+03  0.76580614305E+03  0.18310802307E+04  0.12699999809E+01 0.  1.
       -4    1    3    3    0  502  0.16284986818E+04  0.33821027889E+03  0.75893951576E+03  0.18282190654E+04  0.12699999809E+01 0. -1.
</event>
<event>
 5   0  0.9454010E-08  0.3299060E+04  0.7818609E-02  0.8163134E-01
        1   -1    0    0  501    0  0.00000000000E+00  0.00000000000E+00  0.13446307502E+04  0.13446307503E+04  0.50400001928E-02 0. -1.
       -1   -1    0    0    0  501  0.00000000000E+00  0.00000000000E+00 -0.20235666831E+04  0.20235666831E+04  0.50400001928E-02 0.  1.
    10030    2    1    2    0    0  0.00000000000E+00  0.00000000000E+00 -0.67893593284E+03  0.33681974334E+04  0.32990604646E+04 0.  0.
        2    1    3    3  502    0 -0.11895789226E+04 -0.49497926236E+03 -0.13910272085E+04  0.18960641282E+04  0.25500000920E-02 0.  1.
       -2    1    3    3    0  502  0.11895789226E+04  0.49497926236E+03  0.71209127570E+03  0.14721333052E+04  0.25500000920E-02 0. -1.
</event>
<event>
 5   0  0.2727168E-07  0.3250944E+04  0.7818609E-02  0.8175491E-01
        2   -1    0    0  501    0  0.00000000000E+00  0.00000000000E+00  0.98828304516E+03  0.98828304516E+03  0.25500000920E-02 0.  1.
       -2   -1    0    0    0  501  0.00000000000E+00  0.00000000000E+00 -0.26734850630E+04  0.26734850630E+04  0.25500000920E-02 0. -1.
    10030    2    1    2    0    0  0.00000000000E+00  0.00000000000E+00 -0.16852020179E+04  0.36617681082E+04  0.32509444531E+04 0.  0.
        2    1    3    3  502    0 -0.10869963113E+04 -0.74231804515E+03  0.23162993245E+03  0.13365064484E+04  0.25500000920E-02 0.  1.
       -2    1    3    3    0  502  0.10869963113E+04  0.74231804515E+03 -0.19168319503E+04  0.23252616598E+04  0.25500000920E-02 0. -1.
</event>
<event>
 5   0  0.2875829E-07  0.3232738E+04  0.7818609E-02  0.8180224E-01
        2   -1    0    0  501    0  0.00000000000E+00  0.00000000000E+00  0.16088550466E+04  0.16088550466E+04  0.25500000920E-02 0.  1.
       -2   -1    0    0    0  501  0.00000000000E+00  0.00000000000E+00 -0.16239176518E+04  0.16239176518E+04  0.25500000920E-02 0. -1.
    10030    2    1    2    0    0  0.00000000000E+00  0.00000000000E+00 -0.15062605121E+02  0.32327726984E+04  0.32327376073E+04 0.  0.
        3    1    3    3  502    0  0.20451945446E+03  0.89551038449E+03 -0.13375386129E+04  0.16225833129E+04  0.10100000352E+00 0. -1.
       -3    1    3    3    0  502 -0.20451945446E+03 -0.89551038449E+03  0.13224760078E+04  0.16101893856E+04  0.10100000352E+00 0.  1.
</event>
<event>
 5   0  0.2713815E-07  0.3299223E+04  0.7818609E-02  0.8163093E-01
        2   -1    0    0  501    0  0.00000000000E+00  0.00000000000E+00  0.17339083650E+04  0.17339083650E+04  0.25500000920E-02 0.  1.
       -2   -1    0    0    0  501  0.00000000000E+00  0.00000000000E+00 -0.15694128104E+04  0.15694128104E+04  0.25500000920E-02 0. -1.
    10030    2    1    2    0    0  0.00000000000E+00  0.00000000000E+00  0.16449555463E+03  0.33033211755E+04  0.32992229389E+04 0.  0.
        4    1    3    3  502    0 -0.14179155786E+04  0.79631438051E+03  0.35938612715E+03  0.16654612520E+04  0.12699999809E+01 0.  1.
       -4    1    3    3    0  502  0.14179155786E+04 -0.79631438051E+03 -0.19489057252E+03  0.16378599234E+04  0.12699999809E+01 0. -1.
</event>
<event>
 5   0  0.9810351E-08  0.3289968E+04  0.7818609E-02  0.8165453E-01
       -1   -1    0    0    0  501  0.00000000000E+00  0.00000000000E+00  0.15063554686E+04  0.15063554686E+04  0.50400001928E-02 0.  1.
        1   -1    0    0  501    0  0.00000000000E+00  0.00000000000E+00 -0.17963704612E+04  0.17963704612E+04  0.50400001928E-02 0. -1.
    10030    2    1    2    0    0  0.00000000000E+00  0.00000000000E+00 -0.29001499263E+03  0.33027259299E+04  0.32899680655E+04 0.  0.
        5    1    3    3  502    0  0.57787774286E+03 -0.12617859846E+04 -0.10315537070E+04  0.17292112933E+04  0.46999998093E+01 0. -1.
       -5    1    3    3    0  502 -0.57787774286E+03  0.12617859846E+04  0.74153871436E+03  0.15735146365E+04  0.46999998093E+01 0.  1.
</event>
<event>
 5   0  0.2824402E-07  0.3296817E+04  0.7818609E-02  0.8163706E-01
        2   -1    0    0  501    0  0.00000000000E+00  0.00000000000E+00  0.18220523423E+04  0.18220523423E+04  0.25500000920E-02 0.  1.
       -2   -1    0    0    0  501  0.00000000000E+00  0.00000000000E+00 -0.14913130749E+04  0.14913130749E+04  0.25500000920E-02 0. -1.
    10030    2    1    2    0    0  0.00000000000E+00  0.00000000000E+00  0.33073926742E+03  0.33133654172E+04  0.32968169383E+04 0.  0.
        1    1    3    3  502    0 -0.74566598286E+03  0.10710793311E+04 -0.84667145671E+03  0.15556610322E+04  0.50400001928E-02 0. -1.
       -1    1    3    3    0  502  0.74566598286E+03 -0.10710793311E+04  0.11774107241E+04  0.17577043850E+04  0.50400001928E-02 0.  1.
</event>
<event>
 5   0  0.2703956E-07  0.3301342E+04  0.7818609E-02  0.8162554E-01
       -2   -1    0    0    0  501  0.00000000000E+00  0.00000000000E+00  0.13800085063E+04  0.13800085063E+04  0.25500000920E-02 0. -1.
        2   -1    0    0  501    0  0.00000000000E+00  0.00000000000E+00 -0.19744182196E+04  0.19744182196E+04  0.25500000920E-02 0.  1.
    10030    2    1    2    0    0  0.00000000000E+00  0.00000000000E+00 -0.59440971331E+03  0.33544267259E+04  0.33013415079E+04 0.  0.
        5    1    3    3  502    0  0.16377835254E+04  0.20402290595E+03 -0.32468838000E+03  0.16820834867E+04  0.46999998093E+01 0.  1.
       -5    1    3    3    0  502 -0.16377835254E+04 -0.20402290595E+03 -0.26972133331E+03  0.16723432392E+04  0.46999998093E+01 0. -1.
</event>
<event>
 5   0  0.8805125E-08  0.3296394E+04  0.7818609E-02  0.8163814E-01
       -1   -1    0    0    0  501  0.00000000000E+00  0.00000000000E+00  0.21236363251E+04  0.21236363251E+04  0.50400001928E-02 0.  1.
        1   -1    0    0  501    0  0.00000000000E+00  0.00000000000E+00 -0.12791987923E+04  0.12791987923E+04  0.50400001928E-02 0. -1.
    10030    2    1    2    0    0  0.00000000000E+00  0.00000000000E+00  0.84443753276E+03  0.34028351174E+04  0.32963938007E+04 0.  0.
        4    1    3    3  502    0  0.34512795427E+03  0.13900063536E+04 -0.41979123671E+03  0.14924668382E+04  0.12699999809E+01 0. -1.
       -4    1    3    3    0  502 -0.34512795427E+03 -0.13900063536E+04  0.12642287695E+04  0.19103682792E+04  0.12699999809E+01 0.  1.
</event>
<event>
 5   0  0.9454010E-08  0.3302465E+04  0.7818609E-02  0.8162268E-01
       -1   -1    0    0    0  501  0.00000000000E+00  0.00000000000E+00  0.14018434715E+04  0.14018434715E+04  0.50400001928E-02 0.  1.
        1   -1    0    0  501    0  0.00000000000E+00  0.00000000000E+00 -0.19449882628E+04  0.19449882628E+04  0.50400001928E-02 0. -1.
    10030    2    1    2    0    0  0.00000000000E+00  0.00000000000E+00 -0.54314479133E+03  0.33468317343E+04  0.33024651994E+04 0.  0.
        2    1    3    3  502    0  0.43159266276E+03  0.15808478964E+04 -0.47731904189E+03  0.17068057200E+04  0.25500000920E-02 0.  1.
       -2    1    3    3    0  502 -0.43159266276E+03 -0.15808478964E+04 -0.65825749443E+02  0.16400260143E+04  0.25500000920E-02 0. -1.
</event>
<event>
 5   0  0.9454010E-08  0.3297826E+04  0.7818609E-02  0.8163449E-01
        1   -1    0    0  501    0  0.00000000000E+00  0.00000000000E+00  0.24984220373E+04  0.24984220374E+04  0.50400001928E-02 0.  1.
       -1   -1    0    0    0  501  0.00000000000E+00  0.00000000000E+00 -0.10882524680E+04  0.10882524680E+04  0.50400001928E-02 0. -1.
    10030    2    1    2    0    0  0.00000000000E+00  0.00000000000E+00  0.14101695693E+04  0.35866745054E+04  0.32978259192E+04 0.  0.
        2    1    3    3  502    0 -0.60476272625E+03  0.34896723276E+03 -0.91953876871E+03  0.11545854805E+04  0.25500000920E-02 0. -1.
       -2    1    3    3    0  502  0.60476272625E+03 -0.34896723276E+03  0.23297083380E+04  0.24320890249E+04  0.25500000920E-02 0.  1.
</event>
<event>
 5   0  0.9810351E-08  0.3303071E+04  0.7818609E-02  0.8162114E-01
        1   -1    0    0  501    0  0.00000000000E+00  0.00000000000E+00  0.10450202319E+04  0.10450202319E+04  0.50400001928E-02 0.  1.
       -1   -1    0    0    0  501  0.00000000000E+00  0.00000000000E+00 -0.26100641399E+04  0.26100641399E+04  0.50400001928E-02 0. -1.
    10030    2    1    2    0    0  0.00000000000E+00  0.00000000000E+00 -0.15650439080E+04  0.36550843718E+04  0.33030711967E+04 0.  0.
        5    1    3    3  502    0 -0.17966430174E+03 -0.15795161631E+04 -0.28715701400E+03  0.16154354866E+04  0.46999998093E+01 0.  1.
       -5    1    3    3    0  502  0.17966430174E+03  0.15795161631E+04 -0.12778868940E+04  0.20396488851E+04  0.46999998093E+01 0. -1.
</event>
<event>
 5   0  0.8805125E-08  0.3297005E+04  0.7818609E-02  0.8163658E-01
        1   -1    0    0  501    0  0.00000000000E+00  0.00000000000E+00  0.25236493230E+04  0.25236493230E+04  0.50400001928E-02 0.  1.
       -1   -1    0    0    0  501  0.00000000000E+00  0.00000000000E+00 -0.10768375969E+04  0.10768375970E+04  0.50400001928E-02 0. -1.
    10030    2    1    2    0    0  0.00000000000E+00  0.00000000000E+00  0.14468117260E+04  0.36004869199E+04  0.32970049879E+04 0.  0.
        4    1    3    3  502    0  0.76200196113E+03 -0.14309241194E+04  0.10498679394E+04  0.19314282610E+04  0.12699999809E+01 0.  1.
       -4    1    3    3    0  502 -0.76200196113E+03  0.14309241194E+04  0.39694378667E+03  0.16690586589E+04  0.12699999809E+01 0. -1.
</event>
<event>
 5   0  0.2727168E-07  0.3302977E+04  0.7818609E-02  0.8162138E-01
        2   -1    0    0  501    0  0.00000000000E+00  0.00000000000E+00  0.12075522029E+04  0.12075522029E+04  0.25500000920E-02 0.  1.
       -2   -1    0    0    0  501  0.00000000000E+00  0.00000000000E+00 -0.22586304890E+04  0.22586304890E+04  0.25500000920E-02 0. -1.
    10030    2    1    2    0    0  0.00000000000E+00  0.00000000000E+00 -0.10510782861E+04  0.34661826919E+04  0.33029769739E+04 0.  0.
        2    1    3    3  502    0  0.14168216063E+04 -0.78344035379E+03 -0.86760868015E+03  0.18368198262E+04  0.25500000920E-02 0. -1.
       -2    1    3    3    0  502 -0.14168216063E+04  0.78344035379E+03 -0.18346960595E+03  0.16293628657E+04  0.25500000920E-02 0.  1.
</event>
<event>
 5   0  0.2727168E-07  0.3304993E+04  0.7818609E-02  0.8161626E-01
       -2   -1    0    0    0  501  0.00000000000E+00  0.00000000000E+00  0.10860706877E+04  0.10860706877E+04  0.25500000920E-02 0. -1.
        2   -1    0    0  501    0  0.00000000000E+00  0.00000000000E+00 -0.25143346289E+04  0.25143346289E+04  0.25500000920E-02 0.  1.
    10030    2    1    2    0    0  0.00000000000E+00  0.00000000000E+00 -0.14282639412E+04  0.36004053166E+04  0.33049932765E+04 0.  0.
        2    1    3    3  502    0  0.10276991879E+04 -0.12937135562E+04 -0.68172847165E+03  0.17873483419E+04  0.25500000920E-02 0.  1.
       -2    1    3    3    0  502 -0.10276991879E+04  0.12937135562E+04 -0.74653546954E+03  0.18130569747E+04  0.25500000920E-02 0. -1.
</event>
<event>
 5   0  0.2875829E-07  0.3304692E+04  0.7818609E-02  0.8161702E-01
        2   -1    0    0  501    0  0.00000000000E+00  0.00000000000E+00  0.18905139578E+04  0.18905139578E+04  0.25500000920E-02 0. -1.
       -2   -1    0    0    0  501  0.00000000000E+00  0.00000000000E+00 -0.14441828863E+04  0.14441828864E+04  0.25500000920E-02 0.  1.
    10030    2    1    2    0    0  0.00000000000E+00  0.00000000000E+00  0.44633107140E+03  0.33346968441E+04  0.33046923634E+04 0.  0.
        3    1    3    3  502    0  0.64526618910E+03  0.12214346877E+04 -0.69169540582E+03  0.15448992510E+04  0.10100000352E+00 0.  1.
       -3    1    3    3    0  502 -0.64526618910E+03 -0.12214346877E+04  0.11380264772E+04  0.17897975931E+04  0.10100000352E+00 0. -1.
</event>
<event>
 5   0  0.9181760E-08  0.3293939E+04  0.7818609E-02  0.8164439E-01
       -1   -1    0    0    0  501  0.00000000000E+00  0.00000000000E+00  0.16478998732E+04  0.16478998732E+04  0.50400001928E-02 0. -1.
        1   -1    0    0  501    0  0.00000000000E+00  0.00000000000E+00 -0.16460396408E+04  0.16460396408E+04  0.50400001928E-02 0.  1.
    10030    2    1    2    0    0  0.00000000000E+00  0.00000000000E+00  0.18602324684E+01  0.32939395140E+04  0.32939389887E+04 0.  0.
        1    1    3    3  502    0 -0.35974820259E+03 -0.34527725460E+01  0.16081260123E+04  0.16478774112E+04  0.50400001928E-02 0. -1.
       -1    1    3    3    0  502  0.35974820259E+03  0.34527725460E+01 -0.16062657798E+04  0.16460621028E+04  0.50400001928E-02 0.  1.
</event>
<event>
 5   0  0.9454010E-08  0.3288456E+04  0.7818609E-02  0.8165839E-01
       -1   -1    0    0    0  501  0.00000000000E+00  0.00000000000E+00  0.19460462354E+04  0.19460462354E+04  0.50400001928E-02 0. -1.
        1   -1    0    0  501    0  0.00000000000E+00  0.00000000000E+00 -0.13892199974E+04  0.13892199974E+04  0.50400001928E-02 0.  1.
    10030    2    1    2    0    0  0.00000000000E+00  0.00000000000E+00  0.55682623805E+03  0.33352662328E+04  0.32884563832E+04 0.  0.
        2    1    3    3  502    0  0.52297592974E+03 -0.59101095578E+03 -0.11845789159E+04  0.14233850431E+04  0.25500000920E-02 0.  1.
       -2    1    3    3    0  502 -0.52297592974E+03  0.59101095578E+03  0.17414051540E+04  0.19118811896E+04  0.25500000920E-02 0. -1.
</event>
<event>
 5   0  0.9454010E-08  0.3301988E+04  0.7818609E-02  0.8162390E-01
        1   -1    0    0  501    0  0.00000000000E+00  0.00000000000E+00  0.20835758916E+04  0.20835758916E+04  0.50400001928E-02 0. -1.
       -1   -1    0    0    0  501  0.00000000000E+00  0.00000000000E+00 -0.13082226840E+04  0.13082226840E+04  0.50400001928E-02 0.  1.
    10030    2    1    2    0    0  0.00000000000E+00  0.00000000000E+00  0.77535320758E+03  0.33917985756E+04  0.33019880346E+04 0.  0.
        2    1    3    3  502    0  0.11021576228E+04  0.89269394598E+03  0.12557218996E+04  0.18943313849E+04  0.25500000920E-02 0. -1.
       -2    1    3    3    0  502 -0.11021576228E+04 -0.89269394598E+03 -0.48036869204E+03  0.14974671906E+04  0.25500000920E-02 0.  1.
</event>
<event>
 5   0  0.2875829E-07  0.3297357E+04  0.7818609E-02  0.8163568E-01
        2   -1    0    0  501    0  0.00000000000E+00  0.00000000000E+00  0.29644554740E+04  0.29644554740E+04  0.25500000920E-02 0. -1.
       -2   -1    0    0    0  501  0.00000000000E+00  0.00000000000E+00 -0.91691060697E+03  0.91691060698E+03  0.25500000920E-02 0.  1.
    10030    2    1    2    0    0  0.00000000000E+00  0.00000000000E+00  0.20475448670E+04  0.38813660810E+04  0.32973569222E+04 0.  0.
        3    1    3    3  502    0 -0.14179555623E+04  0.77385931112E+03  0.14118355330E+04  0.21453987490E+04  0.10100000352E+00 0. -1.
       -3    1    3    3    0  502  0.14179555623E+04 -0.77385931112E+03  0.63570933402E+03  0.17359673319E+04  0.10100000352E+00 0.  1.
</event>
<event>
 5   0  0.2727168E-07  0.3300281E+04  0.7818609E-02  0.8162824E-01
       -2   -1    0    0    0  501  0.00000000000E+00  0.00000000000E+00  0.11330415976E+04  0.11330415976E+04  0.25500000920E-02 0. -1.
        2   -1    0    0  501    0  0.00000000000E+00  0.00000000000E+00 -0.24032332655E+04  0.24032332655E+04  0.25500000920E-02 0.  1.
    10030    2    1    2    0    0  0.00000000000E+00  0.00000000000E+00 -0.12701916679E+04  0.35362748631E+04  0.33002807508E+04 0.  0.
        2    1    3    3  502    0 -0.18574265112E+03  0.10382921557E+04 -0.19948602458E+04  0.22565500955E+04  0.25500000920E-02 0.  1.
       -2    1    3    3    0  502  0.18574265112E+03 -0.10382921557E+04  0.72466857789E+03  0.12797247676E+04  0.25500000920E-02 0. -1.
</event>
<event>
 5   0  0.2727168E-07  0.3304367E+04  0.7818609E-02  0.8161785E-01
        2   -1    0    0  501    0  0.00000000000E+00  0.00000000000E+00  0.27982403926E+04  0.27982403926E+04  0.25500000920E-02 0.  1.
       -2   -1    0    0    0  501  0.00000000000E+00  0.00000000000E+00 -0.97550979276E+03  0.97550979276E+03  0.25500000920E-02 0. -1.
    10030    2    1    2    0    0  0.00000000000E+00  0.00000000000E+00  0.18227305998E+04  0.37737501853E+04  0.33043673558E+04 0.  0.
        2    1    3    3  502    0  0.11015614761E+04 -0.17078798617E+03  0.23040589485E+04  0.25595495424E+04  0.25500000920E-02 0.  1.
       -2    1    3    3    0  502 -0.11015614761E+04  0.17078798617E+03 -0.48132834872E+03  0.12142006429E+04  0.25500000920E-02 0. -1.
</event>
<event>
 5   0  0.8805125E-08  0.3301745E+04  0.7818609E-02  0.8162451E-01
        1   -1    0    0  501    0  0.00000000000E+00  0.00000000000E+00  0.25905234349E+04  0.25905234349E+04  0.50400001928E-02 0.  1.
       -1   -1    0    0    0  501  0.00000000000E+00  0.00000000000E+00 -0.10520578547E+04  0.10520578547E+04  0.50400001928E-02 0. -1.
    10030    2    1    2    0    0  0.00000000000E+00  0.00000000000E+00  0.15384655802E+04  0.36425812896E+04  0.33017453127E+04 0.  0.
        4    1    3    3  502    0  0.10504816179E+04  0.85108477684E+03  0.18144059077E+04  0.22627256435E+04  0.12699999809E+01 0.  1.
       -4    1    3    3    0  502 -0.10504816179E+04 -0.85108477684E+03 -0.27594032755E+03  0.13798556461E+04  0.12699999809E+01 0. -1.
</event>
<event>
 5   0  0.2824402E-07  0.3303696E+04  0.7818609E-02  0.8161956E-01
       -2   -1    0    0    0  501  0.00000000000E+00  0.00000000000E+00  0.27997625050E+04  0.27997625050E+04  0.25500000920E-02 0.  1.
        2   -1    0    0  501    0  0.00000000000E+00  0.00000000000E+00 -0.97458327006E+03  0.97458327006E+03  0.25500000920E-02 0. -1.
    10030    2    1    2    0    0  0.00000000000E+00  0.00000000000E+00  0.18251792349E+04  0.37743457750E+04  0.33036959288E+04 0.  0.
        1    1    3    3  502    0  0.37589647961E+03 -0.10193250546E+04 -0.50897420770E+03  0.11997401695E+04  0.50400001928E-02 0. -1.
       -1    1    3    3    0  502 -0.37589647961E+03  0.10193250546E+04  0.23341534426E+04  0.25746056055E+04  0.50400001928E-02 0.  1.
</event>
<event>
 5   0  0.2875829E-07  0.3296883E+04  0.7818609E-02  0.8163689E-01
        2   -1    0    0  501    0  0.00000000000E+00  0.00000000000E+00  0.20382749995E+04  0.20382749995E+04  0.25500000920E-02 0. -1.
       -2   -1    0    0    0  501  0.00000000000E+00  0.00000000000E+00 -0.13331665553E+04  0.13331665553E+04  0.25500000920E-02 0.  1.
    10030    2    1    2    0    0  0.00000000000E+00  0.00000000000E+00  0.70510844417E+03  0.33714415548E+04  0.32968834130E+04 0.  0.
        3    1    3    3  502    0 -0.38578624034E+03  0.20937186812E+02 -0.12862128218E+04  0.13429865309E+04  0.10100000352E+00 0.  1.
       -3    1    3    3    0  502  0.38578624034E+03 -0.20937186812E+02  0.19913212660E+04  0.20284550238E+04  0.10100000352E+00 0. -1.
</event>
<event>
 5   0  0.9454010E-08  0.3307927E+04  0.7818609E-02  0.8160881E-01
        1   -1    0    0  501    0  0.00000000000E+00  0.00000000000E+00  0.19791480070E+04  0.19791480070E+04  0.50400001928E-02 0.  1.
       -1   -1    0    0    0  501  0.00000000000E+00  0.00000000000E+00 -0.13822081639E+04  0.13822081639E+04  0.50400001928E-02 0. -1.
    10030    2    1    2    0    0  0.00000000000E+00  0.00000000000E+00  0.59693984307E+03  0.33613561709E+04  0.33079265607E+04 0.  0.
        2    1    3    3  502    0 -0.54860112777E+03  0.49012345488E+03 -0.12068111262E+04  0.14133567464E+04  0.25500000920E-02 0. -1.
       -2    1    3    3    0  502  0.54860112777E+03 -0.49012345488E+03  0.18037509693E+04  0.19479994244E+04  0.25500000920E-02 0.  1.
</event>
<event>
 5   0  0.2875829E-07  0.3292422E+04  0.7818609E-02  0.8164826E-01
        2   -1    0    0  501    0  0.00000000000E+00  0.00000000000E+00  0.15480885012E+04  0.15480885012E+04  0.25500000920E-02 0. -1.
       -2   -1    0    0    0  501  0.00000000000E+00  0.00000000000E+00 -0.17505526575E+04  0.17505526575E+04  0.25500000920E-02 0.  1.
    10030    2    1    2    0    0  0.00000000000E+00  0.00000000000E+00 -0.20246415637E+03  0.32986411587E+04  0.32924218684E+04 0.  0.
        3    1    3    3  502    0 -0.11771236605E+04  0.58992379000E+02  0.10502475148E+04  0.15786450093E+04  0.10100000352E+00 0. -1.
       -3    1    3    3    0  502  0.11771236605E+04 -0.58992379000E+02 -0.12527116711E+04  0.17199961494E+04  0.10100000352E+00 0.  1.
</event>
<event>
 5   0  0.2727168E-07  0.3300157E+04  0.7818609E-02  0.8162856E-01
        2   -1    0    0  501    0  0.00000000000E+00  0.00000000000E+00  0.13838796504E+04  0.13838796504E+04  0.25500000920E-02 0. -1.
       -2   -1    0    0    0  501  0.00000000000E+00  0.00000000000E+00 -0.19674821848E+04  0.19674821848E+04  0.25500000920E-02 0.  1.
    10030    2    1    2    0    0  0.00000000000E+00  0.00000000000E+00 -0.58360253436E+03  0.33513618352E+04  0.33001566982E+04 0.  0.
        2    1    3    3  502    0  0.23076700236E+02 -0.14035357757E+04 -0.11726191888E+04  0.18290656002E+04  0.25500000920E-02 0.  1.
       -2    1    3    3    0  502 -0.23076700236E+02  0.14035357757E+04  0.58901665447E+03  0.15222962350E+04  0.25500000920E-02 0. -1.
</event>
<event>
 5   0  0.2703956E-07  0.3300202E+04  0.7818609E-02  0.8162844E-01
        2   -1    0    0  501    0  0.00000000000E+00  0.00000000000E+00  0.16992798697E+04  0.16992798697E+04  0.25500000920E-02 0. -1.
       -2   -1    0    0    0  501  0.00000000000E+00  0.00000000000E+00 -0.16023455143E+04  0.16023455143E+04  0.25500000920E-02 0.  1.
    10030    2    1    2    0    0  0.00000000000E+00  0.00000000000E+00  0.96934355416E+02  0.33016253839E+04  0.33002021009E+04 0.  0.
        5    1    3    3  502    0  0.14828635282E+04  0.20553138566E+03  0.74280107119E+03  0.16711980478E+04  0.46999998093E+01 0. -1.
       -5    1    3    3    0  502 -0.14828635282E+04 -0.20553138566E+03 -0.64586671578E+03  0.16304273361E+04  0.46999998093E+01 0.  1.
</event>
<event>
 5   0  0.9810351E-08  0.3301602E+04  0.7818609E-02  0.8162488E-01
        1   -1    0    0  501    0  0.00000000000E+00  0.00000000000E+00  0.18618021645E+04  0.18618021645E+04  0.50400001928E-02 0. -1.
       -1   -1    0    0    0  501  0.00000000000E+00  0.00000000000E+00 -0.14637126888E+04  0.14637126888E+04  0.50400001928E-02 0.  1.
    10030    2    1    2    0    0  0.00000000000E+00  0.00000000000E+00  0.39808947565E+03  0.33255148533E+04  0.33016017035E+04 0.  0.
        5    1    3    3  502    0  0.75191544505E+03  0.34303029858E+03 -0.12403172480E+04  0.14904548258E+04  0.46999998093E+01 0.  1.
       -5    1    3    3    0  502 -0.75191544505E+03 -0.34303029858E+03  0.16384067236E+04  0.18350600274E+04  0.46999998093E+01 0. -1.
</event>
<event>
 5   0  0.9810351E-08  0.3303523E+04  0.7818609E-02  0.8162000E-01
       -1   -1    0    0    0  501  0.00000000000E+00  0.00000000000E+00  0.12060762212E+04  0.12060762212E+04  0.50400001928E-02 0. -1.
        1   -1    0    0  501    0  0.00000000000E+00  0.00000000000E+00 -0.22621422847E+04  0.22621422847E+04  0.50400001928E-02 0.  1.
    10030    2    1    2    0    0  0.00000000000E+00  0.00000000000E+00 -0.10560660635E+04  0.34682185059E+04  0.33035229793E+04 0.  0.
        5    1    3    3  502    0 -0.28232272146E+03  0.20205864387E+03  0.11673308958E+04  0.12178741006E+04  0.46999998093E+01 0. -1.
       -5    1    3    3    0  502  0.28232272146E+03 -0.20205864387E+03 -0.22233969592E+04  0.22503444054E+04  0.46999998093E+01 0.  1.
</event>
<event>
 5   0  0.2824402E-07  0.3301672E+04  0.7818609E-02  0.8162470E-01
       -2   -1    0    0    0  501  0.00000000000E+00  0.00000000000E+00  0.10174448353E+04  0.10174448353E+04  0.25500000920E-02 0. -1.
        2   -1    0    0  501    0  0.00000000000E+00  0.00000000000E+00 -0.26785322122E+04  0.26785322122E+04  0.25500000920E-02 0.  1.
    10030    2    1    2    0    0  0.00000000000E+00  0.00000000000E+00 -0.16610873769E+04  0.36959770476E+04  0.33016715558E+04 0.  0.
        1    1    3    3  502    0 -0.49019901021E+03  0.10820514773E+04 -0.21138025758E+04  0.24247250976E+04  0.50400001928E-02 0.  1.
       -1    1    3    3    0  502  0.49019901021E+03 -0.10820514773E+04  0.45271519893E+03  0.12712519500E+04  0.50400001928E-02 0. -1.
</event>
<event>
 5   0  0.8805125E-08  0.3294321E+04  0.7818609E-02  0.8164342E-01
        1   -1    0    0  501    0  0.00000000000E+00  0.00000000000E+00  0.20433534625E+04  0.20433534625E+04  0.50400001928E-02 0.  1.
       -1   -1    0    0    0  501  0.00000000000E+00  0.00000000000E+00 -0.13277870891E+04  0.13277870891E+04  0.50400001928E-02 0. -1.
    10030    2    1    2    0    0  0.00000000000E+00  0.00000000000E+00  0.71556637342E+03  0.33711405516E+04  0.32943213844E+04 0.  0.
        4    1    3    3  502    0  0.78829277536E+03 -0.43646474199E+03 -0.10532206559E+04  0.13860672183E+04  0.12699999809E+01 0. -1.
       -4    1    3    3    0  502 -0.78829277536E+03  0.43646474199E+03  0.17687870293E+04  0.19850733333E+04  0.12699999809E+01 0.  1.
</event>
<event>
 5   0  0.2727168E-07  0.3238903E+04  0.7818609E-02  0.8178618E-01
       -2   -1    0    0    0  501  0.00000000000E+00  0.00000000000E+00  0.17447407682E+04  0.17447407682E+04  0.25500000920E-02 0.  1.
        2   -1    0    0  501    0  0.00000000000E+00  0.00000000000E+00 -0.15031589132E+04  0.15031589132E+04  0.25500000920E-02 0. -1.
    10030    2    1    2    0    0  0.00000000000E+00  0.00000000000E+00  0.24158185495E+03  0.32478996814E+04  0.32389026765E+04 0.  0.
        2    1    3    3  502    0  0.48539716371E+03 -0.13328395999E+03 -0.14227208030E+04  0.15091419760E+04  0.25500000920E-02 0. -1.
       -2    1    3    3    0  502 -0.48539716371E+03  0.13328395999E+03  0.16643026580E+04  0.17387577053E+04  0.25500000920E-02 0.  1.
</event>
<event>
 5   0  0.9181760E-08  0.3304233E+04  0.7818609E-02  0.8161819E-01
       -1   -1    0    0    0  501  0.00000000000E+00  0.00000000000E+00  0.13304213247E+04  0.13304213247E+04  0.50400001928E-02 0.  1.
        1   -1    0    0  501    0  0.00000000000E+00  0.00000000000E+00 -0.20515978523E+04  0.20515978523E+04  0.50400001928E-02 0. -1.
    10030    2    1    2    0    0  0.00000000000E+00  0.00000000000E+00 -0.72117652761E+03  0.33820191770E+04  0.33042333649E+04 0.  0.
        1    1    3    3  502    0  0.13063827255E+04 -0.93661154435E+03 -0.75116351007E+03  0.17742952487E+04  0.50400001928E-02 0.  1.
       -1    1    3    3    0  502 -0.13063827255E+04  0.93661154435E+03  0.29986982452E+02  0.16077239283E+04  0.50400001928E-02 0. -1.
</event>
<event>
 5   0  0.2713815E-07  0.3293731E+04  0.7818609E-02  0.8164492E-01
       -2   -1    0    0    0  501  0.00000000000E+00  0.00000000000E+00  0.18069882930E+04  0.18069882930E+04  0.25500000920E-02 0. -1.
        2   -1    0    0  501    0  0.00000000000E+00  0.00000000000E+00 -0.15009317068E+04  0.15009317068E+04  0.25500000920E-02 0.  1.
    10030    2    1    2    0    0  0.00000000000E+00  0.00000000000E+00  0.30605658619E+03  0.33079199998E+04  0.32937310290E+04 0.  0.
        4    1    3    3  502    0  0.36132359812E+03  0.60737469620E+03 -0.13408963412E+04  0.15157385576E+04  0.12699999809E+01 0.  1.
       -4    1    3    3    0  502 -0.36132359812E+03 -0.60737469620E+03  0.16469529274E+04  0.17921814423E+04  0.12699999809E+01 0. -1.
</event>
<event>
 5   0  0.8805125E-08  0.3304440E+04  0.7818609E-02  0.8161766E-01
       -1   -1    0    0    0  501  0.00000000000E+00  0.00000000000E+00  0.12810615244E+04  0.12810615244E+04  0.50400001928E-02 0.  1.
        1   -1    0    0  501    0  0.00000000000E+00  0.00000000000E+00 -0.21309138494E+04  0.21309138494E+04  0.50400001928E-02 0. -1.
    10030    2    1    2    0    0  0.00000000000E+00  0.00000000000E+00 -0.84985232503E+03  0.34119753738E+04  0.33044404938E+04 0.  0.
        4    1    3    3  502    0  0.59827640863E+03 -0.12603051988E+04  0.48904971821E+03  0.14783352445E+04  0.12699999809E+01 0.  1.
       -4    1    3    3    0  502 -0.59827640863E+03  0.12603051988E+04 -0.13389020432E+04  0.19336401293E+04  0.12699999809E+01 0. -1.
</event>
<event>
 5   0  0.8805125E-08  0.3284631E+04  0.7818609E-02  0.8166817E-01
       -4   -1    0    0    0  501  0.00000000000E+00  0.00000000000E+00  0.22910114314E+04  0.22910117834E+04  0.12699999809E+01 0. -1.
        4   -1    0    0  501    0  0.00000000000E+00  0.00000000000E+00 -0.11772961111E+04  0.11772967961E+04  0.12699999809E+01 0.  1.
    10030    2    1    2    0    0  0.00000000000E+00  0.00000000000E+00  0.11137153203E+04  0.34683085795E+04  0.32846312713E+04 0.  0.
        1    1    3    3  502    0  0.64912065929E+03 -0.35572127902E+03 -0.99117518383E+03  0.12370624494E+04  0.50400001928E-02 0.  1.
       -1    1    3    3    0  502 -0.64912065929E+03  0.35572127902E+03  0.21048905042E+04  0.22312461301E+04  0.50400001928E-02 0. -1.
</event>
<event>
 5   0  0.8805125E-08  0.3294138E+04  0.7818609E-02  0.8164389E-01
       -1   -1    0    0    0  501  0.00000000000E+00  0.00000000000E+00  0.25823516099E+04  0.25823516099E+04  0.50400001928E-02 0.  1.
        1   -1    0    0  501    0  0.00000000000E+00  0.00000000000E+00 -0.10505293435E+04  0.10505293435E+04  0.50400001928E-02 0. -1.
    10030    2    1    2    0    0  0.00000000000E+00  0.00000000000E+00  0.15318222664E+04  0.36328809534E+04  0.32941379093E+04 0.  0.
        4    1    3    3  502    0 -0.22068350951E+03  0.68832526946E+02 -0.10325491288E+04  0.10581107902E+04  0.12699999809E+01 0. -1.
       -4    1    3    3    0  502  0.22068350951E+03 -0.68832526946E+02  0.25643713951E+04  0.25747701632E+04  0.12699999809E+01 0.  1.
</event>
<event>
 5   0  0.9810351E-08  0.3297567E+04  0.7818609E-02  0.8163515E-01
        1   -1    0    0  501    0  0.00000000000E+00  0.00000000000E+00  0.11626531134E+04  0.11626531134E+04  0.50400001928E-02 0. -1.
       -1   -1    0    0    0  501  0.00000000000E+00  0.00000000000E+00 -0.23381756428E+04  0.23381756428E+04  0.50400001928E-02 0.  1.
    10030    2    1    2    0    0  0.00000000000E+00  0.00000000000E+00 -0.11755225294E+04  0.35008287561E+04  0.32975670975E+04 0.  0.
        5    1    3    3  502    0 -0.26612206828E+03 -0.59025685576E+03  0.10220296542E+04  0.12098722309E+04  0.46999998093E+01 0. -1.
       -5    1    3    3    0  502  0.26612206828E+03  0.59025685576E+03 -0.21975521836E+04  0.22909565253E+04  0.46999998093E+01 0.  1.
</event>
<event>
 5   0  0.2824402E-07  0.3301690E+04  0.7818609E-02  0.8162466E-01
        2   -1    0    0  501    0  0.00000000000E+00  0.00000000000E+00  0.25297847340E+04  0.25297847340E+04  0.25500000920E-02 0.  1.
       -2   -1    0    0    0  501  0.00000000000E+00  0.00000000000E+00 -0.10772808656E+04  0.10772808656E+04  0.25500000920E-02 0. -1.
    10030    2    1    2    0    0  0.00000000000E+00  0.00000000000E+00  0.14525038684E+04  0.36070655997E+04  0.33016896815E+04 0.  0.
        1    1    3    3  502    0  0.38972872282E+03  0.40290379835E+03  0.24226297500E+04  0.24866352474E+04  0.50400001928E-02 0.  1.
       -1    1    3    3    0  502 -0.38972872282E+03 -0.40290379835E+03 -0.97012588160E+03  0.11204303523E+04  0.50400001928E-02 0. -1.
</event>
<event>
 5   0  0.9810351E-08  0.3299632E+04  0.7818609E-02  0.8162989E-01
       -1   -1    0    0    0  501  0.00000000000E+00  0.00000000000E+00  0.18969496933E+04  0.18969496933E+04  0.50400001928E-02 0. -1.
        1   -1    0    0  501    0  0.00000000000E+00  0.00000000000E+00 -0.14348790233E+04  0.14348790234E+04  0.50400001928E-02 0.  1.
    10030    2    1    2    0    0  0.00000000000E+00  0.00000000000E+00  0.46207066997E+03  0.33318287167E+04  0.32996322967E+04 0.  0.
        5    1    3    3  502    0  0.10044733616E+04 -0.81596721513E+03 -0.80222942158E+03  0.15226172747E+04  0.46999998093E+01 0.  1.
       -5    1    3    3    0  502 -0.10044733616E+04  0.81596721513E+03  0.12643000916E+04  0.18092114420E+04  0.46999998093E+01 0. -1.
</event>
<event>
 5   0  0.2824402E-07  0.3291370E+04  0.7818609E-02  0.8165095E-01
        2   -1    0    0  501    0  0.00000000000E+00  0.00000000000E+00  0.19502943068E+04  0.19502943068E+04  0.25500000920E-02 0. -1.
       -2   -1    0    0    0  501  0.00000000000E+00  0.00000000000E+00 -0.13886518696E+04  0.13886518696E+04  0.25500000920E-02 0.  1.
    10030    2    1    2    0    0  0.00000000000E+00  0.00000000000E+00  0.56164243719E+03  0.33389461764E+04  0.32913704352E+04 0.  0.
        1    1    3    3  502    0  0.68694539145E+03 -0.14148154282E+04 -0.21062231636E+03  0.15868076213E+04  0.50400001928E-02 0.  1.
       -1    1    3    3    0  502 -0.68694539145E+03  0.14148154282E+04  0.77226475355E+03  0.17521385551E+04  0.50400001928E-02 0. -1.
</event>
<event>
 5   0  0.9283910E-08  0.3300814E+04  0.7818609E-02  0.8162688E-01
       -1   -1    0    0    0  501  0.00000000000E+00  0.00000000000E+00  0.10369245701E+04  0.10369245702E+04  0.50400001928E-02 0. -1.
        1   -1    0    0  501    0  0.00000000000E+00  0.00000000000E+00 -0.26268474162E+04  0.26268474162E+04  0.50400001928E-02 0.  1.
    10030    2    1    2    0    0  0.00000000000E+00  0.00000000000E+00 -0.15899228461E+04  0.36637719864E+04  0.33008136136E+04 0.  0.
        3    1    3    3  502    0 -0.10473816012E+04  0.61980669205E+01  0.62074753977E+03  0.12175278858E+04  0.10100000352E+00 0. -1.
       -3    1    3    3    0  502  0.10473816012E+04 -0.61980669205E+01 -0.22106703859E+04  0.24462441006E+04  0.10100000352E+00 0.  1.
</event>
<event>
 5   0  0.9810351E-08  0.3297175E+04  0.7818609E-02  0.8163615E-01
        1   -1    0    0  501    0  0.00000000000E+00  0.00000000000E+00  0.26472186975E+04  0.26472186975E+04  0.50400001928E-02 0. -1.
       -1   -1    0    0    0  501  0.00000000000E+00  0.00000000000E+00 -0.10266778142E+04  0.10266778142E+04  0.50400001928E-02 0.  1.
    10030    2    1    2    0    0  0.00000000000E+00  0.00000000000E+00  0.16205408833E+04  0.36738965118E+04  0.32971749764E+04 0.  0.
        5    1    3    3  502    0  0.43424614263E+03  0.34314082617E+03  0.25406001001E+04  0.26001896657E+04  0.46999998093E+01 0. -1.
       -5    1    3    3    0  502 -0.43424614263E+03 -0.34314082617E+03 -0.92005921678E+03  0.10737068461E+04  0.46999998093E+01 0.  1.
</event>
<event>
 5   0  0.2713815E-07  0.3289874E+04  0.7818609E-02  0.8165477E-01
        2   -1    0    0  501    0  0.00000000000E+00  0.00000000000E+00  0.16385336965E+04  0.16385336965E+04  0.25500000920E-02 0. -1.
       -2   -1    0    0    0  501  0.00000000000E+00  0.00000000000E+00 -0.16513649043E+04  0.16513649043E+04  0.25500000920E-02 0.  1.
    10030    2    1    2    0    0  0.00000000000E+00  0.00000000000E+00 -0.12831207803E+02  0.32898986008E+04  0.32898735787E+04 0.  0.
        4    1    3    3  502    0  0.31010823938E+03  0.25454030721E+03  0.15888574923E+04  0.16387274428E+04  0.12699999809E+01 0. -1.
       -4    1    3    3    0  502 -0.31010823938E+03 -0.25454030721E+03 -0.16016887001E+04  0.16511711580E+04  0.12699999809E+01 0.  1.
</event>
<event>
 5   0  0.2727168E-07  0.3315866E+04  0.7818609E-02  0.8158870E-01
        2   -1    0    0  501    0  0.00000000000E+00  0.00000000000E+00  0.23033733317E+04  0.23033733317E+04  0.25500000920E-02 0.  1.
       -2   -1    0    0    0  501  0.00000000000E+00  0.00000000000E+00 -0.11933551138E+04  0.11933551138E+04  0.25500000920E-02 0. -1.
    10030    2    1    2    0    0  0.00000000000E+00  0.00000000000E+00  0.11100182179E+04  0.34967284455E+04  0.33158663087E+04 0.  0.
        2    1    3    3  502    0 -0.31936419205E+03 -0.15540145882E+04  0.10627123267E+04  0.19095319628E+04  0.25500000920E-02 0.  1.
       -2    1    3    3    0  502  0.31936419205E+03  0.15540145882E+04  0.47305891227E+02  0.15871964827E+04  0.25500000920E-02 0. -1.
</event>
<event>
 5   0  0.8805125E-08  0.3298501E+04  0.7818609E-02  0.8163277E-01
       -1   -1    0    0    0  501  0.00000000000E+00  0.00000000000E+00  0.12677000025E+04  0.12677000025E+04  0.50400001928E-02 0. -1.
        1   -1    0    0  501    0  0.00000000000E+00  0.00000000000E+00 -0.21456401042E+04  0.21456401042E+04  0.50400001928E-02 0.  1.
    10030    2    1    2    0    0  0.00000000000E+00  0.00000000000E+00 -0.87794010176E+03  0.34133401067E+04  0.32985014570E+04 0.  0.
        4    1    3    3  502    0 -0.22610714438E+03  0.16099724008E+04 -0.72591594694E+03  0.17804749780E+04  0.12699999809E+01 0.  1.
       -4    1    3    3    0  502  0.22610714438E+03 -0.16099724008E+04 -0.15202415482E+03  0.16328651288E+04  0.12699999809E+01 0. -1.
</event>
<event>
 5   0  0.2703956E-07  0.3315828E+04  0.7818609E-02  0.8158880E-01
        2   -1    0    0  501    0  0.00000000000E+00  0.00000000000E+00  0.14363924732E+04  0.14363924732E+04  0.25500000920E-02 0.  1.
       -2   -1    0    0    0  501  0.00000000000E+00  0.00000000000E+00 -0.19135990724E+04  0.19135990724E+04  0.25500000920E-02 0. -1.
    10030    2    1    2    0    0  0.00000000000E+00  0.00000000000E+00 -0.47720659921E+03  0.33499915456E+04  0.33158282852E+04 0.  0.
        5    1    3    3  502    0 -0.10163995938E+04 -0.12984267417E+04 -0.64558025301E+02  0.16502030077E+04  0.46999998093E+01 0. -1.
       -5    1    3    3    0  502  0.10163995938E+04  0.12984267417E+04 -0.41264857390E+03  0.16997885379E+04  0.46999998093E+01 0.  1.
</event>
<event>
 5   0  0.9181760E-08  0.3299599E+04  0.7818609E-02  0.8162997E-01
       -1   -1    0    0    0  501  0.00000000000E+00  0.00000000000E+00  0.10373477179E+04  0.10373477180E+04  0.50400001928E-02 0. -1.
        1   -1    0    0  501    0  0.00000000000E+00  0.00000000000E+00 -0.26238434219E+04  0.26238434219E+04  0.50400001928E-02 0.  1.
    10030    2    1    2    0    0  0.00000000000E+00  0.00000000000E+00 -0.15864957039E+04  0.36611911398E+04  0.32995987550E+04 0.  0.
        1    1    3    3  502    0 -0.11159470266E+04 -0.47625358435E+03 -0.20336461395E+04  0.23680945639E+04  0.50400001928E-02 0.  1.
       -1    1    3    3    0  502  0.11159470266E+04  0.47625358435E+03  0.44715043558E+03  0.12930965760E+04  0.50400001928E-02 0. -1.
</event>
<event>
 5   0  0.2713815E-07  0.3300016E+04  0.7818609E-02  0.8162891E-01
       -2   -1    0    0    0  501  0.00000000000E+00  0.00000000000E+00  0.11316732680E+04  0.11316732680E+04  0.25500000920E-02 0. -1.
        2   -1    0    0  501    0  0.00000000000E+00  0.00000000000E+00 -0.24057523537E+04  0.24057523537E+04  0.25500000920E-02 0.  1.
    10030    2    1    2    0    0  0.00000000000E+00  0.00000000000E+00 -0.12740790857E+04  0.35374256217E+04  0.33000155321E+04 0.  0.
        4    1    3    3  502    0  0.21045827815E+03 -0.46969367291E+03  0.10434221897E+04  0.11634587711E+04  0.12699999809E+01 0. -1.
       -4    1    3    3    0  502 -0.21045827815E+03  0.46969367291E+03 -0.23175012754E+04  0.23739668506E+04  0.12699999809E+01 0.  1.
</event>
<event>
 5   0  0.8805125E-08  0.3296608E+04  0.7818609E-02  0.8163759E-01
       -1   -1    0    0    0  501  0.00000000000E+00  0.00000000000E+00  0.12449413688E+04  0.12449413688E+04  0.50400001928E-02 0.  1.
        1   -1    0    0  501    0  0.00000000000E+00  0.00000000000E+00 -0.21823567675E+04  0.21823567675E+04  0.50400001928E-02 0. -1.
    10030    2    1    2    0    0  0.00000000000E+00  0.00000000000E+00 -0.93741539870E+03  0.34272981363E+04  0.32966080879E+04 0.  0.
        4    1    3    3  502    0 -0.13069788284E+04 -0.79153735876E+03 -0.11114224883E+04  0.18894408190E+04  0.12699999809E+01 0. -1.
       -4    1    3    3    0  502  0.13069788284E+04  0.79153735876E+03  0.17400708962E+03  0.15378573173E+04  0.12699999809E+01 0.  1.
</event>
<event>
 5   0  0.9454010E-08  0.3299837E+04  0.7818609E-02  0.8162937E-01
        1   -1    0    0  501    0  0.00000000000E+00  0.00000000000E+00  0.22195656861E+04  0.22195656861E+04  0.50400001928E-02 0.  1.
       -1   -1    0    0    0  501  0.00000000000E+00  0.00000000000E+00 -0.12264703772E+04  0.12264703772E+04  0.50400001928E-02 0. -1.
    10030    2    1    2    0    0  0.00000000000E+00  0.00000000000E+00  0.99309530894E+03  0.34460360633E+04  0.32998373076E+04 0.  0.
        2    1    3    3  502    0 -0.37748411072E+03 -0.13081000453E+04 -0.47673749677E+03  0.14425320181E+04  0.25500000920E-02 0. -1.
       -2    1    3    3    0  502  0.37748411072E+03  0.13081000453E+04  0.14698328057E+04  0.20035040452E+04  0.25500000920E-02 0.  1.
</event>
<event>
 5   0  0.2727168E-07  0.3301434E+04  0.7818609E-02  0.8162531E-01
        2   -1    0    0  501    0  0.00000000000E+00  0.00000000000E+00  0.15453594504E+04  0.15453594504E+04  0.25500000920E-02 0. -1.
       -2   -1    0    0    0  501  0.00000000000E+00  0.00000000000E+00 -0.17632574936E+04  0.17632574936E+04  0.25500000920E-02 0.  1.
    10030    2    1    2    0    0  0.00000000000E+00  0.00000000000E+00 -0.21789804322E+03  0.33086169439E+04  0.33014340103E+04 0.  0.
        2    1    3    3  502    0 -0.87675390117E+03 -0.42032464098E+03 -0.14458290283E+04  0.17423523714E+04  0.25500000920E-02 0.  1.
       -2    1    3    3    0  502  0.87675390117E+03  0.42032464098E+03  0.12279309851E+04  0.15662645725E+04  0.25500000920E-02 0. -1.
</event>
<event>
 5   0  0.8805125E-08  0.3309464E+04  0.7818609E-02  0.8160492E-01
       -3   -1    0    0    0  501  0.00000000000E+00  0.00000000000E+00  0.14376848720E+04  0.14376848756E+04  0.10100000352E+00 0.  1.
        3   -1    0    0  501    0  0.00000000000E+00  0.00000000000E+00 -0.19045463399E+04  0.19045463426E+04  0.10100000352E+00 0. -1.
    10030    2    1    2    0    0  0.00000000000E+00  0.00000000000E+00 -0.46686146786E+03  0.33422312181E+04  0.33094636854E+04 0.  0.
        2    1    3    3  502    0 -0.37694006731E+03 -0.20117132397E+03  0.13810167812E+04  0.14456005901E+04  0.25500000920E-02 0.  1.
       -2    1    3    3    0  502  0.37694006731E+03  0.20117132397E+03 -0.18478782491E+04  0.18966306281E+04  0.25500000920E-02 0. -1.
</event>
<event>
 5   0  0.9181760E-08  0.3287023E+04  0.7818609E-02  0.8166205E-01
       -1   -1    0    0    0  501  0.00000000000E+00  0.00000000000E+00  0.10042369618E+04  0.10042369618E+04  0.50400001928E-02 0. -1.
        1   -1    0    0  501    0  0.00000000000E+00  0.00000000000E+00 -0.26897343547E+04  0.26897343547E+04  0.50400001928E-02 0.  1.
    10030    2    1    2    0    0  0.00000000000E+00  0.00000000000E+00 -0.16854973928E+04  0.36939713165E+04  0.32870233686E+04 0.  0.
        1    1    3    3  502    0 -0.42887159028E+03 -0.69881656394E+03 -0.24434719580E+04  0.25773689376E+04  0.50400001928E-02 0.  1.
       -1    1    3    3    0  502  0.42887159028E+03  0.69881656394E+03  0.75797456519E+03  0.11166023789E+04  0.50400001928E-02 0. -1.
</event>
<event>
 5   0  0.9810351E-08  0.3298863E+04  0.7818609E-02  0.8163185E-01
       -1   -1    0    0    0  501  0.00000000000E+00  0.00000000000E+00  0.12586730713E+04  0.12586730713E+04  0.50400001928E-02 0.  1.
        1   -1    0    0  501    0  0.00000000000E+00  0.00000000000E+00 -0.21615021023E+04  0.21615021023E+04  0.50400001928E-02 0. -1.
    10030    2    1    2    0    0  0.00000000000E+00  0.00000000000E+00 -0.90282903102E+03  0.34201751737E+04  0.32988631314E+04 0.  0.
        5    1    3    3  502    0  0.29944508934E+03  0.54391345701E+03  0.11328808859E+04  0.12918786328E+04  0.46999998093E+01 0.  1.
       -5    1    3    3    0  502 -0.29944508934E+03 -0.54391345701E+03 -0.20357099169E+04  0.21282965409E+04  0.46999998093E+01 0. -1.
</event>
<event>
 5   0  0.2727168E-07  0.3300757E+04  0.7818609E-02  0.8162703E-01
        2   -1    0    0  501    0  0.00000000000E+00  0.00000000000E+00  0.15085723081E+04  0.15085723081E+04  0.25500000920E-02 0.  1.
       -2   -1    0    0    0  501  0.00000000000E+00  0.00000000000E+00 -0.18055149538E+04  0.18055149538E+04  0.25500000920E-02 0. -1.
    10030    2    1    2    0    0  0.00000000000E+00  0.00000000000E+00 -0.29694264570E+03  0.33140872619E+04  0.33007574047E+04 0.  0.
        2    1    3    3  502    0 -0.15684684743E+03 -0.13927474694E+04  0.72648546732E+03  0.15786473898E+04  0.25500000920E-02 0.  1.
       -2    1    3    3    0  502  0.15684684743E+03  0.13927474694E+04 -0.10234281130E+04  0.17354398721E+04  0.25500000920E-02 0. -1.
</event>
<event>
 5   0  0.2727168E-07  0.3299108E+04  0.7818609E-02  0.8163122E-01
        2   -1    0    0  501    0  0.00000000000E+00  0.00000000000E+00  0.24534376404E+04  0.24534376404E+04  0.25500000920E-02 0. -1.
       -2   -1    0    0    0  501  0.00000000000E+00  0.00000000000E+00 -0.11090675426E+04  0.11090675427E+04  0.25500000920E-02 0.  1.
    10030    2    1    2    0    0  0.00000000000E+00  0.00000000000E+00  0.13443700978E+04  0.35625051831E+04  0.32991077914E+04 0.  0.
        2    1    3    3  502    0  0.13511929175E+04 -0.87197320475E+03  0.27547318757E+03  0.16315468265E+04  0.25500000920E-02 0.  1.
       -2    1    3    3    0  502 -0.13511929175E+04  0.87197320475E+03  0.10688969102E+04  0.19309583565E+04  0.25500000920E-02 0. -1.
</event>
<event>
 5   0  0.9181760E-08  0.3302482E+04  0.7818609E-02  0.8162264E-01
        1   -1    0    0  501    0  0.00000000000E+00  0.00000000000E+00  0.18453194393E+04  0.18453194393E+04  0.50400001928E-02 0.  1.
       -1   -1    0    0    0  501  0.00000000000E+00  0.00000000000E+00 -0.14775740922E+04  0.14775740923E+04  0.50400001928E-02 0. -1.
    10030    2    1    2    0    0  0.00000000000E+00  0.00000000000E+00  0.36774534703E+03  0.33228935315E+04  0.33024816096E+04 0.  0.
        1    1    3    3  502    0  0.12916561792E+04 -0.48232734740E+02 -0.85004558018E+03  0.15470228086E+04  0.50400001928E-02 0. -1.
       -1    1    3    3    0  502 -0.12916561792E+04  0.48232734740E+02  0.12177909272E+04  0.17758707229E+04  0.50400001928E-02 0.  1.
</event>
<event>
 5   0  0.2875829E-07  0.3251957E+04  0.7818609E-02  0.8175229E-01
        2   -1    0    0  501    0  0.00000000000E+00  0.00000000000E+00  0.18150097999E+04  0.18150097999E+04  0.25500000920E-02 0.  1.
       -2   -1    0    0    0  501  0.00000000000E+00  0.00000000000E+00 -0.14566344219E+04  0.14566344219E+04  0.25500000920E-02 0. -1.
    10030    2    1    2    0    0  0.00000000000E+00  0.00000000000E+00  0.35837537796E+03  0.32716442218E+04  0.32519567960E+04 0.  0.
        3    1    3    3  502    0 -0.30076238462E+02  0.65294897822E+03  0.16770121894E+04  0.17998935640E+04  0.10100000352E+00 0.  1.
       -3    1    3    3    0  502  0.30076238462E+02 -0.65294897822E+03 -0.13186368114E+04  0.14717506578E+04  0.10100000352E+00 0. -1.
</event>
<event>
 5   0  0.2875829E-07  0.3300160E+04  0.7818609E-02  0.8162855E-01
       -2   -1    0    0    0  501  0.00000000000E+00  0.00000000000E+00  0.12379326252E+04  0.12379326252E+04  0.25500000920E-02 0.  1.
        2   -1    0    0  501    0  0.00000000000E+00  0.00000000000E+00 -0.21994438858E+04  0.21994438858E+04  0.25500000920E-02 0. -1.
    10030    2    1    2    0    0  0.00000000000E+00  0.00000000000E+00 -0.96151126064E+03  0.34373765110E+04  0.33001595983E+04 0.  0.
        3    1    3    3  502    0  0.49487851909E+03 -0.15505032011E+04 -0.76370951345E+03  0.17978367992E+04  0.10100000352E+00 0. -1.
       -3    1    3    3    0  502 -0.49487851909E+03  0.15505032011E+04 -0.19780174719E+03  0.16395397118E+04  0.10100000352E+00 0.  1.
</event>
<event>
 5   0  0.2713815E-07  0.3295864E+04  0.7818609E-02  0.8163949E-01
        2   -1    0    0  501    0  0.00000000000E+00  0.00000000000E+00  0.21846199061E+04  0.21846199061E+04  0.25500000920E-02 0. -1.
       -2   -1    0    0    0  501  0.00000000000E+00  0.00000000000E+00 -0.12430905199E+04  0.12430905199E+04  0.25500000920E-02 0.  1.
    10030    2    1    2    0    0  0.00000000000E+00  0.00000000000E+00  0.94152938624E+03  0.34277104260E+04  0.32958642537E+04 0.  0.
        4    1    3    3  502    0  0.56075317721E+03  0.12077055633E+04  0.14805228661E+04  0.19912173220E+04  0.12699999809E+01 0.  1.
       -4    1    3    3    0  502 -0.56075317721E+03 -0.12077055633E+04 -0.53899347991E+03  0.14364931040E+04  0.12699999809E+01 0. -1.
</event>
<event>
 5   0  0.8805125E-08  0.3301611E+04  0.7818609E-02  0.8162486E-01
        1   -1    0    0  501    0  0.00000000000E+00  0.00000000000E+00  0.10964231126E+04  0.10964231126E+04  0.50400001928E-02 0. -1.
       -1   -1    0    0    0  501  0.00000000000E+00  0.00000000000E+00 -0.24854995710E+04  0.24854995710E+04  0.50400001928E-02 0.  1.
    10030    2    1    2    0    0  0.00000000000E+00  0.00000000000E+00 -0.13890764584E+04  0.35819226836E+04  0.33016112284E+04 0.  0.
        4    1    3    3  502    0 -0.15659585125E+04  0.13245066669E+03 -0.12428035684E+04  0.20035796876E+04  0.12699999809E+01 0.  1.
       -4    1    3    3    0  502  0.15659585125E+04 -0.13245066669E+03 -0.14627288998E+03  0.15783429960E+04  0.12699999809E+01 0. -1.
</event>
<event>
 5   0  0.8805125E-08  0.3314900E+04  0.7818609E-02  0.8159114E-01
        1   -1    0    0  501    0  0.00000000000E+00  0.00000000000E+00  0.18971610276E+04  0.18971610276E+04  0.50400001928E-02 0. -1.
       -1   -1    0    0    0  501  0.00000000000E+00  0.00000000000E+00 -0.14480268696E+04  0.14480268696E+04  0.50400001928E-02 0.  1.
    10030    2    1    2    0    0  0.00000000000E+00  0.00000000000E+00  0.44913415801E+03  0.33451878972E+04  0.33148997837E+04 0.  0.
        4    1    3    3  502    0 -0.70923723716E+03 -0.88639511392E+01 -0.12871330589E+04  0.14696289166E+04  0.12699999809E+01 0.  1.
       -4    1    3    3    0  502  0.70923723716E+03  0.88639511392E+01  0.17362672170E+04  0.18755589806E+04  0.12699999809E+01 0. -1.
</event>
<event>
 5   0  0.2703956E-07  0.3302342E+04  0.7818609E-02  0.8162300E-01
        2   -1    0    0  501    0  0.00000000000E+00  0.00000000000E+00  0.16018220565E+04  0.16018220565E+04  0.25500000920E-02 0.  1.
       -2   -1    0    0    0  501  0.00000000000E+00  0.00000000000E+00 -0.17020406163E+04  0.17020406163E+04  0.25500000920E-02 0. -1.
    10030    2    1    2    0    0  0.00000000000E+00  0.00000000000E+00 -0.10021855978E+03  0.33038626728E+04  0.33023423204E+04 0.  0.
        5    1    3    3  502    0 -0.16410880589E+04 -0.15762756270E+03  0.41188663427E+02  0.16491619270E+04  0.46999998093E+01 0. -1.
       -5    1    3    3    0  502  0.16410880589E+04  0.15762756270E+03 -0.14140722321E+03  0.16547007458E+04  0.46999998093E+01 0.  1.
</event>
<event>
 5   0  0.8805125E-08  0.3298986E+04  0.7818609E-02  0.8163153E-01
       -1   -1    0    0    0  501  0.00000000000E+00  0.00000000000E+00  0.12486699425E+04  0.12486699425E+04  0.50400001928E-02 0. -1.
        1   -1    0    0  501    0  0.00000000000E+00  0.00000000000E+00 -0.21789800750E+04  0.21789800750E+04  0.50400001928E-02 0.  1.
    10030    2    1    2    0    0  0.00000000000E+00  0.00000000000E+00 -0.93031013256E+03  0.34276500175E+04  0.32989858593E+04 0.  0.
        4    1    3    3  502    0  0.14132044841E+04  0.74651115190E+03 -0.88898538805E+03  0.18288582358E+04  0.12699999809E+01 0.  1.
       -4    1    3    3    0  502 -0.14132044841E+04 -0.74651115190E+03 -0.41324744509E+02  0.15987917817E+04  0.12699999809E+01 0. -1.
</event>
<event>
 5   0  0.2875829E-07  0.3301651E+04  0.7818609E-02  0.8162475E-01
       -2   -1    0    0    0  501  0.00000000000E+00  0.00000000000E+00  0.21633257975E+04  0.21633257975E+04  0.25500000920E-02 0.  1.
        2   -1    0    0  501    0  0.00000000000E+00  0.00000000000E+00 -0.12597384800E+04  0.12597384800E+04  0.25500000920E-02 0. -1.
    10030    2    1    2    0    0  0.00000000000E+00  0.00000000000E+00  0.90358731749E+03  0.34230642775E+04  0.33016509519E+04 0.  0.
        3    1    3    3  502    0 -0.99893640274E+03 -0.20554408796E+03  0.17976448680E+04  0.20667968914E+04  0.10100000352E+00 0.  1.
       -3    1    3    3    0  502  0.99893640274E+03  0.20554408796E+03 -0.89405755050E+03  0.13562673861E+04  0.10100000352E+00 0. -1.
</event>
<event>
 5   0  0.2703956E-07  0.3306498E+04  0.7818609E-02  0.8161244E-01
       -2   -1    0    0    0  501  0.00000000000E+00  0.00000000000E+00  0.15690237144E+04  0.15690237144E+04  0.25500000920E-02 0. -1.
        2   -1    0    0  501    0  0.00000000000E+00  0.00000000000E+00 -0.17419960136E+04  0.17419960136E+04  0.25500000920E-02 0.  1.
    10030    2    1    2    0    0  0.00000000000E+00  0.00000000000E+00 -0.17297229915E+03  0.33110197280E+04  0.33064984837E+04 0.  0.
        5    1    3    3  502    0 -0.31317839550E+03  0.63046393841E+03 -0.15844077409E+04  0.17337633819E+04  0.46999998093E+01 0.  1.
       -5    1    3    3    0  502  0.31317839550E+03 -0.63046393841E+03  0.14114354417E+04  0.15772563461E+04  0.46999998093E+01 0. -1.
</event>
<event>
 5   0  0.8805125E-08  0.3301068E+04  0.7818609E-02  0.8162624E-01
       -1   -1    0    0    0  501  0.00000000000E+00  0.00000000000E+00  0.19423766318E+04  0.19423766318E+04  0.50400001928E-02 0. -1.
        1   -1    0    0  501    0  0.00000000000E+00  0.00000000000E+00 -0.14025405200E+04  0.14025405200E+04  0.50400001928E-02 0.  1.
    10030    2    1    2    0    0  0.00000000000E+00  0.00000000000E+00  0.53983611185E+03  0.33449171518E+04  0.33010676644E+04 0.  0.
        4    1    3    3  502    0 -0.80473757006E+03  0.32253321323E+03  0.16930781763E+04  0.19021423591E+04  0.12699999809E+01 0. -1.
       -4    1    3    3    0  502  0.80473757006E+03 -0.32253321323E+03 -0.11532420645E+04  0.14427747927E+04  0.12699999809E+01 0.  1.
</event>
<event>
 5   0  0.9283910E-08  0.3303069E+04  0.7818609E-02  0.8162115E-01
        1   -1    0    0  501    0  0.00000000000E+00  0.00000000000E+00  0.19251586178E+04  0.19251586178E+04  0.50400001928E-02 0.  1.
       -1   -1    0    0    0  501  0.00000000000E+00  0.00000000000E+00 -0.14168010717E+04  0.14168010718E+04  0.50400001928E-02 0. -1.
    10030    2    1    2    0    0  0.00000000000E+00  0.00000000000E+00  0.50835754606E+03  0.33419596896E+04  0.33030693562E+04 0.  0.
        3    1    3    3  502    0  0.69513285718E+03 -0.63232810364E+03  0.16282998279E+04  0.18800023562E+04  0.10100000352E+00 0.  1.
       -3    1    3    3    0  502 -0.69513285718E+03  0.63232810364E+03 -0.11199422818E+04  0.14619573334E+04  0.10100000352E+00 0. -1.
</event>
<event>
 5   0  0.8805125E-08  0.3291452E+04  0.7818609E-02  0.8165074E-01
        1   -1    0    0  501    0  0.00000000000E+00  0.00000000000E+00  0.33089053224E+04  0.33089053224E+04  0.50400001928E-02 0. -1.
       -1   -1    0    0    0  501  0.00000000000E+00  0.00000000000E+00 -0.81852265894E+03  0.81852265895E+03  0.50400001928E-02 0.  1.
    10030    2    1    2    0    0  0.00000000000E+00  0.00000000000E+00  0.24903826635E+04  0.41274279813E+04  0.32914519487E+04 0.  0.
        4    1    3    3  502    0 -0.56412123478E+03 -0.58918693156E+03 -0.54718931309E+03  0.98223814074E+03  0.12699999809E+01 0.  1.
       -4    1    3    3    0  502  0.56412123478E+03  0.58918693156E+03  0.30375719765E+04  0.31451898406E+04  0.12699999809E+01 0. -1.
</event>
<event>
 5   0  0.2703956E-07  0.3301790E+04  0.7818609E-02  0.8162440E-01
       -2   -1    0    0    0  501  0.00000000000E+00  0.00000000000E+00  0.11830920678E+04  0.11830920678E+04  0.25500000920E-02 0. -1.
        2   -1    0    0  501    0  0.00000000000E+00  0.00000000000E+00 -0.23036698212E+04  0.23036698212E+04  0.25500000920E-02 0.  1.
    10030    2    1    2    0    0  0.00000000000E+00  0.00000000000E+00 -0.11205777533E+04  0.34867618890E+04  0.33017895101E+04 0.  0.
        5    1    3    3  502    0  0.13468426758E+04  0.53651775273E+03 -0.13942084890E+04  0.20113865598E+04  0.46999998093E+01 0.  1.
       -5    1    3    3    0  502 -0.13468426758E+04 -0.53651775273E+03  0.27363073565E+03  0.14753753291E+04  0.46999998093E+01 0. -1.
</event>
<event>
 5   0  0.8805125E-08  0.3300176E+04  0.7818609E-02  0.8162851E-01
       -1   -1    0    0    0  501  0.00000000000E+00  0.00000000000E+00  0.18586862277E+04  0.18586862277E+04  0.50400001928E-02 0. -1.
        1   -1    0    0  501    0  0.00000000000E+00  0.00000000000E+00 -0.14649000776E+04  0.14649000776E+04  0.50400001928E-02 0.  1.
    10030    2    1    2    0    0  0.00000000000E+00  0.00000000000E+00  0.39378615012E+03  0.33235863053E+04  0.33001755100E+04 0.  0.
        4    1    3    3  502    0  0.85814292462E+03 -0.14087090297E+04  0.24099385947E+03  0.16670183150E+04  0.12699999809E+01 0. -1.
       -4    1    3    3    0  502 -0.85814292462E+03  0.14087090297E+04  0.15279229065E+03  0.16565679903E+04  0.12699999809E+01 0.  1.
</event>
<event>
 5   0  0.9454010E-08  0.3299070E+04  0.7818609E-02  0.8163132E-01
       -1   -1    0    0    0  501  0.00000000000E+00  0.00000000000E+00  0.84977779711E+03  0.84977779713E+03  0.50400001928E-02 0. -1.
        1   -1    0    0  501    0  0.00000000000E+00  0.00000000000E+00 -0.32019727867E+04  0.32019727867E+04  0.50400001928E-02 0.  1.
    10030    2    1    2    0    0  0.00000000000E+00  0.00000000000E+00 -0.23521949896E+04  0.40517505838E+04  0.32990697968E+04 0.  0.
        2    1    3    3  502    0 -0.10577181318E+03  0.71462975164E+03  0.64516235559E+03  0.96856482668E+03  0.25500000920E-02 0. -1.
       -2    1    3    3    0  502  0.10577181318E+03 -0.71462975164E+03 -0.29973573451E+04  0.30831857571E+04  0.25500000920E-02 0.  1.
</event>
<event>
 5   0  0.8805125E-08  0.3297476E+04  0.7818609E-02  0.8163538E-01
       -3   -1    0    0    0  501  0.00000000000E+00  0.00000000000E+00  0.16116348984E+04  0.16116349015E+04  0.10100000352E+00 0.  1.
        3   -1    0    0  501    0  0.00000000000E+00  0.00000000000E+00 -0.16866949997E+04  0.16866950027E+04  0.10100000352E+00 0. -1.
    10030    2    1    2    0    0  0.00000000000E+00  0.00000000000E+00 -0.75060101315E+02  0.32983299042E+04  0.32974757222E+04 0.  0.
        2    1    3    3  502    0 -0.64465311019E+03 -0.10420663073E+04  0.10658679859E+04  0.16240549204E+04  0.25500000920E-02 0.  1.
       -2    1    3    3    0  502  0.64465311019E+03  0.10420663073E+04 -0.11409280872E+04  0.16742749838E+04  0.25500000920E-02 0. -1.
</event>
<event>
 5   0  0.2727168E-07  0.3299567E+04  0.7818609E-02  0.8163005E-01
        2   -1    0    0  501    0  0.00000000000E+00  0.00000000000E+00  0.23918811753E+04  0.23918811753E+04  0.25500000920E-02 0. -1.
       -2   -1    0    0    0  501  0.00000000000E+00  0.00000000000E+00 -0.11379269682E+04  0.11379269682E+04  0.25500000920E-02 0.  1.
    10030    2    1    2    0    0  0.00000000000E+00  0.00000000000E+00  0.12539542071E+04  0.35298081435E+04  0.32995673014E+04 0.  0.
        2    1    3    3  502    0 -0.50240687846E+03 -0.10126454394E+04 -0.65850511041E+03  0.13082402065E+04  0.25500000920E-02 0.  1.
       -2    1    3    3    0  502  0.50240687846E+03  0.10126454394E+04  0.19124593176E+04  0.22215679370E+04  0.25500000920E-02 0. -1.
</event>
<event>
 5   0  0.2713815E-07  0.3294240E+04  0.7818609E-02  0.8164363E-01
        2   -1    0    0  501    0  0.00000000000E+00  0.00000000000E+00  0.11670566905E+04  0.11670566905E+04  0.25500000920E-02 0. -1.
       -2   -1    0    0    0  501  0.00000000000E+00  0.00000000000E+00 -0.23246550035E+04  0.23246550035E+04  0.25500000920E-02 0.  1.
    10030    2    1    2    0    0  0.00000000000E+00  0.00000000000E+00 -0.11575983131E+04  0.34917116940E+04  0.32942399274E+04 0.  0.
        4    1    3    3  502    0  0.13636908422E+04 -0.66055650755E+03  0.10567800616E+03  0.15189328710E+04  0.12699999809E+01 0. -1.
       -4    1    3    3    0  502 -0.13636908422E+04  0.66055650755E+03 -0.12632763192E+04  0.19727788230E+04  0.12699999809E+01 0.  1.
</event>
<event>
 5   0  0.2875829E-07  0.3300831E+04  0.7818609E-02  0.8162684E-01
       -2   -1    0    0    0  501  0.00000000000E+00  0.00000000000E+00  0.12088034862E+04  0.12088034862E+04  0.25500000920E-02 0. -1.
        2   -1    0    0  501    0  0.00000000000E+00  0.00000000000E+00 -0.22533611088E+04  0.22533611088E+04  0.25500000920E-02 0.  1.
    10030    2    1    2    0    0  0.00000000000E+00  0.00000000000E+00 -0.10445576226E+04  0.34621645950E+04  0.33008306615E+04 0.  0.
        3    1    3    3  502    0 -0.91928015919E+03 -0.13952554377E+03 -0.19524973287E+04  0.21625885455E+04  0.10100000352E+00 0.  1.
       -3    1    3    3    0  502  0.91928015919E+03  0.13952554377E+03  0.90793970606E+03  0.12995760495E+04  0.10100000352E+00 0. -1.
</event>
<event>
 5   0  0.9181760E-08  0.3301452E+04  0.7818609E-02  0.8162526E-01
        1   -1    0    0  501    0  0.00000000000E+00  0.00000000000E+00  0.21017075737E+04  0.21017075737E+04  0.50400001928E-02 0.  1.
       -1   -1    0    0    0  501  0.00000000000E+00  0.00000000000E+00 -0.12965157081E+04  0.12965157081E+04  0.50400001928E-02 0. -1.
    10030    2    1    2    0    0  0.00000000000E+00  0.00000000000E+00  0.80519186555E+03  0.33982232818E+04  0.33014523369E+04 0.  0.
        1    1    3    3  502    0 -0.41488573565E+03 -0.13124120278E+03 -0.12364167822E+04  0.13107558455E+04  0.50400001928E-02 0. -1.
       -1    1    3    3    0  502  0.41488573565E+03  0.13124120278E+03  0.20416086478E+04  0.20874674363E+04  0.50400001928E-02 0.  1.
</event>
<event>
 5   0  0.9283910E-08  0.3299009E+04  0.7818609E-02  0.8163148E-01
       -1   -1    0    0    0  501  0.00000000000E+00  0.00000000000E+00  0.17827027536E+04  0.17827027536E+04  0.50400001928E-02 0.  1.
        1   -1    0    0  501    0  0.00000000000E+00  0.00000000000E+00 -0.15262579989E+04  0.15262579989E+04  0.50400001928E-02 0. -1.
    10030    2    1    2    0    0  0.00000000000E+00  0.00000000000E+00  0.25644475470E+03  0.33089607524E+04  0.32990085403E+04 0.  0.
        3    1    3    3  502    0 -0.27507599125E+03  0.13294066102E+04  0.10679990551E+04  0.17273131529E+04  0.10100000352E+00 0.  1.
       -3    1    3    3    0  502  0.27507599125E+03 -0.13294066102E+04 -0.81155430043E+03  0.15816475995E+04  0.10100000352E+00 0. -1.
</event>
<event>
 5   0  0.9810351E-08  0.3301757E+04  0.7818609E-02  0.8162448E-01
       -1   -1    0    0    0  501  0.00000000000E+00  0.00000000000E+00  0.26573208489E+04  0.26573208489E+04  0.50400001928E-02 0. -1.
        1   -1    0    0  501    0  0.00000000000E+00  0.00000000000E+00 -0.10256193478E+04  0.10256193478E+04  0.50400001928E-02 0.  1.
    10030    2    1    2    0    0  0.00000000000E+00  0.00000000000E+00  0.16317015011E+04  0.36829401967E+04  0.33017569117E+04 0.  0.
        5    1    3    3  502    0  0.10609786099E+04 -0.11506302258E+04  0.23010526094E+03  0.15819595596E+04  0.46999998093E+01 0.  1.
       -5    1    3    3    0  502 -0.10609786099E+04  0.11506302258E+04  0.14015962402E+04  0.21009806371E+04  0.46999998093E+01 0. -1.
</event>
<event>
 5   0  0.9810351E-08  0.3302857E+04  0.7818609E-02  0.8162169E-01
       -1   -1    0    0    0  501  0.00000000000E+00  0.00000000000E+00  0.11364826168E+04  0.11364826168E+04  0.50400001928E-02 0. -1.
        1   -1    0    0  501    0  0.00000000000E+00  0.00000000000E+00 -0.23996982465E+04  0.23996982465E+04  0.50400001928E-02 0.  1.
    10030    2    1    2    0    0  0.00000000000E+00  0.00000000000E+00 -0.12632156298E+04  0.35361808633E+04  0.33028565471E+04 0.  0.
        5    1    3    3  502    0  0.10151131859E+04 -0.12506632543E+03 -0.20197729422E+04  0.22639790621E+04  0.46999998093E+01 0.  1.
       -5    1    3    3    0  502 -0.10151131859E+04  0.12506632543E+03  0.75655731242E+03  0.12722018011E+04  0.46999998093E+01 0. -1.
</event>
<event>
 5   0  0.2727168E-07  0.3397085E+04  0.7818609E-02  0.8138622E-01
       -2   -1    0    0    0  501  0.00000000000E+00  0.00000000000E+00  0.16160153252E+04  0.16160153252E+04  0.25500000920E-02 0. -1.
        2   -1    0    0  501    0  0.00000000000E+00  0.00000000000E+00 -0.17852843306E+04  0.17852843306E+04  0.25500000920E-02 0.  1.
    10030    2    1    2    0    0  0.00000000000E+00  0.00000000000E+00 -0.16926900541E+03  0.34012996558E+04  0.33970851259E+04 0.  0.
        2    1    3    3  502    0 -0.67870706465E+03 -0.13455276065E+04 -0.86916197655E+03  0.17396926053E+04  0.25500000920E-02 0.  1.
       -2    1    3    3    0  502  0.67870706465E+03  0.13455276065E+04  0.69989297114E+03  0.16616070506E+04  0.25500000920E-02 0. -1.
</event>
<event>
 5   0  0.2727168E-07  0.3343008E+04  0.7818609E-02  0.8152037E-01
       -2   -1    0    0    0  501  0.00000000000E+00  0.00000000000E+00  0.17143712118E+04  0.17143712118E+04  0.25500000920E-02 0.  1.
        2   -1    0    0  501    0  0.00000000000E+00  0.00000000000E+00 -0.16297085103E+04  0.16297085103E+04  0.25500000920E-02 0. -1.
    10030    2    1    2    0    0  0.00000000000E+00  0.00000000000E+00  0.84662701569E+02  0.33440797221E+04  0.33430078395E+04 0.  0.
        2    1    3    3  502    0  0.54848691137E+03 -0.15212114005E+04  0.46555486651E+03  0.16827546912E+04  0.25500000920E-02 0.  1.
       -2    1    3    3    0  502 -0.54848691137E+03  0.15212114005E+04 -0.38089216494E+03  0.16613250309E+04  0.25500000920E-02 0. -1.
</event>
<event>
 5   0  0.9283910E-08  0.3302438E+04  0.7818609E-02  0.8162275E-01
        1   -1    0    0  501    0  0.00000000000E+00  0.00000000000E+00  0.31900281068E+04  0.31900281068E+04  0.50400001928E-02 0. -1.
       -1   -1    0    0    0  501  0.00000000000E+00  0.00000000000E+00 -0.85470232036E+03  0.85470232038E+03  0.50400001928E-02 0.  1.
    10030    2    1    2    0    0  0.00000000000E+00  0.00000000000E+00  0.23353257864E+04  0.40447304271E+04  0.33024381447E+04 0.  0.
        3    1    3    3  502    0 -0.15528623199E+04  0.12625528791E+03  0.49772029206E+03  0.16355571778E+04  0.10100000352E+00 0.  1.
       -3    1    3    3    0  502  0.15528623199E+04 -0.12625528791E+03  0.18376054943E+04  0.24091732494E+04  0.10100000352E+00 0. -1.
</event>
<event>
 5   0  0.9181760E-08  0.3275143E+04  0.7818609E-02  0.8169249E-01
       -1   -1    0    0    0  501  0.00000000000E+00  0.00000000000E+00  0.14324362001E+04  0.14324362002E+04  0.50400001928E-02 0. -1.
        1   -1    0    0  501    0  0.00000000000E+00  0.00000000000E+00 -0.18720838337E+04  0.18720838337E+04  0.50400001928E-02 0.  1.
    10030    2    1    2    0    0  0.00000000000E+00  0.00000000000E+00 -0.43964763359E+03  0.33045200339E+04  0.32751431438E+04 0.  0.
        1    1    3    3  502    0 -0.20674865368E+03  0.78315334682E+03 -0.16558136136E+04  0.18433103085E+04  0.50400001928E-02 0.  1.
       -1    1    3    3    0  502  0.20674865368E+03 -0.78315334682E+03  0.12161659800E+04  0.14612097254E+04  0.50400001928E-02 0. -1.
</event>
<event>
 5   0  0.2824402E-07  0.3300756E+04  0.7818609E-02  0.8162703E-01
        2   -1    0    0  501    0  0.00000000000E+00  0.00000000000E+00  0.19183988457E+04  0.19183988457E+04  0.25500000920E-02 0. -1.
       -2   -1    0    0    0  501  0.00000000000E+00  0.00000000000E+00 -0.14198029160E+04  0.14198029160E+04  0.25500000920E-02 0.  1.
    10030    2    1    2    0    0  0.00000000000E+00  0.00000000000E+00  0.49859592964E+03  0.33382017617E+04  0.33007564437E+04 0.  0.
        1    1    3    3  502    0  0.15775097144E+04 -0.47434260050E+03  0.14710475439E+03  0.16538372382E+04  0.50400001928E-02 0.  1.
       -1    1    3    3    0  502 -0.15775097144E+04  0.47434260050E+03  0.35149117525E+03  0.16843645235E+04  0.50400001928E-02 0. -1.
</event>
<event>
 5   0  0.2703956E-07  0.3289519E+04  0.7818609E-02  0.8165567E-01
        2   -1    0    0  501    0  0.00000000000E+00  0.00000000000E+00  0.26233929326E+04  0.26233929326E+04  0.25500000920E-02 0.  1.
       -2   -1    0    0    0  501  0.00000000000E+00  0.00000000000E+00 -0.10311966384E+04  0.10311966384E+04  0.25500000920E-02 0. -1.
    10030    2    1    2    0    0  0.00000000000E+00  0.00000000000E+00  0.15921962942E+04  0.36545895710E+04  0.32895190975E+04 0.  0.
        5    1    3    3  502    0  0.42045022183E+02 -0.12201821539E+04  0.20204965863E+04  0.23607288742E+04  0.46999998093E+01 0.  1.
       -5    1    3    3    0  502 -0.42045022183E+02  0.12201821539E+04 -0.42830029205E+03  0.12938606968E+04  0.46999998093E+01 0. -1.
</event>
<event>
 5   0  0.9454010E-08  0.3299022E+04  0.7818609E-02  0.8163144E-01
        1   -1    0    0  501    0  0.00000000000E+00  0.00000000000E+00  0.18579739195E+04  0.18579739195E+04  0.50400001928E-02 0. -1.
       -1   -1    0    0    0  501  0.00000000000E+00  0.00000000000E+00 -0.14644372500E+04  0.14644372500E+04  0.50400001928E-02 0.  1.
    10030    2    1    2    0    0  0.00000000000E+00  0.00000000000E+00  0.39353666956E+03  0.33224111695E+04  0.32990218048E+04 0.  0.
        2    1    3    3  502    0  0.73519734498E+03 -0.13321322077E+04  0.83830497331E+03  0.17371950331E+04  0.25500000920E-02 0. -1.
       -2    1    3    3    0  502 -0.73519734498E+03  0.13321322077E+04 -0.44476830375E+03  0.15852161363E+04  0.25500000920E-02 0.  1.
</event>
<event>
 5   0  0.9454010E-08  0.3298024E+04  0.7818609E-02  0.8163398E-01
        1   -1    0    0  501    0  0.00000000000E+00  0.00000000000E+00  0.25333876986E+04  0.25333876986E+04  0.50400001928E-02 0. -1.
       -1   -1    0    0    0  501  0.00000000000E+00  0.00000000000E+00 -0.10733613713E+04  0.10733613713E+04  0.50400001928E-02 0.  1.
    10030    2    1    2    0    0  0.00000000000E+00  0.00000000000E+00  0.14600263273E+04  0.36067490699E+04  0.32980239503E+04 0.  0.
        2    1    3    3  502    0  0.98835715838E+02 -0.14410804964E+03  0.25232336421E+04  0.25292772963E+04  0.25500000920E-02 0. -1.
       -2    1    3    3    0  502 -0.98835715838E+02  0.14410804964E+03 -0.10632073148E+04  0.10774717736E+04  0.25500000920E-02 0.  1.
</event>
<event>
 5   0  0.9283910E-08  0.3305673E+04  0.7818609E-02  0.8161453E-01
       -1   -1    0    0    0  501  0.00000000000E+00  0.00000000000E+00  0.12285531062E+04  0.12285531062E+04  0.50400001928E-02 0.  1.
        1   -1    0    0  501    0  0.00000000000E+00  0.00000000000E+00 -0.22236472550E+04  0.22236472550E+04  0.50400001928E-02 0. -1.
    10030    2    1    2    0    0  0.00000000000E+00  0.00000000000E+00 -0.99509414879E+03  0.34522003612E+04  0.33056731491E+04 0.  0.
        3    1    3    3  502    0 -0.13358468194E+04  0.95404600169E+03 -0.29618370937E+03  0.16680573426E+04  0.10100000352E+00 0. -1.
       -3    1    3    3    0  502  0.13358468194E+04 -0.95404600169E+03 -0.69891043942E+03  0.17841430186E+04  0.10100000352E+00 0.  1.
</event>
<event>
 5   0  0.2875829E-07  0.3300356E+04  0.7818609E-02  0.8162805E-01
       -2   -1    0    0    0  501  0.00000000000E+00  0.00000000000E+00  0.11876057059E+04  0.11876057059E+04  0.25500000920E-02 0. -1.
        2   -1    0    0  501    0  0.00000000000E+00  0.00000000000E+00 -0.22929224839E+04  0.22929224839E+04  0.25500000920E-02 0.  1.
    10030    2    1    2    0    0  0.00000000000E+00  0.00000000000E+00 -0.11053167780E+04  0.34805281898E+04  0.33003562384E+04 0.  0.
        3    1    3    3  502    0  0.22572518531E+03 -0.76016772667E+03  0.97350773814E+03  0.12555971322E+04  0.10100000352E+00 0. -1.
       -3    1    3    3    0  502 -0.22572518531E+03  0.76016772667E+03 -0.20788245161E+04  0.22249310576E+04  0.10100000352E+00 0.  1.
</event>
<event>
 5   0  0.9810351E-08  0.3303150E+04  0.7818609E-02  0.8162094E-01
       -1   -1    0    0    0  501  0.00000000000E+00  0.00000000000E+00  0.12896539963E+04  0.12896539963E+04  0.50400001928E-02 0.  1.
        1   -1    0    0  501    0  0.00000000000E+00  0.00000000000E+00 -0.21150636292E+04  0.21150636292E+04  0.50400001928E-02 0. -1.
    10030    2    1    2    0    0  0.00000000000E+00  0.00000000000E+00 -0.82540963289E+03  0.34047176255E+04  0.33031501703E+04 0.  0.
        5    1    3    3  502    0 -0.43601870538E+03 -0.13467745014E+04 -0.12896074214E+04  0.19149473257E+04  0.46999998093E+01 0.  1.
       -5    1    3    3    0  502  0.43601870538E+03  0.13467745014E+04  0.46419778848E+03  0.14897702997E+04  0.46999998093E+01 0. -1.
</event>
<event>
 5   0  0.8805125E-08  0.3308142E+04  0.7818609E-02  0.8160827E-01
       -1   -1    0    0    0  501  0.00000000000E+00  0.00000000000E+00  0.10762184380E+04  0.10762184380E+04  0.50400001928E-02 0. -1.
        1   -1    0    0  501    0  0.00000000000E+00  0.00000000000E+00 -0.25421889768E+04  0.25421889768E+04  0.50400001928E-02 0.  1.
    10030    2    1    2    0    0  0.00000000000E+00  0.00000000000E+00 -0.14659705388E+04  0.36184074149E+04  0.33081418651E+04 0.  0.
        4    1    3    3  502    0  0.53180334453E+01  0.36166201223E+03  0.10324317859E+04  0.10939582707E+04  0.12699999809E+01 0. -1.
       -4    1    3    3    0  502 -0.53180334453E+01 -0.36166201223E+03 -0.24984023247E+04  0.25244491442E+04  0.12699999809E+01 0.  1.
</event>
<event>
 5   0  0.2875829E-07  0.3298700E+04  0.7818609E-02  0.8163226E-01
        2   -1    0    0  501    0  0.00000000000E+00  0.00000000000E+00  0.10366954830E+04  0.10366954830E+04  0.25500000920E-02 0. -1.
       -2   -1    0    0    0  501  0.00000000000E+00  0.00000000000E+00 -0.26240635223E+04  0.26240635223E+04  0.25500000920E-02 0.  1.
    10030    2    1    2    0    0  0.00000000000E+00  0.00000000000E+00 -0.15873680393E+04  0.36607590053E+04  0.32986996229E+04 0.  0.
        3    1    3    3  502    0  0.70146393588E+03  0.39332184022E+03  0.80436822106E+03  0.11374365778E+04  0.10100000352E+00 0. -1.
       -3    1    3    3    0  502 -0.70146393588E+03 -0.39332184022E+03 -0.23917362604E+04  0.25233224274E+04  0.10100000352E+00 0.  1.
</event>
<event>
 5   0  0.2703956E-07  0.3300200E+04  0.7818609E-02  0.8162844E-01
        2   -1    0    0  501    0  0.00000000000E+00  0.00000000000E+00  0.20125200760E+04  0.20125200760E+04  0.25500000920E-02 0. -1.
       -2   -1    0    0    0  501  0.00000000000E+00  0.00000000000E+00 -0.13529455425E+04  0.13529455425E+04  0.25500000920E-02 0.  1.
    10030    2    1    2    0    0  0.00000000000E+00  0.00000000000E+00  0.65957453345E+03  0.33654656185E+04  0.33002000339E+04 0.  0.
        5    1    3    3  502    0  0.44970620714E+03 -0.10402161438E+04 -0.89331634916E+03  0.14430251170E+04  0.46999998093E+01 0.  1.
       -5    1    3    3    0  502 -0.44970620714E+03  0.10402161438E+04  0.15528908826E+04  0.19224405015E+04  0.46999998093E+01 0. -1.
</event>
<event>
 5   0  0.2703956E-07  0.3297980E+04  0.7818609E-02  0.8163410E-01
       -2   -1    0    0    0  501  0.00000000000E+00  0.00000000000E+00  0.11626979480E+04  0.11626979480E+04  0.25500000920E-02 0. -1.
        2   -1    0    0  501    0  0.00000000000E+00  0.00000000000E+00 -0.23386708297E+04  0.23386708297E+04  0.25500000920E-02 0.  1.
    10030    2    1    2    0    0  0.00000000000E+00  0.00000000000E+00 -0.11759728817E+04  0.35013687777E+04  0.32979798513E+04 0.  0.
        5    1    3    3  502    0  0.14582555587E+04  0.69947365116E+03 -0.92933137555E+03  0.18653288071E+04  0.46999998093E+01 0. -1.
       -5    1    3    3    0  502 -0.14582555587E+04 -0.69947365116E+03 -0.24664150613E+03  0.16360399706E+04  0.46999998093E+01 0.  1.
</event>
<event>
 5   0  0.2703956E-07  0.3298561E+04  0.7818609E-02  0.8163262E-01
       -2   -1    0    0    0  501  0.00000000000E+00  0.00000000000E+00  0.11007588355E+04  0.11007588355E+04  0.25500000920E-02 0. -1.
        2   -1    0    0  501    0  0.00000000000E+00  0.00000000000E+00 -0.24711376046E+04  0.24711376046E+04  0.25500000920E-02 0.  1.
    10030    2    1    2    0    0  0.00000000000E+00  0.00000000000E+00 -0.13703787691E+04  0.35718964401E+04  0.32985612330E+04 0.  0.
        5    1    3    3  502    0  0.54048377356E+03 -0.83870029850E+03 -0.21072362559E+04  0.23315247433E+04  0.46999998093E+01 0.  1.
       -5    1    3    3    0  502 -0.54048377356E+03  0.83870029850E+03  0.73685748689E+03  0.12403716968E+04  0.46999998093E+01 0. -1.
</event>
<event>
 5   0  0.2727168E-07  0.3351888E+04  0.7818609E-02  0.8149817E-01
        2   -1    0    0  501    0  0.00000000000E+00  0.00000000000E+00  0.14503256401E+04  0.14503256401E+04  0.25500000920E-02 0.  1.
       -2   -1    0    0    0  501  0.00000000000E+00  0.00000000000E+00 -0.19366601042E+04  0.19366601042E+04  0.25500000920E-02 0. -1.
    10030    2    1    2    0    0  0.00000000000E+00  0.00000000000E+00 -0.48633446406E+03  0.33869857443E+04  0.33518877101E+04 0.  0.
        2    1    3    3  502    0  0.10954584736E+04  0.81831749777E+03  0.73605958558E+03  0.15528865084E+04  0.25500000920E-02 0.  1.
       -2    1    3    3    0  502 -0.10954584736E+04 -0.81831749777E+03 -0.12223940496E+04  0.18340992359E+04  0.25500000920E-02 0. -1.
</event>
<event>
 5   0  0.2713815E-07  0.3285904E+04  0.7818609E-02  0.8166491E-01
       -2   -1    0    0    0  501  0.00000000000E+00  0.00000000000E+00  0.91697688992E+03  0.91697688993E+03  0.25500000920E-02 0. -1.
        2   -1    0    0  501    0  0.00000000000E+00  0.00000000000E+00 -0.29436853005E+04  0.29436853005E+04  0.25500000920E-02 0.  1.
    10030    2    1    2    0    0  0.00000000000E+00  0.00000000000E+00 -0.20267084106E+04  0.38606621904E+04  0.32859040715E+04 0.  0.
        4    1    3    3  502    0 -0.23323420480E+03 -0.85473949260E+02  0.89478572100E+03  0.92862645326E+03  0.12699999809E+01 0. -1.
       -4    1    3    3    0  502  0.23323420480E+03  0.85473949260E+02 -0.29214941316E+04  0.29320357371E+04  0.12699999809E+01 0.  1.
</event>
<event>
 5   0  0.2703956E-07  0.3298506E+04  0.7818609E-02  0.8163276E-01
        2   -1    0    0  501    0  0.00000000000E+00  0.00000000000E+00  0.25371903266E+04  0.25371903266E+04  0.25500000920E-02 0.  1.
       -2   -1    0    0    0  501  0.00000000000E+00  0.00000000000E+00 -0.10720658317E+04  0.10720658317E+04  0.25500000920E-02 0. -1.
    10030    2    1    2    0    0  0.00000000000E+00  0.00000000000E+00  0.14651244948E+04  0.36092561583E+04  0.32985057573E+04 0.  0.
        5    1    3    3  502    0  0.13326377708E+04 -0.93750442614E+03  0.10119072771E+04  0.19180240886E+04  0.46999998093E+01 0. -1.
       -5    1    3    3    0  502 -0.13326377708E+04  0.93750442614E+03  0.45321721776E+03  0.16912320697E+04  0.46999998093E+01 0.  1.
</event>
<event>
 5   0  0.2703956E-07  0.3302905E+04  0.7818609E-02  0.8162157E-01
       -2   -1    0    0    0  501  0.00000000000E+00  0.00000000000E+00  0.10655598615E+04  0.10655598615E+04  0.25500000920E-02 0. -1.
        2   -1    0    0  501    0  0.00000000000E+00  0.00000000000E+00 -0.25594955112E+04  0.25594955112E+04  0.25500000920E-02 0.  1.
    10030    2    1    2    0    0  0.00000000000E+00  0.00000000000E+00 -0.14939356497E+04  0.36250553727E+04  0.33029051954E+04 0.  0.
        5    1    3    3  502    0  0.18288272681E+03 -0.16327715204E+04 -0.93024198376E+03  0.18880575119E+04  0.46999998093E+01 0. -1.
       -5    1    3    3    0  502 -0.18288272681E+03  0.16327715204E+04 -0.56369366592E+03  0.17369978609E+04  0.46999998093E+01 0.  1.
</event>
<event>
 5   0  0.2824402E-07  0.3296839E+04  0.7818609E-02  0.8163700E-01
        2   -1    0    0  501    0  0.00000000000E+00  0.00000000000E+00  0.20742942963E+04  0.20742942963E+04  0.25500000920E-02 0. -1.
       -2   -1    0    0    0  501  0.00000000000E+00  0.00000000000E+00 -0.13099811084E+04  0.13099811085E+04  0.25500000920E-02 0.  1.
    10030    2    1    2    0    0  0.00000000000E+00  0.00000000000E+00  0.76431318781E+03  0.33842754047E+04  0.32968386927E+04 0.  0.
        1    1    3    3  502    0 -0.13042739177E+04  0.27603816948E+03 -0.61307100815E+03  0.14673730215E+04  0.50400001928E-02 0.  1.
       -1    1    3    3    0  502  0.13042739177E+04 -0.27603816948E+03  0.13773841960E+04  0.19169023832E+04  0.50400001928E-02 0. -1.
</event>
<event>
 5   0  0.2824402E-07  0.3295532E+04  0.7818609E-02  0.8164033E-01
        2   -1    0    0  501    0  0.00000000000E+00  0.00000000000E+00  0.21382557030E+04  0.21382557030E+04  0.25500000920E-02 0. -1.
       -2   -1    0    0    0  501  0.00000000000E+00  0.00000000000E+00 -0.12697889096E+04  0.12697889096E+04  0.25500000920E-02 0.  1.
    10030    2    1    2    0    0  0.00000000000E+00  0.00000000000E+00  0.86846679336E+03  0.34080446127E+04  0.32955323562E+04 0.  0.
        1    1    3    3  502    0  0.34310332941E+03 -0.21705026350E+03  0.20857218960E+04  0.21248685934E+04  0.50400001928E-02 0. -1.
       -1    1    3    3    0  502 -0.34310332941E+03  0.21705026350E+03 -0.12172551026E+04  0.12831760193E+04  0.50400001928E-02 0.  1.
</event>
<event>
 5   0  0.9454010E-08  0.3285691E+04  0.7818609E-02  0.8166546E-01
        1   -1    0    0  501    0  0.00000000000E+00  0.00000000000E+00  0.95399102196E+03  0.95399102198E+03  0.50400001928E-02 0.  1.
       -1   -1    0    0    0  501  0.00000000000E+00  0.00000000000E+00 -0.28291057228E+04  0.28291057228E+04  0.50400001928E-02 0. -1.
    10030    2    1    2    0    0  0.00000000000E+00  0.00000000000E+00 -0.18751147008E+04  0.37830967448E+04  0.32856910748E+04 0.  0.
        2    1    3    3  502    0 -0.65989768247E+03  0.66453668541E+03  0.61654319948E+03  0.11212490689E+04  0.25500000920E-02 0.  1.
       -2    1    3    3    0  502  0.65989768247E+03 -0.66453668541E+03 -0.24916579003E+04  0.26618476759E+04  0.25500000920E-02 0. -1.
</event>
<event>
 5   0  0.2875829E-07  0.3303205E+04  0.7818609E-02  0.8162080E-01
        2   -1    0    0  501    0  0.00000000000E+00  0.00000000000E+00  0.21114489717E+04  0.21114489717E+04  0.25500000920E-02 0. -1.
       -2   -1    0    0    0  501  0.00000000000E+00  0.00000000000E+00 -0.12919044938E+04  0.12919044938E+04  0.25500000920E-02 0.  1.
    10030    2    1    2    0    0  0.00000000000E+00  0.00000000000E+00  0.81954447792E+03  0.34033534654E+04  0.33032047559E+04 0.  0.
        3    1    3    3  502    0  0.80013974033E+03  0.60180516943E+03  0.17631409234E+04  0.20275746576E+04  0.10100000352E+00 0. -1.
       -3    1    3    3    0  502 -0.80013974033E+03 -0.60180516943E+03 -0.94359644551E+03  0.13757788079E+04  0.10100000352E+00 0.  1.
</event>
<event>
 5   0  0.8805125E-08  0.3307429E+04  0.7818609E-02  0.8161008E-01
       -1   -1    0    0    0  501  0.00000000000E+00  0.00000000000E+00  0.19491392851E+04  0.19491392851E+04  0.50400001928E-02 0.  1.
        1   -1    0    0  501    0  0.00000000000E+00  0.00000000000E+00 -0.14030662593E+04  0.14030662593E+04  0.50400001928E-02 0. -1.
    10030    2    1    2    0    0  0.00000000000E+00  0.00000000000E+00  0.54607302578E+03  0.33522055444E+04  0.33074289505E+04 0.  0.
        4    1    3    3  502    0  0.87885650828E+02  0.15342539106E+04 -0.34606112179E+03  0.15752519997E+04  0.12699999809E+01 0. -1.
       -4    1    3    3    0  502 -0.87885650828E+02 -0.15342539106E+04  0.89213414757E+03  0.17769535447E+04  0.12699999809E+01 0.  1.
</event>
<event>
 5   0  0.9181760E-08  0.3262539E+04  0.7818609E-02  0.8172493E-01
        1   -1    0    0  501    0  0.00000000000E+00  0.00000000000E+00  0.16988733576E+04  0.16988733576E+04  0.50400001928E-02 0.  1.
       -1   -1    0    0    0  501  0.00000000000E+00  0.00000000000E+00 -0.15663558169E+04  0.15663558169E+04  0.50400001928E-02 0. -1.
    10030    2    1    2    0    0  0.00000000000E+00  0.00000000000E+00  0.13251754067E+03  0.32652291745E+04  0.32625389904E+04 0.  0.
        1    1    3    3  502    0  0.40830076385E+03 -0.10023140895E+04 -0.11552791305E+04  0.15830391395E+04  0.50400001928E-02 0. -1.
       -1    1    3    3    0  502 -0.40830076385E+03  0.10023140895E+04  0.12877966712E+04  0.16821900351E+04  0.50400001928E-02 0.  1.
</event>
<event>
 5   0  0.9810351E-08  0.3305313E+04  0.7818609E-02  0.8161545E-01
        1   -1    0    0  501    0  0.00000000000E+00  0.00000000000E+00  0.15348254880E+04  0.15348254880E+04  0.50400001928E-02 0. -1.
       -1   -1    0    0    0  501  0.00000000000E+00  0.00000000000E+00 -0.17795335236E+04  0.17795335236E+04  0.50400001928E-02 0.  1.
    10030    2    1    2    0    0  0.00000000000E+00  0.00000000000E+00 -0.24470803555E+03  0.33143590116E+04  0.33053129406E+04 0.  0.
        5    1    3    3  502    0  0.13131019606E+04  0.68895105769E+03  0.60927358409E+03  0.16031614732E+04  0.46999998093E+01 0. -1.
       -5    1    3    3    0  502 -0.13131019606E+04 -0.68895105769E+03 -0.85398161963E+03  0.17111975384E+04  0.46999998093E+01 0.  1.
</event>
<event>
 5   0  0.2713815E-07  0.3300221E+04  0.7818609E-02  0.8162839E-01
       -2   -1    0    0    0  501  0.00000000000E+00  0.00000000000E+00  0.23912197034E+04  0.23912197034E+04  0.25500000920E-02 0. -1.
        2   -1    0    0  501    0  0.00000000000E+00  0.00000000000E+00 -0.11386929294E+04  0.11386929294E+04  0.25500000920E-02 0.  1.
    10030    2    1    2    0    0  0.00000000000E+00  0.00000000000E+00  0.12525267740E+04  0.35299126328E+04  0.33002211858E+04 0.  0.
        4    1    3    3  502    0 -0.10353323587E+04 -0.12828497862E+04  0.70373874195E+03  0.17924470694E+04  0.12699999809E+01 0. -1.
       -4    1    3    3    0  502  0.10353323587E+04  0.12828497862E+04  0.54878803207E+03  0.17374655634E+04  0.12699999809E+01 0.  1.
</event>
<event>
 5   0  0.8805125E-08  0.3307880E+04  0.7818609E-02  0.8160893E-01
       -1   -1    0    0    0  501  0.00000000000E+00  0.00000000000E+00  0.21598076301E+04  0.21598076301E+04  0.50400001928E-02 0.  1.
        1   -1    0    0  501    0  0.00000000000E+00  0.00000000000E+00 -0.12665564420E+04  0.12665564420E+04  0.50400001928E-02 0. -1.
    10030    2    1    2    0    0  0.00000000000E+00  0.00000000000E+00  0.89325118810E+03  0.34263640722E+04  0.33078804498E+04 0.  0.
        4    1    3    3  502    0 -0.81335429303E+03 -0.13870917197E+04  0.84772688081E+03  0.18177489161E+04  0.12699999809E+01 0.  1.
       -4    1    3    3    0  502  0.81335429303E+03  0.13870917197E+04  0.45524307282E+02  0.16086151560E+04  0.12699999809E+01 0. -1.
</event>
<event>
 5   0  0.2727168E-07  0.3300016E+04  0.7818609E-02  0.8162891E-01
       -2   -1    0    0    0  501  0.00000000000E+00  0.00000000000E+00  0.19871493248E+04  0.19871493248E+04  0.25500000920E-02 0. -1.
        2   -1    0    0  501    0  0.00000000000E+00  0.00000000000E+00 -0.13700667186E+04  0.13700667186E+04  0.25500000920E-02 0.  1.
    10030    2    1    2    0    0  0.00000000000E+00  0.00000000000E+00  0.61708260615E+03  0.33572160434E+04  0.33000164574E+04 0.  0.
        2    1    3    3  502    0 -0.11037171399E+04 -0.69442340924E+03  0.13370604391E+04  0.18676578954E+04  0.25500000920E-02 0. -1.
       -2    1    3    3    0  502  0.11037171399E+04  0.69442340924E+03 -0.71997783297E+03  0.14895581480E+04  0.25500000920E-02 0.  1.
</event>
<event>
 5   0  0.2824402E-07  0.3305132E+04  0.7818609E-02  0.8161591E-01
       -2   -1    0    0    0  501  0.00000000000E+00  0.00000000000E+00  0.23257268466E+04  0.23257268466E+04  0.25500000920E-02 0.  1.
        2   -1    0    0  501    0  0.00000000000E+00  0.00000000000E+00 -0.11742452128E+04  0.11742452128E+04  0.25500000920E-02 0. -1.
    10030    2    1    2    0    0  0.00000000000E+00  0.00000000000E+00  0.11514816338E+04  0.34999720593E+04  0.33051315349E+04 0.  0.
        1    1    3    3  502    0 -0.92300822089E+03  0.12955997324E+04  0.10163018160E+03  0.15940048733E+04  0.50400001928E-02 0. -1.
       -1    1    3    3    0  502  0.92300822089E+03 -0.12955997324E+04  0.10498514522E+04  0.19059671860E+04  0.50400001928E-02 0.  1.
</event>
<event>
 5   0  0.2703956E-07  0.3292408E+04  0.7818609E-02  0.8164830E-01
       -2   -1    0    0    0  501  0.00000000000E+00  0.00000000000E+00  0.19107433049E+04  0.19107433049E+04  0.25500000920E-02 0.  1.
        2   -1    0    0  501    0  0.00000000000E+00  0.00000000000E+00 -0.14182894033E+04  0.14182894033E+04  0.25500000920E-02 0. -1.
    10030    2    1    2    0    0  0.00000000000E+00  0.00000000000E+00  0.49245390158E+03  0.33290327081E+04  0.32924076185E+04 0.  0.
        5    1    3    3  502    0  0.86175179125E+03  0.68283183686E+03 -0.99259173331E+03  0.14812615928E+04  0.46999998093E+01 0. -1.
       -5    1    3    3    0  502 -0.86175179125E+03 -0.68283183686E+03  0.14850456349E+04  0.18477711154E+04  0.46999998093E+01 0.  1.
</event>
<event>
 5   0  0.9454010E-08  0.3312507E+04  0.7818609E-02  0.8159720E-01
       -1   -1    0    0    0  501  0.00000000000E+00  0.00000000000E+00  0.11917111649E+04  0.11917111649E+04  0.50400001928E-02 0.  1.
        1   -1    0    0  501    0  0.00000000000E+00  0.00000000000E+00 -0.23018801632E+04  0.23018801632E+04  0.50400001928E-02 0. -1.
    10030    2    1    2    0    0  0.00000000000E+00  0.00000000000E+00 -0.11101689983E+04  0.34935913282E+04  0.33125073832E+04 0.  0.
        2    1    3    3  502    0  0.91107557539E+03 -0.79189810020E+03 -0.17511039996E+04  0.21268583692E+04  0.25500000920E-02 0.  1.
       -2    1    3    3    0  502 -0.91107557539E+03  0.79189810020E+03  0.64093500134E+03  0.13667329590E+04  0.25500000920E-02 0. -1.
</event>
<event>
 5   0  0.8805125E-08  0.3302411E+04  0.7818609E-02  0.8162282E-01
       -1   -1    0    0    0  501  0.00000000000E+00  0.00000000000E+00  0.13535818354E+04  0.13535818354E+04  0.50400001928E-02 0. -1.
        1   -1    0    0  501    0  0.00000000000E+00  0.00000000000E+00 -0.20142708404E+04  0.20142708404E+04  0.50400001928E-02 0.  1.
    10030    2    1    2    0    0  0.00000000000E+00  0.00000000000E+00 -0.66068900504E+03  0.33678526758E+04  0.33024114953E+04 0.  0.
        4    1    3    3  502    0  0.23404203489E+03  0.62992609813E+03 -0.18685086876E+04  0.19856759282E+04  0.12699999809E+01 0.  1.
       -4    1    3    3    0  502 -0.23404203489E+03 -0.62992609813E+03  0.12078196826E+04  0.13821767476E+04  0.12699999809E+01 0. -1.
</event>
<event>
 5   0  0.2713815E-07  0.3297694E+04  0.7818609E-02  0.8163482E-01
       -2   -1    0    0    0  501  0.00000000000E+00  0.00000000000E+00  0.23652456783E+04  0.23652456783E+04  0.25500000920E-02 0. -1.
        2   -1    0    0  501    0  0.00000000000E+00  0.00000000000E+00 -0.11494348664E+04  0.11494348664E+04  0.25500000920E-02 0.  1.
    10030    2    1    2    0    0  0.00000000000E+00  0.00000000000E+00  0.12158108120E+04  0.35146805447E+04  0.32976936487E+04 0.  0.
        4    1    3    3  502    0 -0.13816419450E+04 -0.39426556042E+03  0.14700275540E+04  0.20555686364E+04  0.12699999809E+01 0. -1.
       -4    1    3    3    0  502  0.13816419450E+04  0.39426556042E+03 -0.25421674207E+03  0.14591119084E+04  0.12699999809E+01 0.  1.
</event>
<event>
 5   0  0.2875829E-07  0.3294634E+04  0.7818609E-02  0.8164262E-01
       -2   -1    0    0    0  501  0.00000000000E+00  0.00000000000E+00  0.16388795408E+04  0.16388795408E+04  0.25500000920E-02 0.  1.
        2   -1    0    0  501    0  0.00000000000E+00  0.00000000000E+00 -0.16557980209E+04  0.16557980209E+04  0.25500000920E-02 0. -1.
    10030    2    1    2    0    0  0.00000000000E+00  0.00000000000E+00 -0.16918480176E+02  0.32946775617E+04  0.32946341224E+04 0.  0.
        3    1    3    3  502    0 -0.11005699981E+04 -0.15127851994E+03 -0.12248280136E+04  0.16535849493E+04  0.10100000352E+00 0. -1.
       -3    1    3    3    0  502  0.11005699981E+04  0.15127851994E+03  0.12079095334E+04  0.16410926124E+04  0.10100000352E+00 0.  1.
</event>
<event>
 5   0  0.9181760E-08  0.3301649E+04  0.7818609E-02  0.8162476E-01
       -1   -1    0    0    0  501  0.00000000000E+00  0.00000000000E+00  0.12930769974E+04  0.12930769974E+04  0.50400001928E-02 0.  1.
        1   -1    0    0  501    0  0.00000000000E+00  0.00000000000E+00 -0.21075478055E+04  0.21075478055E+04  0.50400001928E-02 0. -1.
    10030    2    1    2    0    0  0.00000000000E+00  0.00000000000E+00 -0.81447080807E+03  0.34006248030E+04  0.33016490354E+04 0.  0.
        1    1    3    3  502    0 -0.13651070219E+04  0.69331747164E+02 -0.13606729583E+04  0.19286666306E+04  0.50400001928E-02 0. -1.
       -1    1    3    3    0  502  0.13651070219E+04 -0.69331747164E+02  0.54620215025E+03  0.14719581724E+04  0.50400001928E-02 0.  1.
</event>
<event>
 5   0  0.9283910E-08  0.3302003E+04  0.7818609E-02  0.8162386E-01
       -1   -1    0    0    0  501  0.00000000000E+00  0.00000000000E+00  0.15499640379E+04  0.15499640379E+04  0.50400001928E-02 0.  1.
        1   -1    0    0  501    0  0.00000000000E+00  0.00000000000E+00 -0.17586253165E+04  0.17586253165E+04  0.50400001928E-02 0. -1.
    10030    2    1    2    0    0  0.00000000000E+00  0.00000000000E+00 -0.20866127863E+03  0.33085893544E+04  0.33020030264E+04 0.  0.
        3    1    3    3  502    0  0.10335003848E+04 -0.22341610437E+03 -0.13748377978E+04  0.17344211661E+04  0.10100000352E+00 0. -1.
       -3    1    3    3    0  502 -0.10335003848E+04  0.22341610437E+03  0.11661765191E+04  0.15741681883E+04  0.10100000352E+00 0.  1.
</event>
<event>
 5   0  0.9454010E-08  0.3298119E+04  0.7818609E-02  0.8163374E-01
       -1   -1    0    0    0  501  0.00000000000E+00  0.00000000000E+00  0.16120594242E+04  0.16120594243E+04  0.50400001928E-02 0. -1.
        1   -1    0    0  501    0  0.00000000000E+00  0.00000000000E+00 -0.16869085207E+04  0.16869085207E+04  0.50400001928E-02 0.  1.
    10030    2    1    2    0    0  0.00000000000E+00  0.00000000000E+00 -0.74849096428E+02  0.32989679449E+04  0.32981187235E+04 0.  0.
        2    1    3    3  502    0 -0.92649474569E+03  0.24458565272E+03 -0.13798513817E+04  0.16799418118E+04  0.25500000920E-02 0.  1.
       -2    1    3    3    0  502  0.92649474569E+03 -0.24458565272E+03  0.13050022853E+04  0.16190261332E+04  0.25500000920E-02 0. -1.
</event>
<event>
 5   0  0.9454010E-08  0.3300141E+04  0.7818609E-02  0.8162860E-01
        1   -1    0    0  501    0  0.00000000000E+00  0.00000000000E+00  0.18907898118E+04  0.18907898118E+04  0.50400001928E-02 0. -1.
       -1   -1    0    0    0  501  0.00000000000E+00  0.00000000000E+00 -0.14399974045E+04  0.14399974045E+04  0.50400001928E-02 0.  1.
    10030    2    1    2    0    0  0.00000000000E+00  0.00000000000E+00  0.45079240736E+03  0.33307872163E+04  0.33001408585E+04 0.  0.
        2    1    3    3  502    0  0.11652723369E+04 -0.77325553825E+03  0.11092848651E+04  0.17850200723E+04  0.25500000920E-02 0. -1.
       -2    1    3    3    0  502 -0.11652723369E+04  0.77325553825E+03 -0.65849245775E+03  0.15457671440E+04  0.25500000920E-02 0.  1.
</event>
<event>
 5   0  0.2703956E-07  0.3301724E+04  0.7818609E-02  0.8162457E-01
       -2   -1    0    0    0  501  0.00000000000E+00  0.00000000000E+00  0.11677120388E+04  0.11677120388E+04  0.25500000920E-02 0.  1.
        2   -1    0    0  501    0  0.00000000000E+00  0.00000000000E+00 -0.23339193864E+04  0.23339193864E+04  0.25500000920E-02 0. -1.
    10030    2    1    2    0    0  0.00000000000E+00  0.00000000000E+00 -0.11662073476E+04  0.35016314252E+04  0.33017242556E+04 0.  0.
        5    1    3    3  502    0 -0.13840278054E+04 -0.88840240895E+03 -0.43113857023E+03  0.17002042122E+04  0.46999998093E+01 0.  1.
       -5    1    3    3    0  502  0.13840278054E+04  0.88840240895E+03 -0.73506877734E+03  0.18014272130E+04  0.46999998093E+01 0. -1.
</event>
<event>
 5   0  0.9810351E-08  0.3300238E+04  0.7818609E-02  0.8162835E-01
        1   -1    0    0  501    0  0.00000000000E+00  0.00000000000E+00  0.15317403596E+04  0.15317403596E+04  0.50400001928E-02 0. -1.
       -1   -1    0    0    0  501  0.00000000000E+00  0.00000000000E+00 -0.17776460501E+04  0.17776460501E+04  0.50400001928E-02 0.  1.
    10030    2    1    2    0    0  0.00000000000E+00  0.00000000000E+00 -0.24590569043E+03  0.33093864097E+04  0.33002376884E+04 0.  0.
        5    1    3    3  502    0 -0.16434944342E+04  0.12939482159E+03 -0.19423530861E+03  0.16599898856E+04  0.46999998093E+01 0. -1.
       -5    1    3    3    0  502  0.16434944342E+04 -0.12939482159E+03 -0.51670381824E+02  0.16493965241E+04  0.46999998093E+01 0.  1.
</event>
<event>
 5   0  0.9283910E-08  0.3233381E+04  0.7818609E-02  0.8180057E-01
       -1   -1    0    0    0  501  0.00000000000E+00  0.00000000000E+00  0.14404424555E+04  0.14404424555E+04  0.50400001928E-02 0.  1.
        1   -1    0    0  501    0  0.00000000000E+00  0.00000000000E+00 -0.18145035664E+04  0.18145035664E+04  0.50400001928E-02 0. -1.
    10030    2    1    2    0    0  0.00000000000E+00  0.00000000000E+00 -0.37406111098E+03  0.32549460219E+04  0.32333808762E+04 0.  0.
        3    1    3    3  502    0 -0.29190796313E+03 -0.62243966751E+03  0.12859600662E+04  0.14581957004E+04  0.10100000352E+00 0.  1.
       -3    1    3    3    0  502  0.29190796313E+03  0.62243966751E+03 -0.16600211772E+04  0.17967503215E+04  0.10100000352E+00 0. -1.
</event>
<event>
 5   0  0.9810351E-08  0.3300927E+04  0.7818609E-02  0.8162660E-01
       -1   -1    0    0    0  501  0.00000000000E+00  0.00000000000E+00  0.99938853759E+03  0.99938853761E+03  0.50400001928E-02 0.  1.
        1   -1    0    0  501    0  0.00000000000E+00  0.00000000000E+00 -0.27256965734E+04  0.27256965734E+04  0.50400001928E-02 0. -1.
    10030    2    1    2    0    0  0.00000000000E+00  0.00000000000E+00 -0.17263080358E+04  0.37250851110E+04  0.33009270894E+04 0.  0.
        5    1    3    3  502    0  0.18854842289E+03  0.11224615146E+04  0.48564141035E+03  0.12374732438E+04  0.46999998093E+01 0.  1.
       -5    1    3    3    0  502 -0.18854842289E+03 -0.11224615146E+04 -0.22119494461E+04  0.24876118672E+04  0.46999998093E+01 0. -1.
</event>
<event>
 5   0  0.9181760E-08  0.3304962E+04  0.7818609E-02  0.8161634E-01
       -1   -1    0    0    0  501  0.00000000000E+00  0.00000000000E+00  0.16328746778E+04  0.16328746778E+04  0.50400001928E-02 0. -1.
        1   -1    0    0  501    0  0.00000000000E+00  0.00000000000E+00 -0.16723228269E+04  0.16723228269E+04  0.50400001928E-02 0.  1.
    10030    2    1    2    0    0  0.00000000000E+00  0.00000000000E+00 -0.39448149097E+02  0.33051975046E+04  0.33049620857E+04 0.  0.
        1    1    3    3  502    0 -0.14733953857E+03 -0.46693591645E+03 -0.15981126171E+04  0.16714371142E+04  0.50400001928E-02 0.  1.
       -1    1    3    3    0  502  0.14733953857E+03  0.46693591645E+03  0.15586644680E+04  0.16337603905E+04  0.50400001928E-02 0. -1.
</event>
<event>
 5   0  0.2727168E-07  0.3290625E+04  0.7818609E-02  0.8165285E-01
       -2   -1    0    0    0  501  0.00000000000E+00  0.00000000000E+00  0.16600640598E+04  0.16600640598E+04  0.25500000920E-02 0. -1.
        2   -1    0    0  501    0  0.00000000000E+00  0.00000000000E+00 -0.16306921405E+04  0.16306921405E+04  0.25500000920E-02 0.  1.
    10030    2    1    2    0    0  0.00000000000E+00  0.00000000000E+00  0.29371919318E+02  0.32907562003E+04  0.32906251169E+04 0.  0.
        2    1    3    3  502    0 -0.36657833356E+03 -0.13953388299E+04 -0.77635964039E+03  0.16383175566E+04  0.25500000920E-02 0.  1.
       -2    1    3    3    0  502  0.36657833356E+03  0.13953388299E+04  0.80573155971E+03  0.16524386437E+04  0.25500000920E-02 0. -1.
</event>
<event>
 5   0  0.2824402E-07  0.3301482E+04  0.7818609E-02  0.8162518E-01
       -2   -1    0    0    0  501  0.00000000000E+00  0.00000000000E+00  0.13086679719E+04  0.13086679719E+04  0.25500000920E-02 0. -1.
        2   -1    0    0  501    0  0.00000000000E+00  0.00000000000E+00 -0.20822287717E+04  0.20822287717E+04  0.25500000920E-02 0.  1.
    10030    2    1    2    0    0  0.00000000000E+00  0.00000000000E+00 -0.77356079982E+03  0.33908967436E+04  0.33014821543E+04 0.  0.
        1    1    3    3  502    0 -0.15692296023E+03  0.12232070866E+04  0.74024657956E+03  0.14383411941E+04  0.50400001928E-02 0. -1.
       -1    1    3    3    0  502  0.15692296023E+03 -0.12232070866E+04 -0.15138073794E+04  0.19525555495E+04  0.50400001928E-02 0.  1.
</event>
<event>
 5   0  0.8805125E-08  0.3301773E+04  0.7818609E-02  0.8162444E-01
        3   -1    0    0  501    0  0.00000000000E+00  0.00000000000E+00  0.26024852275E+04  0.26024852295E+04  0.10100000352E+00 0.  1.
       -3   -1    0    0    0  501  0.00000000000E+00  0.00000000000E+00 -0.10472396541E+04  0.10472396590E+04  0.10100000352E+00 0. -1.
    10030    2    1    2    0    0  0.00000000000E+00  0.00000000000E+00  0.15552455734E+04  0.36497248884E+04  0.33017727008E+04 0.  0.
        1    1    3    3  502    0 -0.91234470244E+03  0.89512319608E+03 -0.37738779596E+03  0.13326814851E+04  0.50400001928E-02 0. -1.
       -1    1    3    3    0  502  0.91234470244E+03 -0.89512319608E+03  0.19326333694E+04  0.23170434033E+04  0.50400001928E-02 0.  1.
</event>
<event>
 5   0  0.9454010E-08  0.3303363E+04  0.7818609E-02  0.8162040E-01
        1   -1    0    0  501    0  0.00000000000E+00  0.00000000000E+00  0.10581103185E+04  0.10581103185E+04  0.50400001928E-02 0. -1.
       -1   -1    0    0    0  501  0.00000000000E+00  0.00000000000E+00 -0.25782305841E+04  0.25782305841E+04  0.50400001928E-02 0.  1.
    10030    2    1    2    0    0  0.00000000000E+00  0.00000000000E+00 -0.15201202656E+04  0.36363409027E+04  0.33033633676E+04 0.  0.
        2    1    3    3  502    0 -0.71399429083E+02 -0.98631300182E+03 -0.22163397906E+04  0.24269473178E+04  0.25500000920E-02 0.  1.
       -2    1    3    3    0  502  0.71399429083E+02  0.98631300182E+03  0.69621952500E+03  0.12093935848E+04  0.25500000920E-02 0. -1.
</event>
<event>
 5   0  0.9283910E-08  0.3299075E+04  0.7818609E-02  0.8163131E-01
       -1   -1    0    0    0  501  0.00000000000E+00  0.00000000000E+00  0.13921554299E+04  0.13921554299E+04  0.50400001928E-02 0. -1.
        1   -1    0    0  501    0  0.00000000000E+00  0.00000000000E+00 -0.19545048363E+04  0.19545048363E+04  0.50400001928E-02 0.  1.
    10030    2    1    2    0    0  0.00000000000E+00  0.00000000000E+00 -0.56234940641E+03  0.33466602662E+04  0.32990753375E+04 0.  0.
        3    1    3    3  502    0 -0.21041459607E+03  0.47705150121E+03  0.13063650552E+04  0.14065710450E+04  0.10100000352E+00 0. -1.
       -3    1    3    3    0  502  0.21041459607E+03 -0.47705150121E+03 -0.18687144616E+04  0.19400892212E+04  0.10100000352E+00 0.  1.
</event>
<event>
 5   0  0.2727168E-07  0.3298179E+04  0.7818609E-02  0.8163359E-01
        2   -1    0    0  501    0  0.00000000000E+00  0.00000000000E+00  0.20275885663E+04  0.20275885663E+04  0.25500000920E-02 0.  1.
       -2   -1    0    0    0  501  0.00000000000E+00  0.00000000000E+00 -0.13412465783E+04  0.13412465783E+04  0.25500000920E-02 0. -1.
    10030    2    1    2    0    0  0.00000000000E+00  0.00000000000E+00  0.68634198802E+03  0.33688351446E+04  0.32981790289E+04 0.  0.
        2    1    3    3  502    0  0.15947693675E+04  0.28163665312E+03  0.66110708267E+03  0.17491915603E+04  0.25500000920E-02 0. -1.
       -2    1    3    3    0  502 -0.15947693675E+04 -0.28163665312E+03  0.25234905350E+02  0.16196435843E+04  0.25500000920E-02 0.  1.
</event>
<event>
 5   0  0.2824402E-07  0.3302708E+04  0.7818609E-02  0.8162207E-01
        2   -1    0    0  501    0  0.00000000000E+00  0.00000000000E+00  0.16374059360E+04  0.16374059360E+04  0.25500000920E-02 0.  1.
       -2   -1    0    0    0  501  0.00000000000E+00  0.00000000000E+00 -0.16654205199E+04  0.16654205199E+04  0.25500000920E-02 0. -1.
    10030    2    1    2    0    0  0.00000000000E+00  0.00000000000E+00 -0.28014583889E+02  0.33028264559E+04  0.33027076439E+04 0.  0.
        1    1    3    3  502    0 -0.61902986200E+03 -0.41919789376E+03 -0.14864883923E+04  0.16639028171E+04  0.50400001928E-02 0. -1.
       -1    1    3    3    0  502  0.61902986200E+03  0.41919789376E+03  0.14584738084E+04  0.16389236389E+04  0.50400001928E-02 0.  1.
</event>
<event>
 5   0  0.9181760E-08  0.3301645E+04  0.7818609E-02  0.8162477E-01
        1   -1    0    0  501    0  0.00000000000E+00  0.00000000000E+00  0.25754953299E+04  0.25754953299E+04  0.50400001928E-02 0.  1.
       -1   -1    0    0    0  501  0.00000000000E+00  0.00000000000E+00 -0.10581325782E+04  0.10581325782E+04  0.50400001928E-02 0. -1.
    10030    2    1    2    0    0  0.00000000000E+00  0.00000000000E+00  0.15173627517E+04  0.36336279081E+04  0.33016453556E+04 0.  0.
        1    1    3    3  502    0 -0.37471870780E+03 -0.15237002368E+04  0.13232316647E+04  0.20525638991E+04  0.50400001928E-02 0.  1.
       -1    1    3    3    0  502  0.37471870780E+03  0.15237002368E+04  0.19413108702E+03  0.15810640090E+04  0.50400001928E-02 0. -1.
</event>
<event>
 5   0  0.2727168E-07  0.3299457E+04  0.7818609E-02  0.8163033E-01
       -2   -1    0    0    0  501  0.00000000000E+00  0.00000000000E+00  0.20681096356E+04  0.20681096356E+04  0.25500000920E-02 0. -1.
        2   -1    0    0  501    0  0.00000000000E+00  0.00000000000E+00 -0.13159866100E+04  0.13159866100E+04  0.25500000920E-02 0.  1.
    10030    2    1    2    0    0  0.00000000000E+00  0.00000000000E+00  0.75212302554E+03  0.33840962456E+04  0.32994572817E+04 0.  0.
        2    1    3    3  502    0  0.16481168287E+04 -0.67776424971E+02  0.34850477494E+03  0.16859235756E+04  0.25500000920E-02 0. -1.
       -2    1    3    3    0  502 -0.16481168287E+04  0.67776424971E+02  0.40361825060E+03  0.16981726699E+04  0.25500000920E-02 0.  1.
</event>
<event>
 5   0  0.8805125E-08  0.3282896E+04  0.7818609E-02  0.8167261E-01
       -1   -1    0    0    0  501  0.00000000000E+00  0.00000000000E+00  0.16993918239E+04  0.16993918239E+04  0.50400001928E-02 0.  1.
        1   -1    0    0  501    0  0.00000000000E+00  0.00000000000E+00 -0.15854796389E+04  0.15854796389E+04  0.50400001928E-02 0. -1.
    10030    2    1    2    0    0  0.00000000000E+00  0.00000000000E+00  0.11391218503E+03  0.32848714629E+04  0.32828957555E+04 0.  0.
        4    1    3    3  502    0 -0.12386298478E+04 -0.10022649608E+04 -0.33775636752E+03  0.16287479633E+04  0.12699999809E+01 0.  1.
       -4    1    3    3    0  502  0.12386298478E+04  0.10022649608E+04  0.45166855255E+03  0.16561234995E+04  0.12699999809E+01 0. -1.
</event>
<event>
 5   0  0.9283910E-08  0.3299907E+04  0.7818609E-02  0.8162919E-01
        1   -1    0    0  501    0  0.00000000000E+00  0.00000000000E+00  0.17248824615E+04  0.17248824615E+04  0.50400001928E-02 0. -1.
       -1   -1    0    0    0  501  0.00000000000E+00  0.00000000000E+00 -0.15782799033E+04  0.15782799033E+04  0.50400001928E-02 0.  1.
    10030    2    1    2    0    0  0.00000000000E+00  0.00000000000E+00  0.14660255825E+03  0.33031623648E+04  0.32999074681E+04 0.  0.
        3    1    3    3  502    0  0.53027298939E+03 -0.90565475994E+03  0.13477213743E+04  0.17081431148E+04  0.10100000352E+00 0. -1.
       -3    1    3    3    0  502 -0.53027298939E+03  0.90565475994E+03 -0.12011188161E+04  0.15950192501E+04  0.10100000352E+00 0.  1.
</event>
<event>
 5   0  0.2703956E-07  0.3305724E+04  0.7818609E-02  0.8161440E-01
       -2   -1    0    0    0  501  0.00000000000E+00  0.00000000000E+00  0.13801469697E+04  0.13801469697E+04  0.25500000920E-02 0.  1.
        2   -1    0    0  501    0  0.00000000000E+00  0.00000000000E+00 -0.19794653719E+04  0.19794653719E+04  0.25500000920E-02 0. -1.
    10030    2    1    2    0    0  0.00000000000E+00  0.00000000000E+00 -0.59931840222E+03  0.33596123416E+04  0.33057242078E+04 0.  0.
        5    1    3    3  502    0 -0.69207639290E+02 -0.14030338480E+04  0.58553725263E+03  0.15218967246E+04  0.46999998093E+01 0. -1.
       -5    1    3    3    0  502  0.69207639290E+02  0.14030338480E+04 -0.11848556549E+04  0.18377156170E+04  0.46999998093E+01 0.  1.
</event>
<event>
 5   0  0.2727168E-07  0.3297142E+04  0.7818609E-02  0.8163623E-01
        2   -1    0    0  501    0  0.00000000000E+00  0.00000000000E+00  0.14212736382E+04  0.14212736382E+04  0.25500000920E-02 0.  1.
       -2   -1    0    0    0  501  0.00000000000E+00  0.00000000000E+00 -0.19122193777E+04  0.19122193777E+04  0.25500000920E-02 0. -1.
    10030    2    1    2    0    0  0.00000000000E+00  0.00000000000E+00 -0.49094573956E+03  0.33334930159E+04  0.32971423942E+04 0.  0.
        2    1    3    3  502    0  0.10145370313E+03  0.15511568410E+04  0.30958494289E+03  0.15849994435E+04  0.25500000920E-02 0.  1.
       -2    1    3    3    0  502 -0.10145370313E+03 -0.15511568410E+04 -0.80053068244E+03  0.17484935724E+04  0.25500000920E-02 0. -1.
</event>
<event>
 5   0  0.8805125E-08  0.3301759E+04  0.7818609E-02  0.8162448E-01
       -3   -1    0    0    0  501  0.00000000000E+00  0.00000000000E+00  0.10008350720E+04  0.10008350771E+04  0.10100000352E+00 0.  1.
        3   -1    0    0  501    0  0.00000000000E+00  0.00000000000E+00 -0.27231282923E+04  0.27231282942E+04  0.10100000352E+00 0. -1.
    10030    2    1    2    0    0  0.00000000000E+00  0.00000000000E+00 -0.17222932203E+04  0.37239633713E+04  0.33017585094E+04 0.  0.
        4    1    3    3  502    0  0.10768245890E+04  0.66505865378E+02 -0.22705031149E+04  0.25137939918E+04  0.12699999809E+01 0. -1.
       -4    1    3    3    0  502 -0.10768245890E+04 -0.66505865378E+02  0.54820989457E+03  0.12101693795E+04  0.12699999809E+01 0.  1.
</event>
<event>
 5   0  0.9454010E-08  0.3297089E+04  0.7818609E-02  0.8163636E-01
        1   -1    0    0  501    0  0.00000000000E+00  0.00000000000E+00  0.84069373147E+03  0.84069373149E+03  0.50400001928E-02 0.  1.
       -1   -1    0    0    0  501  0.00000000000E+00  0.00000000000E+00 -0.32326861193E+04  0.32326861193E+04  0.50400001928E-02 0. -1.
    10030    2    1    2    0    0  0.00000000000E+00  0.00000000000E+00 -0.23919923878E+04  0.40733798508E+04  0.32970889926E+04 0.  0.
        2    1    3    3  502    0 -0.98477963746E+03 -0.10325010965E+04 -0.17583568673E+03  0.14376256945E+04  0.25500000920E-02 0.  1.
       -2    1    3    3    0  502  0.98477963746E+03  0.10325010965E+04 -0.22161567011E+04  0.26357541563E+04  0.25500000920E-02 0. -1.
</event>
<event>
 5   0  0.9181760E-08  0.3302141E+04  0.7818609E-02  0.8162351E-01
        1   -1    0    0  501    0  0.00000000000E+00  0.00000000000E+00  0.10221008755E+04  0.10221008755E+04  0.50400001928E-02 0.  1.
       -1   -1    0    0    0  501  0.00000000000E+00  0.00000000000E+00 -0.26670890723E+04  0.26670890723E+04  0.50400001928E-02 0. -1.
    10030    2    1    2    0    0  0.00000000000E+00  0.00000000000E+00 -0.16449881968E+04  0.36891899478E+04  0.33021411695E+04 0.  0.
        1    1    3    3  502    0  0.11290939340E+04 -0.50417270020E+03  0.39981430219E+03  0.12995748149E+04  0.50400001928E-02 0.  1.
       -1    1    3    3    0  502 -0.11290939340E+04  0.50417270020E+03 -0.20448024990E+04  0.23896151329E+04  0.50400001928E-02 0. -1.
</event>
<event>
 5   0  0.2727168E-07  0.3328262E+04  0.7818609E-02  0.8155741E-01
        2   -1    0    0  501    0  0.00000000000E+00  0.00000000000E+00  0.11935530935E+04  0.11935530935E+04  0.25500000920E-02 0.  1.
       -2   -1    0    0    0  501  0.00000000000E+00  0.00000000000E+00 -0.23202425598E+04  0.23202425598E+04  0.25500000920E-02 0. -1.
    10030    2    1    2    0    0  0.00000000000E+00  0.00000000000E+00 -0.11266894663E+04  0.35137956533E+04  0.33282624205E+04 0.  0.
        2    1    3    3  502    0  0.57246605626E+03 -0.22079455083E+03 -0.21964645342E+04  0.22805534568E+04  0.25500000920E-02 0. -1.
       -2    1    3    3    0  502 -0.57246605626E+03  0.22079455083E+03  0.10697750679E+04  0.12332421965E+04  0.25500000920E-02 0.  1.
</event>
<event>
 5   0  0.9181760E-08  0.3335578E+04  0.7818609E-02  0.8153901E-01
        1   -1    0    0  501    0  0.00000000000E+00  0.00000000000E+00  0.19148166011E+04  0.19148166012E+04  0.50400001928E-02 0. -1.
       -1   -1    0    0    0  501  0.00000000000E+00  0.00000000000E+00 -0.14526297272E+04  0.14526297273E+04  0.50400001928E-02 0.  1.
    10030    2    1    2    0    0  0.00000000000E+00  0.00000000000E+00  0.46218687390E+03  0.33674463284E+04  0.33355776214E+04 0.  0.
        1    1    3    3  502    0  0.18327926275E+03 -0.14836370943E+04  0.97758294769E+03  0.17861799281E+04  0.50400001928E-02 0. -1.
       -1    1    3    3    0  502 -0.18327926275E+03  0.14836370943E+04 -0.51539607379E+03  0.15812664003E+04  0.50400001928E-02 0.  1.
</event>
<event>
 5   0  0.2703956E-07  0.3294686E+04  0.7818609E-02  0.8164249E-01
       -2   -1    0    0    0  501  0.00000000000E+00  0.00000000000E+00  0.11743771747E+04  0.11743771747E+04  0.25500000920E-02 0.  1.
        2   -1    0    0  501    0  0.00000000000E+00  0.00000000000E+00 -0.23107899032E+04  0.23107899032E+04  0.25500000920E-02 0. -1.
    10030    2    1    2    0    0  0.00000000000E+00  0.00000000000E+00 -0.11364127285E+04  0.34851670780E+04  0.32946859747E+04 0.  0.
        5    1    3    3  502    0  0.14657007262E+04 -0.50980396059E+03 -0.11529187381E+04  0.19332414240E+04  0.46999998093E+01 0.  1.
       -5    1    3    3    0  502 -0.14657007262E+04  0.50980396059E+03  0.16506009546E+02  0.15519256539E+04  0.46999998093E+01 0. -1.
</event>
<event>
 5   0  0.9283910E-08  0.3306042E+04  0.7818609E-02  0.8161360E-01
       -1   -1    0    0    0  501  0.00000000000E+00  0.00000000000E+00  0.17603354613E+04  0.17603354613E+04  0.50400001928E-02 0.  1.
        1   -1    0    0  501    0  0.00000000000E+00  0.00000000000E+00 -0.15522490082E+04  0.15522490083E+04  0.50400001928E-02 0. -1.
    10030    2    1    2    0    0  0.00000000000E+00  0.00000000000E+00  0.20808645303E+03  0.33125844695E+04  0.33060423312E+04 0.  0.
        3    1    3    3  502    0 -0.87506492202E+03  0.14023221858E+04  0.88754159666E+02  0.16553318222E+04  0.10100000352E+00 0. -1.
       -3    1    3    3    0  502  0.87506492202E+03 -0.14023221858E+04  0.11933229336E+03  0.16572526473E+04  0.10100000352E+00 0.  1.
</event>
<event>
 5   0  0.9810351E-08  0.3300244E+04  0.7818609E-02  0.8162833E-01
       -1   -1    0    0    0  501  0.00000000000E+00  0.00000000000E+00  0.16659509166E+04  0.16659509167E+04  0.50400001928E-02 0. -1.
        1   -1    0    0  501    0  0.00000000000E+00  0.00000000000E+00 -0.16344436770E+04  0.16344436770E+04  0.50400001928E-02 0.  1.
    10030    2    1    2    0    0  0.00000000000E+00  0.00000000000E+00  0.31507239692E+02  0.33003945936E+04  0.33002441981E+04 0.  0.
        5    1    3    3  502    0  0.86665329548E+03  0.13018482834E+04  0.54207026372E+03  0.16552217823E+04  0.46999998093E+01 0.  1.
       -5    1    3    3    0  502 -0.86665329548E+03 -0.13018482834E+04 -0.51056302403E+03  0.16451728113E+04  0.46999998093E+01 0. -1.
</event>
<event>
 5   0  0.2727168E-07  0.3304268E+04  0.7818609E-02  0.8161810E-01
        2   -1    0    0  501    0  0.00000000000E+00  0.00000000000E+00  0.23546288136E+04  0.23546288136E+04  0.25500000920E-02 0.  1.
       -2   -1    0    0    0  501  0.00000000000E+00  0.00000000000E+00 -0.11592261042E+04  0.11592261042E+04  0.25500000920E-02 0. -1.
    10030    2    1    2    0    0  0.00000000000E+00  0.00000000000E+00  0.11954027094E+04  0.35138549178E+04  0.33042682618E+04 0.  0.
        2    1    3    3  502    0 -0.13205970370E+04  0.95082735421E+03  0.29411518085E+03  0.16536483699E+04  0.25500000920E-02 0.  1.
       -2    1    3    3    0  502  0.13205970370E+04 -0.95082735421E+03  0.90128752858E+03  0.18602065479E+04  0.25500000920E-02 0. -1.
</event>
<event>
 5   0  0.9181760E-08  0.3299154E+04  0.7818609E-02  0.8163111E-01
        1   -1    0    0  501    0  0.00000000000E+00  0.00000000000E+00  0.25124792801E+04  0.25124792801E+04  0.50400001928E-02 0. -1.
       -1   -1    0    0    0  501  0.00000000000E+00  0.00000000000E+00 -0.10830357779E+04  0.10830357779E+04  0.50400001928E-02 0.  1.
    10030    2    1    2    0    0  0.00000000000E+00  0.00000000000E+00  0.14294435023E+04  0.35955150580E+04  0.32991544078E+04 0.  0.
        1    1    3    3  502    0  0.33161305162E+03  0.67856223376E+03  0.23129819406E+04  0.24331665332E+04  0.50400001928E-02 0. -1.
       -1    1    3    3    0  502 -0.33161305162E+03 -0.67856223376E+03 -0.88353843829E+03  0.11623485248E+04  0.50400001928E-02 0.  1.
</event>
<event>
 5   0  0.2727168E-07  0.3301298E+04  0.7818609E-02  0.8162565E-01
        2   -1    0    0  501    0  0.00000000000E+00  0.00000000000E+00  0.20023839646E+04  0.20023839646E+04  0.25500000920E-02 0.  1.
       -2   -1    0    0    0  501  0.00000000000E+00  0.00000000000E+00 -0.13606993871E+04  0.13606993871E+04  0.25500000920E-02 0. -1.
    10030    2    1    2    0    0  0.00000000000E+00  0.00000000000E+00  0.64168457754E+03  0.33630833516E+04  0.33012983102E+04 0.  0.
        2    1    3    3  502    0 -0.73013942560E+03 -0.11969155827E+03 -0.11823111657E+04  0.13947362986E+04  0.25500000920E-02 0. -1.
       -2    1    3    3    0  502  0.73013942560E+03  0.11969155827E+03  0.18239957433E+04  0.19683470531E+04  0.25500000920E-02 0.  1.
</event>
<event>
 5   0  0.9454010E-08  0.3274200E+04  0.7818609E-02  0.8169491E-01
        1   -1    0    0  501    0  0.00000000000E+00  0.00000000000E+00  0.23294946828E+04  0.23294946828E+04  0.50400001928E-02 0. -1.
       -1   -1    0    0    0  501  0.00000000000E+00  0.00000000000E+00 -0.11505055181E+04  0.11505055182E+04  0.50400001928E-02 0.  1.
    10030    2    1    2    0    0  0.00000000000E+00  0.00000000000E+00  0.11789891646E+04  0.34800002009E+04  0.32742000471E+04 0.  0.
        2    1    3    3  502    0 -0.11115978579E+04  0.90321539003E+03 -0.25321523192E+03  0.14544984676E+04  0.25500000920E-02 0. -1.
       -2    1    3    3    0  502  0.11115978579E+04 -0.90321539003E+03  0.14322043966E+04  0.20255017334E+04  0.25500000920E-02 0.  1.
</event>
<event>
 5   0  0.9454010E-08  0.3305728E+04  0.7818609E-02  0.8161440E-01
       -1   -1    0    0    0  501  0.00000000000E+00  0.00000000000E+00  0.18348970122E+04  0.18348970122E+04  0.50400001928E-02 0.  1.
        1   -1    0    0  501    0  0.00000000000E+00  0.00000000000E+00 -0.14888893954E+04  0.14888893955E+04  0.50400001928E-02 0. -1.
    10030    2    1    2    0    0  0.00000000000E+00  0.00000000000E+00  0.34600761677E+03  0.33237864077E+04  0.33057275769E+04 0.  0.
        2    1    3    3  502    0 -0.10443384188E+04  0.55344078124E+03  0.13347461395E+04  0.17828310879E+04  0.25500000920E-02 0.  1.
       -2    1    3    3    0  502  0.10443384188E+04 -0.55344078124E+03 -0.98873852268E+03  0.15409553198E+04  0.25500000920E-02 0. -1.
</event>
<event>
 5   0  0.8805125E-08  0.3303576E+04  0.7818609E-02  0.8161986E-01
        1   -1    0    0  501    0  0.00000000000E+00  0.00000000000E+00  0.16134973838E+04  0.16134973838E+04  0.50400001928E-02 0. -1.
       -1   -1    0    0    0  501  0.00000000000E+00  0.00000000000E+00 -0.16909874312E+04  0.16909874312E+04  0.50400001928E-02 0.  1.
    10030    2    1    2    0    0  0.00000000000E+00  0.00000000000E+00 -0.77490047378E+02  0.33044848150E+04  0.33035761207E+04 0.  0.
        4    1    3    3  502    0  0.12784785052E+04 -0.62519602416E+03  0.79995136538E+03  0.16325750080E+04  0.12699999809E+01 0. -1.
       -4    1    3    3    0  502 -0.12784785052E+04  0.62519602416E+03 -0.87744141275E+03  0.16719098070E+04  0.12699999809E+01 0.  1.
</event>
<event>
 5   0  0.8805125E-08  0.3317186E+04  0.7818609E-02  0.8158536E-01
        1   -1    0    0  501    0  0.00000000000E+00  0.00000000000E+00  0.11889199764E+04  0.11889199764E+04  0.50400001928E-02 0. -1.
       -1   -1    0    0    0  501  0.00000000000E+00  0.00000000000E+00 -0.23138065605E+04  0.23138065605E+04  0.50400001928E-02 0.  1.
    10030    2    1    2    0    0  0.00000000000E+00  0.00000000000E+00 -0.11248865841E+04  0.35027265368E+04  0.33171860612E+04 0.  0.
        4    1    3    3  502    0 -0.42200679134E+03 -0.15813576112E+04 -0.84607014828E+03  0.18424488962E+04  0.12699999809E+01 0.  1.
       -4    1    3    3    0  502  0.42200679134E+03  0.15813576112E+04 -0.27881643581E+03  0.16602776407E+04  0.12699999809E+01 0. -1.
</event>
<event>
 5   0  0.9810351E-08  0.3297686E+04  0.7818609E-02  0.8163484E-01
        1   -1    0    0  501    0  0.00000000000E+00  0.00000000000E+00  0.97834165533E+03  0.97834165534E+03  0.50400001928E-02 0. -1.
       -1   -1    0    0    0  501  0.00000000000E+00  0.00000000000E+00 -0.27788686101E+04  0.27788686101E+04  0.50400001928E-02 0.  1.
    10030    2    1    2    0    0  0.00000000000E+00  0.00000000000E+00 -0.18005269547E+04  0.37572102654E+04  0.32976858043E+04 0.  0.
        5    1    3    3  502    0  0.11907575588E+04  0.11281923882E+04 -0.10907056765E+04  0.19698686737E+04  0.46999998093E+01 0. -1.
       -5    1    3    3    0  502 -0.11907575588E+04 -0.11281923882E+04 -0.70982127821E+03  0.17873415918E+04  0.46999998093E+01 0.  1.
</event>
<event>
 5   0  0.9283910E-08  0.3300176E+04  0.7818609E-02  0.8162851E-01
        1   -1    0    0  501    0  0.00000000000E+00  0.00000000000E+00  0.25427501264E+04  0.25427501264E+04  0.50400001928E-02 0.  1.
       -1   -1    0    0    0  501  0.00000000000E+00  0.00000000000E+00 -0.10708055959E+04  0.10708055959E+04  0.50400001928E-02 0. -1.
    10030    2    1    2    0    0  0.00000000000E+00  0.00000000000E+00  0.14719445306E+04  0.36135557223E+04  0.33001763979E+04 0.  0.
        3    1    3    3  502    0 -0.14432359114E+04  0.54305952763E+03  0.92878783451E+02  0.15448203860E+04  0.10100000352E+00 0. -1.
       -3    1    3    3    0  502  0.14432359114E+04 -0.54305952763E+03  0.13790657471E+04  0.20687353363E+04  0.10100000352E+00 0.  1.
</event>
<event>
 5   0  0.2703956E-07  0.3296983E+04  0.7818609E-02  0.8163663E-01
        2   -1    0    0  501    0  0.00000000000E+00  0.00000000000E+00  0.15701266158E+04  0.15701266158E+04  0.25500000920E-02 0. -1.
       -2   -1    0    0    0  501  0.00000000000E+00  0.00000000000E+00 -0.17307680111E+04  0.17307680111E+04  0.25500000920E-02 0.  1.
    10030    2    1    2    0    0  0.00000000000E+00  0.00000000000E+00 -0.16064139532E+03  0.33008946269E+04  0.32969834213E+04 0.  0.
        5    1    3    3  502    0  0.11140643333E+04  0.87990329700E+03 -0.91924891106E+03  0.16912746085E+04  0.46999998093E+01 0.  1.
       -5    1    3    3    0  502 -0.11140643333E+04 -0.87990329700E+03  0.75860751573E+03  0.16096200184E+04  0.46999998093E+01 0. -1.
</event>
<event>
 5   0  0.9810351E-08  0.3290408E+04  0.7818609E-02  0.8165340E-01
       -1   -1    0    0    0  501  0.00000000000E+00  0.00000000000E+00  0.16528613978E+04  0.16528613978E+04  0.50400001928E-02 0.  1.
        1   -1    0    0  501    0  0.00000000000E+00  0.00000000000E+00 -0.16375822574E+04  0.16375822574E+04  0.50400001928E-02 0. -1.
    10030    2    1    2    0    0  0.00000000000E+00  0.00000000000E+00  0.15279140475E+02  0.32904436552E+04  0.32904081807E+04 0.  0.
        5    1    3    3  502    0  0.55642443368E+03  0.95940621662E+03 -0.12075302983E+04  0.16395791991E+04  0.46999998093E+01 0. -1.
       -5    1    3    3    0  502 -0.55642443368E+03 -0.95940621662E+03  0.12228094387E+04  0.16508644561E+04  0.46999998093E+01 0.  1.
</event>
<event>
 5   0  0.2824402E-07  0.3301724E+04  0.7818609E-02  0.8162457E-01
       -2   -1    0    0    0  501  0.00000000000E+00  0.00000000000E+00  0.20715927169E+04  0.20715927169E+04  0.25500000920E-02 0.  1.
        2   -1    0    0  501    0  0.00000000000E+00  0.00000000000E+00 -0.13155794015E+04  0.13155794015E+04  0.25500000920E-02 0. -1.
    10030    2    1    2    0    0  0.00000000000E+00  0.00000000000E+00  0.75601331536E+03  0.33871721184E+04  0.33017236145E+04 0.  0.
        1    1    3    3  502    0  0.99672068353E+03  0.20549448675E+03 -0.95550495722E+03  0.13959476453E+04  0.50400001928E-02 0. -1.
       -1    1    3    3    0  502 -0.99672068353E+03 -0.20549448675E+03  0.17115182726E+04  0.19912244731E+04  0.50400001928E-02 0.  1.
</event>
<event>
 5   0  0.9283910E-08  0.3291224E+04  0.7818609E-02  0.8165132E-01
        1   -1    0    0  501    0  0.00000000000E+00  0.00000000000E+00  0.20425755919E+04  0.20425755919E+04  0.50400001928E-02 0. -1.
       -1   -1    0    0    0  501  0.00000000000E+00  0.00000000000E+00 -0.13257958219E+04  0.13257958220E+04  0.50400001928E-02 0.  1.
    10030    2    1    2    0    0  0.00000000000E+00  0.00000000000E+00  0.71677977000E+03  0.33683714139E+04  0.32912235936E+04 0.  0.
        3    1    3    3  502    0 -0.32844877859E+03  0.98927712468E+02 -0.12888002320E+04  0.13336683773E+04  0.10100000352E+00 0.  1.
       -3    1    3    3    0  502  0.32844877859E+03 -0.98927712468E+02  0.20055800020E+04  0.20347030366E+04  0.10100000352E+00 0. -1.
</event>
<event>
 5   0  0.8805125E-08  0.3305722E+04  0.7818609E-02  0.8161441E-01
       -1   -1    0    0    0  501  0.00000000000E+00  0.00000000000E+00  0.11098926623E+04  0.11098926623E+04  0.50400001928E-02 0. -1.
        1   -1    0    0  501    0  0.00000000000E+00  0.00000000000E+00 -0.24614530924E+04  0.24614530924E+04  0.50400001928E-02 0.  1.
    10030    2    1    2    0    0  0.00000000000E+00  0.00000000000E+00 -0.13515604301E+04  0.35713457547E+04  0.33057215405E+04 0.  0.
        4    1    3    3  502    0  0.85066873935E+03  0.12820790031E+04 -0.13281051497E+04  0.20325424413E+04  0.12699999809E+01 0.  1.
       -4    1    3    3    0  502 -0.85066873935E+03 -0.12820790031E+04 -0.23455280357E+02  0.15388033134E+04  0.12699999809E+01 0. -1.
</event>
<event>
 5   0  0.2824402E-07  0.3302113E+04  0.7818609E-02  0.8162358E-01
        2   -1    0    0  501    0  0.00000000000E+00  0.00000000000E+00  0.26154055772E+04  0.26154055772E+04  0.25500000920E-02 0.  1.
       -2   -1    0    0    0  501  0.00000000000E+00  0.00000000000E+00 -0.10422808801E+04  0.10422808801E+04  0.25500000920E-02 0. -1.
    10030    2    1    2    0    0  0.00000000000E+00  0.00000000000E+00  0.15731246971E+04  0.36576864573E+04  0.33021127945E+04 0.  0.
        1    1    3    3  502    0 -0.73101810825E+03 -0.12147325693E+04 -0.15073744869E+03  0.14257224372E+04  0.50400001928E-02 0. -1.
       -1    1    3    3    0  502  0.73101810825E+03  0.12147325693E+04  0.17238621458E+04  0.22319640202E+04  0.50400001928E-02 0.  1.
</event>
<event>
 5   0  0.2875829E-07  0.3285381E+04  0.7818609E-02  0.8166625E-01
       -2   -1    0    0    0  501  0.00000000000E+00  0.00000000000E+00  0.97974496073E+03  0.97974496074E+03  0.25500000920E-02 0.  1.
        2   -1    0    0  501    0  0.00000000000E+00  0.00000000000E+00 -0.27542187920E+04  0.27542187920E+04  0.25500000920E-02 0. -1.
    10030    2    1    2    0    0  0.00000000000E+00  0.00000000000E+00 -0.17744738313E+04  0.37339637527E+04  0.32853809412E+04 0.  0.
        3    1    3    3  502    0  0.73868120305E+03 -0.34710830929E+03  0.73299821956E+03  0.10970052407E+04  0.10100000352E+00 0.  1.
       -3    1    3    3    0  502 -0.73868120305E+03  0.34710830929E+03 -0.25074720508E+04  0.26369585120E+04  0.10100000352E+00 0. -1.
</event>
<event>
 5   0  0.2824402E-07  0.3297154E+04  0.7818609E-02  0.8163620E-01
       -2   -1    0    0    0  501  0.00000000000E+00  0.00000000000E+00  0.23532461125E+04  0.23532461125E+04  0.25500000920E-02 0.  1.
        2   -1    0    0  501    0  0.00000000000E+00  0.00000000000E+00 -0.11549180925E+04  0.11549180925E+04  0.25500000920E-02 0. -1.
    10030    2    1    2    0    0  0.00000000000E+00  0.00000000000E+00  0.11983280200E+04  0.35081642050E+04  0.32971542344E+04 0.  0.
        1    1    3    3  502    0  0.11434551980E+04 -0.17042363939E+03 -0.65132630755E+03  0.13269363081E+04  0.50400001928E-02 0. -1.
       -1    1    3    3    0  502 -0.11434551980E+04  0.17042363939E+03  0.18496543275E+04  0.21812278969E+04  0.50400001928E-02 0.  1.
</event>
<event>
 5   0  0.2875829E-07  0.3286218E+04  0.7818609E-02  0.8166411E-01
       -2   -1    0    0    0  501  0.00000000000E+00  0.00000000000E+00  0.15159410993E+04  0.15159410993E+04  0.25500000920E-02 0. -1.
        2   -1    0    0  501    0  0.00000000000E+00  0.00000000000E+00 -0.17809451477E+04  0.17809451478E+04  0.25500000920E-02 0.  1.
    10030    2    1    2    0    0  0.00000000000E+00  0.00000000000E+00 -0.26500404843E+03  0.32968862471E+04  0.32862184621E+04 0.  0.
        3    1    3    3  502    0 -0.16018551542E+04 -0.23824744491E+02 -0.49879047704E+03  0.16778854262E+04  0.10100000352E+00 0.  1.
       -3    1    3    3    0  502  0.16018551542E+04  0.23824744491E+02  0.23378642861E+03  0.16190008208E+04  0.10100000352E+00 0. -1.
</event>
<event>
 5   0  0.2727168E-07  0.3296387E+04  0.7818609E-02  0.8163815E-01
        2   -1    0    0  501    0  0.00000000000E+00  0.00000000000E+00  0.10778030007E+04  0.10778030007E+04  0.25500000920E-02 0.  1.
       -2   -1    0    0    0  501  0.00000000000E+00  0.00000000000E+00 -0.25204440473E+04  0.25204440473E+04  0.25500000920E-02 0. -1.
    10030    2    1    2    0    0  0.00000000000E+00  0.00000000000E+00 -0.14426410466E+04  0.35982470481E+04  0.32963872087E+04 0.  0.
        2    1    3    3  502    0 -0.12890845608E+04  0.59881600818E+03 -0.16321284413E+04  0.21642926941E+04  0.25500000920E-02 0. -1.
       -2    1    3    3    0  502  0.12890845608E+04 -0.59881600818E+03  0.18948739477E+03  0.14339543540E+04  0.25500000920E-02 0.  1.
</event>
<event>
 5   0  0.2824402E-07  0.3300450E+04  0.7818609E-02  0.8162781E-01
       -2   -1    0    0    0  501  0.00000000000E+00  0.00000000000E+00  0.12160115527E+04  0.12160115527E+04  0.25500000920E-02 0.  1.
        2   -1    0    0  501    0  0.00000000000E+00  0.00000000000E+00 -0.22394879565E+04  0.22394879565E+04  0.25500000920E-02 0. -1.
    10030    2    1    2    0    0  0.00000000000E+00  0.00000000000E+00 -0.10234764038E+04  0.34554995092E+04  0.33004504100E+04 0.  0.
        1    1    3    3  502    0 -0.55003743171E+03 -0.16949384686E+03  0.11075190134E+04  0.12481457069E+04  0.50400001928E-02 0.  1.
       -1    1    3    3    0  502  0.55003743171E+03  0.16949384686E+03 -0.21309954172E+04  0.22073538023E+04  0.50400001928E-02 0. -1.
</event>
<event>
 5   0  0.9810351E-08  0.3301096E+04  0.7818609E-02  0.8162617E-01
        1   -1    0    0  501    0  0.00000000000E+00  0.00000000000E+00  0.25138957580E+04  0.25138957580E+04  0.50400001928E-02 0.  1.
       -1   -1    0    0    0  501  0.00000000000E+00  0.00000000000E+00 -0.10837000056E+04  0.10837000056E+04  0.50400001928E-02 0. -1.
    10030    2    1    2    0    0  0.00000000000E+00  0.00000000000E+00  0.14301957524E+04  0.35975957636E+04  0.33010960889E+04 0.  0.
        5    1    3    3  502    0  0.86685775485E+03 -0.35729053881E+03  0.21954822475E+04  0.23873129844E+04  0.46999998093E+01 0.  1.
       -5    1    3    3    0  502 -0.86685775485E+03  0.35729053881E+03 -0.76528649507E+03  0.12102827793E+04  0.46999998093E+01 0. -1.
</event>
<event>
 5   0  0.9810351E-08  0.3297175E+04  0.7818609E-02  0.8163615E-01
        1   -1    0    0  501    0  0.00000000000E+00  0.00000000000E+00  0.13343253504E+04  0.13343253504E+04  0.50400001928E-02 0. -1.
       -1   -1    0    0    0  501  0.00000000000E+00  0.00000000000E+00 -0.20368650050E+04  0.20368650050E+04  0.50400001928E-02 0.  1.
    10030    2    1    2    0    0  0.00000000000E+00  0.00000000000E+00 -0.70253965460E+03  0.33711903555E+04  0.32971749190E+04 0.  0.
        5    1    3    3  502    0  0.16413992081E+04  0.84310648356E+02 -0.48268077020E+03  0.17129805784E+04  0.46999998093E+01 0.  1.
       -5    1    3    3    0  502 -0.16413992081E+04 -0.84310648356E+02 -0.21985888439E+03  0.16582097771E+04  0.46999998093E+01 0. -1.
</event>
<event>
 5   0  0.2727168E-07  0.3299567E+04  0.7818609E-02  0.8163006E-01
        2   -1    0    0  501    0  0.00000000000E+00  0.00000000000E+00  0.23804780164E+04  0.23804780164E+04  0.25500000920E-02 0. -1.
       -2   -1    0    0    0  501  0.00000000000E+00  0.00000000000E+00 -0.11433777790E+04  0.11433777790E+04  0.25500000920E-02 0.  1.
    10030    2    1    2    0    0  0.00000000000E+00  0.00000000000E+00  0.12371002374E+04  0.35238557954E+04  0.32995670427E+04 0.  0.
        2    1    3    3  502    0 -0.13142948550E+04 -0.29115276558E+03  0.16371346671E+04  0.21195166470E+04  0.25500000920E-02 0. -1.
       -2    1    3    3    0  502  0.13142948550E+04  0.29115276558E+03 -0.40003442965E+03  0.14043391484E+04  0.25500000920E-02 0.  1.
</event>
<event>
 5   0  0.9283910E-08  0.3330308E+04  0.7818609E-02  0.8155226E-01
       -1   -1    0    0    0  501  0.00000000000E+00  0.00000000000E+00  0.17802760275E+04  0.17802760275E+04  0.50400001928E-02 0.  1.
        1   -1    0    0  501    0  0.00000000000E+00  0.00000000000E+00 -0.15574759846E+04  0.15574759846E+04  0.50400001928E-02 0. -1.
    10030    2    1    2    0    0  0.00000000000E+00  0.00000000000E+00  0.22280004284E+03  0.33377520121E+04  0.33303075887E+04 0.  0.
        3    1    3    3  502    0 -0.11635911923E+04 -0.91440812424E+03  0.87642174799E+03  0.17199423743E+04  0.10100000352E+00 0.  1.
       -3    1    3    3    0  502  0.11635911923E+04  0.91440812424E+03 -0.65362170515E+03  0.16178096378E+04  0.10100000352E+00 0. -1.
</event>
<event>
 5   0  0.9810351E-08  0.3321802E+04  0.7818609E-02  0.8157370E-01
       -1   -1    0    0    0  501  0.00000000000E+00  0.00000000000E+00  0.26356312339E+04  0.26356312339E+04  0.50400001928E-02 0.  1.
        1   -1    0    0  501    0  0.00000000000E+00  0.00000000000E+00 -0.10466530344E+04  0.10466530344E+04  0.50400001928E-02 0. -1.
    10030    2    1    2    0    0  0.00000000000E+00  0.00000000000E+00  0.15889781995E+04  0.36822842683E+04  0.33218015766E+04 0.  0.
        5    1    3    3  502    0 -0.43090609633E+03  0.50764026455E+03 -0.89220763545E+03  0.11132992665E+04  0.46999998093E+01 0. -1.
       -5    1    3    3    0  502  0.43090609633E+03 -0.50764026455E+03  0.24811858350E+04  0.25689850018E+04  0.46999998093E+01 0.  1.
</event>
<event>
 5   0  0.9454010E-08  0.3294410E+04  0.7818609E-02  0.8164319E-01
       -1   -1    0    0    0  501  0.00000000000E+00  0.00000000000E+00  0.12798611901E+04  0.12798611901E+04  0.50400001928E-02 0.  1.
        1   -1    0    0  501    0  0.00000000000E+00  0.00000000000E+00 -0.21199836586E+04  0.21199836586E+04  0.50400001928E-02 0. -1.
    10030    2    1    2    0    0  0.00000000000E+00  0.00000000000E+00 -0.84012246856E+03  0.33998448487E+04  0.32944103013E+04 0.  0.
        2    1    3    3  502    0  0.16312918289E+04  0.18834348936E+03 -0.28670287758E+03  0.16669687583E+04  0.25500000920E-02 0.  1.
       -2    1    3    3    0  502 -0.16312918289E+04 -0.18834348936E+03 -0.55341959097E+03  0.17328760904E+04  0.25500000920E-02 0. -1.
</event>
<event>
 5   0  0.2875829E-07  0.3301650E+04  0.7818609E-02  0.8162476E-01
        2   -1    0    0  501    0  0.00000000000E+00  0.00000000000E+00  0.30183799283E+04  0.30183799283E+04  0.25500000920E-02 0.  1.
       -2   -1    0    0    0  501  0.00000000000E+00  0.00000000000E+00 -0.90287602659E+03  0.90287602659E+03  0.25500000920E-02 0. -1.
    10030    2    1    2    0    0  0.00000000000E+00  0.00000000000E+00  0.21155039017E+04  0.39212559549E+04  0.33016498157E+04 0.  0.
        3    1    3    3  502    0 -0.19430825942E+03 -0.16380328107E+04  0.11357742393E+04  0.20027207298E+04  0.10100000352E+00 0. -1.
       -3    1    3    3    0  502  0.19430825942E+03  0.16380328107E+04  0.97972966236E+03  0.19185352251E+04  0.10100000352E+00 0.  1.
</event>
<event>
 5   0  0.8805125E-08  0.3302780E+04  0.7818609E-02  0.8162188E-01
       -3   -1    0    0    0  501  0.00000000000E+00  0.00000000000E+00  0.12292937470E+04  0.12292937512E+04  0.10100000352E+00 0.  1.
        3   -1    0    0  501    0  0.00000000000E+00  0.00000000000E+00 -0.22184193156E+04  0.22184193179E+04  0.10100000352E+00 0. -1.
    10030    2    1    2    0    0  0.00000000000E+00  0.00000000000E+00 -0.98912556856E+03  0.34477130691E+04  0.33027800436E+04 0.  0.
        4    1    3    3  502    0  0.14578555051E+04  0.74891367316E+03 -0.28352031090E+03  0.16633098758E+04  0.12699999809E+01 0. -1.
       -4    1    3    3    0  502 -0.14578555051E+04 -0.74891367316E+03 -0.70560525766E+03  0.17844031932E+04  0.12699999809E+01 0.  1.
</event>
<event>
 5   0  0.2727168E-07  0.3301912E+04  0.7818609E-02  0.8162409E-01
       -2   -1    0    0    0  501  0.00000000000E+00  0.00000000000E+00  0.19860848472E+04  0.19860848472E+04  0.25500000920E-02 0. -1.
        2   -1    0    0  501    0  0.00000000000E+00  0.00000000000E+00 -0.13723765179E+04  0.13723765179E+04  0.25500000920E-02 0.  1.
    10030    2    1    2    0    0  0.00000000000E+00  0.00000000000E+00  0.61370832929E+03  0.33584613651E+04  0.33019122985E+04 0.  0.
        2    1    3    3  502    0  0.10895788801E+04 -0.56254953680E+03  0.14312327719E+04  0.18846939711E+04  0.25500000920E-02 0. -1.
       -2    1    3    3    0  502 -0.10895788801E+04  0.56254953680E+03 -0.81752444263E+03  0.14737673940E+04  0.25500000920E-02 0.  1.
</event>
<event>
 5   0  0.9181760E-08  0.3304439E+04  0.7818609E-02  0.8161767E-01
        1   -1    0    0  501    0  0.00000000000E+00  0.00000000000E+00  0.14282884802E+04  0.14282884802E+04  0.50400001928E-02 0.  1.
       -1   -1    0    0    0  501  0.00000000000E+00  0.00000000000E+00 -0.19112589249E+04  0.19112589249E+04  0.50400001928E-02 0. -1.
    10030    2    1    2    0    0  0.00000000000E+00  0.00000000000E+00 -0.48297044469E+03  0.33395474051E+04  0.33044388965E+04 0.  0.
        1    1    3    3  502    0 -0.86728963146E+03  0.12989040617E+04 -0.78617913185E+03  0.17485481674E+04  0.50400001928E-02 0. -1.
       -1    1    3    3    0  502  0.86728963146E+03 -0.12989040617E+04  0.30320868716E+03  0.15909992377E+04  0.50400001928E-02 0.  1.
</event>
<event>
 5   0  0.2875829E-07  0.3303672E+04  0.7818609E-02  0.8161962E-01
        2   -1    0    0  501    0  0.00000000000E+00  0.00000000000E+00  0.20281558234E+04  0.20281558234E+04  0.25500000920E-02 0.  1.
       -2   -1    0    0    0  501  0.00000000000E+00  0.00000000000E+00 -0.13453417134E+04  0.13453417134E+04  0.25500000920E-02 0. -1.
    10030    2    1    2    0    0  0.00000000000E+00  0.00000000000E+00  0.68281411009E+03  0.33734975368E+04  0.33036722782E+04 0.  0.
        3    1    3    3  502    0  0.62396829852E+03  0.41774059441E+03 -0.11609881907E+04  0.13826558614E+04  0.10100000352E+00 0. -1.
       -3    1    3    3    0  502 -0.62396829852E+03 -0.41774059441E+03  0.18438023008E+04  0.19908416754E+04  0.10100000352E+00 0.  1.
</event>
<event>
 5   0  0.9454010E-08  0.3257045E+04  0.7818609E-02  0.8173912E-01
        1   -1    0    0  501    0  0.00000000000E+00  0.00000000000E+00  0.15622116385E+04  0.15622116385E+04  0.50400001928E-02 0. -1.
       -1   -1    0    0    0  501  0.00000000000E+00  0.00000000000E+00 -0.16976479520E+04  0.16976479521E+04  0.50400001928E-02 0.  1.
    10030    2    1    2    0    0  0.00000000000E+00  0.00000000000E+00 -0.13543631355E+03  0.32598595906E+04  0.32570449114E+04 0.  0.
        2    1    3    3  502    0 -0.12260183022E+04 -0.69841432121E+02  0.10028260685E+04  0.15854522467E+04  0.25500000920E-02 0.  1.
       -2    1    3    3    0  502  0.12260183022E+04  0.69841432121E+02 -0.11382623820E+04  0.16744073439E+04  0.25500000920E-02 0. -1.
</event>
<event>
 5   0  0.9283910E-08  0.3292365E+04  0.7818609E-02  0.8164841E-01
       -1   -1    0    0    0  501  0.00000000000E+00  0.00000000000E+00  0.18279110627E+04  0.18279110627E+04  0.50400001928E-02 0.  1.
        1   -1    0    0  501    0  0.00000000000E+00  0.00000000000E+00 -0.14825216067E+04  0.14825216067E+04  0.50400001928E-02 0. -1.
    10030    2    1    2    0    0  0.00000000000E+00  0.00000000000E+00  0.34538945592E+03  0.33104326694E+04  0.32923654995E+04 0.  0.
        3    1    3    3  502    0 -0.11770929967E+04  0.11329052524E+04  0.37603057757E+03  0.16764311019E+04  0.10100000352E+00 0.  1.
       -3    1    3    3    0  502  0.11770929967E+04 -0.11329052524E+04 -0.30641121651E+02  0.16340015675E+04  0.10100000352E+00 0. -1.
</event>
<event>
 5   0  0.9810351E-08  0.3306479E+04  0.7818609E-02  0.8161249E-01
       -1   -1    0    0    0  501  0.00000000000E+00  0.00000000000E+00  0.12187064490E+04  0.12187064490E+04  0.50400001928E-02 0.  1.
        1   -1    0    0  501    0  0.00000000000E+00  0.00000000000E+00 -0.22427069782E+04  0.22427069782E+04  0.50400001928E-02 0. -1.
    10030    2    1    2    0    0  0.00000000000E+00  0.00000000000E+00 -0.10240005292E+04  0.34614134272E+04  0.33064793709E+04 0.  0.
        5    1    3    3  502    0  0.68343923724E+03  0.59832056936E+03  0.93406710525E+03  0.13029121773E+04  0.46999998093E+01 0.  1.
       -5    1    3    3    0  502 -0.68343923724E+03 -0.59832056936E+03 -0.19580676344E+04  0.21585012499E+04  0.46999998093E+01 0. -1.
</event>
<event>
 5   0  0.9454010E-08  0.3235134E+04  0.7818609E-02  0.8179600E-01
       -1   -1    0    0    0  501  0.00000000000E+00  0.00000000000E+00  0.18453278675E+04  0.18453278675E+04  0.50400001928E-02 0. -1.
        1   -1    0    0  501    0  0.00000000000E+00  0.00000000000E+00 -0.14179176523E+04  0.14179176523E+04  0.50400001928E-02 0.  1.
    10030    2    1    2    0    0  0.00000000000E+00  0.00000000000E+00  0.42741021519E+03  0.32632455198E+04  0.32351339741E+04 0.  0.
        2    1    3    3  502    0 -0.12026007151E+04 -0.55039331295E+03 -0.72569928820E+03  0.15085823596E+04  0.25500000920E-02 0.  1.
       -2    1    3    3    0  502  0.12026007151E+04  0.55039331295E+03  0.11531095034E+04  0.17546631602E+04  0.25500000920E-02 0. -1.
</event>
<event>
 5   0  0.2713815E-07  0.3305237E+04  0.7818609E-02  0.8161564E-01
        2   -1    0    0  501    0  0.00000000000E+00  0.00000000000E+00  0.20780725287E+04  0.20780725287E+04  0.25500000920E-02 0. -1.
       -2   -1    0    0    0  501  0.00000000000E+00  0.00000000000E+00 -0.13142701484E+04  0.13142701484E+04  0.25500000920E-02 0.  1.
    10030    2    1    2    0    0  0.00000000000E+00  0.00000000000E+00  0.76380238032E+03  0.33923426771E+04  0.33052374745E+04 0.  0.
        4    1    3    3  502    0  0.32916410424E+03 -0.16169198715E+04  0.47578983198E+03  0.17173108209E+04  0.12699999809E+01 0. -1.
       -4    1    3    3    0  502 -0.32916410424E+03  0.16169198715E+04  0.28801254834E+03  0.16750318562E+04  0.12699999809E+01 0.  1.
</event>
<event>
 5   0  0.8805125E-08  0.3303320E+04  0.7818609E-02  0.8162051E-01
        1   -1    0    0  501    0  0.00000000000E+00  0.00000000000E+00  0.17098996694E+04  0.17098996694E+04  0.50400001928E-02 0.  1.
       -1   -1    0    0    0  501  0.00000000000E+00  0.00000000000E+00 -0.15954039399E+04  0.15954039399E+04  0.50400001928E-02 0. -1.
    10030    2    1    2    0    0  0.00000000000E+00  0.00000000000E+00  0.11449572955E+03  0.33053036093E+04  0.33033199478E+04 0.  0.
        4    1    3    3  502    0 -0.68611606116E+03 -0.14794707224E+03  0.15532495156E+04  0.17044733075E+04  0.12699999809E+01 0.  1.
       -4    1    3    3    0  502  0.68611606116E+03  0.14794707224E+03 -0.14387537860E+04  0.16008303018E+04  0.12699999809E+01 0. -1.
</event>
<event>
 5   0  0.9810351E-08  0.3295451E+04  0.7818609E-02  0.8164054E-01
       -1   -1    0    0    0  501  0.00000000000E+00  0.00000000000E+00  0.15592391444E+04  0.15592391444E+04  0.50400001928E-02 0.  1.
        1   -1    0    0  501    0  0.00000000000E+00  0.00000000000E+00 -0.17412335515E+04  0.17412335515E+04  0.50400001928E-02 0. -1.
    10030    2    1    2    0    0  0.00000000000E+00  0.00000000000E+00 -0.18199440711E+03  0.33004726958E+04  0.32954511150E+04 0.  0.
        5    1    3    3  502    0  0.84190396168E+02  0.58012918932E+03  0.14512647342E+04  0.15651930608E+04  0.46999998093E+01 0.  1.
       -5    1    3    3    0  502 -0.84190396168E+02 -0.58012918932E+03 -0.16332591413E+04  0.17352796350E+04  0.46999998093E+01 0. -1.
</event>
<event>
 5   0  0.9454010E-08  0.3281935E+04  0.7818609E-02  0.8167507E-01
        1   -1    0    0  501    0  0.00000000000E+00  0.00000000000E+00  0.16223741288E+04  0.16223741288E+04  0.50400001928E-02 0.  1.
       -1   -1    0    0    0  501  0.00000000000E+00  0.00000000000E+00 -0.16597740927E+04  0.16597740927E+04  0.50400001928E-02 0. -1.
    10030    2    1    2    0    0  0.00000000000E+00  0.00000000000E+00 -0.37399963941E+02  0.32821482215E+04  0.32819351289E+04 0.  0.
        2    1    3    3  502    0 -0.12418061091E+02  0.14313477444E+04  0.78376346727E+03  0.16319300679E+04  0.25500000920E-02 0.  1.
       -2    1    3    3    0  502  0.12418061091E+02 -0.14313477444E+04 -0.82116343121E+03  0.16502181536E+04  0.25500000920E-02 0. -1.
</event>
<event>
 5   0  0.2824402E-07  0.3286976E+04  0.7818609E-02  0.8166217E-01
       -2   -1    0    0    0  501  0.00000000000E+00  0.00000000000E+00  0.18773799199E+04  0.18773799199E+04  0.25500000920E-02 0. -1.
        2   -1    0    0  501    0  0.00000000000E+00  0.00000000000E+00 -0.14387351547E+04  0.14387351547E+04  0.25500000920E-02 0.  1.
    10030    2    1    2    0    0  0.00000000000E+00  0.00000000000E+00  0.43864476512E+03  0.33161150746E+04  0.32869758073E+04 0.  0.
        1    1    3    3  502    0  0.57337278484E+03 -0.12099643531E+04 -0.74216488052E+03  0.15308751732E+04  0.50400001928E-02 0.  1.
       -1    1    3    3    0  502 -0.57337278484E+03  0.12099643531E+04  0.11808096456E+04  0.17852399014E+04  0.50400001928E-02 0. -1.
</event>
<event>
 5   0  0.2875829E-07  0.3297228E+04  0.7818609E-02  0.8163601E-01
       -2   -1    0    0    0  501  0.00000000000E+00  0.00000000000E+00  0.93675546218E+03  0.93675546218E+03  0.25500000920E-02 0.  1.
        2   -1    0    0  501    0  0.00000000000E+00  0.00000000000E+00 -0.29014282895E+04  0.29014282895E+04  0.25500000920E-02 0. -1.
    10030    2    1    2    0    0  0.00000000000E+00  0.00000000000E+00 -0.19646728273E+04  0.38381837517E+04  0.32972284108E+04 0.  0.
        3    1    3    3  502    0 -0.11617561042E+04 -0.55377504332E+02 -0.23424414952E+04  0.26152965572E+04  0.10100000352E+00 0. -1.
       -3    1    3    3    0  502  0.11617561042E+04  0.55377504332E+02  0.37776866790E+03  0.12228871944E+04  0.10100000352E+00 0.  1.
</event>
<event>
 5   0  0.2875829E-07  0.3261133E+04  0.7818609E-02  0.8172856E-01
        2   -1    0    0  501    0  0.00000000000E+00  0.00000000000E+00  0.11665607563E+04  0.11665607563E+04  0.25500000920E-02 0. -1.
       -2   -1    0    0    0  501  0.00000000000E+00  0.00000000000E+00 -0.22791328780E+04  0.22791328780E+04  0.25500000920E-02 0.  1.
    10030    2    1    2    0    0  0.00000000000E+00  0.00000000000E+00 -0.11125721217E+04  0.34456936342E+04  0.32611329159E+04 0.  0.
        3    1    3    3  502    0  0.13525671276E+04  0.89550238052E+03 -0.73113438850E+03  0.17793031930E+04  0.10100000352E+00 0. -1.
       -3    1    3    3    0  502 -0.13525671276E+04 -0.89550238052E+03 -0.38143773319E+03  0.16663904413E+04  0.10100000352E+00 0.  1.
</event>
<event>
 5   0  0.8805125E-08  0.3299227E+04  0.7818609E-02  0.8163092E-01
        1   -1    0    0  501    0  0.00000000000E+00  0.00000000000E+00  0.17187791326E+04  0.17187791326E+04  0.50400001928E-02 0.  1.
       -1   -1    0    0    0  501  0.00000000000E+00  0.00000000000E+00 -0.15832313293E+04  0.15832313293E+04  0.50400001928E-02 0. -1.
    10030    2    1    2    0    0  0.00000000000E+00  0.00000000000E+00  0.13554780324E+03  0.33020104619E+04  0.32992271646E+04 0.  0.
        4    1    3    3  502    0  0.48051567361E+02  0.12858941245E+04  0.11008223204E+04  0.16934119542E+04  0.12699999809E+01 0.  1.
       -4    1    3    3    0  502 -0.48051567361E+02 -0.12858941245E+04 -0.96527451717E+03  0.16085985077E+04  0.12699999809E+01 0. -1.
</event>
<event>
 5   0  0.2824402E-07  0.3293724E+04  0.7818609E-02  0.8164494E-01
       -2   -1    0    0    0  501  0.00000000000E+00  0.00000000000E+00  0.11251687373E+04  0.11251687373E+04  0.25500000920E-02 0.  1.
        2   -1    0    0  501    0  0.00000000000E+00  0.00000000000E+00 -0.24104419738E+04  0.24104419738E+04  0.25500000920E-02 0. -1.
    10030    2    1    2    0    0  0.00000000000E+00  0.00000000000E+00 -0.12852732365E+04  0.35356107111E+04  0.32937236994E+04 0.  0.
        1    1    3    3  502    0  0.72378531156E+03  0.93167486000E+03 -0.18760503348E+04  0.22161787114E+04  0.50400001928E-02 0. -1.
       -1    1    3    3    0  502 -0.72378531156E+03 -0.93167486000E+03  0.59077709831E+03  0.13194319997E+04  0.50400001928E-02 0.  1.
</event>
<event>
 5   0  0.9454010E-08  0.3305818E+04  0.7818609E-02  0.8161417E-01
       -1   -1    0    0    0  501  0.00000000000E+00  0.00000000000E+00  0.14502439395E+04  0.14502439395E+04  0.50400001928E-02 0.  1.
        1   -1    0    0  501    0  0.00000000000E+00  0.00000000000E+00 -0.18838958887E+04  0.18838958887E+04  0.50400001928E-02 0. -1.
    10030    2    1    2    0    0  0.00000000000E+00  0.00000000000E+00 -0.43365194917E+03  0.33341398282E+04  0.33058182620E+04 0.  0.
        2    1    3    3  502    0  0.12352220234E+03  0.13345172515E+04  0.75888892809E+03  0.15401644179E+04  0.25500000920E-02 0.  1.
       -2    1    3    3    0  502 -0.12352220234E+03 -0.13345172515E+04 -0.11925408773E+04  0.17939754103E+04  0.25500000920E-02 0. -1.
</event>
<event>
 5   0  0.9283910E-08  0.3308313E+04  0.7818609E-02  0.8160783E-01
        1   -1    0    0  501    0  0.00000000000E+00  0.00000000000E+00  0.18913979779E+04  0.18913979779E+04  0.50400001928E-02 0.  1.
       -1   -1    0    0    0  501  0.00000000000E+00  0.00000000000E+00 -0.14466729710E+04  0.14466729710E+04  0.50400001928E-02 0. -1.
    10030    2    1    2    0    0  0.00000000000E+00  0.00000000000E+00  0.44472500685E+03  0.33380709489E+04  0.33083133661E+04 0.  0.
        3    1    3    3  502    0 -0.13166605844E+03 -0.16141327096E+04 -0.11752644393E+03  0.16237526999E+04  0.10100000352E+00 0. -1.
       -3    1    3    3    0  502  0.13166605844E+03  0.16141327096E+04  0.56225145078E+03  0.17143182491E+04  0.10100000352E+00 0.  1.
</event>
<event>
 5   0  0.9810351E-08  0.3304171E+04  0.7818609E-02  0.8161835E-01
        1   -1    0    0  501    0  0.00000000000E+00  0.00000000000E+00  0.22699975212E+04  0.22699975212E+04  0.50400001928E-02 0.  1.
       -1   -1    0    0    0  501  0.00000000000E+00  0.00000000000E+00 -0.12023740033E+04  0.12023740033E+04  0.50400001928E-02 0. -1.
    10030    2    1    2    0    0  0.00000000000E+00  0.00000000000E+00  0.10676235179E+04  0.34723715246E+04  0.33041707021E+04 0.  0.
        5    1    3    3  502    0 -0.13841531378E+04  0.39873124200E+03 -0.31638153397E+03  0.14747833323E+04  0.46999998093E+01 0. -1.
       -5    1    3    3    0  502  0.13841531378E+04 -0.39873124200E+03  0.13840050519E+04  0.19975881923E+04  0.46999998093E+01 0.  1.
</event>
<event>
 5   0  0.2727168E-07  0.3296906E+04  0.7818609E-02  0.8163683E-01
        2   -1    0    0  501    0  0.00000000000E+00  0.00000000000E+00  0.18606936934E+04  0.18606936934E+04  0.25500000920E-02 0. -1.
       -2   -1    0    0    0  501  0.00000000000E+00  0.00000000000E+00 -0.14604216471E+04  0.14604216471E+04  0.25500000920E-02 0.  1.
    10030    2    1    2    0    0  0.00000000000E+00  0.00000000000E+00  0.40027204637E+03  0.33211153405E+04  0.32969060335E+04 0.  0.
        2    1    3    3  502    0 -0.45566783278E+03  0.74440009605E+03  0.16088441869E+04  0.18303399397E+04  0.25500000920E-02 0. -1.
       -2    1    3    3    0  502  0.45566783278E+03 -0.74440009605E+03 -0.12085721406E+04  0.14907754009E+04  0.25500000920E-02 0.  1.
</event>
<event>
 5   0  0.2824402E-07  0.3337202E+04  0.7818609E-02  0.8153493E-01
       -2   -1    0    0    0  501  0.00000000000E+00  0.00000000000E+00  0.92916332710E+03  0.92916332710E+03  0.25500000920E-02 0.  1.
        2   -1    0    0  501    0  0.00000000000E+00  0.00000000000E+00 -0.29964907029E+04  0.29964907029E+04  0.25500000920E-02 0. -1.
    10030    2    1    2    0    0  0.00000000000E+00  0.00000000000E+00 -0.20673273758E+04  0.39256540300E+04  0.33372019844E+04 0.  0.
        1    1    3    3  502    0 -0.10319639358E+04 -0.10399681104E+04 -0.19730698680E+04  0.24575369660E+04  0.50400001928E-02 0. -1.
       -1    1    3    3    0  502  0.10319639358E+04  0.10399681104E+04 -0.94257507797E+02  0.14681170639E+04  0.50400001928E-02 0.  1.
</event>
<event>
 5   0  0.2703956E-07  0.3266038E+04  0.7818609E-02  0.8171591E-01
       -2   -1    0    0    0  501  0.00000000000E+00  0.00000000000E+00  0.16436596945E+04  0.16436596945E+04  0.25500000920E-02 0.  1.
        2   -1    0    0  501    0  0.00000000000E+00  0.00000000000E+00 -0.16224476596E+04  0.16224476596E+04  0.25500000920E-02 0. -1.
    10030    2    1    2    0    0  0.00000000000E+00  0.00000000000E+00  0.21212034944E+02  0.32661073541E+04  0.32660384716E+04 0.  0.
        5    1    3    3  502    0  0.51407012964E+03  0.15709409543E+03 -0.15314326915E+04  0.16230387647E+04  0.46999998093E+01 0. -1.
       -5    1    3    3    0  502 -0.51407012964E+03 -0.15709409543E+03  0.15526447265E+04  0.16430685894E+04  0.46999998093E+01 0.  1.
</event>
<event>
 5   0  0.9454010E-08  0.3297589E+04  0.7818609E-02  0.8163509E-01
        1   -1    0    0  501    0  0.00000000000E+00  0.00000000000E+00  0.20785733870E+04  0.20785733870E+04  0.50400001928E-02 0.  1.
       -1   -1    0    0    0  501  0.00000000000E+00  0.00000000000E+00 -0.13078791285E+04  0.13078791285E+04  0.50400001928E-02 0. -1.
    10030    2    1    2    0    0  0.00000000000E+00  0.00000000000E+00  0.77069425851E+03  0.33864525154E+04  0.32975886643E+04 0.  0.
        2    1    3    3  502    0  0.12406910754E+04 -0.37169487072E+03  0.14331620541E+04  0.19316896476E+04  0.25500000920E-02 0.  1.
       -2    1    3    3    0  502 -0.12406910754E+04  0.37169487072E+03 -0.66246779556E+03  0.14547628678E+04  0.25500000920E-02 0. -1.
</event>
<event>
 5   0  0.2713815E-07  0.3300571E+04  0.7818609E-02  0.8162750E-01
       -2   -1    0    0    0  501  0.00000000000E+00  0.00000000000E+00  0.98211820524E+03  0.98211820524E+03  0.25500000920E-02 0.  1.
        2   -1    0    0  501    0  0.00000000000E+00  0.00000000000E+00 -0.27730285447E+04  0.27730285447E+04  0.25500000920E-02 0. -1.
    10030    2    1    2    0    0  0.00000000000E+00  0.00000000000E+00 -0.17909103395E+04  0.37551467499E+04  0.33005707491E+04 0.  0.
        4    1    3    3  502    0  0.73494285792E+00 -0.12442565326E+04  0.33795019352E+03  0.12893358000E+04  0.12699999809E+01 0.  1.
       -4    1    3    3    0  502 -0.73494285792E+00  0.12442565326E+04 -0.21288605330E+04  0.24658109499E+04  0.12699999809E+01 0. -1.
</event>
<event>
 5   0  0.2824402E-07  0.3302390E+04  0.7818609E-02  0.8162288E-01
        2   -1    0    0  501    0  0.00000000000E+00  0.00000000000E+00  0.20851807636E+04  0.20851807636E+04  0.25500000920E-02 0.  1.
       -2   -1    0    0    0  501  0.00000000000E+00  0.00000000000E+00 -0.13075340073E+04  0.13075340073E+04  0.25500000920E-02 0. -1.
    10030    2    1    2    0    0  0.00000000000E+00  0.00000000000E+00  0.77764675633E+03  0.33927147709E+04  0.33023898981E+04 0.  0.
        1    1    3    3  502    0  0.27608989919E+03  0.11949066409E+04  0.15246936592E+04  0.19567110843E+04  0.50400001928E-02 0.  1.
       -1    1    3    3    0  502 -0.27608989919E+03 -0.11949066409E+04 -0.74704690287E+03  0.14360036867E+04  0.50400001928E-02 0. -1.
</event>
<event>
 5   0  0.9181760E-08  0.3297769E+04  0.7818609E-02  0.8163463E-01
       -1   -1    0    0    0  501  0.00000000000E+00  0.00000000000E+00  0.19049492150E+04  0.19049492150E+04  0.50400001928E-02 0.  1.
        1   -1    0    0  501    0  0.00000000000E+00  0.00000000000E+00 -0.14272400202E+04  0.14272400202E+04  0.50400001928E-02 0. -1.
    10030    2    1    2    0    0  0.00000000000E+00  0.00000000000E+00  0.47770919475E+03  0.33321892352E+04  0.32977687949E+04 0.  0.
        1    1    3    3  502    0 -0.70510977949E+03  0.10372701311E+04  0.13204054006E+04  0.18211478654E+04  0.50400001928E-02 0.  1.
       -1    1    3    3    0  502  0.70510977949E+03 -0.10372701311E+04 -0.84269620582E+03  0.15110413698E+04  0.50400001928E-02 0. -1.
</event>
<event>
 5   0  0.9810351E-08  0.3299442E+04  0.7818609E-02  0.8163037E-01
        1   -1    0    0  501    0  0.00000000000E+00  0.00000000000E+00  0.12928475317E+04  0.12928475317E+04  0.50400001928E-02 0. -1.
       -1   -1    0    0    0  501  0.00000000000E+00  0.00000000000E+00 -0.21051051784E+04  0.21051051784E+04  0.50400001928E-02 0.  1.
    10030    2    1    2    0    0  0.00000000000E+00  0.00000000000E+00 -0.81225764669E+03  0.33979527100E+04  0.32994423976E+04 0.  0.
        5    1    3    3  502    0  0.78079502955E+03 -0.13763225174E+04 -0.88659132834E+03  0.18138276720E+04  0.46999998093E+01 0.  1.
       -5    1    3    3    0  502 -0.78079502955E+03  0.13763225174E+04  0.74333681648E+02  0.15841250381E+04  0.46999998093E+01 0. -1.
</event>
<event>
 5   0  0.2703956E-07  0.3295033E+04  0.7818609E-02  0.8164160E-01
        2   -1    0    0  501    0  0.00000000000E+00  0.00000000000E+00  0.19182590975E+04  0.19182590975E+04  0.25500000920E-02 0. -1.
       -2   -1    0    0    0  501  0.00000000000E+00  0.00000000000E+00 -0.14149860837E+04  0.14149860837E+04  0.25500000920E-02 0.  1.
    10030    2    1    2    0    0  0.00000000000E+00  0.00000000000E+00  0.50327301377E+03  0.33332451812E+04  0.32950325813E+04 0.  0.
        5    1    3    3  502    0 -0.13642972589E+04  0.55079486396E+03 -0.49831506220E+03  0.15533904802E+04  0.46999998093E+01 0.  1.
       -5    1    3    3    0  502  0.13642972589E+04 -0.55079486396E+03  0.10015880760E+04  0.17798547010E+04  0.46999998093E+01 0. -1.
</event>
<event>
 5   0  0.2703956E-07  0.3293720E+04  0.7818609E-02  0.8164495E-01
       -2   -1    0    0    0  501  0.00000000000E+00  0.00000000000E+00  0.18276152510E+04  0.18276152510E+04  0.25500000920E-02 0.  1.
        2   -1    0    0  501    0  0.00000000000E+00  0.00000000000E+00 -0.14839820151E+04  0.14839820151E+04  0.25500000920E-02 0. -1.
    10030    2    1    2    0    0  0.00000000000E+00  0.00000000000E+00  0.34363323593E+03  0.33115972661E+04  0.32937201842E+04 0.  0.
        5    1    3    3  502    0 -0.97470215066E+03  0.98776837368E+02  0.15027555640E+04  0.17939056612E+04  0.46999998093E+01 0.  1.
       -5    1    3    3    0  502  0.97470215066E+03 -0.98776837368E+02 -0.11591223281E+04  0.15176916049E+04  0.46999998093E+01 0. -1.
</event>
<event>
 5   0  0.2703956E-07  0.3301745E+04  0.7818609E-02  0.8162451E-01
       -2   -1    0    0    0  501  0.00000000000E+00  0.00000000000E+00  0.11586695001E+04  0.11586695002E+04  0.25500000920E-02 0.  1.
        2   -1    0    0  501    0  0.00000000000E+00  0.00000000000E+00 -0.23521638913E+04  0.23521638913E+04  0.25500000920E-02 0. -1.
    10030    2    1    2    0    0  0.00000000000E+00  0.00000000000E+00 -0.11934943912E+04  0.35108333915E+04  0.33017453326E+04 0.  0.
        5    1    3    3  502    0 -0.84698417792E+03 -0.49791514137E+03  0.81393760647E+03  0.12758597897E+04  0.46999998093E+01 0.  1.
       -5    1    3    3    0  502  0.84698417792E+03  0.49791514137E+03 -0.20074319977E+04  0.22349736018E+04  0.46999998093E+01 0. -1.
</event>
<event>
 5   0  0.2713815E-07  0.3299247E+04  0.7818609E-02  0.8163087E-01
       -2   -1    0    0    0  501  0.00000000000E+00  0.00000000000E+00  0.15300500117E+04  0.15300500117E+04  0.25500000920E-02 0. -1.
        2   -1    0    0  501    0  0.00000000000E+00  0.00000000000E+00 -0.17785412062E+04  0.17785412062E+04  0.25500000920E-02 0.  1.
    10030    2    1    2    0    0  0.00000000000E+00  0.00000000000E+00 -0.24849119443E+03  0.33085912179E+04  0.32992465767E+04 0.  0.
        4    1    3    3  502    0 -0.70157596075E+03  0.14204057106E+04  0.33694191289E+03  0.16196581975E+04  0.12699999809E+01 0. -1.
       -4    1    3    3    0  502  0.70157596075E+03 -0.14204057106E+04 -0.58543310733E+03  0.16889330204E+04  0.12699999809E+01 0.  1.
</event>
<event>
 5   0  0.2713815E-07  0.3300854E+04  0.7818609E-02  0.8162678E-01
        2   -1    0    0  501    0  0.00000000000E+00  0.00000000000E+00  0.24510238375E+04  0.24510238375E+04  0.25500000920E-02 0. -1.
       -2   -1    0    0    0  501  0.00000000000E+00  0.00000000000E+00 -0.11113352074E+04  0.11113352074E+04  0.25500000920E-02 0.  1.
    10030    2    1    2    0    0  0.00000000000E+00  0.00000000000E+00  0.13396886300E+04  0.35623590449E+04  0.33008538804E+04 0.  0.
        4    1    3    3  502    0 -0.42769081968E+03 -0.12355601315E+04 -0.41711066422E+03  0.13724107238E+04  0.12699999809E+01 0.  1.
       -4    1    3    3    0  502  0.42769081968E+03  0.12355601315E+04  0.17567992942E+04  0.21899483211E+04  0.12699999809E+01 0. -1.
</event>
<event>
 5   0  0.9810351E-08  0.3293137E+04  0.7818609E-02  0.8164644E-01
       -1   -1    0    0    0  501  0.00000000000E+00  0.00000000000E+00  0.99993989380E+03  0.99993989382E+03  0.50400001928E-02 0. -1.
        1   -1    0    0  501    0  0.00000000000E+00  0.00000000000E+00 -0.27113512167E+04  0.27113512167E+04  0.50400001928E-02 0.  1.
    10030    2    1    2    0    0  0.00000000000E+00  0.00000000000E+00 -0.17114113229E+04  0.37112911105E+04  0.32931372566E+04 0.  0.
        5    1    3    3  502    0  0.39183807834E+03 -0.14966306320E+04 -0.22046037653E+03  0.15627108484E+04  0.46999998093E+01 0. -1.
       -5    1    3    3    0  502 -0.39183807834E+03  0.14966306320E+04 -0.14909509464E+04  0.21485802621E+04  0.46999998093E+01 0.  1.
</event>
<event>
 5   0  0.2875829E-07  0.3293150E+04  0.7818609E-02  0.8164640E-01
       -2   -1    0    0    0  501  0.00000000000E+00  0.00000000000E+00  0.14374114414E+04  0.14374114414E+04  0.25500000920E-02 0. -1.
        2   -1    0    0  501    0  0.00000000000E+00  0.00000000000E+00 -0.18861750581E+04  0.18861750581E+04  0.25500000920E-02 0.  1.
    10030    2    1    2    0    0  0.00000000000E+00  0.00000000000E+00 -0.44876361662E+03  0.33235864995E+04  0.32931502298E+04 0.  0.
        3    1    3    3  502    0 -0.13144411888E+04 -0.69781996924E+03  0.48675902504E+03  0.15657722398E+04  0.10100000352E+00 0. -1.
       -3    1    3    3    0  502  0.13144411888E+04  0.69781996924E+03 -0.93552264166E+03  0.17578142597E+04  0.10100000352E+00 0.  1.
</event>
<event>
 5   0  0.2727168E-07  0.3296109E+04  0.7818609E-02  0.8163886E-01
       -2   -1    0    0    0  501  0.00000000000E+00  0.00000000000E+00  0.13067915109E+04  0.13067915109E+04  0.25500000920E-02 0. -1.
        2   -1    0    0  501    0  0.00000000000E+00  0.00000000000E+00 -0.20784367040E+04  0.20784367040E+04  0.25500000920E-02 0.  1.
    10030    2    1    2    0    0  0.00000000000E+00  0.00000000000E+00 -0.77164519310E+03  0.33852282150E+04  0.32961088822E+04 0.  0.
        2    1    3    3  502    0  0.16724551544E+03  0.87998578526E+03 -0.18066050145E+04  0.20164740819E+04  0.25500000920E-02 0.  1.
       -2    1    3    3    0  502 -0.16724551544E+03 -0.87998578526E+03  0.10349598214E+04  0.13687541330E+04  0.25500000920E-02 0. -1.
</event>
<event>
 5   0  0.9283910E-08  0.3298584E+04  0.7818609E-02  0.8163256E-01
       -1   -1    0    0    0  501  0.00000000000E+00  0.00000000000E+00  0.11155013560E+04  0.11155013560E+04  0.50400001928E-02 0.  1.
        1   -1    0    0  501    0  0.00000000000E+00  0.00000000000E+00 -0.24385127469E+04  0.24385127469E+04  0.50400001928E-02 0. -1.
    10030    2    1    2    0    0  0.00000000000E+00  0.00000000000E+00 -0.13230113909E+04  0.35540141029E+04  0.32985841059E+04 0.  0.
        3    1    3    3  502    0 -0.88757290115E+03 -0.49614679671E+03 -0.20606042641E+04  0.22978331623E+04  0.10100000352E+00 0. -1.
       -3    1    3    3    0  502  0.88757290115E+03  0.49614679671E+03  0.73759287320E+03  0.12561809406E+04  0.10100000352E+00 0.  1.
</event>
<event>
 5   0  0.2703956E-07  0.3309544E+04  0.7818609E-02  0.8160471E-01
        2   -1    0    0  501    0  0.00000000000E+00  0.00000000000E+00  0.22698957401E+04  0.22698957401E+04  0.25500000920E-02 0.  1.
       -2   -1    0    0    0  501  0.00000000000E+00  0.00000000000E+00 -0.12063417082E+04  0.12063417082E+04  0.25500000920E-02 0. -1.
    10030    2    1    2    0    0  0.00000000000E+00  0.00000000000E+00  0.10635540319E+04  0.34762374483E+04  0.33095437175E+04 0.  0.
        5    1    3    3  502    0  0.60826717288E+03  0.13132485333E+04 -0.31090138651E+03  0.14803014646E+04  0.46999998093E+01 0. -1.
       -5    1    3    3    0  502 -0.60826717288E+03 -0.13132485333E+04  0.13744554184E+04  0.19959359837E+04  0.46999998093E+01 0.  1.
</event>
<event>
 5   0  0.2727168E-07  0.3274011E+04  0.7818609E-02  0.8169540E-01
        2   -1    0    0  501    0  0.00000000000E+00  0.00000000000E+00  0.22813323487E+04  0.22813323487E+04  0.25500000920E-02 0. -1.
       -2   -1    0    0    0  501  0.00000000000E+00  0.00000000000E+00 -0.11746584798E+04  0.11746584798E+04  0.25500000920E-02 0.  1.
    10030    2    1    2    0    0  0.00000000000E+00  0.00000000000E+00  0.11066738689E+04  0.34559908286E+04  0.32740106223E+04 0.  0.
        2    1    3    3  502    0  0.14099868500E+04  0.78853662745E+03  0.83248524321E+03  0.18173840019E+04  0.25500000920E-02 0. -1.
       -2    1    3    3    0  502 -0.14099868500E+04 -0.78853662745E+03  0.27418862569E+03  0.16386068267E+04  0.25500000920E-02 0.  1.
</event>
<event>
 5   0  0.9181760E-08  0.3305625E+04  0.7818609E-02  0.8161465E-01
       -1   -1    0    0    0  501  0.00000000000E+00  0.00000000000E+00  0.13839007517E+04  0.13839007517E+04  0.50400001928E-02 0.  1.
        1   -1    0    0  501    0  0.00000000000E+00  0.00000000000E+00 -0.19739781819E+04  0.19739781819E+04  0.50400001928E-02 0. -1.
    10030    2    1    2    0    0  0.00000000000E+00  0.00000000000E+00 -0.59007743021E+03  0.33578789336E+04  0.33056254414E+04 0.  0.
        1    1    3    3  502    0  0.29157924826E+03  0.11823012852E+04 -0.14302620969E+04  0.18784313809E+04  0.50400001928E-02 0. -1.
       -1    1    3    3    0  502 -0.29157924826E+03 -0.11823012852E+04  0.84018466667E+03  0.14794475527E+04  0.50400001928E-02 0.  1.
</event>
<event>
 5   0  0.2703956E-07  0.3301225E+04  0.7818609E-02  0.8162584E-01
        2   -1    0    0  501    0  0.00000000000E+00  0.00000000000E+00  0.19998683238E+04  0.19998683238E+04  0.25500000920E-02 0.  1.
       -2   -1    0    0    0  501  0.00000000000E+00  0.00000000000E+00 -0.13623504014E+04  0.13623504014E+04  0.25500000920E-02 0. -1.
    10030    2    1    2    0    0  0.00000000000E+00  0.00000000000E+00  0.63751792241E+03  0.33622187252E+04  0.33012248719E+04 0.  0.
        5    1    3    3  502    0  0.54862498350E+03 -0.13363499036E+04  0.11320610222E+04  0.18353214120E+04  0.46999998093E+01 0.  1.
       -5    1    3    3    0  502 -0.54862498350E+03  0.13363499036E+04 -0.49454309982E+03  0.15268973132E+04  0.46999998093E+01 0. -1.
</event>
<event>
 5   0  0.9454010E-08  0.3297633E+04  0.7818609E-02  0.8163498E-01
       -1   -1    0    0    0  501  0.00000000000E+00  0.00000000000E+00  0.14801336970E+04  0.14801336970E+04  0.50400001928E-02 0.  1.
        1   -1    0    0  501    0  0.00000000000E+00  0.00000000000E+00 -0.18367232624E+04  0.18367232624E+04  0.50400001928E-02 0. -1.
    10030    2    1    2    0    0  0.00000000000E+00  0.00000000000E+00 -0.35658956535E+03  0.33168569594E+04  0.32976330862E+04 0.  0.
        2    1    3    3  502    0  0.15724539033E+04 -0.59491370677E+02  0.31696318060E+03  0.16051841511E+04  0.25500000920E-02 0.  1.
       -2    1    3    3    0  502 -0.15724539033E+04  0.59491370677E+02 -0.67355274595E+03  0.17116728083E+04  0.25500000920E-02 0. -1.
</event>
<event>
 5   0  0.2875829E-07  0.3299803E+04  0.7818609E-02  0.8162946E-01
        2   -1    0    0  501    0  0.00000000000E+00  0.00000000000E+00  0.20388289919E+04  0.20388289919E+04  0.25500000920E-02 0.  1.
       -2   -1    0    0    0  501  0.00000000000E+00  0.00000000000E+00 -0.13351658232E+04  0.13351658232E+04  0.25500000920E-02 0. -1.
    10030    2    1    2    0    0  0.00000000000E+00  0.00000000000E+00  0.70366316871E+03  0.33739948152E+04  0.32998028968E+04 0.  0.
        3    1    3    3  502    0 -0.14616842810E+04 -0.72017495636E+03  0.61649864069E+03  0.17421950204E+04  0.10100000352E+00 0.  1.
       -3    1    3    3    0  502  0.14616842810E+04  0.72017495636E+03  0.87164528021E+02  0.16317997947E+04  0.10100000352E+00 0. -1.
</event>
<event>
 5   0  0.9454010E-08  0.3291458E+04  0.7818609E-02  0.8165072E-01
       -1   -1    0    0    0  501  0.00000000000E+00  0.00000000000E+00  0.16045202398E+04  0.16045202398E+04  0.50400001928E-02 0.  1.
        1   -1    0    0  501    0  0.00000000000E+00  0.00000000000E+00 -0.16879959494E+04  0.16879959494E+04  0.50400001928E-02 0. -1.
    10030    2    1    2    0    0  0.00000000000E+00  0.00000000000E+00 -0.83475709619E+02  0.32925161893E+04  0.32914578324E+04 0.  0.
        2    1    3    3  502    0  0.98152760580E+03 -0.21321952715E+03  0.12623548612E+04  0.16131952155E+04  0.25500000920E-02 0.  1.
       -2    1    3    3    0  502 -0.98152760580E+03  0.21321952715E+03 -0.13458305708E+04  0.16793209738E+04  0.25500000920E-02 0. -1.
</event>
<event>
 5   0  0.9810351E-08  0.3297056E+04  0.7818609E-02  0.8163645E-01
        1   -1    0    0  501    0  0.00000000000E+00  0.00000000000E+00  0.22143508243E+04  0.22143508243E+04  0.50400001928E-02 0.  1.
       -1   -1    0    0    0  501  0.00000000000E+00  0.00000000000E+00 -0.12272870189E+04  0.12272870190E+04  0.50400001928E-02 0. -1.
    10030    2    1    2    0    0  0.00000000000E+00  0.00000000000E+00  0.98706380534E+03  0.34416378432E+04  0.32970556696E+04 0.  0.
        5    1    3    3  502    0  0.17301551204E+02 -0.16409322224E+04  0.32959719632E+03  0.16738023492E+04  0.46999998093E+01 0. -1.
       -5    1    3    3    0  502 -0.17301551204E+02  0.16409322224E+04  0.65746660902E+03  0.17678354941E+04  0.46999998093E+01 0.  1.
</event>
<event>
 5   0  0.2727168E-07  0.3310154E+04  0.7818609E-02  0.8160316E-01
        2   -1    0    0  501    0  0.00000000000E+00  0.00000000000E+00  0.26290972025E+04  0.26290972025E+04  0.25500000920E-02 0.  1.
       -2   -1    0    0    0  501  0.00000000000E+00  0.00000000000E+00 -0.10419091180E+04  0.10419091180E+04  0.25500000920E-02 0. -1.
    10030    2    1    2    0    0  0.00000000000E+00  0.00000000000E+00  0.15871880846E+04  0.36710063205E+04  0.33101542849E+04 0.  0.
        2    1    3    3  502    0 -0.13144623798E+04  0.51693967437E+03 -0.16314631099E+03  0.14218490403E+04  0.25500000920E-02 0.  1.
       -2    1    3    3    0  502  0.13144623798E+04 -0.51693967437E+03  0.17503343956E+04  0.22491572802E+04  0.25500000920E-02 0. -1.
</event>
<event>
 5   0  0.2824402E-07  0.3298047E+04  0.7818609E-02  0.8163392E-01
        2   -1    0    0  501    0  0.00000000000E+00  0.00000000000E+00  0.24439668651E+04  0.24439668651E+04  0.25500000920E-02 0. -1.
       -2   -1    0    0    0  501  0.00000000000E+00  0.00000000000E+00 -0.11126495256E+04  0.11126495256E+04  0.25500000920E-02 0.  1.
    10030    2    1    2    0    0  0.00000000000E+00  0.00000000000E+00  0.13313173395E+04  0.35566163906E+04  0.32980470421E+04 0.  0.
        1    1    3    3  502    0 -0.11439075586E+04  0.11332648453E+04  0.28215889372E+03  0.16347560532E+04  0.50400001928E-02 0.  1.
       -1    1    3    3    0  502  0.11439075586E+04 -0.11332648453E+04  0.10491584458E+04  0.19218603374E+04  0.50400001928E-02 0. -1.
</event>
<event>
 5   0  0.8805125E-08  0.3295757E+04  0.7818609E-02  0.8163976E-01
       -1   -1    0    0    0  501  0.00000000000E+00  0.00000000000E+00  0.25552952445E+04  0.25552952445E+04  0.50400001928E-02 0.  1.
        1   -1    0    0  501    0  0.00000000000E+00  0.00000000000E+00 -0.10626967882E+04  0.10626967882E+04  0.50400001928E-02 0. -1.
    10030    2    1    2    0    0  0.00000000000E+00  0.00000000000E+00  0.14925984563E+04  0.36179920328E+04  0.32957573026E+04 0.  0.
        4    1    3    3  502    0  0.66758164242E+03 -0.89392507887E+02 -0.90468876646E+03  0.11278828161E+04  0.12699999809E+01 0. -1.
       -4    1    3    3    0  502 -0.66758164242E+03  0.89392507887E+02  0.23972872228E+04  0.24901092167E+04  0.12699999809E+01 0.  1.
</event>
<event>
 5   0  0.9283910E-08  0.3294145E+04  0.7818609E-02  0.8164387E-01
       -1   -1    0    0    0  501  0.00000000000E+00  0.00000000000E+00  0.18559397944E+04  0.18559397944E+04  0.50400001928E-02 0.  1.
        1   -1    0    0  501    0  0.00000000000E+00  0.00000000000E+00 -0.14617107562E+04  0.14617107562E+04  0.50400001928E-02 0. -1.
    10030    2    1    2    0    0  0.00000000000E+00  0.00000000000E+00  0.39422903819E+03  0.33176505507E+04  0.32941445994E+04 0.  0.
        3    1    3    3  502    0  0.79916839528E+03  0.77241373861E+03 -0.10271060382E+04  0.15133538686E+04  0.10100000352E+00 0. -1.
       -3    1    3    3    0  502 -0.79916839528E+03 -0.77241373861E+03  0.14213350764E+04  0.18042966821E+04  0.10100000352E+00 0.  1.
</event>
<event>
 5   0  0.2727168E-07  0.3292119E+04  0.7818609E-02  0.8164904E-01
       -2   -1    0    0    0  501  0.00000000000E+00  0.00000000000E+00  0.27692998598E+04  0.27692998598E+04  0.25500000920E-02 0. -1.
        2   -1    0    0  501    0  0.00000000000E+00  0.00000000000E+00 -0.97841061207E+03  0.97841061208E+03  0.25500000920E-02 0.  1.
    10030    2    1    2    0    0  0.00000000000E+00  0.00000000000E+00  0.17908892478E+04  0.37477104719E+04  0.32921192997E+04 0.  0.
        2    1    3    3  502    0  0.73217378087E+03 -0.10688522600E+04 -0.26044784787E+03  0.13214978928E+04  0.25500000920E-02 0.  1.
       -2    1    3    3    0  502 -0.73217378087E+03  0.10688522600E+04  0.20513370956E+04  0.24262125791E+04  0.25500000920E-02 0. -1.
</event>
<event>
 5   0  0.9283910E-08  0.3304445E+04  0.7818609E-02  0.8161765E-01
       -1   -1    0    0    0  501  0.00000000000E+00  0.00000000000E+00  0.19224341437E+04  0.19224341437E+04  0.50400001928E-02 0.  1.
        1   -1    0    0  501    0  0.00000000000E+00  0.00000000000E+00 -0.14199910486E+04  0.14199910486E+04  0.50400001928E-02 0. -1.
    10030    2    1    2    0    0  0.00000000000E+00  0.00000000000E+00  0.50244309504E+03  0.33424251923E+04  0.33044450521E+04 0.  0.
        3    1    3    3  502    0 -0.51093606227E+03  0.15673595301E+04  0.36279672122E+03  0.16879849014E+04  0.10100000352E+00 0. -1.
       -3    1    3    3    0  502  0.51093606227E+03 -0.15673595301E+04  0.13964637381E+03  0.16544402909E+04  0.10100000352E+00 0.  1.
</event>
<event>
 5   0  0.9181760E-08  0.3304103E+04  0.7818609E-02  0.8161852E-01
        1   -1    0    0  501    0  0.00000000000E+00  0.00000000000E+00  0.23278330744E+04  0.23278330744E+04  0.50400001928E-02 0.  1.
       -1   -1    0    0    0  501  0.00000000000E+00  0.00000000000E+00 -0.11724525410E+04  0.11724525411E+04  0.50400001928E-02 0. -1.
    10030    2    1    2    0    0  0.00000000000E+00  0.00000000000E+00  0.11553805334E+04  0.35002856154E+04  0.33041027849E+04 0.  0.
        1    1    3    3  502    0 -0.15750801578E+04  0.49797704598E+03  0.55610494921E+03  0.17430178875E+04  0.50400001928E-02 0. -1.
       -1    1    3    3    0  502  0.15750801578E+04 -0.49797704598E+03  0.59927558415E+03  0.17572677279E+04  0.50400001928E-02 0.  1.
</event>
<event>
 5   0  0.9454010E-08  0.3301944E+04  0.7818609E-02  0.8162401E-01
       -1   -1    0    0    0  501  0.00000000000E+00  0.00000000000E+00  0.30387195459E+04  0.30387195459E+04  0.50400001928E-02 0. -1.
        1   -1    0    0  501    0  0.00000000000E+00  0.00000000000E+00 -0.89699246914E+03  0.89699246915E+03  0.50400001928E-02 0.  1.
    10030    2    1    2    0    0  0.00000000000E+00  0.00000000000E+00  0.21417270767E+04  0.39357120150E+04  0.33019440023E+04 0.  0.
        2    1    3    3  502    0  0.25929301904E+03 -0.14353514355E+04  0.14894608856E+03  0.14661690047E+04  0.25500000920E-02 0.  1.
       -2    1    3    3    0  502 -0.25929301904E+03  0.14353514355E+04  0.19927809882E+04  0.24695430103E+04  0.25500000920E-02 0. -1.
</event>
<event>
 5   0  0.2713815E-07  0.3298290E+04  0.7818609E-02  0.8163331E-01
        2   -1    0    0  501    0  0.00000000000E+00  0.00000000000E+00  0.16386640309E+04  0.16386640309E+04  0.25500000920E-02 0. -1.
       -2   -1    0    0    0  501  0.00000000000E+00  0.00000000000E+00 -0.16596930061E+04  0.16596930061E+04  0.25500000920E-02 0.  1.
    10030    2    1    2    0    0  0.00000000000E+00  0.00000000000E+00 -0.21028975195E+02  0.32983570369E+04  0.32982900002E+04 0.  0.
        4    1    3    3  502    0  0.94405418885E+03 -0.91093771072E+03 -0.10098504613E+04  0.16555498758E+04  0.12699999809E+01 0.  1.
       -4    1    3    3    0  502 -0.94405418885E+03  0.91093771072E+03  0.98882148610E+03  0.16428071611E+04  0.12699999809E+01 0. -1.
</event>
<event>
 5   0  0.9454010E-08  0.3294045E+04  0.7818609E-02  0.8164412E-01
       -1   -1    0    0    0  501  0.00000000000E+00  0.00000000000E+00  0.19114349257E+04  0.19114349257E+04  0.50400001928E-02 0. -1.
        1   -1    0    0  501    0  0.00000000000E+00  0.00000000000E+00 -0.14191870246E+04  0.14191870246E+04  0.50400001928E-02 0.  1.
    10030    2    1    2    0    0  0.00000000000E+00  0.00000000000E+00  0.49224790108E+03  0.33306219503E+04  0.32940453215E+04 0.  0.
        2    1    3    3  502    0  0.26210335070E+03  0.71323604537E+03 -0.12313613467E+04  0.14469466434E+04  0.25500000920E-02 0.  1.
       -2    1    3    3    0  502 -0.26210335070E+03 -0.71323604537E+03  0.17236092477E+04  0.18836753069E+04  0.25500000920E-02 0. -1.
</event>
<event>
 5   0  0.2713815E-07  0.3303512E+04  0.7818609E-02  0.8162002E-01
        2   -1    0    0  501    0  0.00000000000E+00  0.00000000000E+00  0.99344686116E+03  0.99344686116E+03  0.25500000920E-02 0. -1.
       -2   -1    0    0    0  501  0.00000000000E+00  0.00000000000E+00 -0.27462948436E+04  0.27462948436E+04  0.25500000920E-02 0.  1.
    10030    2    1    2    0    0  0.00000000000E+00  0.00000000000E+00 -0.17528479824E+04  0.37397417048E+04  0.33035120658E+04 0.  0.
        4    1    3    3  502    0 -0.94681756706E+03  0.61487942679E+03  0.48850951475E+03  0.12301151872E+04  0.12699999809E+01 0. -1.
       -4    1    3    3    0  502  0.94681756706E+03 -0.61487942679E+03 -0.22413574972E+04  0.25096265176E+04  0.12699999809E+01 0.  1.
</event>
<event>
 5   0  0.2824402E-07  0.3296941E+04  0.7818609E-02  0.8163674E-01
       -2   -1    0    0    0  501  0.00000000000E+00  0.00000000000E+00  0.14803862032E+04  0.14803862032E+04  0.25500000920E-02 0. -1.
        2   -1    0    0  501    0  0.00000000000E+00  0.00000000000E+00 -0.18356387221E+04  0.18356387221E+04  0.25500000920E-02 0.  1.
    10030    2    1    2    0    0  0.00000000000E+00  0.00000000000E+00 -0.35525251886E+03  0.33160249253E+04  0.32969405443E+04 0.  0.
        1    1    3    3  502    0 -0.86529047889E+03  0.13799360466E+04 -0.43307106408E+03  0.16853787860E+04  0.50400001928E-02 0.  1.
       -1    1    3    3    0  502  0.86529047889E+03 -0.13799360466E+04  0.77818545220E+02  0.16306461393E+04  0.50400001928E-02 0. -1.
</event>
<event>
 5   0  0.8805125E-08  0.3297229E+04  0.7818609E-02  0.8163601E-01
        4   -1    0    0  501    0  0.00000000000E+00  0.00000000000E+00  0.13832582945E+04  0.13832588775E+04  0.12699999809E+01 0. -1.
       -4   -1    0    0    0  501  0.00000000000E+00  0.00000000000E+00 -0.19648742837E+04  0.19648746942E+04  0.12699999809E+01 0.  1.
    10030    2    1    2    0    0  0.00000000000E+00  0.00000000000E+00 -0.58161598920E+03  0.33481335717E+04  0.32972293301E+04 0.  0.
        4    1    3    3  502    0  0.12402355999E+03 -0.11927743948E+04  0.85795595808E+03  0.14745109831E+04  0.12699999809E+01 0. -1.
       -4    1    3    3    0  502 -0.12402355999E+03  0.11927743948E+04 -0.14395719473E+04  0.18736225886E+04  0.12699999809E+01 0.  1.
</event>
<event>
 5   0  0.2875829E-07  0.3298189E+04  0.7818609E-02  0.8163356E-01
        2   -1    0    0  501    0  0.00000000000E+00  0.00000000000E+00  0.19116193002E+04  0.19116193002E+04  0.25500000920E-02 0. -1.
       -2   -1    0    0    0  501  0.00000000000E+00  0.00000000000E+00 -0.14226225730E+04  0.14226225730E+04  0.25500000920E-02 0.  1.
    10030    2    1    2    0    0  0.00000000000E+00  0.00000000000E+00  0.48899672723E+03  0.33342418733E+04  0.32981890592E+04 0.  0.
        3    1    3    3  502    0 -0.71901923047E+03  0.13993954253E+04  0.74408302752E+03  0.17403895461E+04  0.10100000352E+00 0. -1.
       -3    1    3    3    0  502  0.71901923047E+03 -0.13993954253E+04 -0.25508630030E+03  0.15938523272E+04  0.10100000352E+00 0.  1.
</event>
<event>
 5   0  0.2713815E-07  0.3297428E+04  0.7818609E-02  0.8163550E-01
        2   -1    0    0  501    0  0.00000000000E+00  0.00000000000E+00  0.20303611097E+04  0.20303611097E+04  0.25500000920E-02 0. -1.
       -2   -1    0    0    0  501  0.00000000000E+00  0.00000000000E+00 -0.13388052790E+04  0.13388052790E+04  0.25500000920E-02 0.  1.
    10030    2    1    2    0    0  0.00000000000E+00  0.00000000000E+00  0.69155583071E+03  0.33691663888E+04  0.32974281930E+04 0.  0.
        4    1    3    3  502    0 -0.30009700085E+03 -0.41196631130E+03 -0.12562889513E+04  0.13557425985E+04  0.12699999809E+01 0.  1.
       -4    1    3    3    0  502  0.30009700085E+03  0.41196631130E+03  0.19478447820E+04  0.20134237902E+04  0.12699999809E+01 0. -1.
</event>
<event>
 5   0  0.9283910E-08  0.3297988E+04  0.7818609E-02  0.8163407E-01
        1   -1    0    0  501    0  0.00000000000E+00  0.00000000000E+00  0.22828916799E+04  0.22828916799E+04  0.50400001928E-02 0. -1.
       -1   -1    0    0    0  501  0.00000000000E+00  0.00000000000E+00 -0.11911128897E+04  0.11911128898E+04  0.50400001928E-02 0.  1.
    10030    2    1    2    0    0  0.00000000000E+00  0.00000000000E+00  0.10917787901E+04  0.34740045696E+04  0.32979882994E+04 0.  0.
        3    1    3    3  502    0  0.92071850929E+03  0.25153678343E+03 -0.87056667709E+03  0.12918512593E+04  0.10100000352E+00 0.  1.
       -3    1    3    3    0  502 -0.92071850929E+03 -0.25153678343E+03  0.19623454672E+04  0.21821533103E+04  0.10100000352E+00 0. -1.
</event>
<event>
 5   0  0.9454010E-08  0.3297852E+04  0.7818609E-02  0.8163442E-01
        1   -1    0    0  501    0  0.00000000000E+00  0.00000000000E+00  0.12509641852E+04  0.12509641852E+04  0.50400001928E-02 0.  1.
       -1   -1    0    0    0  501  0.00000000000E+00  0.00000000000E+00 -0.21734891951E+04  0.21734891951E+04  0.50400001928E-02 0. -1.
    10030    2    1    2    0    0  0.00000000000E+00  0.00000000000E+00 -0.92252500997E+03  0.34244533803E+04  0.32978521131E+04 0.  0.
        2    1    3    3  502    0  0.66154869694E+03  0.41304552485E+03  0.10473362101E+04  0.13058202100E+04  0.25500000920E-02 0.  1.
       -2    1    3    3    0  502 -0.66154869694E+03 -0.41304552485E+03 -0.19698612200E+04  0.21186331703E+04  0.25500000920E-02 0. -1.
</event>
<event>
 5   0  0.9810351E-08  0.3295792E+04  0.7818609E-02  0.8163967E-01
       -1   -1    0    0    0  501  0.00000000000E+00  0.00000000000E+00  0.15062158345E+04  0.15062158345E+04  0.50400001928E-02 0.  1.
        1   -1    0    0  501    0  0.00000000000E+00  0.00000000000E+00 -0.18029026019E+04  0.18029026019E+04  0.50400001928E-02 0. -1.
    10030    2    1    2    0    0  0.00000000000E+00  0.00000000000E+00 -0.29668676733E+03  0.33091184364E+04  0.32957915268E+04 0.  0.
        5    1    3    3  502    0  0.49052472129E+03  0.13140017996E+04  0.72021129006E+03  0.15766869137E+04  0.46999998093E+01 0.  1.
       -5    1    3    3    0  502 -0.49052472129E+03 -0.13140017996E+04 -0.10168980574E+04  0.17324315227E+04  0.46999998093E+01 0. -1.
</event>
<event>
 5   0  0.2713815E-07  0.3298658E+04  0.7818609E-02  0.8163237E-01
        2   -1    0    0  501    0  0.00000000000E+00  0.00000000000E+00  0.23638878735E+04  0.23638878735E+04  0.25500000920E-02 0. -1.
       -2   -1    0    0    0  501  0.00000000000E+00  0.00000000000E+00 -0.11507679343E+04  0.11507679343E+04  0.25500000920E-02 0.  1.
    10030    2    1    2    0    0  0.00000000000E+00  0.00000000000E+00  0.12131199392E+04  0.35146558078E+04  0.32986581303E+04 0.  0.
        4    1    3    3  502    0 -0.92769287426E+03 -0.19574248371E+03  0.20445069099E+04  0.22536502183E+04  0.12699999809E+01 0. -1.
       -4    1    3    3    0  502  0.92769287426E+03  0.19574248371E+03 -0.83138697071E+03  0.12610055895E+04  0.12699999809E+01 0.  1.
</event>
<event>
 5   0  0.9181760E-08  0.3298384E+04  0.7818609E-02  0.8163307E-01
       -1   -1    0    0    0  501  0.00000000000E+00  0.00000000000E+00  0.27452312216E+04  0.27452312217E+04  0.50400001928E-02 0.  1.
        1   -1    0    0  501    0  0.00000000000E+00  0.00000000000E+00 -0.99074894314E+03  0.99074894315E+03  0.50400001928E-02 0. -1.
    10030    2    1    2    0    0  0.00000000000E+00  0.00000000000E+00  0.17544822785E+04  0.37359801648E+04  0.32983844115E+04 0.  0.
        1    1    3    3  502    0 -0.14624050487E+04  0.56916167892E+03  0.30274039316E+03  0.15981943839E+04  0.50400001928E-02 0. -1.
       -1    1    3    3    0  502  0.14624050487E+04 -0.56916167892E+03  0.14517418853E+04  0.21377857809E+04  0.50400001928E-02 0.  1.
</event>
<event>
 5   0  0.9810351E-08  0.3318270E+04  0.7818609E-02  0.8158262E-01
        1   -1    0    0  501    0  0.00000000000E+00  0.00000000000E+00  0.86239438668E+03  0.86239438670E+03  0.50400001928E-02 0. -1.
       -1   -1    0    0    0  501  0.00000000000E+00  0.00000000000E+00 -0.31919613076E+04  0.31919613077E+04  0.50400001928E-02 0.  1.
    10030    2    1    2    0    0  0.00000000000E+00  0.00000000000E+00 -0.23295669210E+04  0.40543556944E+04  0.33182703412E+04 0.  0.
        5    1    3    3  502    0  0.95205442588E+03  0.10966387233E+04 -0.18451234817E+03  0.14639299901E+04  0.46999998093E+01 0. -1.
       -5    1    3    3    0  502 -0.95205442588E+03 -0.10966387233E+04 -0.21450545728E+04  0.25904257043E+04  0.46999998093E+01 0.  1.
</event>
<event>
 5   0  0.9181760E-08  0.3297953E+04  0.7818609E-02  0.8163417E-01
        1   -1    0    0  501    0  0.00000000000E+00  0.00000000000E+00  0.12661610069E+04  0.12661610069E+04  0.50400001928E-02 0. -1.
       -1   -1    0    0    0  501  0.00000000000E+00  0.00000000000E+00 -0.21475332291E+04  0.21475332292E+04  0.50400001928E-02 0.  1.
    10030    2    1    2    0    0  0.00000000000E+00  0.00000000000E+00 -0.88137222227E+03  0.34136942360E+04  0.32979525987E+04 0.  0.
        1    1    3    3  502    0 -0.78243805237E+03 -0.33285175885E+03  0.10217398386E+04  0.13292674287E+04  0.50400001928E-02 0. -1.
       -1    1    3    3    0  502  0.78243805237E+03  0.33285175885E+03 -0.19031120608E+04  0.20844268074E+04  0.50400001928E-02 0.  1.
</event>
<event>
 5   0  0.9454010E-08  0.3297848E+04  0.7818609E-02  0.8163443E-01
       -1   -1    0    0    0  501  0.00000000000E+00  0.00000000000E+00  0.11666767231E+04  0.11666767231E+04  0.50400001928E-02 0. -1.
        1   -1    0    0  501    0  0.00000000000E+00  0.00000000000E+00 -0.23305088205E+04  0.23305088205E+04  0.50400001928E-02 0.  1.
    10030    2    1    2    0    0  0.00000000000E+00  0.00000000000E+00 -0.11638320975E+04  0.34971855436E+04  0.32978480219E+04 0.  0.
        2    1    3    3  502    0  0.12852158675E+04  0.55422612337E+03 -0.15063927442E+04  0.20562503548E+04  0.25500000920E-02 0.  1.
       -2    1    3    3    0  502 -0.12852158675E+04 -0.55422612337E+03  0.34256064671E+03  0.14409351889E+04  0.25500000920E-02 0. -1.
</event>
<event>
 5   0  0.2703956E-07  0.3299917E+04  0.7818609E-02  0.8162916E-01
       -2   -1    0    0    0  501  0.00000000000E+00  0.00000000000E+00  0.15522438032E+04  0.15522438032E+04  0.25500000920E-02 0. -1.
        2   -1    0    0  501    0  0.00000000000E+00  0.00000000000E+00 -0.17538247456E+04  0.17538247456E+04  0.25500000920E-02 0.  1.
    10030    2    1    2    0    0  0.00000000000E+00  0.00000000000E+00 -0.20158094237E+03  0.33060685488E+04  0.32999173282E+04 0.  0.
        5    1    3    3  502    0 -0.43879789782E+03  0.84871573382E+03 -0.14484668900E+04  0.17352061587E+04  0.46999998093E+01 0.  1.
       -5    1    3    3    0  502  0.43879789782E+03 -0.84871573382E+03  0.12468859476E+04  0.15708623900E+04  0.46999998093E+01 0. -1.
</event>
<event>
 5   0  0.2713815E-07  0.3307419E+04  0.7818609E-02  0.8161010E-01
       -2   -1    0    0    0  501  0.00000000000E+00  0.00000000000E+00  0.17908703180E+04  0.17908703180E+04  0.25500000920E-02 0.  1.
        2   -1    0    0  501    0  0.00000000000E+00  0.00000000000E+00 -0.15270533204E+04  0.15270533204E+04  0.25500000920E-02 0. -1.
    10030    2    1    2    0    0  0.00000000000E+00  0.00000000000E+00  0.26381699758E+03  0.33179236385E+04  0.33074186101E+04 0.  0.
        4    1    3    3  502    0  0.22916610063E+03 -0.34485299893E+03 -0.14742114257E+04  0.15312549211E+04  0.12699999809E+01 0. -1.
       -4    1    3    3    0  502 -0.22916610063E+03  0.34485299893E+03  0.17380284233E+04  0.17866687174E+04  0.12699999809E+01 0.  1.
</event>
<event>
 5   0  0.9283910E-08  0.3287009E+04  0.7818609E-02  0.8166209E-01
        1   -1    0    0  501    0  0.00000000000E+00  0.00000000000E+00  0.15253816277E+04  0.15253816277E+04  0.50400001928E-02 0.  1.
       -1   -1    0    0    0  501  0.00000000000E+00  0.00000000000E+00 -0.17707743388E+04  0.17707743388E+04  0.50400001928E-02 0. -1.
    10030    2    1    2    0    0  0.00000000000E+00  0.00000000000E+00 -0.24539271107E+03  0.32961559665E+04  0.32870087577E+04 0.  0.
        3    1    3    3  502    0 -0.49895691737E+03 -0.67963956014E+03  0.12919877532E+04  0.15427573697E+04  0.10100000352E+00 0.  1.
       -3    1    3    3    0  502  0.49895691737E+03  0.67963956014E+03 -0.15373804643E+04  0.17533985968E+04  0.10100000352E+00 0. -1.
</event>
<event>
 5   0  0.9454010E-08  0.3269919E+04  0.7818609E-02  0.8170592E-01
       -1   -1    0    0    0  501  0.00000000000E+00  0.00000000000E+00  0.14782360786E+04  0.14782360787E+04  0.50400001928E-02 0.  1.
        1   -1    0    0  501    0  0.00000000000E+00  0.00000000000E+00 -0.18082986609E+04  0.18082986609E+04  0.50400001928E-02 0. -1.
    10030    2    1    2    0    0  0.00000000000E+00  0.00000000000E+00 -0.33006258228E+03  0.32865347396E+04  0.32699188501E+04 0.  0.
        2    1    3    3  502    0  0.11565199640E+03 -0.11186256568E+04  0.10277567337E+04  0.15234771571E+04  0.25500000920E-02 0.  1.
       -2    1    3    3    0  502 -0.11565199640E+03  0.11186256568E+04 -0.13578193160E+04  0.17630575825E+04  0.25500000920E-02 0. -1.
</event>
<event>
 5   0  0.2713815E-07  0.3300501E+04  0.7818609E-02  0.8162768E-01
        2   -1    0    0  501    0  0.00000000000E+00  0.00000000000E+00  0.19972386023E+04  0.19972386023E+04  0.25500000920E-02 0.  1.
       -2   -1    0    0    0  501  0.00000000000E+00  0.00000000000E+00 -0.13635461960E+04  0.13635461960E+04  0.25500000920E-02 0. -1.
    10030    2    1    2    0    0  0.00000000000E+00  0.00000000000E+00  0.63369240625E+03  0.33607847983E+04  0.33005012339E+04 0.  0.
        4    1    3    3  502    0 -0.97628969020E+03  0.85017783192E+03 -0.72526309464E+03  0.14838975957E+04  0.12699999809E+01 0. -1.
       -4    1    3    3    0  502  0.97628969020E+03 -0.85017783192E+03  0.13589555009E+04  0.18768872026E+04  0.12699999809E+01 0.  1.
</event>
<event>
 5   0  0.9181760E-08  0.3302119E+04  0.7818609E-02  0.8162356E-01
        1   -1    0    0  501    0  0.00000000000E+00  0.00000000000E+00  0.23084278476E+04  0.23084278476E+04  0.50400001928E-02 0. -1.
       -1   -1    0    0    0  501  0.00000000000E+00  0.00000000000E+00 -0.11808895238E+04  0.11808895238E+04  0.50400001928E-02 0.  1.
    10030    2    1    2    0    0  0.00000000000E+00  0.00000000000E+00  0.11275383239E+04  0.34893173714E+04  0.33021194779E+04 0.  0.
        1    1    3    3  502    0  0.13370374025E+04 -0.94005924279E+03  0.81072258686E+03  0.18244592373E+04  0.50400001928E-02 0.  1.
       -1    1    3    3    0  502 -0.13370374025E+04  0.94005924279E+03  0.31681573700E+03  0.16648581341E+04  0.50400001928E-02 0. -1.
</event>
<event>
 5   0  0.2824402E-07  0.3305638E+04  0.7818609E-02  0.8161462E-01
        2   -1    0    0  501    0  0.00000000000E+00  0.00000000000E+00  0.20716395185E+04  0.20716395185E+04  0.25500000920E-02 0. -1.
       -2   -1    0    0    0  501  0.00000000000E+00  0.00000000000E+00 -0.13186710508E+04  0.13186710508E+04  0.25500000920E-02 0.  1.
    10030    2    1    2    0    0  0.00000000000E+00  0.00000000000E+00  0.75296846768E+03  0.33903105692E+04  0.33056382504E+04 0.  0.
        1    1    3    3  502    0 -0.33964212501E+03  0.13193279650E+04 -0.58334411558E+03  0.14819829316E+04  0.50400001928E-02 0.  1.
       -1    1    3    3    0  502  0.33964212501E+03 -0.13193279650E+04  0.13363125833E+04  0.19083276376E+04  0.50400001928E-02 0. -1.
</event>
<event>
 5   0  0.9181760E-08  0.3298134E+04  0.7818609E-02  0.8163370E-01
       -1   -1    0    0    0  501  0.00000000000E+00  0.00000000000E+00  0.17268906203E+04  0.17268906203E+04  0.50400001928E-02 0.  1.
        1   -1    0    0  501    0  0.00000000000E+00  0.00000000000E+00 -0.15747508199E+04  0.15747508199E+04  0.50400001928E-02 0. -1.
    10030    2    1    2    0    0  0.00000000000E+00  0.00000000000E+00  0.15213980042E+03  0.33016414403E+04  0.32981342728E+04 0.  0.
        1    1    3    3  502    0 -0.65994213502E+03  0.13422362840E+04 -0.61914721601E+03  0.16187850811E+04  0.50400001928E-02 0. -1.
       -1    1    3    3    0  502  0.65994213502E+03 -0.13422362840E+04  0.77128701643E+03  0.16828563591E+04  0.50400001928E-02 0.  1.
</event>
<event>
 5   0  0.9181760E-08  0.3287991E+04  0.7818609E-02  0.8165958E-01
        1   -1    0    0  501    0  0.00000000000E+00  0.00000000000E+00  0.18599356267E+04  0.18599356267E+04  0.50400001928E-02 0. -1.
       -1   -1    0    0    0  501  0.00000000000E+00  0.00000000000E+00 -0.14531263344E+04  0.14531263344E+04  0.50400001928E-02 0.  1.
    10030    2    1    2    0    0  0.00000000000E+00  0.00000000000E+00  0.40680929227E+03  0.33130619611E+04  0.32879911432E+04 0.  0.
        1    1    3    3  502    0 -0.15498772142E+04  0.50069343769E+03 -0.21700083407E+02  0.16288904786E+04  0.50400001928E-02 0.  1.
       -1    1    3    3    0  502  0.15498772142E+04 -0.50069343769E+03  0.42850937567E+03  0.16841714825E+04  0.50400001928E-02 0. -1.
</event>
<event>
 5   0  0.2703956E-07  0.3300813E+04  0.7818609E-02  0.8162689E-01
        2   -1    0    0  501    0  0.00000000000E+00  0.00000000000E+00  0.26338513212E+04  0.26338513212E+04  0.25500000920E-02 0. -1.
       -2   -1    0    0    0  501  0.00000000000E+00  0.00000000000E+00 -0.10341668754E+04  0.10341668754E+04  0.25500000920E-02 0.  1.
    10030    2    1    2    0    0  0.00000000000E+00  0.00000000000E+00  0.15996844458E+04  0.36680181965E+04  0.33008131065E+04 0.  0.
        5    1    3    3  502    0  0.92039053732E+02 -0.16311978276E+04  0.54031870679E+03  0.17208265267E+04  0.46999998093E+01 0.  1.
       -5    1    3    3    0  502 -0.92039053732E+02  0.16311978276E+04  0.10593657390E+04  0.19471916698E+04  0.46999998093E+01 0. -1.
</event>
<event>
 5   0  0.8805125E-08  0.3286449E+04  0.7818609E-02  0.8166352E-01
        3   -1    0    0  501    0  0.00000000000E+00  0.00000000000E+00  0.19275550957E+04  0.19275550984E+04  0.10100000352E+00 0. -1.
       -3   -1    0    0    0  501  0.00000000000E+00  0.00000000000E+00 -0.14008350126E+04  0.14008350163E+04  0.10100000352E+00 0.  1.
    10030    2    1    2    0    0  0.00000000000E+00  0.00000000000E+00  0.52672008309E+03  0.33283901146E+04  0.32864489513E+04 0.  0.
        4    1    3    3  502    0 -0.72377157308E+03 -0.59898630380E+03 -0.11020124078E+04  0.14481239042E+04  0.12699999809E+01 0.  1.
       -4    1    3    3    0  502  0.72377157308E+03  0.59898630380E+03  0.16287324909E+04  0.18802662104E+04  0.12699999809E+01 0. -1.
</event>
<event>
 5   0  0.2875829E-07  0.3304409E+04  0.7818609E-02  0.8161774E-01
       -2   -1    0    0    0  501  0.00000000000E+00  0.00000000000E+00  0.11689294948E+04  0.11689294948E+04  0.25500000920E-02 0. -1.
        2   -1    0    0  501    0  0.00000000000E+00  0.00000000000E+00 -0.23352820981E+04  0.23352820981E+04  0.25500000920E-02 0.  1.
    10030    2    1    2    0    0  0.00000000000E+00  0.00000000000E+00 -0.11663526033E+04  0.35042115929E+04  0.33044092502E+04 0.  0.
        3    1    3    3  502    0 -0.24964057916E+03 -0.20865228745E+03  0.11346217740E+04  0.11803485825E+04  0.10100000352E+00 0. -1.
       -3    1    3    3    0  502  0.24964057916E+03  0.20865228745E+03 -0.23009743774E+04  0.23238630104E+04  0.10100000352E+00 0.  1.
</event>
<event>
 5   0  0.2713815E-07  0.3300200E+04  0.7818609E-02  0.8162844E-01
        2   -1    0    0  501    0  0.00000000000E+00  0.00000000000E+00  0.15670621950E+04  0.15670621950E+04  0.25500000920E-02 0. -1.
       -2   -1    0    0    0  501  0.00000000000E+00  0.00000000000E+00 -0.17375383392E+04  0.17375383392E+04  0.25500000920E-02 0.  1.
    10030    2    1    2    0    0  0.00000000000E+00  0.00000000000E+00 -0.17047614428E+03  0.33046005342E+04  0.33002003841E+04 0.  0.
        4    1    3    3  502    0  0.78661187545E+03 -0.66294828361E+03 -0.13771405672E+04  0.17189463122E+04  0.12699999809E+01 0.  1.
       -4    1    3    3    0  502 -0.78661187545E+03  0.66294828361E+03  0.12066644230E+04  0.15856542220E+04  0.12699999809E+01 0. -1.
</event>
<event>
 5   0  0.2875829E-07  0.3317588E+04  0.7818609E-02  0.8158435E-01
       -2   -1    0    0    0  501  0.00000000000E+00  0.00000000000E+00  0.20328588098E+04  0.20328588098E+04  0.25500000920E-02 0. -1.
        2   -1    0    0  501    0  0.00000000000E+00  0.00000000000E+00 -0.13535601974E+04  0.13535601974E+04  0.25500000920E-02 0.  1.
    10030    2    1    2    0    0  0.00000000000E+00  0.00000000000E+00  0.67929861236E+03  0.33864190072E+04  0.33175875403E+04 0.  0.
        3    1    3    3  502    0 -0.62081771493E+03 -0.19935052811E+03  0.18965623936E+04  0.20055184345E+04  0.10100000352E+00 0. -1.
       -3    1    3    3    0  502  0.62081771493E+03  0.19935052811E+03 -0.12172637812E+04  0.13809005726E+04  0.10100000352E+00 0.  1.
</event>
<event>
 5   0  0.2824402E-07  0.3299946E+04  0.7818609E-02  0.8162909E-01
        2   -1    0    0  501    0  0.00000000000E+00  0.00000000000E+00  0.25182404721E+04  0.25182404721E+04  0.25500000920E-02 0. -1.
       -2   -1    0    0    0  501  0.00000000000E+00  0.00000000000E+00 -0.10810769380E+04  0.10810769380E+04  0.25500000920E-02 0.  1.
    10030    2    1    2    0    0  0.00000000000E+00  0.00000000000E+00  0.14371635341E+04  0.35993174101E+04  0.32999464836E+04 0.  0.
        1    1    3    3  502    0  0.44642299462E+03 -0.37912274131E+03  0.24010448086E+04  0.24714456733E+04  0.50400001928E-02 0. -1.
       -1    1    3    3    0  502 -0.44642299462E+03  0.37912274131E+03 -0.96388127455E+03  0.11278717367E+04  0.50400001928E-02 0.  1.
</event>
<event>
 5   0  0.9454010E-08  0.3303814E+04  0.7818609E-02  0.8161926E-01
        1   -1    0    0  501    0  0.00000000000E+00  0.00000000000E+00  0.17310121861E+04  0.17310121861E+04  0.50400001928E-02 0. -1.
       -1   -1    0    0    0  501  0.00000000000E+00  0.00000000000E+00 -0.15764169873E+04  0.15764169873E+04  0.50400001928E-02 0.  1.
    10030    2    1    2    0    0  0.00000000000E+00  0.00000000000E+00  0.15459519879E+03  0.33074291733E+04  0.33038141687E+04 0.  0.
        2    1    3    3  502    0 -0.91559838410E+03 -0.13491056117E+04  0.34290028918E+03  0.16661293349E+04  0.25500000920E-02 0. -1.
       -2    1    3    3    0  502  0.91559838410E+03  0.13491056117E+04 -0.18830509039E+03  0.16412998384E+04  0.25500000920E-02 0.  1.
</event>
<event>
 5   0  0.8805125E-08  0.3311259E+04  0.7818609E-02  0.8160036E-01
        1   -1    0    0  501    0  0.00000000000E+00  0.00000000000E+00  0.24080516903E+04  0.24080516903E+04  0.50400001928E-02 0.  1.
       -1   -1    0    0    0  501  0.00000000000E+00  0.00000000000E+00 -0.11383097881E+04  0.11383097881E+04  0.50400001928E-02 0. -1.
    10030    2    1    2    0    0  0.00000000000E+00  0.00000000000E+00  0.12697419022E+04  0.35463614784E+04  0.33112588599E+04 0.  0.
        4    1    3    3  502    0  0.66550506270E+03  0.13883710927E+04 -0.17153104857E+02  0.15397295611E+04  0.12699999809E+01 0. -1.
       -4    1    3    3    0  502 -0.66550506270E+03 -0.13883710927E+04  0.12868950070E+04  0.20066319173E+04  0.12699999809E+01 0.  1.
</event>
<event>
 5   0  0.2703956E-07  0.3301933E+04  0.7818609E-02  0.8162404E-01
       -2   -1    0    0    0  501  0.00000000000E+00  0.00000000000E+00  0.10145300489E+04  0.10145300489E+04  0.25500000920E-02 0.  1.
        2   -1    0    0  501    0  0.00000000000E+00  0.00000000000E+00 -0.26866527745E+04  0.26866527745E+04  0.25500000920E-02 0. -1.
    10030    2    1    2    0    0  0.00000000000E+00  0.00000000000E+00 -0.16721227256E+04  0.37011828233E+04  0.33019327495E+04 0.  0.
        5    1    3    3  502    0  0.23101554064E+03  0.15909752660E+03  0.98761712022E+03  0.10266887888E+04  0.46999998093E+01 0.  1.
       -5    1    3    3    0  502 -0.23101554064E+03 -0.15909752660E+03 -0.26597398458E+04  0.26744940345E+04  0.46999998093E+01 0. -1.
</event>
<event>
 5   0  0.9181760E-08  0.3299325E+04  0.7818609E-02  0.8163067E-01
        1   -1    0    0  501    0  0.00000000000E+00  0.00000000000E+00  0.15535930324E+04  0.15535930324E+04  0.50400001928E-02 0. -1.
       -1   -1    0    0    0  501  0.00000000000E+00  0.00000000000E+00 -0.17516725034E+04  0.17516725035E+04  0.50400001928E-02 0.  1.
    10030    2    1    2    0    0  0.00000000000E+00  0.00000000000E+00 -0.19807947103E+03  0.33052655359E+04  0.32993248985E+04 0.  0.
        1    1    3    3  502    0 -0.90027836639E+03 -0.42819207086E+03 -0.14157641875E+04  0.17315420356E+04  0.50400001928E-02 0.  1.
       -1    1    3    3    0  502  0.90027836639E+03  0.42819207086E+03  0.12176847165E+04  0.15737235003E+04  0.50400001928E-02 0. -1.
</event>
<event>
 5   0  0.8805125E-08  0.3295899E+04  0.7818609E-02  0.8163940E-01
        1   -1    0    0  501    0  0.00000000000E+00  0.00000000000E+00  0.29502062717E+04  0.29502062717E+04  0.50400001928E-02 0. -1.
       -1   -1    0    0    0  501  0.00000000000E+00  0.00000000000E+00 -0.92052444633E+03  0.92052444634E+03  0.50400001928E-02 0.  1.
    10030    2    1    2    0    0  0.00000000000E+00  0.00000000000E+00  0.20296818253E+04  0.38707307180E+04  0.32958986603E+04 0.  0.
        4    1    3    3  502    0  0.10648229910E+04  0.46185840705E+03 -0.35905326181E+03  0.12149411706E+04  0.12699999809E+01 0.  1.
       -4    1    3    3    0  502 -0.10648229910E+04 -0.46185840705E+03  0.23887350872E+04  0.26557895474E+04  0.12699999809E+01 0. -1.
</event>
<event>
 5   0  0.9810351E-08  0.3298513E+04  0.7818609E-02  0.8163274E-01
        1   -1    0    0  501    0  0.00000000000E+00  0.00000000000E+00  0.13747122547E+04  0.13747122547E+04  0.50400001928E-02 0.  1.
       -1   -1    0    0    0  501  0.00000000000E+00  0.00000000000E+00 -0.19786295535E+04  0.19786295535E+04  0.50400001928E-02 0. -1.
    10030    2    1    2    0    0  0.00000000000E+00  0.00000000000E+00 -0.60391729884E+03  0.33533418082E+04  0.32985125706E+04 0.  0.
        5    1    3    3  502    0 -0.12754432189E+03  0.14095898768E+04 -0.11626800985E+04  0.18316818163E+04  0.46999998093E+01 0. -1.
       -5    1    3    3    0  502  0.12754432189E+03 -0.14095898768E+04  0.55876279965E+03  0.15216599919E+04  0.46999998093E+01 0.  1.
</event>
<event>
 5   0  0.2713815E-07  0.3306357E+04  0.7818609E-02  0.8161280E-01
       -2   -1    0    0    0  501  0.00000000000E+00  0.00000000000E+00  0.11536505705E+04  0.11536505705E+04  0.25500000920E-02 0.  1.
        2   -1    0    0  501    0  0.00000000000E+00  0.00000000000E+00 -0.23690008279E+04  0.23690008279E+04  0.25500000920E-02 0. -1.
    10030    2    1    2    0    0  0.00000000000E+00  0.00000000000E+00 -0.12153502574E+04  0.35226513984E+04  0.33063570023E+04 0.  0.
        4    1    3    3  502    0 -0.82744479715E+03  0.18645047102E+03  0.90415559722E+03  0.12397288524E+04  0.12699999809E+01 0.  1.
       -4    1    3    3    0  502  0.82744479715E+03 -0.18645047102E+03 -0.21195058546E+04  0.22829225460E+04  0.12699999809E+01 0. -1.
</event>
<event>
 5   0  0.9181760E-08  0.3318593E+04  0.7818609E-02  0.8158180E-01
        1   -1    0    0  501    0  0.00000000000E+00  0.00000000000E+00  0.11651636044E+04  0.11651636044E+04  0.50400001928E-02 0. -1.
       -1   -1    0    0    0  501  0.00000000000E+00  0.00000000000E+00 -0.23629861232E+04  0.23629861232E+04  0.50400001928E-02 0.  1.
    10030    2    1    2    0    0  0.00000000000E+00  0.00000000000E+00 -0.11978225189E+04  0.35281497276E+04  0.33185933336E+04 0.  0.
        1    1    3    3  502    0 -0.13502300639E+04  0.81632352725E+03 -0.52905125250E+02  0.15787033537E+04  0.50400001928E-02 0. -1.
       -1    1    3    3    0  502  0.13502300639E+04 -0.81632352725E+03 -0.11449173936E+04  0.19494463739E+04  0.50400001928E-02 0.  1.
</event>
<event>
 5   0  0.2727168E-07  0.3301357E+04  0.7818609E-02  0.8162550E-01
       -2   -1    0    0    0  501  0.00000000000E+00  0.00000000000E+00  0.22998588134E+04  0.22998588134E+04  0.25500000920E-02 0.  1.
        2   -1    0    0  501    0  0.00000000000E+00  0.00000000000E+00 -0.11847421270E+04  0.11847421270E+04  0.25500000920E-02 0. -1.
    10030    2    1    2    0    0  0.00000000000E+00  0.00000000000E+00  0.11151166864E+04  0.34846009405E+04  0.33013570679E+04 0.  0.
        2    1    3    3  502    0  0.13866616594E+04 -0.53783252480E+03  0.13132924365E+04  0.19841450063E+04  0.25500000920E-02 0.  1.
       -2    1    3    3    0  502 -0.13866616594E+04  0.53783252480E+03 -0.19817575015E+03  0.15004559341E+04  0.25500000920E-02 0. -1.
</event>
<event>
 5   0  0.2703956E-07  0.3299055E+04  0.7818609E-02  0.8163136E-01
       -2   -1    0    0    0  501  0.00000000000E+00  0.00000000000E+00  0.12555323134E+04  0.12555323134E+04  0.25500000920E-02 0.  1.
        2   -1    0    0  501    0  0.00000000000E+00  0.00000000000E+00 -0.21671606165E+04  0.21671606165E+04  0.25500000920E-02 0. -1.
    10030    2    1    2    0    0  0.00000000000E+00  0.00000000000E+00 -0.91162830316E+03  0.34226929299E+04  0.32990545205E+04 0.  0.
        5    1    3    3  502    0 -0.14193587622E+04  0.59076198104E+03 -0.10759955005E+04  0.18765306875E+04  0.46999998093E+01 0. -1.
       -5    1    3    3    0  502  0.14193587622E+04 -0.59076198104E+03  0.16436719738E+03  0.15461622424E+04  0.46999998093E+01 0.  1.
</event>
<event>
 5   0  0.9283910E-08  0.3299075E+04  0.7818609E-02  0.8163131E-01
        1   -1    0    0  501    0  0.00000000000E+00  0.00000000000E+00  0.10607128933E+04  0.10607128933E+04  0.50400001928E-02 0.  1.
       -1   -1    0    0    0  501  0.00000000000E+00  0.00000000000E+00 -0.25652316241E+04  0.25652316242E+04  0.50400001928E-02 0. -1.
    10030    2    1    2    0    0  0.00000000000E+00  0.00000000000E+00 -0.15045187309E+04  0.36259445174E+04  0.32990751783E+04 0.  0.
        3    1    3    3  502    0  0.79076616089E+03  0.62088574597E+03  0.68504195439E+03  0.12165906132E+04  0.10100000352E+00 0.  1.
       -3    1    3    3    0  502 -0.79076616089E+03 -0.62088574597E+03 -0.21895606853E+04  0.24093539042E+04  0.10100000352E+00 0. -1.
</event>
<event>
 5   0  0.9810351E-08  0.3334300E+04  0.7818609E-02  0.8154222E-01
       -1   -1    0    0    0  501  0.00000000000E+00  0.00000000000E+00  0.13340272026E+04  0.13340272026E+04  0.50400001928E-02 0.  1.
        1   -1    0    0  501    0  0.00000000000E+00  0.00000000000E+00 -0.20834573097E+04  0.20834573097E+04  0.50400001928E-02 0. -1.
    10030    2    1    2    0    0  0.00000000000E+00  0.00000000000E+00 -0.74943010709E+03  0.34174845122E+04  0.33342997625E+04 0.  0.
        5    1    3    3  502    0  0.52202036874E+03  0.12143054970E+04  0.66666637167E+03  0.14803746980E+04  0.46999998093E+01 0.  1.
       -5    1    3    3    0  502 -0.52202036874E+03 -0.12143054970E+04 -0.14160964788E+04  0.19371098143E+04  0.46999998093E+01 0. -1.
</event>
<event>
 5   0  0.2727168E-07  0.3301360E+04  0.7818609E-02  0.8162549E-01
        2   -1    0    0  501    0  0.00000000000E+00  0.00000000000E+00  0.15766993076E+04  0.15766993076E+04  0.25500000920E-02 0.  1.
       -2   -1    0    0    0  501  0.00000000000E+00  0.00000000000E+00 -0.17281324728E+04  0.17281324728E+04  0.25500000920E-02 0. -1.
    10030    2    1    2    0    0  0.00000000000E+00  0.00000000000E+00 -0.15143316523E+03  0.33048317804E+04  0.33013604912E+04 0.  0.
        2    1    3    3  502    0  0.11668731946E+04 -0.77430268007E+03  0.79904867117E+03  0.16123326182E+04  0.25500000920E-02 0.  1.
       -2    1    3    3    0  502 -0.11668731946E+04  0.77430268007E+03 -0.95048183640E+03  0.16924991622E+04  0.25500000920E-02 0. -1.
</event>
<event>
 5   0  0.8805125E-08  0.3303052E+04  0.7818609E-02  0.8162119E-01
        1   -1    0    0  501    0  0.00000000000E+00  0.00000000000E+00  0.21221223621E+04  0.21221223621E+04  0.50400001928E-02 0. -1.
       -1   -1    0    0    0  501  0.00000000000E+00  0.00000000000E+00 -0.12852877623E+04  0.12852877623E+04  0.50400001928E-02 0.  1.
    10030    2    1    2    0    0  0.00000000000E+00  0.00000000000E+00  0.83683459979E+03  0.34074101243E+04  0.33030518628E+04 0.  0.
        4    1    3    3  502    0 -0.12481186462E+04 -0.75236909489E+03  0.12199316237E+04  0.19005510226E+04  0.12699999809E+01 0. -1.
       -4    1    3    3    0  502  0.12481186462E+04  0.75236909489E+03 -0.38309702392E+03  0.15068591018E+04  0.12699999809E+01 0.  1.
</event>
<event>
 5   0  0.2875829E-07  0.3304441E+04  0.7818609E-02  0.8161766E-01
        2   -1    0    0  501    0  0.00000000000E+00  0.00000000000E+00  0.14812877422E+04  0.14812877422E+04  0.25500000920E-02 0.  1.
       -2   -1    0    0    0  501  0.00000000000E+00  0.00000000000E+00 -0.18428778660E+04  0.18428778660E+04  0.25500000920E-02 0. -1.
    10030    2    1    2    0    0  0.00000000000E+00  0.00000000000E+00 -0.36159012378E+03  0.33241656082E+04  0.33044408866E+04 0.  0.
        3    1    3    3  502    0  0.53932830667E+03 -0.10436432123E+04 -0.13495243839E+04  0.17892127459E+04  0.10100000352E+00 0. -1.
       -3    1    3    3    0  502 -0.53932830667E+03  0.10436432123E+04  0.98793426012E+03  0.15349528623E+04  0.10100000352E+00 0.  1.
</event>
<event>
 5   0  0.2703956E-07  0.3303282E+04  0.7818609E-02  0.8162061E-01
       -2   -1    0    0    0  501  0.00000000000E+00  0.00000000000E+00  0.16419841315E+04  0.16419841315E+04  0.25500000920E-02 0.  1.
        2   -1    0    0  501    0  0.00000000000E+00  0.00000000000E+00 -0.16613545930E+04  0.16613545930E+04  0.25500000920E-02 0. -1.
    10030    2    1    2    0    0  0.00000000000E+00  0.00000000000E+00 -0.19370461513E+02  0.33033387244E+04  0.33032819307E+04 0.  0.
        5    1    3    3  502    0 -0.10745654924E+03 -0.13961132276E+04 -0.88560938054E+03  0.16568056974E+04  0.46999998093E+01 0.  1.
       -5    1    3    3    0  502  0.10745654924E+03  0.13961132276E+04  0.86623891902E+03  0.16465330270E+04  0.46999998093E+01 0. -1.
</event>
<event>
 5   0  0.2824402E-07  0.3298852E+04  0.7818609E-02  0.8163188E-01
        2   -1    0    0  501    0  0.00000000000E+00  0.00000000000E+00  0.14364505444E+04  0.14364505444E+04  0.25500000920E-02 0.  1.
       -2   -1    0    0    0  501  0.00000000000E+00  0.00000000000E+00 -0.18939780136E+04  0.18939780136E+04  0.25500000920E-02 0. -1.
    10030    2    1    2    0    0  0.00000000000E+00  0.00000000000E+00 -0.45752746920E+03  0.33304285580E+04  0.32988517691E+04 0.  0.
        1    1    3    3  502    0  0.12578197432E+03  0.97111188404E+03  0.11112416573E+04  0.14811270767E+04  0.50400001928E-02 0.  1.
       -1    1    3    3    0  502 -0.12578197432E+03 -0.97111188404E+03 -0.15687691265E+04  0.18493014813E+04  0.50400001928E-02 0. -1.
</event>
<event>
 5   0  0.9181760E-08  0.3305132E+04  0.7818609E-02  0.8161591E-01
        1   -1    0    0  501    0  0.00000000000E+00  0.00000000000E+00  0.12790467558E+04  0.12790467558E+04  0.50400001928E-02 0.  1.
       -1   -1    0    0    0  501  0.00000000000E+00  0.00000000000E+00 -0.21351635231E+04  0.21351635231E+04  0.50400001928E-02 0. -1.
    10030    2    1    2    0    0  0.00000000000E+00  0.00000000000E+00 -0.85611676726E+03  0.34142102789E+04  0.33051317537E+04 0.  0.
        1    1    3    3  502    0  0.42914279222E+03 -0.15248386283E+04 -0.91442347174E+03  0.18290616896E+04  0.50400001928E-02 0.  1.
       -1    1    3    3    0  502 -0.42914279222E+03  0.15248386283E+04  0.58306704485E+02  0.15851485894E+04  0.50400001928E-02 0. -1.
</event>
<event>
 5   0  0.2824402E-07  0.3322803E+04  0.7818609E-02  0.8157117E-01
       -2   -1    0    0    0  501  0.00000000000E+00  0.00000000000E+00  0.14296627571E+04  0.14296627571E+04  0.25500000920E-02 0. -1.
        2   -1    0    0  501    0  0.00000000000E+00  0.00000000000E+00 -0.19307035293E+04  0.19307035293E+04  0.25500000920E-02 0.  1.
    10030    2    1    2    0    0  0.00000000000E+00  0.00000000000E+00 -0.50104077218E+03  0.33603662865E+04  0.33228029920E+04 0.  0.
        1    1    3    3  502    0 -0.46192556915E+03 -0.15851629118E+04 -0.43737447518E+03  0.17080436528E+04  0.50400001928E-02 0. -1.
       -1    1    3    3    0  502  0.46192556915E+03  0.15851629118E+04 -0.63666297000E+02  0.16523226337E+04  0.50400001928E-02 0.  1.
</event>
<event>
 5   0  0.9181760E-08  0.3295886E+04  0.7818609E-02  0.8163943E-01
        1   -1    0    0  501    0  0.00000000000E+00  0.00000000000E+00  0.19135577974E+04  0.19135577975E+04  0.50400001928E-02 0.  1.
       -1   -1    0    0    0  501  0.00000000000E+00  0.00000000000E+00 -0.14191971311E+04  0.14191971311E+04  0.50400001928E-02 0. -1.
    10030    2    1    2    0    0  0.00000000000E+00  0.00000000000E+00  0.49436066639E+03  0.33327549285E+04  0.32958857603E+04 0.  0.
        1    1    3    3  502    0 -0.40373067326E+02  0.10874132145E+04 -0.10042494765E+04  0.14807479512E+04  0.50400001928E-02 0. -1.
       -1    1    3    3    0  502  0.40373067326E+02 -0.10874132145E+04  0.14986101429E+04  0.18520069774E+04  0.50400001928E-02 0.  1.
</event>
<event>
 5   0  0.2713815E-07  0.3286149E+04  0.7818609E-02  0.8166429E-01
       -2   -1    0    0    0  501  0.00000000000E+00  0.00000000000E+00  0.11072648988E+04  0.11072648988E+04  0.25500000920E-02 0. -1.
        2   -1    0    0  501    0  0.00000000000E+00  0.00000000000E+00 -0.24381649196E+04  0.24381649196E+04  0.25500000920E-02 0.  1.
    10030    2    1    2    0    0  0.00000000000E+00  0.00000000000E+00 -0.13309000208E+04  0.35454298184E+04  0.32861493776E+04 0.  0.
        4    1    3    3  502    0  0.14439761626E+04  0.66757439806E+03 -0.11089427384E+04  0.19391952829E+04  0.12699999809E+01 0. -1.
       -4    1    3    3    0  502 -0.14439761626E+04 -0.66757439806E+03 -0.22195728240E+03  0.16062345356E+04  0.12699999809E+01 0.  1.
</event>
<event>
 5   0  0.9181760E-08  0.3299085E+04  0.7818609E-02  0.8163128E-01
        1   -1    0    0  501    0  0.00000000000E+00  0.00000000000E+00  0.18770076801E+04  0.18770076801E+04  0.50400001928E-02 0. -1.
       -1   -1    0    0    0  501  0.00000000000E+00  0.00000000000E+00 -0.14496426035E+04  0.14496426035E+04  0.50400001928E-02 0.  1.
    10030    2    1    2    0    0  0.00000000000E+00  0.00000000000E+00  0.42736507659E+03  0.33266502836E+04  0.32990849035E+04 0.  0.
        1    1    3    3  502    0 -0.14346974712E+04  0.80829069527E+03  0.31092282089E+03  0.16758173178E+04  0.50400001928E-02 0.  1.
       -1    1    3    3    0  502  0.14346974712E+04 -0.80829069527E+03  0.11644225570E+03  0.16508329658E+04  0.50400001928E-02 0. -1.
</event>
<event>
 5   0  0.2703956E-07  0.3302978E+04  0.7818609E-02  0.8162138E-01
        2   -1    0    0  501    0  0.00000000000E+00  0.00000000000E+00  0.19795179553E+04  0.19795179553E+04  0.25500000920E-02 0.  1.
       -2   -1    0    0    0  501  0.00000000000E+00  0.00000000000E+00 -0.13778180961E+04  0.13778180961E+04  0.25500000920E-02 0. -1.
    10030    2    1    2    0    0  0.00000000000E+00  0.00000000000E+00  0.60169985917E+03  0.33573360514E+04  0.33029778446E+04 0.  0.
        5    1    3    3  502    0 -0.14923211209E+04  0.41001735025E+03 -0.28505376022E+03  0.15736626994E+04  0.46999998093E+01 0. -1.
       -5    1    3    3    0  502  0.14923211209E+04 -0.41001735025E+03  0.88675361939E+03  0.17836733520E+04  0.46999998093E+01 0.  1.
</event>
<event>
 5   0  0.2703956E-07  0.3261569E+04  0.7818609E-02  0.8172744E-01
       -2   -1    0    0    0  501  0.00000000000E+00  0.00000000000E+00  0.15906736674E+04  0.15906736674E+04  0.25500000920E-02 0. -1.
        2   -1    0    0  501    0  0.00000000000E+00  0.00000000000E+00 -0.16719067381E+04  0.16719067381E+04  0.25500000920E-02 0.  1.
    10030    2    1    2    0    0  0.00000000000E+00  0.00000000000E+00 -0.81233070675E+02  0.32625804054E+04  0.32615689614E+04 0.  0.
        5    1    3    3  502    0  0.14958229978E+04  0.47326947537E+03  0.40445457865E+03  0.16202086388E+04  0.46999998093E+01 0.  1.
       -5    1    3    3    0  502 -0.14958229978E+04 -0.47326947537E+03 -0.48568764933E+03  0.16423717666E+04  0.46999998093E+01 0. -1.
</event>
<event>
 5   0  0.2727168E-07  0.3296421E+04  0.7818609E-02  0.8163807E-01
       -2   -1    0    0    0  501  0.00000000000E+00  0.00000000000E+00  0.16717505365E+04  0.16717505365E+04  0.25500000920E-02 0.  1.
        2   -1    0    0  501    0  0.00000000000E+00  0.00000000000E+00 -0.16250022572E+04  0.16250022572E+04  0.25500000920E-02 0. -1.
    10030    2    1    2    0    0  0.00000000000E+00  0.00000000000E+00  0.46748279214E+02  0.32967527937E+04  0.32964213294E+04 0.  0.
        2    1    3    3  502    0 -0.75237735643E+03 -0.83303866334E+03  0.12303812787E+04  0.16654918769E+04  0.25500000920E-02 0.  1.
       -2    1    3    3    0  502  0.75237735643E+03  0.83303866334E+03 -0.11836329995E+04  0.16312609168E+04  0.25500000920E-02 0. -1.
</event>
<event>
 5   0  0.2727168E-07  0.3301716E+04  0.7818609E-02  0.8162459E-01
        2   -1    0    0  501    0  0.00000000000E+00  0.00000000000E+00  0.16474342061E+04  0.16474342061E+04  0.25500000920E-02 0. -1.
       -2   -1    0    0    0  501  0.00000000000E+00  0.00000000000E+00 -0.16542890082E+04  0.16542890082E+04  0.25500000920E-02 0.  1.
    10030    2    1    2    0    0  0.00000000000E+00  0.00000000000E+00 -0.68548021743E+01  0.33017232143E+04  0.33017160986E+04 0.  0.
        2    1    3    3  502    0 -0.11477601724E+04  0.71337508224E+03  0.94477023273E+03  0.16488930269E+04  0.25500000920E-02 0. -1.
       -2    1    3    3    0  502  0.11477601724E+04 -0.71337508224E+03 -0.95162503490E+03  0.16528301874E+04  0.25500000920E-02 0.  1.
</event>
<event>
 5   0  0.2824402E-07  0.3342629E+04  0.7818609E-02  0.8152132E-01
       -2   -1    0    0    0  501  0.00000000000E+00  0.00000000000E+00  0.12038745645E+04  0.12038745645E+04  0.25500000920E-02 0.  1.
        2   -1    0    0  501    0  0.00000000000E+00  0.00000000000E+00 -0.23202518775E+04  0.23202518775E+04  0.25500000920E-02 0. -1.
    10030    2    1    2    0    0  0.00000000000E+00  0.00000000000E+00 -0.11163773130E+04  0.35241264420E+04  0.33426290363E+04 0.  0.
        1    1    3    3  502    0 -0.83029312976E+03 -0.25646723513E+03  0.94695950163E+03  0.12852604490E+04  0.50400001928E-02 0.  1.
       -1    1    3    3    0  502  0.83029312976E+03  0.25646723513E+03 -0.20633368146E+04  0.22388659930E+04  0.50400001928E-02 0. -1.
</event>
<event>
 5   0  0.9810351E-08  0.3293854E+04  0.7818609E-02  0.8164461E-01
       -1   -1    0    0    0  501  0.00000000000E+00  0.00000000000E+00  0.10401990963E+04  0.10401990963E+04  0.50400001928E-02 0. -1.
        1   -1    0    0  501    0  0.00000000000E+00  0.00000000000E+00 -0.26075475715E+04  0.26075475715E+04  0.50400001928E-02 0.  1.
    10030    2    1    2    0    0  0.00000000000E+00  0.00000000000E+00 -0.15673484752E+04  0.36477466678E+04  0.32938540511E+04 0.  0.
        5    1    3    3  502    0 -0.13147837583E+04  0.97374224572E+03 -0.99237971223E+03  0.19135490261E+04  0.46999998093E+01 0.  1.
       -5    1    3    3    0  502  0.13147837583E+04 -0.97374224572E+03 -0.57496876295E+03  0.17341976417E+04  0.46999998093E+01 0. -1.
</event>
<event>
 5   0  0.9283910E-08  0.3310389E+04  0.7818609E-02  0.8160257E-01
        1   -1    0    0  501    0  0.00000000000E+00  0.00000000000E+00  0.21709555938E+04  0.21709555938E+04  0.50400001928E-02 0.  1.
       -1   -1    0    0    0  501  0.00000000000E+00  0.00000000000E+00 -0.12619642648E+04  0.12619642648E+04  0.50400001928E-02 0. -1.
    10030    2    1    2    0    0  0.00000000000E+00  0.00000000000E+00  0.90899132899E+03  0.34329198586E+04  0.33103887263E+04 0.  0.
        3    1    3    3  502    0  0.84685243228E+03  0.11994804076E+04 -0.33782389789E+03  0.15066642913E+04  0.10100000352E+00 0. -1.
       -3    1    3    3    0  502 -0.84685243228E+03 -0.11994804076E+04  0.12468152269E+04  0.19262555673E+04  0.10100000352E+00 0.  1.
</event>
<event>
 5   0  0.2875829E-07  0.3298387E+04  0.7818609E-02  0.8163306E-01
       -2   -1    0    0    0  501  0.00000000000E+00  0.00000000000E+00  0.12911212571E+04  0.12911212571E+04  0.25500000920E-02 0. -1.
        2   -1    0    0  501    0  0.00000000000E+00  0.00000000000E+00 -0.21065716975E+04  0.21065716975E+04  0.25500000920E-02 0.  1.
    10030    2    1    2    0    0  0.00000000000E+00  0.00000000000E+00 -0.81545044041E+03  0.33976929546E+04  0.32983871806E+04 0.  0.
        3    1    3    3  502    0 -0.48806916852E+03 -0.11584147997E+04  0.69198526431E+03  0.14349146239E+04  0.10100000352E+00 0. -1.
       -3    1    3    3    0  502  0.48806916852E+03  0.11584147997E+04 -0.15074357047E+04  0.19627783307E+04  0.10100000352E+00 0.  1.
</event>
<event>
 5   0  0.9181760E-08  0.3300003E+04  0.7818609E-02  0.8162895E-01
       -1   -1    0    0    0  501  0.00000000000E+00  0.00000000000E+00  0.14902403809E+04  0.14902403809E+04  0.50400001928E-02 0. -1.
        1   -1    0    0  501    0  0.00000000000E+00  0.00000000000E+00 -0.18268897321E+04  0.18268897322E+04  0.50400001928E-02 0.  1.
    10030    2    1    2    0    0  0.00000000000E+00  0.00000000000E+00 -0.33664935129E+03  0.33171301130E+04  0.33000029395E+04 0.  0.
        1    1    3    3  502    0  0.13175314556E+04  0.90439600809E+03 -0.58116734517E+03  0.17004636894E+04  0.50400001928E-02 0. -1.
       -1    1    3    3    0  502 -0.13175314556E+04 -0.90439600809E+03  0.24451799388E+03  0.16166664236E+04  0.50400001928E-02 0.  1.
</event>
<event>
 5   0  0.2727168E-07  0.3306875E+04  0.7818609E-02  0.8161148E-01
        2   -1    0    0  501    0  0.00000000000E+00  0.00000000000E+00  0.24808596320E+04  0.24808596320E+04  0.25500000920E-02 0. -1.
       -2   -1    0    0    0  501  0.00000000000E+00  0.00000000000E+00 -0.11019794581E+04  0.11019794581E+04  0.25500000920E-02 0.  1.
    10030    2    1    2    0    0  0.00000000000E+00  0.00000000000E+00  0.13788801739E+04  0.35828390901E+04  0.33068754756E+04 0.  0.
        2    1    3    3  502    0 -0.54944942170E+03  0.70456585703E+03  0.21967810695E+04  0.23715300507E+04  0.25500000920E-02 0. -1.
       -2    1    3    3    0  502  0.54944942170E+03 -0.70456585703E+03 -0.81790089561E+03  0.12113090394E+04  0.25500000920E-02 0.  1.
</event>
<event>
 5   0  0.8805125E-08  0.3290213E+04  0.7818609E-02  0.8165390E-01
       -1   -1    0    0    0  501  0.00000000000E+00  0.00000000000E+00  0.28028765535E+04  0.28028765535E+04  0.50400001928E-02 0.  1.
        1   -1    0    0  501    0  0.00000000000E+00  0.00000000000E+00 -0.96557063901E+03  0.96557063902E+03  0.50400001928E-02 0. -1.
    10030    2    1    2    0    0  0.00000000000E+00  0.00000000000E+00  0.18373059145E+04  0.37684471925E+04  0.32902129444E+04 0.  0.
        4    1    3    3  502    0 -0.94685488077E+03  0.97484572783E+03  0.19805080191E+04  0.24019308868E+04  0.12699999809E+01 0.  1.
       -4    1    3    3    0  502  0.94685488077E+03 -0.97484572783E+03 -0.14320210456E+03  0.13665163058E+04  0.12699999809E+01 0. -1.
</event>
<event>
 5   0  0.9181760E-08  0.3291326E+04  0.7818609E-02  0.8165106E-01
       -1   -1    0    0    0  501  0.00000000000E+00  0.00000000000E+00  0.17580214295E+04  0.17580214295E+04  0.50400001928E-02 0.  1.
        1   -1    0    0  501    0  0.00000000000E+00  0.00000000000E+00 -0.15404852467E+04  0.15404852467E+04  0.50400001928E-02 0. -1.
    10030    2    1    2    0    0  0.00000000000E+00  0.00000000000E+00  0.21753618279E+03  0.32985066763E+04  0.32913256148E+04 0.  0.
        1    1    3    3  502    0  0.50434732153E+03 -0.15644253408E+04  0.28510859263E+02  0.16439603818E+04  0.50400001928E-02 0.  1.
       -1    1    3    3    0  502 -0.50434732153E+03  0.15644253408E+04  0.18902532352E+03  0.16545462945E+04  0.50400001928E-02 0. -1.
</event>
<event>
 5   0  0.9454010E-08  0.3298696E+04  0.7818609E-02  0.8163227E-01
        1   -1    0    0  501    0  0.00000000000E+00  0.00000000000E+00  0.14834432340E+04  0.14834432340E+04  0.50400001928E-02 0. -1.
       -1   -1    0    0    0  501  0.00000000000E+00  0.00000000000E+00 -0.18338066759E+04  0.18338066759E+04  0.50400001928E-02 0.  1.
    10030    2    1    2    0    0  0.00000000000E+00  0.00000000000E+00 -0.35036344192E+03  0.33172499099E+04  0.32986955639E+04 0.  0.
        2    1    3    3  502    0 -0.26198447910E+03 -0.78563984110E+03 -0.16095573913E+04  0.18101217702E+04  0.25500000920E-02 0.  1.
       -2    1    3    3    0  502  0.26198447910E+03  0.78563984110E+03  0.12591939494E+04  0.15071281397E+04  0.25500000920E-02 0. -1.
</event>
<event>
 5   0  0.9810351E-08  0.3284879E+04  0.7818609E-02  0.8166754E-01
        1   -1    0    0  501    0  0.00000000000E+00  0.00000000000E+00  0.27367270675E+04  0.27367270675E+04  0.50400001928E-02 0. -1.
       -1   -1    0    0    0  501  0.00000000000E+00  0.00000000000E+00 -0.98570586956E+03  0.98570586957E+03  0.50400001928E-02 0.  1.
    10030    2    1    2    0    0  0.00000000000E+00  0.00000000000E+00  0.17510211980E+04  0.37224329371E+04  0.32848792574E+04 0.  0.
        5    1    3    3  502    0  0.15964605533E+04 -0.37933279580E+03  0.95568957562E+03  0.18989324167E+04  0.46999998093E+01 0. -1.
       -5    1    3    3    0  502 -0.15964605533E+04  0.37933279580E+03  0.79533162235E+03  0.18235005204E+04  0.46999998093E+01 0.  1.
</event>
<event>
 5   0  0.2713815E-07  0.3341241E+04  0.7818609E-02  0.8152480E-01
       -2   -1    0    0    0  501  0.00000000000E+00  0.00000000000E+00  0.11042065378E+04  0.11042065378E+04  0.25500000920E-02 0. -1.
        2   -1    0    0  501    0  0.00000000000E+00  0.00000000000E+00 -0.25275821404E+04  0.25275821404E+04  0.25500000920E-02 0.  1.
    10030    2    1    2    0    0  0.00000000000E+00  0.00000000000E+00 -0.14233756026E+04  0.36317886782E+04  0.33412409218E+04 0.  0.
        4    1    3    3  502    0 -0.61415760886E+03  0.56272158829E+03 -0.22857614064E+04  0.24328074265E+04  0.12699999809E+01 0.  1.
       -4    1    3    3    0  502  0.61415760886E+03 -0.56272158829E+03  0.86238580382E+03  0.11989812517E+04  0.12699999809E+01 0. -1.
</event>
<event>
 5   0  0.2713815E-07  0.3298404E+04  0.7818609E-02  0.8163302E-01
       -2   -1    0    0    0  501  0.00000000000E+00  0.00000000000E+00  0.12172327308E+04  0.12172327308E+04  0.25500000920E-02 0.  1.
        2   -1    0    0  501    0  0.00000000000E+00  0.00000000000E+00 -0.22344681973E+04  0.22344681973E+04  0.25500000920E-02 0. -1.
    10030    2    1    2    0    0  0.00000000000E+00  0.00000000000E+00 -0.10172354665E+04  0.34517009282E+04  0.32984043571E+04 0.  0.
        4    1    3    3  502    0 -0.79664161852E+02 -0.89966180757E+03  0.93541615966E+03  0.13002856422E+04  0.12699999809E+01 0.  1.
       -4    1    3    3    0  502  0.79664161852E+02  0.89966180757E+03 -0.19526516262E+04  0.21514152860E+04  0.12699999809E+01 0. -1.
</event>
<event>
 5   0  0.9454010E-08  0.3249807E+04  0.7818609E-02  0.8175786E-01
       -1   -1    0    0    0  501  0.00000000000E+00  0.00000000000E+00  0.28429390566E+04  0.28429390566E+04  0.50400001928E-02 0.  1.
        1   -1    0    0  501    0  0.00000000000E+00  0.00000000000E+00 -0.92872618749E+03  0.92872618750E+03  0.50400001928E-02 0. -1.
    10030    2    1    2    0    0  0.00000000000E+00  0.00000000000E+00  0.19142128691E+04  0.37716652441E+04  0.32498073490E+04 0.  0.
        2    1    3    3  502    0  0.17978195619E+03  0.96485314796E+03  0.24600697270E+04  0.26486234558E+04  0.25500000920E-02 0.  1.
       -2    1    3    3    0  502 -0.17978195619E+03 -0.96485314796E+03 -0.54585685792E+03  0.11230417883E+04  0.25500000920E-02 0. -1.
</event>
<event>
 5   0  0.2713815E-07  0.3297958E+04  0.7818609E-02  0.8163415E-01
       -2   -1    0    0    0  501  0.00000000000E+00  0.00000000000E+00  0.15725210725E+04  0.15725210725E+04  0.25500000920E-02 0. -1.
        2   -1    0    0  501    0  0.00000000000E+00  0.00000000000E+00 -0.17291539224E+04  0.17291539224E+04  0.25500000920E-02 0.  1.
    10030    2    1    2    0    0  0.00000000000E+00  0.00000000000E+00 -0.15663284982E+03  0.33016749949E+04  0.32979575380E+04 0.  0.
        4    1    3    3  502    0  0.93371939217E+03  0.16296560843E+03  0.12725524299E+04  0.15867517111E+04  0.12699999809E+01 0. -1.
       -4    1    3    3    0  502 -0.93371939217E+03 -0.16296560843E+03 -0.14291852797E+04  0.17149232839E+04  0.12699999809E+01 0.  1.
</event>
<event>
 5   0  0.2824402E-07  0.3298154E+04  0.7818609E-02  0.8163365E-01
        2   -1    0    0  501    0  0.00000000000E+00  0.00000000000E+00  0.10870582850E+04  0.10870582850E+04  0.25500000920E-02 0. -1.
       -2   -1    0    0    0  501  0.00000000000E+00  0.00000000000E+00 -0.25016645672E+04  0.25016645672E+04  0.25500000920E-02 0.  1.
    10030    2    1    2    0    0  0.00000000000E+00  0.00000000000E+00 -0.14146062822E+04  0.35887228522E+04  0.32981541469E+04 0.  0.
        1    1    3    3  502    0 -0.20805024532E+02  0.14656515982E+03  0.10798139067E+04  0.10899138811E+04  0.50400001928E-02 0. -1.
       -1    1    3    3    0  502  0.20805024532E+02 -0.14656515982E+03 -0.24944201889E+04  0.24988089711E+04  0.50400001928E-02 0.  1.
</event>
<event>
 5   0  0.2713815E-07  0.3274132E+04  0.7818609E-02  0.8169509E-01
        2   -1    0    0  501    0  0.00000000000E+00  0.00000000000E+00  0.33154699375E+04  0.33154699375E+04  0.25500000920E-02 0. -1.
       -2   -1    0    0    0  501  0.00000000000E+00  0.00000000000E+00 -0.80832759443E+03  0.80832759443E+03  0.25500000920E-02 0.  1.
    10030    2    1    2    0    0  0.00000000000E+00  0.00000000000E+00  0.25071423431E+04  0.41237975319E+04  0.32741324585E+04 0.  0.
        4    1    3    3  502    0  0.10439533241E+04 -0.31556747043E+03  0.27912875363E+04  0.29967831244E+04  0.12699999809E+01 0. -1.
       -4    1    3    3    0  502 -0.10439533241E+04  0.31556747043E+03 -0.28414519321E+03  0.11270144076E+04  0.12699999809E+01 0.  1.
</event>
<event>
 5   0  0.9810351E-08  0.3283759E+04  0.7818609E-02  0.8167040E-01
        1   -1    0    0  501    0  0.00000000000E+00  0.00000000000E+00  0.10483570481E+04  0.10483570481E+04  0.50400001928E-02 0.  1.
       -1   -1    0    0    0  501  0.00000000000E+00  0.00000000000E+00 -0.25714222822E+04  0.25714222822E+04  0.50400001928E-02 0. -1.
    10030    2    1    2    0    0  0.00000000000E+00  0.00000000000E+00 -0.15230652341E+04  0.36197793303E+04  0.32837592318E+04 0.  0.
        5    1    3    3  502    0 -0.15522747731E+04  0.20962129077E+03 -0.21898062660E+03  0.15816044580E+04  0.46999998093E+01 0.  1.
       -5    1    3    3    0  502  0.15522747731E+04 -0.20962129077E+03 -0.13040846075E+04  0.20381748723E+04  0.46999998093E+01 0. -1.
</event>
<event>
 5   0  0.2703956E-07  0.3294093E+04  0.7818609E-02  0.8164400E-01
       -2   -1    0    0    0  501  0.00000000000E+00  0.00000000000E+00  0.16320001483E+04  0.16320001483E+04  0.25500000920E-02 0. -1.
        2   -1    0    0  501    0  0.00000000000E+00  0.00000000000E+00 -0.16622312723E+04  0.16622312723E+04  0.25500000920E-02 0.  1.
    10030    2    1    2    0    0  0.00000000000E+00  0.00000000000E+00 -0.30231123949E+02  0.32942314206E+04  0.32940927024E+04 0.  0.
        5    1    3    3  502    0 -0.14960695039E+04  0.45744132887E+02  0.67224380266E+03  0.16408078213E+04  0.46999998093E+01 0. -1.
       -5    1    3    3    0  502  0.14960695039E+04 -0.45744132887E+02 -0.70247492661E+03  0.16534235993E+04  0.46999998093E+01 0.  1.
</event>
<event>
 5   0  0.9810351E-08  0.3295548E+04  0.7818609E-02  0.8164029E-01
       -1   -1    0    0    0  501  0.00000000000E+00  0.00000000000E+00  0.11056365920E+04  0.11056365920E+04  0.50400001928E-02 0.  1.
        1   -1    0    0  501    0  0.00000000000E+00  0.00000000000E+00 -0.24557426535E+04  0.24557426535E+04  0.50400001928E-02 0. -1.
    10030    2    1    2    0    0  0.00000000000E+00  0.00000000000E+00 -0.13501060615E+04  0.35613792455E+04  0.32955478684E+04 0.  0.
        5    1    3    3  502    0  0.14213144458E+04 -0.33240225608E+03 -0.15012562486E+04  0.20939002907E+04  0.46999998093E+01 0. -1.
       -5    1    3    3    0  502 -0.14213144458E+04  0.33240225608E+03  0.15115018707E+03  0.14674789548E+04  0.46999998093E+01 0.  1.
</event>
<event>
 5   0  0.9283910E-08  0.3278913E+04  0.7818609E-02  0.8168282E-01
       -1   -1    0    0    0  501  0.00000000000E+00  0.00000000000E+00  0.14242518519E+04  0.14242518520E+04  0.50400001928E-02 0. -1.
        1   -1    0    0  501    0  0.00000000000E+00  0.00000000000E+00 -0.18871789840E+04  0.18871789840E+04  0.50400001928E-02 0.  1.
    10030    2    1    2    0    0  0.00000000000E+00  0.00000000000E+00 -0.46292713206E+03  0.33114308360E+04  0.32789133340E+04 0.  0.
        3    1    3    3  502    0  0.15603315465E+04  0.45486715487E+03 -0.14203439165E+02  0.16253431673E+04  0.10100000352E+00 0. -1.
       -3    1    3    3    0  502 -0.15603315465E+04 -0.45486715487E+03 -0.44872369290E+03  0.16860876687E+04  0.10100000352E+00 0.  1.
</event>
<event>
 5   0  0.2703956E-07  0.3301982E+04  0.7818609E-02  0.8162391E-01
        2   -1    0    0  501    0  0.00000000000E+00  0.00000000000E+00  0.15072220612E+04  0.15072220612E+04  0.25500000920E-02 0.  1.
       -2   -1    0    0    0  501  0.00000000000E+00  0.00000000000E+00 -0.18084731173E+04  0.18084731173E+04  0.25500000920E-02 0. -1.
    10030    2    1    2    0    0  0.00000000000E+00  0.00000000000E+00 -0.30125105607E+03  0.33156951786E+04  0.33019815745E+04 0.  0.
        5    1    3    3  502    0 -0.47008963758E+03  0.19775922032E+03  0.14261364976E+04  0.15145891775E+04  0.46999998093E+01 0.  1.
       -5    1    3    3    0  502  0.47008963758E+03 -0.19775922032E+03 -0.17273875537E+04  0.18011060011E+04  0.46999998093E+01 0. -1.
</event>
<event>
 5   0  0.9181760E-08  0.3298521E+04  0.7818609E-02  0.8163272E-01
        1   -1    0    0  501    0  0.00000000000E+00  0.00000000000E+00  0.18644425593E+04  0.18644425593E+04  0.50400001928E-02 0.  1.
       -1   -1    0    0    0  501  0.00000000000E+00  0.00000000000E+00 -0.14589129510E+04  0.14589129510E+04  0.50400001928E-02 0. -1.
    10030    2    1    2    0    0  0.00000000000E+00  0.00000000000E+00  0.40552960828E+03  0.33233555102E+04  0.32985205144E+04 0.  0.
        1    1    3    3  502    0 -0.15824085236E+04  0.24788599480E+03  0.59891110665E+03  0.17100171682E+04  0.50400001928E-02 0.  1.
       -1    1    3    3    0  502  0.15824085236E+04 -0.24788599480E+03 -0.19338149836E+03  0.16133383420E+04  0.50400001928E-02 0. -1.
</event>
<event>
 5   0  0.8805125E-08  0.3295809E+04  0.7818609E-02  0.8163962E-01
       -1   -1    0    0    0  501  0.00000000000E+00  0.00000000000E+00  0.14750515193E+04  0.14750515193E+04  0.50400001928E-02 0.  1.
        1   -1    0    0  501    0  0.00000000000E+00  0.00000000000E+00 -0.18410136191E+04  0.18410136191E+04  0.50400001928E-02 0. -1.
    10030    2    1    2    0    0  0.00000000000E+00  0.00000000000E+00 -0.36596209985E+03  0.33160651385E+04  0.32958094217E+04 0.  0.
        4    1    3    3  502    0  0.13029928729E+04 -0.65494707413E+03  0.58909562999E+03  0.15728259188E+04  0.12699999809E+01 0.  1.
       -4    1    3    3    0  502 -0.13029928729E+04  0.65494707413E+03 -0.95505772984E+03  0.17432392196E+04  0.12699999809E+01 0. -1.
</event>
<event>
 5   0  0.9810351E-08  0.3295835E+04  0.7818609E-02  0.8163956E-01
       -1   -1    0    0    0  501  0.00000000000E+00  0.00000000000E+00  0.14319709619E+04  0.14319709619E+04  0.50400001928E-02 0.  1.
        1   -1    0    0  501    0  0.00000000000E+00  0.00000000000E+00 -0.18964292698E+04  0.18964292698E+04  0.50400001928E-02 0. -1.
    10030    2    1    2    0    0  0.00000000000E+00  0.00000000000E+00 -0.46445830790E+03  0.33284002318E+04  0.32958347324E+04 0.  0.
        5    1    3    3  502    0  0.48378728614E+03 -0.12817742506E+04  0.69257808449E+03  0.15351488074E+04  0.46999998093E+01 0.  1.
       -5    1    3    3    0  502 -0.48378728614E+03  0.12817742506E+04 -0.11570363924E+04  0.17932514244E+04  0.46999998093E+01 0. -1.
</event>
<event>
 5   0  0.9181760E-08  0.3280468E+04  0.7818609E-02  0.8167883E-01
       -1   -1    0    0    0  501  0.00000000000E+00  0.00000000000E+00  0.97168238685E+03  0.97168238686E+03  0.50400001928E-02 0.  1.
        1   -1    0    0  501    0  0.00000000000E+00  0.00000000000E+00 -0.27687728996E+04  0.27687728996E+04  0.50400001928E-02 0. -1.
    10030    2    1    2    0    0  0.00000000000E+00  0.00000000000E+00 -0.17970905127E+04  0.37404552865E+04  0.32804681737E+04 0.  0.
        1    1    3    3  502    0 -0.98415299967E+03 -0.12798393428E+04 -0.56842846056E+03  0.17116240198E+04  0.50400001928E-02 0.  1.
       -1    1    3    3    0  502  0.98415299967E+03  0.12798393428E+04 -0.12286620522E+04  0.20288312667E+04  0.50400001928E-02 0. -1.
</event>
<event>
 5   0  0.9181760E-08  0.3301688E+04  0.7818609E-02  0.8162466E-01
        1   -1    0    0  501    0  0.00000000000E+00  0.00000000000E+00  0.13043365028E+04  0.13043365028E+04  0.50400001928E-02 0. -1.
       -1   -1    0    0    0  501  0.00000000000E+00  0.00000000000E+00 -0.20894045631E+04  0.20894045631E+04  0.50400001928E-02 0.  1.
    10030    2    1    2    0    0  0.00000000000E+00  0.00000000000E+00 -0.78506806023E+03  0.33937410659E+04  0.33016884413E+04 0.  0.
        1    1    3    3  502    0 -0.97283977398E+03 -0.57750734044E+03 -0.16282817899E+04  0.19827338554E+04  0.50400001928E-02 0.  1.
       -1    1    3    3    0  502  0.97283977398E+03  0.57750734044E+03  0.84321372967E+03  0.14110072105E+04  0.50400001928E-02 0. -1.
</event>
<event>
 5   0  0.2713815E-07  0.3292892E+04  0.7818609E-02  0.8164706E-01
        2   -1    0    0  501    0  0.00000000000E+00  0.00000000000E+00  0.22182663804E+04  0.22182663804E+04  0.25500000920E-02 0. -1.
       -2   -1    0    0    0  501  0.00000000000E+00  0.00000000000E+00 -0.12220284036E+04  0.12220284036E+04  0.25500000920E-02 0.  1.
    10030    2    1    2    0    0  0.00000000000E+00  0.00000000000E+00  0.99623797681E+03  0.34402947840E+04  0.32928920563E+04 0.  0.
        4    1    3    3  502    0 -0.48115780745E+03  0.57381905473E+03 -0.10338062494E+04  0.12765336335E+04  0.12699999809E+01 0.  1.
       -4    1    3    3    0  502  0.48115780745E+03 -0.57381905473E+03  0.20300442262E+04  0.21637611505E+04  0.12699999809E+01 0. -1.
</event>
<event>
 5   0  0.8805125E-08  0.3297795E+04  0.7818609E-02  0.8163457E-01
       -1   -1    0    0    0  501  0.00000000000E+00  0.00000000000E+00  0.10233505538E+04  0.10233505538E+04  0.50400001928E-02 0. -1.
        1   -1    0    0  501    0  0.00000000000E+00  0.00000000000E+00 -0.26568249397E+04  0.26568249397E+04  0.50400001928E-02 0.  1.
    10030    2    1    2    0    0  0.00000000000E+00  0.00000000000E+00 -0.16334743859E+04  0.36801754935E+04  0.32977951867E+04 0.  0.
        4    1    3    3  502    0 -0.79425627141E+03  0.43547867079E+03 -0.23543113705E+04  0.25225519499E+04  0.12699999809E+01 0.  1.
       -4    1    3    3    0  502  0.79425627141E+03 -0.43547867079E+03  0.72083698466E+03  0.11576235436E+04  0.12699999809E+01 0. -1.
</event>
<event>
 5   0  0.9181760E-08  0.3293295E+04  0.7818609E-02  0.8164604E-01
        1   -1    0    0  501    0  0.00000000000E+00  0.00000000000E+00  0.18778348612E+04  0.18778348612E+04  0.50400001928E-02 0. -1.
       -1   -1    0    0    0  501  0.00000000000E+00  0.00000000000E+00 -0.14439226805E+04  0.14439226805E+04  0.50400001928E-02 0.  1.
    10030    2    1    2    0    0  0.00000000000E+00  0.00000000000E+00  0.43391218069E+03  0.33217575417E+04  0.32932952169E+04 0.  0.
        1    1    3    3  502    0  0.74210752031E+03 -0.89278162962E+03  0.13948094650E+04  0.18147385634E+04  0.50400001928E-02 0. -1.
       -1    1    3    3    0  502 -0.74210752031E+03  0.89278162962E+03 -0.96089728434E+03  0.15070189783E+04  0.50400001928E-02 0.  1.
</event>
<event>
 5   0  0.9283910E-08  0.3317406E+04  0.7818609E-02  0.8158481E-01
        1   -1    0    0  501    0  0.00000000000E+00  0.00000000000E+00  0.12975863840E+04  0.12975863840E+04  0.50400001928E-02 0.  1.
       -1   -1    0    0    0  501  0.00000000000E+00  0.00000000000E+00 -0.21203177178E+04  0.21203177178E+04  0.50400001928E-02 0. -1.
    10030    2    1    2    0    0  0.00000000000E+00  0.00000000000E+00 -0.82273133379E+03  0.34179041018E+04  0.33174058542E+04 0.  0.
        3    1    3    3  502    0 -0.60812713580E+03 -0.14681382197E+04 -0.90121281888E+03  0.18268642534E+04  0.10100000352E+00 0. -1.
       -3    1    3    3    0  502  0.60812713580E+03  0.14681382197E+04  0.78481485097E+02  0.15910398484E+04  0.10100000352E+00 0.  1.
</event>
<event>
 5   0  0.9810351E-08  0.3276899E+04  0.7818609E-02  0.8168798E-01
       -1   -1    0    0    0  501  0.00000000000E+00  0.00000000000E+00  0.12485010115E+04  0.12485010115E+04  0.50400001928E-02 0.  1.
        1   -1    0    0  501    0  0.00000000000E+00  0.00000000000E+00 -0.21501919911E+04  0.21501919912E+04  0.50400001928E-02 0. -1.
    10030    2    1    2    0    0  0.00000000000E+00  0.00000000000E+00 -0.90169097968E+03  0.33986930026E+04  0.32768990682E+04 0.  0.
        5    1    3    3  502    0  0.16044490659E+04  0.31524592906E+03 -0.55892005302E+03  0.17280192466E+04  0.46999998093E+01 0. -1.
       -5    1    3    3    0  502 -0.16044490659E+04 -0.31524592906E+03 -0.34277092666E+03  0.16706737560E+04  0.46999998093E+01 0.  1.
</event>
<event>
 5   0  0.2713815E-07  0.3299726E+04  0.7818609E-02  0.8162965E-01
        2   -1    0    0  501    0  0.00000000000E+00  0.00000000000E+00  0.17757129334E+04  0.17757129334E+04  0.25500000920E-02 0. -1.
       -2   -1    0    0    0  501  0.00000000000E+00  0.00000000000E+00 -0.15329325911E+04  0.15329325911E+04  0.25500000920E-02 0.  1.
    10030    2    1    2    0    0  0.00000000000E+00  0.00000000000E+00  0.24278034228E+03  0.33086455245E+04  0.32997261875E+04 0.  0.
        4    1    3    3  502    0  0.14246623167E+04  0.17989255387E+03  0.93600390967E+03  0.17140971324E+04  0.12699999809E+01 0.  1.
       -4    1    3    3    0  502 -0.14246623167E+04 -0.17989255387E+03 -0.69322356739E+03  0.15945483921E+04  0.12699999809E+01 0. -1.
</event>
<event>
 5   0  0.9454010E-08  0.3306085E+04  0.7818609E-02  0.8161349E-01
       -1   -1    0    0    0  501  0.00000000000E+00  0.00000000000E+00  0.11236248235E+04  0.11236248235E+04  0.50400001928E-02 0. -1.
        1   -1    0    0  501    0  0.00000000000E+00  0.00000000000E+00 -0.24319059577E+04  0.24319059577E+04  0.50400001928E-02 0.  1.
    10030    2    1    2    0    0  0.00000000000E+00  0.00000000000E+00 -0.13082811342E+04  0.35555307813E+04  0.33060852394E+04 0.  0.
        2    1    3    3  502    0  0.32887807254E+03 -0.14534367073E+04 -0.14236032547E+04  0.20608942902E+04  0.25500000920E-02 0.  1.
       -2    1    3    3    0  502 -0.32887807254E+03  0.14534367073E+04  0.11532212045E+03  0.14946364910E+04  0.25500000920E-02 0. -1.
</event>
<event>
 5   0  0.8805125E-08  0.3296517E+04  0.7818609E-02  0.8163782E-01
       -1   -1    0    0    0  501  0.00000000000E+00  0.00000000000E+00  0.17269159947E+04  0.17269159947E+04  0.50400001928E-02 0.  1.
        1   -1    0    0  501    0  0.00000000000E+00  0.00000000000E+00 -0.15731834768E+04  0.15731834768E+04  0.50400001928E-02 0. -1.
    10030    2    1    2    0    0  0.00000000000E+00  0.00000000000E+00  0.15373251792E+03  0.33000994716E+04  0.32965167731E+04 0.  0.
        4    1    3    3  502    0 -0.64893691287E+03 -0.11989294781E+04  0.10042655863E+04  0.16932518983E+04  0.12699999809E+01 0.  1.
       -4    1    3    3    0  502  0.64893691287E+03  0.11989294781E+04 -0.85053306842E+03  0.16068475733E+04  0.12699999809E+01 0. -1.
</event>
<event>
 5   0  0.2713815E-07  0.3308856E+04  0.7818609E-02  0.8160646E-01
        2   -1    0    0  501    0  0.00000000000E+00  0.00000000000E+00  0.16168180859E+04  0.16168180859E+04  0.25500000920E-02 0. -1.
       -2   -1    0    0    0  501  0.00000000000E+00  0.00000000000E+00 -0.16929127106E+04  0.16929127106E+04  0.25500000920E-02 0.  1.
    10030    2    1    2    0    0  0.00000000000E+00  0.00000000000E+00 -0.76094624690E+02  0.33097307965E+04  0.33088559282E+04 0.  0.
        4    1    3    3  502    0  0.92867761796E+03 -0.11443083922E+04 -0.79007484184E+03  0.16721554004E+04  0.12699999809E+01 0.  1.
       -4    1    3    3    0  502 -0.92867761796E+03  0.11443083922E+04  0.71398021715E+03  0.16375753961E+04  0.12699999809E+01 0. -1.
</event>
<event>
 5   0  0.2703956E-07  0.3306424E+04  0.7818609E-02  0.8161263E-01
       -2   -1    0    0    0  501  0.00000000000E+00  0.00000000000E+00  0.24097399042E+04  0.24097399042E+04  0.25500000920E-02 0. -1.
        2   -1    0    0  501    0  0.00000000000E+00  0.00000000000E+00 -0.11341927664E+04  0.11341927664E+04  0.25500000920E-02 0.  1.
    10030    2    1    2    0    0  0.00000000000E+00  0.00000000000E+00  0.12755471377E+04  0.35439326706E+04  0.33064237891E+04 0.  0.
        5    1    3    3  502    0 -0.12546896686E+04 -0.61831607841E+03 -0.30673324960E+03  0.14320154726E+04  0.46999998093E+01 0.  1.
       -5    1    3    3    0  502  0.12546896686E+04  0.61831607841E+03  0.15822803873E+04  0.21119171980E+04  0.46999998093E+01 0. -1.
</event>
<event>
 5   0  0.8805125E-08  0.3305891E+04  0.7818609E-02  0.8161398E-01
       -1   -1    0    0    0  501  0.00000000000E+00  0.00000000000E+00  0.11872205400E+04  0.11872205401E+04  0.50400001928E-02 0.  1.
        1   -1    0    0  501    0  0.00000000000E+00  0.00000000000E+00 -0.23013652956E+04  0.23013652956E+04  0.50400001928E-02 0. -1.
    10030    2    1    2    0    0  0.00000000000E+00  0.00000000000E+00 -0.11141447556E+04  0.34885858357E+04  0.33058905905E+04 0.  0.
        4    1    3    3  502    0 -0.41751969992E+03  0.80615465631E+03  0.90057416918E+03  0.12787663887E+04  0.12699999809E+01 0.  1.
       -4    1    3    3    0  502  0.41751969992E+03 -0.80615465631E+03 -0.20147189247E+04  0.22098194470E+04  0.12699999809E+01 0. -1.
</event>
<event>
 5   0  0.2713815E-07  0.3309609E+04  0.7818609E-02  0.8160455E-01
        2   -1    0    0  501    0  0.00000000000E+00  0.00000000000E+00  0.22357087453E+04  0.22357087453E+04  0.25500000920E-02 0. -1.
       -2   -1    0    0    0  501  0.00000000000E+00  0.00000000000E+00 -0.12248365035E+04  0.12248365035E+04  0.25500000920E-02 0.  1.
    10030    2    1    2    0    0  0.00000000000E+00  0.00000000000E+00  0.10108722418E+04  0.34605452489E+04  0.33096088485E+04 0.  0.
        4    1    3    3  502    0  0.32052870484E+03 -0.41299742605E+03 -0.11362213200E+04  0.12507222015E+04  0.12699999809E+01 0.  1.
       -4    1    3    3    0  502 -0.32052870484E+03  0.41299742605E+03  0.21470935618E+04  0.22098230473E+04  0.12699999809E+01 0. -1.
</event>
<event>
 5   0  0.2875829E-07  0.3281066E+04  0.7818609E-02  0.8167730E-01
        2   -1    0    0  501    0  0.00000000000E+00  0.00000000000E+00  0.10527796456E+04  0.10527796456E+04  0.25500000920E-02 0. -1.
       -2   -1    0    0    0  501  0.00000000000E+00  0.00000000000E+00 -0.25564215471E+04  0.25564215471E+04  0.25500000920E-02 0.  1.
    10030    2    1    2    0    0  0.00000000000E+00  0.00000000000E+00 -0.15036419015E+04  0.36092011928E+04  0.32810660283E+04 0.  0.
        3    1    3    3  502    0  0.15143626460E+03  0.19785644565E+03  0.10318452657E+04  0.10615011907E+04  0.10100000352E+00 0. -1.
       -3    1    3    3    0  502 -0.15143626460E+03 -0.19785644565E+03 -0.25354871672E+04  0.25477000021E+04  0.10100000352E+00 0.  1.
</event>
<event>
 5   0  0.9810351E-08  0.3299202E+04  0.7818609E-02  0.8163099E-01
       -1   -1    0    0    0  501  0.00000000000E+00  0.00000000000E+00  0.18025258301E+04  0.18025258301E+04  0.50400001928E-02 0.  1.
        1   -1    0    0  501    0  0.00000000000E+00  0.00000000000E+00 -0.15096500010E+04  0.15096500010E+04  0.50400001928E-02 0. -1.
    10030    2    1    2    0    0  0.00000000000E+00  0.00000000000E+00  0.29287582911E+03  0.33121758310E+04  0.32992017950E+04 0.  0.
        5    1    3    3  502    0 -0.74617493781E+03  0.26768748746E+03 -0.13058771239E+04  0.15276684134E+04  0.46999998093E+01 0. -1.
       -5    1    3    3    0  502  0.74617493781E+03 -0.26768748746E+03  0.15987529530E+04  0.17845074176E+04  0.46999998093E+01 0.  1.
</event>
<event>
 5   0  0.2727168E-07  0.3305339E+04  0.7818609E-02  0.8161538E-01
       -2   -1    0    0    0  501  0.00000000000E+00  0.00000000000E+00  0.15132311424E+04  0.15132311424E+04  0.25500000920E-02 0.  1.
        2   -1    0    0  501    0  0.00000000000E+00  0.00000000000E+00 -0.18049569030E+04  0.18049569030E+04  0.25500000920E-02 0. -1.
    10030    2    1    2    0    0  0.00000000000E+00  0.00000000000E+00 -0.29172576060E+03  0.33181880454E+04  0.33053393147E+04 0.  0.
        2    1    3    3  502    0  0.91016209098E+02  0.59291329366E+03  0.14000866352E+04  0.15231784893E+04  0.25500000920E-02 0.  1.
       -2    1    3    3    0  502 -0.91016209098E+02 -0.59291329366E+03 -0.16918123958E+04  0.17950095562E+04  0.25500000920E-02 0. -1.
</event>
<event>
 5   0  0.8805125E-08  0.3301420E+04  0.7818609E-02  0.8162534E-01
        3   -1    0    0  501    0  0.00000000000E+00  0.00000000000E+00  0.98037413493E+03  0.98037414014E+03  0.10100000352E+00 0.  1.
       -3   -1    0    0    0  501  0.00000000000E+00  0.00000000000E+00 -0.27793916784E+04  0.27793916803E+04  0.10100000352E+00 0. -1.
    10030    2    1    2    0    0  0.00000000000E+00  0.00000000000E+00 -0.17990175435E+04  0.37597658204E+04  0.33014201342E+04 0.  0.
        3    1    3    3  502    0 -0.93410996775E+03 -0.90750695085E+03 -0.20545758403E+04  0.24325731626E+04  0.10100000352E+00 0. -1.
       -3    1    3    3    0  502  0.93410996775E+03  0.90750695085E+03  0.25555829678E+03  0.13271926578E+04  0.10100000352E+00 0.  1.
</event>
<event>
 5   0  0.2727168E-07  0.3306782E+04  0.7818609E-02  0.8161172E-01
       -2   -1    0    0    0  501  0.00000000000E+00  0.00000000000E+00  0.99658402359E+03  0.99658402360E+03  0.25500000920E-02 0.  1.
        2   -1    0    0  501    0  0.00000000000E+00  0.00000000000E+00 -0.27430720884E+04  0.27430720884E+04  0.25500000920E-02 0. -1.
    10030    2    1    2    0    0  0.00000000000E+00  0.00000000000E+00 -0.17464880648E+04  0.37396561120E+04  0.33067820121E+04 0.  0.
        2    1    3    3  502    0  0.29549313644E+03 -0.35332520122E+03 -0.26690509020E+04  0.27085028353E+04  0.25500000920E-02 0. -1.
       -2    1    3    3    0  502 -0.29549313644E+03  0.35332520122E+03  0.92256283717E+03  0.10311532767E+04  0.25500000920E-02 0.  1.
</event>
<event>
 5   0  0.9283910E-08  0.3319322E+04  0.7818609E-02  0.8157996E-01
       -1   -1    0    0    0  501  0.00000000000E+00  0.00000000000E+00  0.14109590029E+04  0.14109590029E+04  0.50400001928E-02 0. -1.
        1   -1    0    0  501    0  0.00000000000E+00  0.00000000000E+00 -0.19521998779E+04  0.19521998779E+04  0.50400001928E-02 0.  1.
    10030    2    1    2    0    0  0.00000000000E+00  0.00000000000E+00 -0.54124087503E+03  0.33631588808E+04  0.33193216133E+04 0.  0.
        3    1    3    3  502    0  0.87764053573E+02 -0.11623893782E+04 -0.14675869889E+04  0.18742100138E+04  0.10100000352E+00 0.  1.
       -3    1    3    3    0  502 -0.87764053573E+02  0.11623893782E+04  0.92634611384E+03  0.14889488670E+04  0.10100000352E+00 0. -1.
</event>
<event>
 5   0  0.2875829E-07  0.3295837E+04  0.7818609E-02  0.8163955E-01
       -2   -1    0    0    0  501  0.00000000000E+00  0.00000000000E+00  0.13909976593E+04  0.13909976593E+04  0.25500000920E-02 0. -1.
        2   -1    0    0  501    0  0.00000000000E+00  0.00000000000E+00 -0.19522934002E+04  0.19522934002E+04  0.25500000920E-02 0.  1.
    10030    2    1    2    0    0  0.00000000000E+00  0.00000000000E+00 -0.56129574095E+03  0.33432910595E+04  0.32958371015E+04 0.  0.
        3    1    3    3  502    0  0.10096699848E+04  0.13008494602E+04 -0.34474582179E+03  0.16824067547E+04  0.10100000352E+00 0. -1.
       -3    1    3    3    0  502 -0.10096699848E+04 -0.13008494602E+04 -0.21654991915E+03  0.16608843048E+04  0.10100000352E+00 0.  1.
</event>
<event>
 5   0  0.8805125E-08  0.3299266E+04  0.7818609E-02  0.8163082E-01
        1   -1    0    0  501    0  0.00000000000E+00  0.00000000000E+00  0.12901446260E+04  0.12901446260E+04  0.50400001928E-02 0. -1.
       -1   -1    0    0    0  501  0.00000000000E+00  0.00000000000E+00 -0.21092897111E+04  0.21092897111E+04  0.50400001928E-02 0.  1.
    10030    2    1    2    0    0  0.00000000000E+00  0.00000000000E+00 -0.81914508517E+03  0.33994343371E+04  0.32992658489E+04 0.  0.
        4    1    3    3  502    0  0.10820471790E+04  0.10426205776E+04  0.29183261654E+03  0.15307029939E+04  0.12699999809E+01 0. -1.
       -4    1    3    3    0  502 -0.10820471790E+04 -0.10426205776E+04 -0.11109777017E+04  0.18687313432E+04  0.12699999809E+01 0.  1.
</event>
<event>
 5   0  0.9181760E-08  0.3297785E+04  0.7818609E-02  0.8163459E-01
        1   -1    0    0  501    0  0.00000000000E+00  0.00000000000E+00  0.18677549888E+04  0.18677549888E+04  0.50400001928E-02 0.  1.
       -1   -1    0    0    0  501  0.00000000000E+00  0.00000000000E+00 -0.14556757723E+04  0.14556757723E+04  0.50400001928E-02 0. -1.
    10030    2    1    2    0    0  0.00000000000E+00  0.00000000000E+00  0.41207921657E+03  0.33234307611E+04  0.32977845204E+04 0.  0.
        1    1    3    3  502    0  0.14732588372E+03 -0.15735272210E+04 -0.26788650045E+03  0.16029522789E+04  0.50400001928E-02 0. -1.
       -1    1    3    3    0  502 -0.14732588372E+03  0.15735272210E+04  0.67996571702E+03  0.17204784822E+04  0.50400001928E-02 0.  1.
</event>
<event>
 5   0  0.2727168E-07  0.3294219E+04  0.7818609E-02  0.8164368E-01
        2   -1    0    0  501    0  0.00000000000E+00  0.00000000000E+00  0.29513476862E+04  0.29513476862E+04  0.25500000920E-02 0.  1.
       -2   -1    0    0    0  501  0.00000000000E+00  0.00000000000E+00 -0.91923057741E+03  0.91923057742E+03  0.25500000920E-02 0. -1.
    10030    2    1    2    0    0  0.00000000000E+00  0.00000000000E+00  0.20321171088E+04  0.38705782636E+04  0.32942185949E+04 0.  0.
        2    1    3    3  502    0  0.85204735798E+03  0.69954631098E+03  0.24539435526E+04  0.26902023531E+04  0.25500000920E-02 0.  1.
       -2    1    3    3    0  502 -0.85204735798E+03 -0.69954631098E+03 -0.42182644378E+03  0.11803759105E+04  0.25500000920E-02 0. -1.
</event>
<event>
 5   0  0.9810351E-08  0.3315449E+04  0.7818609E-02  0.8158976E-01
        1   -1    0    0  501    0  0.00000000000E+00  0.00000000000E+00  0.10996031610E+04  0.10996031610E+04  0.50400001928E-02 0.  1.
       -1   -1    0    0    0  501  0.00000000000E+00  0.00000000000E+00 -0.24991287739E+04  0.24991287739E+04  0.50400001928E-02 0. -1.
    10030    2    1    2    0    0  0.00000000000E+00  0.00000000000E+00 -0.13995256129E+04  0.35987319349E+04  0.33154486270E+04 0.  0.
        5    1    3    3  502    0  0.32058904461E+03  0.95285132663E+02  0.10625946563E+04  0.11139955501E+04  0.46999998093E+01 0.  1.
       -5    1    3    3    0  502 -0.32058904461E+03 -0.95285132663E+02 -0.24621202692E+04  0.24847363848E+04  0.46999998093E+01 0. -1.
</event>
<event>
 5   0  0.2713815E-07  0.3315861E+04  0.7818609E-02  0.8158871E-01
       -2   -1    0    0    0  501  0.00000000000E+00  0.00000000000E+00  0.13857195576E+04  0.13857195576E+04  0.25500000920E-02 0. -1.
        2   -1    0    0  501    0  0.00000000000E+00  0.00000000000E+00 -0.19836145731E+04  0.19836145731E+04  0.25500000920E-02 0.  1.
    10030    2    1    2    0    0  0.00000000000E+00  0.00000000000E+00 -0.59789501546E+03  0.33693341307E+04  0.33158609794E+04 0.  0.
        4    1    3    3  502    0 -0.85034423025E+03  0.34609758303E+03 -0.17017405793E+04  0.19335954745E+04  0.12699999809E+01 0.  1.
       -4    1    3    3    0  502  0.85034423025E+03 -0.34609758303E+03  0.11038455639E+04  0.14357386561E+04  0.12699999809E+01 0. -1.
</event>
<event>
 5   0  0.2875829E-07  0.3299234E+04  0.7818609E-02  0.8163090E-01
        2   -1    0    0  501    0  0.00000000000E+00  0.00000000000E+00  0.21680490881E+04  0.21680490881E+04  0.25500000920E-02 0.  1.
       -2   -1    0    0    0  501  0.00000000000E+00  0.00000000000E+00 -0.12551546012E+04  0.12551546012E+04  0.25500000920E-02 0. -1.
    10030    2    1    2    0    0  0.00000000000E+00  0.00000000000E+00  0.91289448690E+03  0.34232036892E+04  0.32992343284E+04 0.  0.
        3    1    3    3  502    0  0.48055272151E+03 -0.15659286091E+04  0.25372551883E+03  0.16575403392E+04  0.10100000352E+00 0.  1.
       -3    1    3    3    0  502 -0.48055272151E+03  0.15659286091E+04  0.65916896807E+03  0.17656633500E+04  0.10100000352E+00 0. -1.
</event>
<event>
 5   0  0.2703956E-07  0.3297214E+04  0.7818609E-02  0.8163605E-01
        2   -1    0    0  501    0  0.00000000000E+00  0.00000000000E+00  0.25929669197E+04  0.25929669197E+04  0.25500000920E-02 0. -1.
       -2   -1    0    0    0  501  0.00000000000E+00  0.00000000000E+00 -0.10481835355E+04  0.10481835355E+04  0.25500000920E-02 0.  1.
    10030    2    1    2    0    0  0.00000000000E+00  0.00000000000E+00  0.15447833842E+04  0.36411504552E+04  0.32972141171E+04 0.  0.
        5    1    3    3  502    0 -0.12195473538E+04  0.91657349124E+03  0.82324928083E+02  0.15278096075E+04  0.46999998093E+01 0.  1.
       -5    1    3    3    0  502  0.12195473538E+04 -0.91657349124E+03  0.14624584561E+04  0.21133408477E+04  0.46999998093E+01 0. -1.
</event>
<event>
 5   0  0.8805125E-08  0.3276510E+04  0.7818609E-02  0.8168898E-01
        1   -1    0    0  501    0  0.00000000000E+00  0.00000000000E+00  0.20507671338E+04  0.20507671339E+04  0.50400001928E-02 0.  1.
       -1   -1    0    0    0  501  0.00000000000E+00  0.00000000000E+00 -0.13087199649E+04  0.13087199649E+04  0.50400001928E-02 0. -1.
    10030    2    1    2    0    0  0.00000000000E+00  0.00000000000E+00  0.74204716895E+03  0.33594870988E+04  0.32765102725E+04 0.  0.
        4    1    3    3  502    0 -0.14844253425E+04  0.64301722620E+03  0.10584572367E+03  0.16211707747E+04  0.12699999809E+01 0.  1.
       -4    1    3    3    0  502  0.14844253425E+04 -0.64301722620E+03  0.63620144528E+03  0.17383163241E+04  0.12699999809E+01 0. -1.
</event>
<event>
 5   0  0.9283910E-08  0.3299213E+04  0.7818609E-02  0.8163096E-01
       -1   -1    0    0    0  501  0.00000000000E+00  0.00000000000E+00  0.14141602231E+04  0.14141602231E+04  0.50400001928E-02 0. -1.
        1   -1    0    0  501    0  0.00000000000E+00  0.00000000000E+00 -0.19242528433E+04  0.19242528433E+04  0.50400001928E-02 0.  1.
    10030    2    1    2    0    0  0.00000000000E+00  0.00000000000E+00 -0.51009262028E+03  0.33384130664E+04  0.32992131366E+04 0.  0.
        3    1    3    3  502    0 -0.21425955978E+03 -0.47294392632E+03 -0.18394146728E+04  0.19112900003E+04  0.10100000352E+00 0.  1.
       -3    1    3    3    0  502  0.21425955978E+03  0.47294392632E+03  0.13293220525E+04  0.14271230661E+04  0.10100000352E+00 0. -1.
</event>
<event>
 5   0  0.9810351E-08  0.3305723E+04  0.7818609E-02  0.8161441E-01
        1   -1    0    0  501    0  0.00000000000E+00  0.00000000000E+00  0.20936854300E+04  0.20936854300E+04  0.50400001928E-02 0.  1.
       -1   -1    0    0    0  501  0.00000000000E+00  0.00000000000E+00 -0.13048526622E+04  0.13048526622E+04  0.50400001928E-02 0. -1.
    10030    2    1    2    0    0  0.00000000000E+00  0.00000000000E+00  0.78883276777E+03  0.33985380922E+04  0.33057229208E+04 0.  0.
        5    1    3    3  502    0 -0.12773636837E+03  0.85297502989E+03 -0.10551526419E+04  0.13628103937E+04  0.46999998093E+01 0. -1.
       -5    1    3    3    0  502  0.12773636837E+03 -0.85297502989E+03  0.18439854097E+04  0.20357276985E+04  0.46999998093E+01 0.  1.
</event>
<event>
 5   0  0.2713815E-07  0.3295927E+04  0.7818609E-02  0.8163933E-01
        2   -1    0    0  501    0  0.00000000000E+00  0.00000000000E+00  0.27659848886E+04  0.27659848886E+04  0.25500000920E-02 0. -1.
       -2   -1    0    0    0  501  0.00000000000E+00  0.00000000000E+00 -0.98185052027E+03  0.98185052027E+03  0.25500000920E-02 0.  1.
    10030    2    1    2    0    0  0.00000000000E+00  0.00000000000E+00  0.17841343683E+04  0.37478354088E+04  0.32959270028E+04 0.  0.
        4    1    3    3  502    0 -0.23212225130E+03  0.11352235279E+04  0.22245600838E+04  0.25082428864E+04  0.12699999809E+01 0. -1.
       -4    1    3    3    0  502  0.23212225130E+03 -0.11352235279E+04 -0.44042571548E+03  0.12395925224E+04  0.12699999809E+01 0.  1.
</event>
<event>
 5   0  0.2824402E-07  0.3290012E+04  0.7818609E-02  0.8165441E-01
        2   -1    0    0  501    0  0.00000000000E+00  0.00000000000E+00  0.14657059321E+04  0.14657059321E+04  0.25500000920E-02 0.  1.
       -2   -1    0    0    0  501  0.00000000000E+00  0.00000000000E+00 -0.18462401347E+04  0.18462401347E+04  0.25500000920E-02 0. -1.
    10030    2    1    2    0    0  0.00000000000E+00  0.00000000000E+00 -0.38053420259E+03  0.33119460667E+04  0.32900122294E+04 0.  0.
        1    1    3    3  502    0  0.73442159292E+03  0.47415443512E+02 -0.16712726822E+04  0.18261368182E+04  0.50400001928E-02 0. -1.
       -1    1    3    3    0  502 -0.73442159292E+03 -0.47415443512E+02  0.12907384796E+04  0.14858092486E+04  0.50400001928E-02 0.  1.
</event>
<event>
 5   0  0.2703956E-07  0.3298983E+04  0.7818609E-02  0.8163154E-01
       -2   -1    0    0    0  501  0.00000000000E+00  0.00000000000E+00  0.12211834511E+04  0.12211834511E+04  0.25500000920E-02 0.  1.
        2   -1    0    0  501    0  0.00000000000E+00  0.00000000000E+00 -0.22280205006E+04  0.22280205006E+04  0.25500000920E-02 0. -1.
    10030    2    1    2    0    0  0.00000000000E+00  0.00000000000E+00 -0.10068370495E+04  0.34492039517E+04  0.32989827305E+04 0.  0.
        5    1    3    3  502    0  0.14035841369E+04  0.85702822876E+03 -0.63671451534E+03  0.17635116326E+04  0.46999998093E+01 0. -1.
       -5    1    3    3    0  502 -0.14035841369E+04 -0.85702822876E+03 -0.37012253418E+03  0.16856923191E+04  0.46999998093E+01 0.  1.
</event>
<event>
 5   0  0.2713815E-07  0.3296281E+04  0.7818609E-02  0.8163842E-01
        2   -1    0    0  501    0  0.00000000000E+00  0.00000000000E+00  0.17512939670E+04  0.17512939670E+04  0.25500000920E-02 0.  1.
       -2   -1    0    0    0  501  0.00000000000E+00  0.00000000000E+00 -0.15510633620E+04  0.15510633620E+04  0.25500000920E-02 0. -1.
    10030    2    1    2    0    0  0.00000000000E+00  0.00000000000E+00  0.20023060503E+03  0.33023573290E+04  0.32962814858E+04 0.  0.
        4    1    3    3  502    0 -0.94572130747E+03  0.12729575346E+04 -0.34966279723E+03  0.16239074361E+04  0.12699999809E+01 0. -1.
       -4    1    3    3    0  502  0.94572130747E+03 -0.12729575346E+04  0.54989340226E+03  0.16784498929E+04  0.12699999809E+01 0.  1.
</event>
<event>
 5   0  0.2727168E-07  0.3300762E+04  0.7818609E-02  0.8162701E-01
        2   -1    0    0  501    0  0.00000000000E+00  0.00000000000E+00  0.24902901765E+04  0.24902901765E+04  0.25500000920E-02 0.  1.
       -2   -1    0    0    0  501  0.00000000000E+00  0.00000000000E+00 -0.10937512556E+04  0.10937512556E+04  0.25500000920E-02 0. -1.
    10030    2    1    2    0    0  0.00000000000E+00  0.00000000000E+00  0.13965389210E+04  0.35840414321E+04  0.33007623406E+04 0.  0.
        2    1    3    3  502    0 -0.11469045512E+04  0.29711075437E+03  0.19458283520E+04  0.22781380172E+04  0.25500000920E-02 0.  1.
       -2    1    3    3    0  502  0.11469045512E+04 -0.29711075437E+03 -0.54928943106E+03  0.13059034149E+04  0.25500000920E-02 0. -1.
</event>
<event>
 5   0  0.2703956E-07  0.3297048E+04  0.7818609E-02  0.8163647E-01
       -2   -1    0    0    0  501  0.00000000000E+00  0.00000000000E+00  0.98638009542E+03  0.98638009543E+03  0.25500000920E-02 0. -1.
        2   -1    0    0  501    0  0.00000000000E+00  0.00000000000E+00 -0.27551566655E+04  0.27551566655E+04  0.25500000920E-02 0.  1.
    10030    2    1    2    0    0  0.00000000000E+00  0.00000000000E+00 -0.17687765700E+04  0.37415367609E+04  0.32970481917E+04 0.  0.
        5    1    3    3  502    0 -0.10733918812E+04  0.92482867639E+03 -0.18406881128E+04  0.23228501953E+04  0.46999998093E+01 0.  1.
       -5    1    3    3    0  502  0.10733918812E+04 -0.92482867639E+03  0.71911542777E+02  0.14186865656E+04  0.46999998093E+01 0. -1.
</event>
<event>
 5   0  0.2703956E-07  0.3309785E+04  0.7818609E-02  0.8160410E-01
        2   -1    0    0  501    0  0.00000000000E+00  0.00000000000E+00  0.20901930560E+04  0.20901930560E+04  0.25500000920E-02 0. -1.
       -2   -1    0    0    0  501  0.00000000000E+00  0.00000000000E+00 -0.13102467517E+04  0.13102467517E+04  0.25500000920E-02 0.  1.
    10030    2    1    2    0    0  0.00000000000E+00  0.00000000000E+00  0.77994630429E+03  0.34004398076E+04  0.33097846830E+04 0.  0.
        5    1    3    3  502    0  0.49225910359E+03  0.94938176788E+03 -0.90755246041E+03  0.14026112521E+04  0.46999998093E+01 0.  1.
       -5    1    3    3    0  502 -0.49225910359E+03 -0.94938176788E+03  0.16874987647E+04  0.19978285555E+04  0.46999998093E+01 0. -1.
</event>
<event>
 5   0  0.9454010E-08  0.3312184E+04  0.7818609E-02  0.8159802E-01
       -1   -1    0    0    0  501  0.00000000000E+00  0.00000000000E+00  0.30086512651E+04  0.30086512651E+04  0.50400001928E-02 0. -1.
        1   -1    0    0  501    0  0.00000000000E+00  0.00000000000E+00 -0.91158461441E+03  0.91158461442E+03  0.50400001928E-02 0.  1.
    10030    2    1    2    0    0  0.00000000000E+00  0.00000000000E+00  0.20970666507E+04  0.39202358795E+04  0.33121836926E+04 0.  0.
        2    1    3    3  502    0  0.11519992496E+04  0.16245224395E+03 -0.34645932229E+03  0.12138892308E+04  0.25500000920E-02 0.  1.
       -2    1    3    3    0  502 -0.11519992496E+04 -0.16245224395E+03  0.24435259729E+04  0.27063466487E+04  0.25500000920E-02 0. -1.
</event>
<event>
 5   0  0.9454010E-08  0.3290197E+04  0.7818609E-02  0.8165394E-01
        1   -1    0    0  501    0  0.00000000000E+00  0.00000000000E+00  0.17930915645E+04  0.17930915646E+04  0.50400001928E-02 0. -1.
       -1   -1    0    0    0  501  0.00000000000E+00  0.00000000000E+00 -0.15093202080E+04  0.15093202080E+04  0.50400001928E-02 0.  1.
    10030    2    1    2    0    0  0.00000000000E+00  0.00000000000E+00  0.28377135651E+03  0.33024117726E+04  0.32901971572E+04 0.  0.
        2    1    3    3  502    0  0.16238395100E+04 -0.26070665862E+03  0.10266867719E+03  0.16478360274E+04  0.25500000920E-02 0. -1.
       -2    1    3    3    0  502 -0.16238395100E+04  0.26070665862E+03  0.18110267933E+03  0.16545757452E+04  0.25500000920E-02 0.  1.
</event>
<event>
 5   0  0.9454010E-08  0.3302635E+04  0.7818609E-02  0.8162225E-01
        1   -1    0    0  501    0  0.00000000000E+00  0.00000000000E+00  0.22485577106E+04  0.22485577106E+04  0.50400001928E-02 0.  1.
       -1   -1    0    0    0  501  0.00000000000E+00  0.00000000000E+00 -0.12127104200E+04  0.12127104200E+04  0.50400001928E-02 0. -1.
    10030    2    1    2    0    0  0.00000000000E+00  0.00000000000E+00  0.10358472906E+04  0.34612681306E+04  0.33026349272E+04 0.  0.
        2    1    3    3  502    0 -0.14230149110E+04  0.76416288053E+03  0.87783237882E+03  0.18383432841E+04  0.25500000920E-02 0.  1.
       -2    1    3    3    0  502  0.14230149110E+04 -0.76416288053E+03  0.15801491177E+03  0.16229248465E+04  0.25500000920E-02 0. -1.
</event>
<event>
 5   0  0.9810351E-08  0.3306224E+04  0.7818609E-02  0.8161314E-01
       -1   -1    0    0    0  501  0.00000000000E+00  0.00000000000E+00  0.27704116932E+04  0.27704116933E+04  0.50400001928E-02 0.  1.
        1   -1    0    0  501    0  0.00000000000E+00  0.00000000000E+00 -0.98641623398E+03  0.98641623399E+03  0.50400001928E-02 0. -1.
    10030    2    1    2    0    0  0.00000000000E+00  0.00000000000E+00  0.17839954593E+04  0.37568279272E+04  0.33062238697E+04 0.  0.
        5    1    3    3  502    0 -0.10447428718E+04 -0.70662972670E+03 -0.32226146509E+03  0.13018017440E+04  0.46999998093E+01 0. -1.
       -5    1    3    3    0  502  0.10447428718E+04  0.70662972670E+03  0.21062569244E+04  0.24550261832E+04  0.46999998093E+01 0.  1.
</event>
<event>
 5   0  0.2875829E-07  0.3305502E+04  0.7818609E-02  0.8161497E-01
       -2   -1    0    0    0  501  0.00000000000E+00  0.00000000000E+00  0.14222789410E+04  0.14222789410E+04  0.25500000920E-02 0. -1.
        2   -1    0    0  501    0  0.00000000000E+00  0.00000000000E+00 -0.19205692567E+04  0.19205692567E+04  0.25500000920E-02 0.  1.
    10030    2    1    2    0    0  0.00000000000E+00  0.00000000000E+00 -0.49829031571E+03  0.33428481977E+04  0.33055016010E+04 0.  0.
        3    1    3    3  502    0 -0.16576099451E+03 -0.98039881598E+03  0.10859703456E+04  0.14724096398E+04  0.10100000352E+00 0. -1.
       -3    1    3    3    0  502  0.16576099451E+03  0.98039881598E+03 -0.15842606613E+04  0.18704385579E+04  0.10100000352E+00 0.  1.
</event>
<event>
 5   0  0.9283910E-08  0.3296929E+04  0.7818609E-02  0.8163677E-01
       -1   -1    0    0    0  501  0.00000000000E+00  0.00000000000E+00  0.16407798464E+04  0.16407798464E+04  0.50400001928E-02 0.  1.
        1   -1    0    0  501    0  0.00000000000E+00  0.00000000000E+00 -0.16561853523E+04  0.16561853523E+04  0.50400001928E-02 0. -1.
    10030    2    1    2    0    0  0.00000000000E+00  0.00000000000E+00 -0.15405505911E+02  0.32969651987E+04  0.32969292064E+04 0.  0.
        3    1    3    3  502    0 -0.12577493186E+04  0.10083530872E+04  0.33686775237E+03  0.16468725481E+04  0.10100000352E+00 0.  1.
       -3    1    3    3    0  502  0.12577493186E+04 -0.10083530872E+04 -0.35227325828E+03  0.16500926506E+04  0.10100000352E+00 0. -1.
</event>
<event>
 5   0  0.9454010E-08  0.3301746E+04  0.7818609E-02  0.8162451E-01
       -1   -1    0    0    0  501  0.00000000000E+00  0.00000000000E+00  0.15583805871E+04  0.15583805872E+04  0.50400001928E-02 0. -1.
        1   -1    0    0  501    0  0.00000000000E+00  0.00000000000E+00 -0.17488544581E+04  0.17488544581E+04  0.50400001928E-02 0.  1.
    10030    2    1    2    0    0  0.00000000000E+00  0.00000000000E+00 -0.19047387091E+03  0.33072350452E+04  0.33017455003E+04 0.  0.
        2    1    3    3  502    0 -0.10924781235E+04  0.97264835800E+03  0.67142935052E+03  0.16094628456E+04  0.25500000920E-02 0. -1.
       -2    1    3    3    0  502  0.10924781235E+04 -0.97264835800E+03 -0.86190322143E+03  0.16977721996E+04  0.25500000920E-02 0.  1.
</event>
<event>
 5   0  0.9810351E-08  0.3301109E+04  0.7818609E-02  0.8162613E-01
       -1   -1    0    0    0  501  0.00000000000E+00  0.00000000000E+00  0.10425218368E+04  0.10425218368E+04  0.50400001928E-02 0. -1.
        1   -1    0    0  501    0  0.00000000000E+00  0.00000000000E+00 -0.26132115857E+04  0.26132115857E+04  0.50400001928E-02 0.  1.
    10030    2    1    2    0    0  0.00000000000E+00  0.00000000000E+00 -0.15706897488E+04  0.36557334225E+04  0.33011089908E+04 0.  0.
        5    1    3    3  502    0  0.10372167035E+03 -0.24957006069E+03  0.10178439069E+04  0.10531247357E+04  0.46999998093E+01 0. -1.
       -5    1    3    3    0  502 -0.10372167035E+03  0.24957006069E+03 -0.25885336557E+04  0.26026086868E+04  0.46999998093E+01 0.  1.
</event>
<event>
 5   0  0.2727168E-07  0.3301944E+04  0.7818609E-02  0.8162401E-01
        2   -1    0    0  501    0  0.00000000000E+00  0.00000000000E+00  0.13958692144E+04  0.13958692144E+04  0.25500000920E-02 0. -1.
       -2   -1    0    0    0  501  0.00000000000E+00  0.00000000000E+00 -0.19526960458E+04  0.19526960458E+04  0.25500000920E-02 0.  1.
    10030    2    1    2    0    0  0.00000000000E+00  0.00000000000E+00 -0.55682683135E+03  0.33485652602E+04  0.33019438490E+04 0.  0.
        2    1    3    3  502    0 -0.13041673734E+04  0.95403436661E+03 -0.62183051427E+03  0.17313888353E+04  0.25500000920E-02 0.  1.
       -2    1    3    3    0  502  0.13041673734E+04 -0.95403436661E+03  0.65003682918E+02  0.16171764249E+04  0.25500000920E-02 0. -1.
</event>
<event>
 5   0  0.2713815E-07  0.3303783E+04  0.7818609E-02  0.8161934E-01
        2   -1    0    0  501    0  0.00000000000E+00  0.00000000000E+00  0.12903986442E+04  0.12903986442E+04  0.25500000920E-02 0. -1.
       -2   -1    0    0    0  501  0.00000000000E+00  0.00000000000E+00 -0.21146528549E+04  0.21146528549E+04  0.25500000920E-02 0.  1.
    10030    2    1    2    0    0  0.00000000000E+00  0.00000000000E+00 -0.82425421070E+03  0.34050514992E+04  0.33037827877E+04 0.  0.
        4    1    3    3  502    0 -0.80016227009E+03  0.33305940323E+03 -0.18614879395E+04  0.20533697150E+04  0.12699999809E+01 0. -1.
       -4    1    3    3    0  502  0.80016227009E+03 -0.33305940323E+03  0.10372337288E+04  0.13516817842E+04  0.12699999809E+01 0.  1.
</event>
<event>
 5   0  0.9283910E-08  0.3294353E+04  0.7818609E-02  0.8164334E-01
        1   -1    0    0  501    0  0.00000000000E+00  0.00000000000E+00  0.19074060391E+04  0.19074060391E+04  0.50400001928E-02 0.  1.
       -1   -1    0    0    0  501  0.00000000000E+00  0.00000000000E+00 -0.14224503472E+04  0.14224503472E+04  0.50400001928E-02 0. -1.
    10030    2    1    2    0    0  0.00000000000E+00  0.00000000000E+00  0.48495569191E+03  0.33298563863E+04  0.32943529760E+04 0.  0.
        3    1    3    3  502    0 -0.86389638726E+02 -0.56670646653E+03 -0.13183697526E+04  0.14376085015E+04  0.10100000352E+00 0. -1.
       -3    1    3    3    0  502  0.86389638726E+02  0.56670646653E+03  0.18033254445E+04  0.18922478849E+04  0.10100000352E+00 0.  1.
</event>
<event>
 5   0  0.2727168E-07  0.3294389E+04  0.7818609E-02  0.8164325E-01
       -2   -1    0    0    0  501  0.00000000000E+00  0.00000000000E+00  0.12744568639E+04  0.12744568639E+04  0.25500000920E-02 0. -1.
        2   -1    0    0  501    0  0.00000000000E+00  0.00000000000E+00 -0.21289455118E+04  0.21289455118E+04  0.25500000920E-02 0.  1.
    10030    2    1    2    0    0  0.00000000000E+00  0.00000000000E+00 -0.85448864785E+03  0.34034023757E+04  0.32943886962E+04 0.  0.
        2    1    3    3  502    0 -0.12141132457E+04 -0.11131429478E+04 -0.41738793231E+03  0.16992265540E+04  0.25500000920E-02 0. -1.
       -2    1    3    3    0  502  0.12141132457E+04  0.11131429478E+04 -0.43710071554E+03  0.17041758217E+04  0.25500000920E-02 0.  1.
</event>
<event>
 5   0  0.9810351E-08  0.3290222E+04  0.7818609E-02  0.8165388E-01
        1   -1    0    0  501    0  0.00000000000E+00  0.00000000000E+00  0.23982417458E+04  0.23982417458E+04  0.50400001928E-02 0.  1.
       -1   -1    0    0    0  501  0.00000000000E+00  0.00000000000E+00 -0.11284890470E+04  0.11284890470E+04  0.50400001928E-02 0. -1.
    10030    2    1    2    0    0  0.00000000000E+00  0.00000000000E+00  0.12697526988E+04  0.35267307928E+04  0.32902215987E+04 0.  0.
        5    1    3    3  502    0 -0.70674461534E+03 -0.71088269651E+03 -0.76331420974E+03  0.12599654092E+04  0.46999998093E+01 0. -1.
       -5    1    3    3    0  502  0.70674461534E+03  0.71088269651E+03  0.20330669086E+04  0.22667653836E+04  0.46999998093E+01 0.  1.
</event>
<event>
 5   0  0.8805125E-08  0.3296642E+04  0.7818609E-02  0.8163750E-01
        1   -1    0    0  501    0  0.00000000000E+00  0.00000000000E+00  0.92101014852E+03  0.92101014854E+03  0.50400001928E-02 0. -1.
       -1   -1    0    0    0  501  0.00000000000E+00  0.00000000000E+00 -0.29499814920E+04  0.29499814920E+04  0.50400001928E-02 0.  1.
    10030    2    1    2    0    0  0.00000000000E+00  0.00000000000E+00 -0.20289713434E+04  0.38709916405E+04  0.32966424690E+04 0.  0.
        4    1    3    3  502    0 -0.45811304815E+03  0.86218268240E+03 -0.25739197424E+04  0.27528695930E+04  0.12699999809E+01 0.  1.
       -4    1    3    3    0  502  0.45811304815E+03 -0.86218268240E+03  0.54494839897E+03  0.11181220475E+04  0.12699999809E+01 0. -1.
</event>
<event>
 5   0  0.8805125E-08  0.3301152E+04  0.7818609E-02  0.8162602E-01
        1   -1    0    0  501    0  0.00000000000E+00  0.00000000000E+00  0.15457325543E+04  0.15457325543E+04  0.50400001928E-02 0. -1.
       -1   -1    0    0    0  501  0.00000000000E+00  0.00000000000E+00 -0.17625306200E+04  0.17625306200E+04  0.50400001928E-02 0.  1.
    10030    2    1    2    0    0  0.00000000000E+00  0.00000000000E+00 -0.21679806567E+03  0.33082631743E+04  0.33011518943E+04 0.  0.
        4    1    3    3  502    0 -0.95790431196E+03 -0.45238171806E+03 -0.13768940533E+04  0.17372589722E+04  0.12699999809E+01 0.  1.
       -4    1    3    3    0  502  0.95790431196E+03  0.45238171806E+03  0.11600959876E+04  0.15710042021E+04  0.12699999809E+01 0. -1.
</event>
<event>
 5   0  0.9810351E-08  0.3301181E+04  0.7818609E-02  0.8162595E-01
       -1   -1    0    0    0  501  0.00000000000E+00  0.00000000000E+00  0.13277775954E+04  0.13277775954E+04  0.50400001928E-02 0. -1.
        1   -1    0    0  501    0  0.00000000000E+00  0.00000000000E+00 -0.20518868157E+04  0.20518868157E+04  0.50400001928E-02 0.  1.
    10030    2    1    2    0    0  0.00000000000E+00  0.00000000000E+00 -0.72410922033E+03  0.33796644112E+04  0.33011812082E+04 0.  0.
        5    1    3    3  502    0  0.10616908198E+04 -0.49812967824E+03  0.82706998104E+03  0.14350565901E+04  0.46999998093E+01 0. -1.
       -5    1    3    3    0  502 -0.10616908198E+04  0.49812967824E+03 -0.15511792014E+04  0.19446078211E+04  0.46999998093E+01 0.  1.
</event>
<event>
 5   0  0.9181760E-08  0.3229732E+04  0.7818609E-02  0.8181009E-01
       -1   -1    0    0    0  501  0.00000000000E+00  0.00000000000E+00  0.15135013649E+04  0.15135013649E+04  0.50400001928E-02 0. -1.
        1   -1    0    0  501    0  0.00000000000E+00  0.00000000000E+00 -0.17230198330E+04  0.17230198330E+04  0.50400001928E-02 0.  1.
    10030    2    1    2    0    0  0.00000000000E+00  0.00000000000E+00 -0.20951846804E+03  0.32365211979E+04  0.32297324156E+04 0.  0.
        1    1    3    3  502    0  0.50805977316E+03 -0.20200208360E+03 -0.16274475777E+04  0.17168328961E+04  0.50400001928E-02 0.  1.
       -1    1    3    3    0  502 -0.50805977316E+03  0.20200208360E+03  0.14179291096E+04  0.15196883019E+04  0.50400001928E-02 0. -1.
</event>
<event>
 5   0  0.2875829E-07  0.3314448E+04  0.7818609E-02  0.8159229E-01
        2   -1    0    0  501    0  0.00000000000E+00  0.00000000000E+00  0.13554158396E+04  0.13554158396E+04  0.25500000920E-02 0. -1.
       -2   -1    0    0    0  501  0.00000000000E+00  0.00000000000E+00 -0.20262350196E+04  0.20262350196E+04  0.25500000920E-02 0.  1.
    10030    2    1    2    0    0  0.00000000000E+00  0.00000000000E+00 -0.67081918002E+03  0.33816508593E+04  0.33144477914E+04 0.  0.
        3    1    3    3  502    0 -0.13655560646E+03 -0.11488869185E+04  0.87515632502E+03  0.14506850756E+04  0.10100000352E+00 0. -1.
       -3    1    3    3    0  502  0.13655560646E+03  0.11488869185E+04 -0.15459755050E+04  0.19309657836E+04  0.10100000352E+00 0.  1.
</event>
<event>
 5   0  0.2875829E-07  0.3295091E+04  0.7818609E-02  0.8164145E-01
        2   -1    0    0  501    0  0.00000000000E+00  0.00000000000E+00  0.17591181692E+04  0.17591181692E+04  0.25500000920E-02 0. -1.
       -2   -1    0    0    0  501  0.00000000000E+00  0.00000000000E+00 -0.15430497585E+04  0.15430497585E+04  0.25500000920E-02 0.  1.
    10030    2    1    2    0    0  0.00000000000E+00  0.00000000000E+00  0.21606841068E+03  0.33021679277E+04  0.32950914197E+04 0.  0.
        3    1    3    3  502    0 -0.15873889550E+04  0.28393750186E+03 -0.23030402529E+03  0.16289457185E+04  0.10100000352E+00 0.  1.
       -3    1    3    3    0  502  0.15873889550E+04 -0.28393750186E+03  0.44637243597E+03  0.16732222092E+04  0.10100000352E+00 0. -1.
</event>
<event>
 5   0  0.9810351E-08  0.3294027E+04  0.7818609E-02  0.8164417E-01
       -1   -1    0    0    0  501  0.00000000000E+00  0.00000000000E+00  0.20603828829E+04  0.20603828829E+04  0.50400001928E-02 0.  1.
        1   -1    0    0  501    0  0.00000000000E+00  0.00000000000E+00 -0.13165776062E+04  0.13165776062E+04  0.50400001928E-02 0. -1.
    10030    2    1    2    0    0  0.00000000000E+00  0.00000000000E+00  0.74380527670E+03  0.33769604892E+04  0.32940273004E+04 0.  0.
        5    1    3    3  502    0  0.12728972597E+04 -0.94829360942E+03 -0.78596588101E+02  0.15892538240E+04  0.46999998093E+01 0. -1.
       -5    1    3    3    0  502 -0.12728972597E+04  0.94829360942E+03  0.82240186480E+03  0.17877066652E+04  0.46999998093E+01 0.  1.
</event>
<event>
 5   0  0.9283910E-08  0.3300379E+04  0.7818609E-02  0.8162799E-01
       -1   -1    0    0    0  501  0.00000000000E+00  0.00000000000E+00  0.10186840841E+04  0.10186840841E+04  0.50400001928E-02 0.  1.
        1   -1    0    0  501    0  0.00000000000E+00  0.00000000000E+00 -0.26731791013E+04  0.26731791013E+04  0.50400001928E-02 0. -1.
    10030    2    1    2    0    0  0.00000000000E+00  0.00000000000E+00 -0.16544950172E+04  0.36918631855E+04  0.33003787689E+04 0.  0.
        3    1    3    3  502    0 -0.93494640924E+03 -0.11047189767E+04 -0.17141332760E+04  0.22433862137E+04  0.10100000352E+00 0. -1.
       -3    1    3    3    0  502  0.93494640924E+03  0.11047189767E+04  0.59638258739E+02  0.14484769718E+04  0.10100000352E+00 0.  1.
</event>
<event>
 5   0  0.9283910E-08  0.3295802E+04  0.7818609E-02  0.8163964E-01
       -1   -1    0    0    0  501  0.00000000000E+00  0.00000000000E+00  0.94784462043E+03  0.94784462044E+03  0.50400001928E-02 0.  1.
        1   -1    0    0  501    0  0.00000000000E+00  0.00000000000E+00 -0.28650035552E+04  0.28650035552E+04  0.50400001928E-02 0. -1.
    10030    2    1    2    0    0  0.00000000000E+00  0.00000000000E+00 -0.19171589347E+04  0.38128481756E+04  0.32958023043E+04 0.  0.
        3    1    3    3  502    0  0.22132312989E+03  0.28592863927E+03 -0.28185459371E+04  0.28416439475E+04  0.10100000352E+00 0. -1.
       -3    1    3    3    0  502 -0.22132312989E+03 -0.28592863927E+03  0.90138700234E+03  0.97120422814E+03  0.10100000352E+00 0.  1.
</event>
<event>
 5   0  0.2727168E-07  0.3302022E+04  0.7818609E-02  0.8162381E-01
       -2   -1    0    0    0  501  0.00000000000E+00  0.00000000000E+00  0.23812982904E+04  0.23812982904E+04  0.25500000920E-02 0.  1.
        2   -1    0    0  501    0  0.00000000000E+00  0.00000000000E+00 -0.11446851375E+04  0.11446851375E+04  0.25500000920E-02 0. -1.
    10030    2    1    2    0    0  0.00000000000E+00  0.00000000000E+00  0.12366131529E+04  0.35259834279E+04  0.33020216601E+04 0.  0.
        2    1    3    3  502    0  0.16954588593E+03 -0.31657802913E+03 -0.11024736050E+04  0.11594893297E+04  0.25500000920E-02 0. -1.
       -2    1    3    3    0  502 -0.16954588593E+03  0.31657802913E+03  0.23390867579E+04  0.23664940982E+04  0.25500000920E-02 0.  1.
</event>
<event>
 5   0  0.2727168E-07  0.3299098E+04  0.7818609E-02  0.8163125E-01
        2   -1    0    0  501    0  0.00000000000E+00  0.00000000000E+00  0.16952644360E+04  0.16952644360E+04  0.25500000920E-02 0.  1.
       -2   -1    0    0    0  501  0.00000000000E+00  0.00000000000E+00 -0.16050663692E+04  0.16050663692E+04  0.25500000920E-02 0. -1.
    10030    2    1    2    0    0  0.00000000000E+00  0.00000000000E+00  0.90198066770E+02  0.33003308052E+04  0.32990980180E+04 0.  0.
        2    1    3    3  502    0 -0.15433010210E+04 -0.57501370532E+03  0.13783281173E+03  0.16526998175E+04  0.25500000920E-02 0.  1.
       -2    1    3    3    0  502  0.15433010210E+04  0.57501370532E+03 -0.47634744962E+02  0.16476309877E+04  0.25500000920E-02 0. -1.
</event>
<event>
 5   0  0.8805125E-08  0.3301335E+04  0.7818609E-02  0.8162556E-01
       -1   -1    0    0    0  501  0.00000000000E+00  0.00000000000E+00  0.12101594050E+04  0.12101594050E+04  0.50400001928E-02 0. -1.
        1   -1    0    0  501    0  0.00000000000E+00  0.00000000000E+00 -0.22515245326E+04  0.22515245326E+04  0.50400001928E-02 0.  1.
    10030    2    1    2    0    0  0.00000000000E+00  0.00000000000E+00 -0.10413651275E+04  0.34616839376E+04  0.33013352382E+04 0.  0.
        4    1    3    3  502    0  0.93485554211E+03  0.33974221686E+03  0.86061695797E+03  0.13153109213E+04  0.12699999809E+01 0. -1.
       -4    1    3    3    0  502 -0.93485554211E+03 -0.33974221686E+03 -0.19019820855E+04  0.21463730163E+04  0.12699999809E+01 0.  1.
</event>
<event>
 5   0  0.2824402E-07  0.3302332E+04  0.7818609E-02  0.8162302E-01
       -2   -1    0    0    0  501  0.00000000000E+00  0.00000000000E+00  0.14785769023E+04  0.14785769023E+04  0.25500000920E-02 0.  1.
        2   -1    0    0  501    0  0.00000000000E+00  0.00000000000E+00 -0.18439003867E+04  0.18439003867E+04  0.25500000920E-02 0. -1.
    10030    2    1    2    0    0  0.00000000000E+00  0.00000000000E+00 -0.36532348442E+03  0.33224772890E+04  0.33023316138E+04 0.  0.
        1    1    3    3  502    0 -0.56717641739E+03  0.12107394648E+04  0.79215010156E+03  0.15540530633E+04  0.50400001928E-02 0.  1.
       -1    1    3    3    0  502  0.56717641739E+03 -0.12107394648E+04 -0.11574735860E+04  0.17684242258E+04  0.50400001928E-02 0. -1.
</event>
<event>
 5   0  0.2703956E-07  0.3299058E+04  0.7818609E-02  0.8163135E-01
        2   -1    0    0  501    0  0.00000000000E+00  0.00000000000E+00  0.22021782698E+04  0.22021782698E+04  0.25500000920E-02 0. -1.
       -2   -1    0    0    0  501  0.00000000000E+00  0.00000000000E+00 -0.12355700464E+04  0.12355700464E+04  0.25500000920E-02 0.  1.
    10030    2    1    2    0    0  0.00000000000E+00  0.00000000000E+00  0.96660822343E+03  0.34377483162E+04  0.32990577485E+04 0.  0.
        5    1    3    3  502    0 -0.84559398373E+03 -0.48516862383E+03  0.18698454347E+04  0.21087346487E+04  0.46999998093E+01 0. -1.
       -5    1    3    3    0  502  0.84559398373E+03  0.48516862383E+03 -0.90323721124E+03  0.13290136676E+04  0.46999998093E+01 0.  1.
</event>
<event>
 5   0  0.2703956E-07  0.3322386E+04  0.7818609E-02  0.8157223E-01
       -2   -1    0    0    0  501  0.00000000000E+00  0.00000000000E+00  0.20054039926E+04  0.20054039926E+04  0.25500000920E-02 0. -1.
        2   -1    0    0  501    0  0.00000000000E+00  0.00000000000E+00 -0.13760629956E+04  0.13760629956E+04  0.25500000920E-02 0.  1.
    10030    2    1    2    0    0  0.00000000000E+00  0.00000000000E+00  0.62934099706E+03  0.33814669882E+04  0.33223860254E+04 0.  0.
        5    1    3    3  502    0  0.14508204329E+04  0.15116692922E+03 -0.49432831434E+03  0.15401668550E+04  0.46999998093E+01 0.  1.
       -5    1    3    3    0  502 -0.14508204329E+04 -0.15116692922E+03  0.11236693114E+04  0.18413001331E+04  0.46999998093E+01 0. -1.
</event>
<event>
 5   0  0.2727168E-07  0.3299388E+04  0.7818609E-02  0.8163051E-01
        2   -1    0    0  501    0  0.00000000000E+00  0.00000000000E+00  0.19557036947E+04  0.19557036947E+04  0.25500000920E-02 0.  1.
       -2   -1    0    0    0  501  0.00000000000E+00  0.00000000000E+00 -0.13915660117E+04  0.13915660117E+04  0.25500000920E-02 0. -1.
    10030    2    1    2    0    0  0.00000000000E+00  0.00000000000E+00  0.56413768304E+03  0.33472697063E+04  0.32993883011E+04 0.  0.
        2    1    3    3  502    0 -0.35772498756E+03  0.12684633496E+04  0.12887003238E+04  0.18432891691E+04  0.25500000920E-02 0.  1.
       -2    1    3    3    0  502  0.35772498756E+03 -0.12684633496E+04 -0.72456264080E+03  0.15039805373E+04  0.25500000920E-02 0. -1.
</event>
<event>
 5   0  0.8805125E-08  0.3298657E+04  0.7818609E-02  0.8163237E-01
       -3   -1    0    0    0  501  0.00000000000E+00  0.00000000000E+00  0.26477207675E+04  0.26477207694E+04  0.10100000352E+00 0. -1.
        3   -1    0    0  501    0  0.00000000000E+00  0.00000000000E+00 -0.10274057978E+04  0.10274058028E+04  0.10100000352E+00 0.  1.
    10030    2    1    2    0    0  0.00000000000E+00  0.00000000000E+00  0.16203149697E+04  0.36751265721E+04  0.32986565023E+04 0.  0.
        4    1    3    3  502    0 -0.38257817102E+03  0.52181005710E+02  0.25966555847E+04  0.26252068019E+04  0.12699999809E+01 0. -1.
       -4    1    3    3    0  502  0.38257817102E+03 -0.52181005710E+02 -0.97634061509E+03  0.10499197702E+04  0.12699999809E+01 0.  1.
</event>
<event>
 5   0  0.2875829E-07  0.3294377E+04  0.7818609E-02  0.8164328E-01
       -2   -1    0    0    0  501  0.00000000000E+00  0.00000000000E+00  0.12715276379E+04  0.12715276379E+04  0.25500000920E-02 0.  1.
        2   -1    0    0  501    0  0.00000000000E+00  0.00000000000E+00 -0.21338343922E+04  0.21338343922E+04  0.25500000920E-02 0. -1.
    10030    2    1    2    0    0  0.00000000000E+00  0.00000000000E+00 -0.86230675437E+03  0.34053620301E+04  0.32943766660E+04 0.  0.
        3    1    3    3  502    0  0.13630262147E+04 -0.78188601746E+03  0.79496675299E+02  0.15733740616E+04  0.10100000352E+00 0.  1.
       -3    1    3    3    0  502 -0.13630262147E+04  0.78188601746E+03 -0.94180342966E+03  0.18319879685E+04  0.10100000352E+00 0. -1.
</event>
<event>
 5   0  0.9283910E-08  0.3308958E+04  0.7818609E-02  0.8160620E-01
        1   -1    0    0  501    0  0.00000000000E+00  0.00000000000E+00  0.20921897209E+04  0.20921897209E+04  0.50400001928E-02 0.  1.
       -1   -1    0    0    0  501  0.00000000000E+00  0.00000000000E+00 -0.13083421758E+04  0.13083421759E+04  0.50400001928E-02 0. -1.
    10030    2    1    2    0    0  0.00000000000E+00  0.00000000000E+00  0.78384754508E+03  0.34005318968E+04  0.33089575711E+04 0.  0.
        3    1    3    3  502    0 -0.10816967579E+04 -0.10408629991E+04 -0.32290975795E+03  0.15354915763E+04  0.10100000352E+00 0. -1.
       -3    1    3    3    0  502  0.10816967579E+04  0.10408629991E+04  0.11067573030E+04  0.18650403205E+04  0.10100000352E+00 0.  1.
</event>
<event>
 5   0  0.2713815E-07  0.3296393E+04  0.7818609E-02  0.8163814E-01
        2   -1    0    0  501    0  0.00000000000E+00  0.00000000000E+00  0.17927206566E+04  0.17927206566E+04  0.25500000920E-02 0. -1.
       -2   -1    0    0    0  501  0.00000000000E+00  0.00000000000E+00 -0.15153232354E+04  0.15153232354E+04  0.25500000920E-02 0.  1.
    10030    2    1    2    0    0  0.00000000000E+00  0.00000000000E+00  0.27739742116E+03  0.33080438920E+04  0.32963927348E+04 0.  0.
        4    1    3    3  502    0  0.33425692969E+03 -0.10815372664E+04  0.13408891250E+04  0.17548321322E+04  0.12699999809E+01 0. -1.
       -4    1    3    3    0  502 -0.33425692969E+03  0.10815372664E+04 -0.10634917039E+04  0.15532117598E+04  0.12699999809E+01 0.  1.
</event>
<event>
 5   0  0.8805125E-08  0.3296969E+04  0.7818609E-02  0.8163667E-01
       -1   -1    0    0    0  501  0.00000000000E+00  0.00000000000E+00  0.16787197808E+04  0.16787197808E+04  0.50400001928E-02 0. -1.
        1   -1    0    0  501    0  0.00000000000E+00  0.00000000000E+00 -0.16187936361E+04  0.16187936361E+04  0.50400001928E-02 0.  1.
    10030    2    1    2    0    0  0.00000000000E+00  0.00000000000E+00  0.59926144680E+02  0.32975134169E+04  0.32969688491E+04 0.  0.
        4    1    3    3  502    0  0.13306898291E+04 -0.19399748064E+03 -0.92367689742E+03  0.16314260840E+04  0.12699999809E+01 0.  1.
       -4    1    3    3    0  502 -0.13306898291E+04  0.19399748064E+03  0.98360304210E+03  0.16660873330E+04  0.12699999809E+01 0. -1.
</event>
<event>
 5   0  0.9181760E-08  0.3303517E+04  0.7818609E-02  0.8162001E-01
        1   -1    0    0  501    0  0.00000000000E+00  0.00000000000E+00  0.93399784020E+03  0.93399784022E+03  0.50400001928E-02 0. -1.
       -1   -1    0    0    0  501  0.00000000000E+00  0.00000000000E+00 -0.29211059732E+04  0.29211059732E+04  0.50400001928E-02 0.  1.
    10030    2    1    2    0    0  0.00000000000E+00  0.00000000000E+00 -0.19871081330E+04  0.38551038134E+04  0.33035173195E+04 0.  0.
        1    1    3    3  502    0 -0.67956533859E+03  0.19486314225E+03 -0.27356350495E+04  0.28255052322E+04  0.50400001928E-02 0.  1.
       -1    1    3    3    0  502  0.67956533859E+03 -0.19486314225E+03  0.74852691647E+03  0.10295985812E+04  0.50400001928E-02 0. -1.
</event>
<event>
 5   0  0.2703956E-07  0.3290218E+04  0.7818609E-02  0.8165389E-01
        2   -1    0    0  501    0  0.00000000000E+00  0.00000000000E+00  0.18040090479E+04  0.18040090479E+04  0.25500000920E-02 0. -1.
       -2   -1    0    0    0  501  0.00000000000E+00  0.00000000000E+00 -0.15002055065E+04  0.15002055065E+04  0.25500000920E-02 0.  1.
    10030    2    1    2    0    0  0.00000000000E+00  0.00000000000E+00  0.30380354134E+03  0.33042145544E+04  0.32902184167E+04 0.  0.
        5    1    3    3  502    0 -0.17172908896E+03  0.16357063891E+04  0.18860784686E+03  0.16554821900E+04  0.46999998093E+01 0. -1.
       -5    1    3    3    0  502  0.17172908896E+03 -0.16357063891E+04  0.11519569447E+03  0.16487323644E+04  0.46999998093E+01 0.  1.
</event>
<event>
 5   0  0.9810351E-08  0.3298995E+04  0.7818609E-02  0.8163151E-01
       -1   -1    0    0    0  501  0.00000000000E+00  0.00000000000E+00  0.12898285377E+04  0.12898285377E+04  0.50400001928E-02 0.  1.
        1   -1    0    0  501    0  0.00000000000E+00  0.00000000000E+00 -0.21094596502E+04  0.21094596502E+04  0.50400001928E-02 0. -1.
    10030    2    1    2    0    0  0.00000000000E+00  0.00000000000E+00 -0.81963111254E+03  0.33992881879E+04  0.32989945474E+04 0.  0.
        5    1    3    3  502    0 -0.56447194405E+02  0.11488538159E+04  0.80839932846E+03  0.14059100043E+04  0.46999998093E+01 0.  1.
       -5    1    3    3    0  502  0.56447194405E+02 -0.11488538159E+04 -0.16280304410E+04  0.19933781836E+04  0.46999998093E+01 0. -1.
</event>
<event>
 5   0  0.2875829E-07  0.3302646E+04  0.7818609E-02  0.8162223E-01
        2   -1    0    0  501    0  0.00000000000E+00  0.00000000000E+00  0.19881920245E+04  0.19881920245E+04  0.25500000920E-02 0.  1.
       -2   -1    0    0    0  501  0.00000000000E+00  0.00000000000E+00 -0.13715310605E+04  0.13715310605E+04  0.25500000920E-02 0. -1.
    10030    2    1    2    0    0  0.00000000000E+00  0.00000000000E+00  0.61666096394E+03  0.33597230850E+04  0.33026456764E+04 0.  0.
        3    1    3    3  502    0 -0.77952580769E+03 -0.19024062371E+02  0.17891122694E+04  0.19516518959E+04  0.10100000352E+00 0.  1.
       -3    1    3    3    0  502  0.77952580769E+03  0.19024062371E+02 -0.11724513055E+04  0.14080711892E+04  0.10100000352E+00 0. -1.
</event>
<event>
 5   0  0.2824402E-07  0.3296737E+04  0.7818609E-02  0.8163726E-01
       -2   -1    0    0    0  501  0.00000000000E+00  0.00000000000E+00  0.13073034767E+04  0.13073034767E+04  0.25500000920E-02 0.  1.
        2   -1    0    0  501    0  0.00000000000E+00  0.00000000000E+00 -0.20784152445E+04  0.20784152445E+04  0.25500000920E-02 0. -1.
    10030    2    1    2    0    0  0.00000000000E+00  0.00000000000E+00 -0.77111176776E+03  0.33857187212E+04  0.32967374631E+04 0.  0.
        1    1    3    3  502    0 -0.95193076416E+03  0.10690622168E+04  0.45385009702E+03  0.15016810959E+04  0.50400001928E-02 0.  1.
       -1    1    3    3    0  502  0.95193076416E+03 -0.10690622168E+04 -0.12249618648E+04  0.18840376253E+04  0.50400001928E-02 0. -1.
</event>
<event>
 5   0  0.9454010E-08  0.3298028E+04  0.7818609E-02  0.8163397E-01
        1   -1    0    0  501    0  0.00000000000E+00  0.00000000000E+00  0.23662826132E+04  0.23662826132E+04  0.50400001928E-02 0. -1.
       -1   -1    0    0    0  501  0.00000000000E+00  0.00000000000E+00 -0.11491640166E+04  0.11491640166E+04  0.50400001928E-02 0.  1.
    10030    2    1    2    0    0  0.00000000000E+00  0.00000000000E+00  0.12171185966E+04  0.35154466297E+04  0.32980277938E+04 0.  0.
        2    1    3    3  502    0  0.43764967864E+03  0.14312042068E+04  0.13465637050E+04  0.20132353400E+04  0.25500000920E-02 0. -1.
       -2    1    3    3    0  502 -0.43764967864E+03 -0.14312042068E+04 -0.12944510839E+03  0.15022112897E+04  0.25500000920E-02 0.  1.
</event>
<event>
 5   0  0.9454010E-08  0.3290335E+04  0.7818609E-02  0.8165359E-01
        1   -1    0    0  501    0  0.00000000000E+00  0.00000000000E+00  0.13327684526E+04  0.13327684526E+04  0.50400001928E-02 0.  1.
       -1   -1    0    0    0  501  0.00000000000E+00  0.00000000000E+00 -0.20307930171E+04  0.20307930172E+04  0.50400001928E-02 0. -1.
    10030    2    1    2    0    0  0.00000000000E+00  0.00000000000E+00 -0.69802456456E+03  0.33635614697E+04  0.32903354644E+04 0.  0.
        2    1    3    3  502    0 -0.19099523173E+03  0.16335675384E+04 -0.38932058423E+03  0.16901457329E+04  0.25500000920E-02 0. -1.
       -2    1    3    3    0  502  0.19099523173E+03 -0.16335675384E+04 -0.30870398033E+03  0.16734157369E+04  0.25500000920E-02 0.  1.
</event>
<event>
 5   0  0.2875829E-07  0.3283738E+04  0.7818609E-02  0.8167046E-01
        2   -1    0    0  501    0  0.00000000000E+00  0.00000000000E+00  0.15380812398E+04  0.15380812398E+04  0.25500000920E-02 0.  1.
       -2   -1    0    0    0  501  0.00000000000E+00  0.00000000000E+00 -0.17526603634E+04  0.17526603634E+04  0.25500000920E-02 0. -1.
    10030    2    1    2    0    0  0.00000000000E+00  0.00000000000E+00 -0.21457912355E+03  0.32907416032E+04  0.32837381288E+04 0.  0.
        3    1    3    3  502    0 -0.10197292297E+04  0.94549383437E+02  0.11787817238E+04  0.15615100545E+04  0.10100000352E+00 0.  1.
       -3    1    3    3    0  502  0.10197292297E+04 -0.94549383437E+02 -0.13933608474E+04  0.17292315487E+04  0.10100000352E+00 0. -1.
</event>
<event>
 5   0  0.2703956E-07  0.3297692E+04  0.7818609E-02  0.8163483E-01
        2   -1    0    0  501    0  0.00000000000E+00  0.00000000000E+00  0.21185977110E+04  0.21185977110E+04  0.25500000920E-02 0.  1.
       -2   -1    0    0    0  501  0.00000000000E+00  0.00000000000E+00 -0.12832515825E+04  0.12832515825E+04  0.25500000920E-02 0. -1.
    10030    2    1    2    0    0  0.00000000000E+00  0.00000000000E+00  0.83534612853E+03  0.34018492935E+04  0.32976924450E+04 0.  0.
        5    1    3    3  502    0  0.59161638796E+03  0.72414077860E+03  0.18186099800E+04  0.20449337806E+04  0.46999998093E+01 0.  1.
       -5    1    3    3    0  502 -0.59161638796E+03 -0.72414077860E+03 -0.98326385145E+03  0.13569155130E+04  0.46999998093E+01 0. -1.
</event>
<event>
 5   0  0.8805125E-08  0.3298726E+04  0.7818609E-02  0.8163220E-01
       -1   -1    0    0    0  501  0.00000000000E+00  0.00000000000E+00  0.14160645033E+04  0.14160645033E+04  0.50400001928E-02 0. -1.
        1   -1    0    0  501    0  0.00000000000E+00  0.00000000000E+00 -0.19210974055E+04  0.19210974055E+04  0.50400001928E-02 0.  1.
    10030    2    1    2    0    0  0.00000000000E+00  0.00000000000E+00 -0.50503290219E+03  0.33371619088E+04  0.32987257196E+04 0.  0.
        4    1    3    3  502    0  0.14246601511E+04  0.76753947295E+03  0.69981335804E+02  0.16197754131E+04  0.12699999809E+01 0.  1.
       -4    1    3    3    0  502 -0.14246601511E+04 -0.76753947295E+03 -0.57501423800E+03  0.17173864957E+04  0.12699999809E+01 0. -1.
</event>
<event>
 5   0  0.8805125E-08  0.3301238E+04  0.7818609E-02  0.8162580E-01
       -1   -1    0    0    0  501  0.00000000000E+00  0.00000000000E+00  0.13513877072E+04  0.13513877073E+04  0.50400001928E-02 0.  1.
        1   -1    0    0  501    0  0.00000000000E+00  0.00000000000E+00 -0.20161079333E+04  0.20161079333E+04  0.50400001928E-02 0. -1.
    10030    2    1    2    0    0  0.00000000000E+00  0.00000000000E+00 -0.66472022603E+03  0.33674956405E+04  0.33012382389E+04 0.  0.
        4    1    3    3  502    0  0.67824990083E+03  0.79411582839E+02 -0.18652557973E+04  0.19863307705E+04  0.12699999809E+01 0. -1.
       -4    1    3    3    0  502 -0.67824990083E+03 -0.79411582839E+02  0.12005355713E+04  0.13811648701E+04  0.12699999809E+01 0.  1.
</event>
<event>
 5   0  0.9181760E-08  0.3298160E+04  0.7818609E-02  0.8163364E-01
       -1   -1    0    0    0  501  0.00000000000E+00  0.00000000000E+00  0.12877977959E+04  0.12877977959E+04  0.50400001928E-02 0.  1.
        1   -1    0    0  501    0  0.00000000000E+00  0.00000000000E+00 -0.21117169685E+04  0.21117169685E+04  0.50400001928E-02 0. -1.
    10030    2    1    2    0    0  0.00000000000E+00  0.00000000000E+00 -0.82391917256E+03  0.33995147644E+04  0.32981597643E+04 0.  0.
        1    1    3    3  502    0  0.11634969747E+04 -0.74108585943E+03 -0.13433496068E+04  0.19254925674E+04  0.50400001928E-02 0. -1.
       -1    1    3    3    0  502 -0.11634969747E+04  0.74108585943E+03  0.51943043426E+03  0.14740221970E+04  0.50400001928E-02 0.  1.
</event>
<event>
 5   0  0.9181760E-08  0.3259677E+04  0.7818609E-02  0.8173232E-01
       -1   -1    0    0    0  501  0.00000000000E+00  0.00000000000E+00  0.97284901917E+03  0.97284901919E+03  0.50400001928E-02 0.  1.
        1   -1    0    0  501    0  0.00000000000E+00  0.00000000000E+00 -0.27305091458E+04  0.27305091458E+04  0.50400001928E-02 0. -1.
    10030    2    1    2    0    0  0.00000000000E+00  0.00000000000E+00 -0.17576601266E+04  0.37033581650E+04  0.32596767597E+04 0.  0.
        1    1    3    3  502    0 -0.55116641034E+03  0.61771536255E+03 -0.24738506986E+04  0.26086958351E+04  0.50400001928E-02 0. -1.
       -1    1    3    3    0  502  0.55116641034E+03 -0.61771536255E+03  0.71619057200E+03  0.10946623299E+04  0.50400001928E-02 0.  1.
</event>
<event>
 5   0  0.9454010E-08  0.3253770E+04  0.7818609E-02  0.8174759E-01
       -1   -1    0    0    0  501  0.00000000000E+00  0.00000000000E+00  0.91010094094E+03  0.91010094095E+03  0.50400001928E-02 0.  1.
        1   -1    0    0  501    0  0.00000000000E+00  0.00000000000E+00 -0.29081992243E+04  0.29081992243E+04  0.50400001928E-02 0. -1.
    10030    2    1    2    0    0  0.00000000000E+00  0.00000000000E+00 -0.19980982834E+04  0.38183001653E+04  0.32537700291E+04 0.  0.
        2    1    3    3  502    0 -0.16302240808E+03  0.23920135458E+03 -0.28777352861E+04  0.28922575906E+04  0.25500000920E-02 0. -1.
       -2    1    3    3    0  502  0.16302240808E+03 -0.23920135458E+03  0.87963700271E+03  0.92604257467E+03  0.25500000920E-02 0.  1.
</event>
<event>
 5   0  0.9810351E-08  0.3299590E+04  0.7818609E-02  0.8163000E-01
       -1   -1    0    0    0  501  0.00000000000E+00  0.00000000000E+00  0.13802676806E+04  0.13802676806E+04  0.50400001928E-02 0.  1.
        1   -1    0    0  501    0  0.00000000000E+00  0.00000000000E+00 -0.19719538510E+04  0.19719538510E+04  0.50400001928E-02 0. -1.
    10030    2    1    2    0    0  0.00000000000E+00  0.00000000000E+00 -0.59168617044E+03  0.33522215317E+04  0.32995903796E+04 0.  0.
        5    1    3    3  502    0 -0.33375294027E+03 -0.10422375500E+04 -0.15501008968E+04  0.18974944048E+04  0.46999998093E+01 0. -1.
       -5    1    3    3    0  502  0.33375294027E+03  0.10422375500E+04  0.95841472641E+03  0.14547271269E+04  0.46999998093E+01 0.  1.
</event>
<event>
 5   0  0.9454010E-08  0.3299928E+04  0.7818609E-02  0.8162914E-01
        1   -1    0    0  501    0  0.00000000000E+00  0.00000000000E+00  0.19675306469E+04  0.19675306470E+04  0.50400001928E-02 0.  1.
       -1   -1    0    0    0  501  0.00000000000E+00  0.00000000000E+00 -0.13836536833E+04  0.13836536833E+04  0.50400001928E-02 0. -1.
    10030    2    1    2    0    0  0.00000000000E+00  0.00000000000E+00  0.58387696366E+03  0.33511843302E+04  0.32999278941E+04 0.  0.
        2    1    3    3  502    0  0.33559093953E+03  0.76742141950E+03  0.17355758794E+04  0.19271171597E+04  0.25500000920E-02 0.  1.
       -2    1    3    3    0  502 -0.33559093953E+03 -0.76742141950E+03 -0.11516989158E+04  0.14240671706E+04  0.25500000920E-02 0. -1.
</event>
<event>
 5   0  0.2824402E-07  0.3292442E+04  0.7818609E-02  0.8164821E-01
        2   -1    0    0  501    0  0.00000000000E+00  0.00000000000E+00  0.14521758863E+04  0.14521758863E+04  0.25500000920E-02 0.  1.
       -2   -1    0    0    0  501  0.00000000000E+00  0.00000000000E+00 -0.18661946120E+04  0.18661946120E+04  0.25500000920E-02 0. -1.
    10030    2    1    2    0    0  0.00000000000E+00  0.00000000000E+00 -0.41401872572E+03  0.33183704983E+04  0.32924415345E+04 0.  0.
        1    1    3    3  502    0 -0.10599849522E+04 -0.39194747353E+03 -0.14134541547E+04  0.18097081445E+04  0.50400001928E-02 0. -1.
       -1    1    3    3    0  502  0.10599849522E+04  0.39194747353E+03  0.99943542901E+03  0.15086623537E+04  0.50400001928E-02 0.  1.
</event>
<event>
 5   0  0.2824402E-07  0.3300189E+04  0.7818609E-02  0.8162847E-01
        2   -1    0    0  501    0  0.00000000000E+00  0.00000000000E+00  0.18429640461E+04  0.18429640461E+04  0.25500000920E-02 0.  1.
       -2   -1    0    0    0  501  0.00000000000E+00  0.00000000000E+00 -0.14774088509E+04  0.14774088509E+04  0.25500000920E-02 0. -1.
    10030    2    1    2    0    0  0.00000000000E+00  0.00000000000E+00  0.36555519515E+03  0.33203728970E+04  0.33001887180E+04 0.  0.
        1    1    3    3  502    0  0.28054072804E+03  0.15275949153E+04  0.74346692580E+03  0.17219153275E+04  0.50400001928E-02 0.  1.
       -1    1    3    3    0  502 -0.28054072804E+03 -0.15275949153E+04 -0.37791173065E+03  0.15984575695E+04  0.50400001928E-02 0. -1.
</event>
<event>
 5   0  0.2727168E-07  0.3297922E+04  0.7818609E-02  0.8163424E-01
       -2   -1    0    0    0  501  0.00000000000E+00  0.00000000000E+00  0.14687977026E+04  0.14687977026E+04  0.25500000920E-02 0. -1.
        2   -1    0    0  501    0  0.00000000000E+00  0.00000000000E+00 -0.18512229419E+04  0.18512229419E+04  0.25500000920E-02 0.  1.
    10030    2    1    2    0    0  0.00000000000E+00  0.00000000000E+00 -0.38242523929E+03  0.33200206445E+04  0.32979217723E+04 0.  0.
        2    1    3    3  502    0 -0.10832813987E+04 -0.57383303664E+03  0.91903240306E+03  0.15321238529E+04  0.25500000920E-02 0.  1.
       -2    1    3    3    0  502  0.10832813987E+04  0.57383303664E+03 -0.13014576423E+04  0.17878967916E+04  0.25500000920E-02 0. -1.
</event>
<event>
 5   0  0.8805125E-08  0.3301355E+04  0.7818609E-02  0.8162551E-01
       -1   -1    0    0    0  501  0.00000000000E+00  0.00000000000E+00  0.76163855000E+03  0.76163855001E+03  0.50400001928E-02 0. -1.
        1   -1    0    0  501    0  0.00000000000E+00  0.00000000000E+00 -0.35774659308E+04  0.35774659308E+04  0.50400001928E-02 0.  1.
    10030    2    1    2    0    0  0.00000000000E+00  0.00000000000E+00 -0.28158273808E+04  0.43391044808E+04  0.33013548517E+04 0.  0.
        4    1    3    3  502    0 -0.52772411228E+02 -0.16386917486E+04 -0.11563323749E+04  0.20062905444E+04  0.12699999809E+01 0. -1.
       -4    1    3    3    0  502  0.52772411228E+02  0.16386917486E+04 -0.16594950058E+04  0.23328139363E+04  0.12699999809E+01 0.  1.
</event>
<event>
 5   0  0.8805125E-08  0.3298677E+04  0.7818609E-02  0.8163232E-01
       -1   -1    0    0    0  501  0.00000000000E+00  0.00000000000E+00  0.23775649758E+04  0.23775649758E+04  0.50400001928E-02 0.  1.
        1   -1    0    0  501    0  0.00000000000E+00  0.00000000000E+00 -0.11441608169E+04  0.11441608169E+04  0.50400001928E-02 0. -1.
    10030    2    1    2    0    0  0.00000000000E+00  0.00000000000E+00  0.12334041589E+04  0.35217257927E+04  0.32986765133E+04 0.  0.
        4    1    3    3  502    0 -0.13093757776E+04  0.61711904017E+03 -0.22733351934E+03  0.14652586730E+04  0.12699999809E+01 0. -1.
       -4    1    3    3    0  502  0.13093757776E+04 -0.61711904017E+03  0.14607376783E+04  0.20564671197E+04  0.12699999809E+01 0.  1.
</event>
<event>
 5   0  0.9181760E-08  0.3303834E+04  0.7818609E-02  0.8161921E-01
       -1   -1    0    0    0  501  0.00000000000E+00  0.00000000000E+00  0.30435981373E+04  0.30435981373E+04  0.50400001928E-02 0. -1.
        1   -1    0    0  501    0  0.00000000000E+00  0.00000000000E+00 -0.89658009764E+03  0.89658009765E+03  0.50400001928E-02 0.  1.
    10030    2    1    2    0    0  0.00000000000E+00  0.00000000000E+00  0.21470180396E+04  0.39401782349E+04  0.33038338427E+04 0.  0.
        1    1    3    3  502    0 -0.99539967991E+03  0.27085039299E+03 -0.46520891097E+03  0.11316358907E+04  0.50400001928E-02 0.  1.
       -1    1    3    3    0  502  0.99539967991E+03 -0.27085039299E+03  0.26122269506E+04  0.28085423443E+04  0.50400001928E-02 0. -1.
</event>
<event>
 5   0  0.9454010E-08  0.3290795E+04  0.7818609E-02  0.8165242E-01
       -1   -1    0    0    0  501  0.00000000000E+00  0.00000000000E+00  0.17178054532E+04  0.17178054532E+04  0.50400001928E-02 0. -1.
        1   -1    0    0  501    0  0.00000000000E+00  0.00000000000E+00 -0.15760415156E+04  0.15760415157E+04  0.50400001928E-02 0.  1.
    10030    2    1    2    0    0  0.00000000000E+00  0.00000000000E+00  0.14176393753E+03  0.32938469688E+04  0.32907948645E+04 0.  0.
        2    1    3    3  502    0 -0.78002632744E+03  0.45267409849E+03 -0.13066130885E+04  0.15876374505E+04  0.25500000920E-02 0.  1.
       -2    1    3    3    0  502  0.78002632744E+03 -0.45267409849E+03  0.14483770261E+04  0.17062095184E+04  0.25500000920E-02 0. -1.
</event>
<event>
 5   0  0.9454010E-08  0.3300498E+04  0.7818609E-02  0.8162769E-01
       -1   -1    0    0    0  501  0.00000000000E+00  0.00000000000E+00  0.14143514708E+04  0.14143514708E+04  0.50400001928E-02 0.  1.
        1   -1    0    0  501    0  0.00000000000E+00  0.00000000000E+00 -0.19254918235E+04  0.19254918235E+04  0.50400001928E-02 0. -1.
    10030    2    1    2    0    0  0.00000000000E+00  0.00000000000E+00 -0.51114035274E+03  0.33398432943E+04  0.33004982610E+04 0.  0.
        2    1    3    3  502    0  0.94753010000E+03 -0.95038429049E+03 -0.12273718627E+04  0.18186493008E+04  0.25500000920E-02 0. -1.
       -2    1    3    3    0  502 -0.94753010000E+03  0.95038429049E+03  0.71623150996E+03  0.15211939935E+04  0.25500000920E-02 0.  1.
</event>
<event>
 5   0  0.2875829E-07  0.3305192E+04  0.7818609E-02  0.8161576E-01
        2   -1    0    0  501    0  0.00000000000E+00  0.00000000000E+00  0.18952223970E+04  0.18952223970E+04  0.25500000920E-02 0.  1.
       -2   -1    0    0    0  501  0.00000000000E+00  0.00000000000E+00 -0.14410306728E+04  0.14410306728E+04  0.25500000920E-02 0. -1.
    10030    2    1    2    0    0  0.00000000000E+00  0.00000000000E+00  0.45419172419E+03  0.33362530698E+04  0.33051920403E+04 0.  0.
        3    1    3    3  502    0 -0.64927432014E+03 -0.13676349308E+04 -0.44177092232E+03  0.15770681674E+04  0.10100000352E+00 0. -1.
       -3    1    3    3    0  502  0.64927432014E+03  0.13676349308E+04  0.89596264651E+03  0.17591849024E+04  0.10100000352E+00 0.  1.
</event>
<event>
 5   0  0.2824402E-07  0.3302064E+04  0.7818609E-02  0.8162370E-01
       -2   -1    0    0    0  501  0.00000000000E+00  0.00000000000E+00  0.17808307097E+04  0.17808307097E+04  0.25500000920E-02 0. -1.
        2   -1    0    0  501    0  0.00000000000E+00  0.00000000000E+00 -0.15306940775E+04  0.15306940775E+04  0.25500000920E-02 0.  1.
    10030    2    1    2    0    0  0.00000000000E+00  0.00000000000E+00  0.25013663220E+03  0.33115247873E+04  0.33020642153E+04 0.  0.
        1    1    3    3  502    0  0.12556395260E+03  0.97554754763E+03 -0.12047956636E+04  0.15553108740E+04  0.50400001928E-02 0.  1.
       -1    1    3    3    0  502 -0.12556395260E+03 -0.97554754763E+03  0.14549322958E+04  0.17562139133E+04  0.50400001928E-02 0. -1.
</event>
<event>
 5   0  0.2875829E-07  0.3312056E+04  0.7818609E-02  0.8159835E-01
        2   -1    0    0  501    0  0.00000000000E+00  0.00000000000E+00  0.14082986179E+04  0.14082986179E+04  0.25500000920E-02 0.  1.
       -2   -1    0    0    0  501  0.00000000000E+00  0.00000000000E+00 -0.19473343528E+04  0.19473343528E+04  0.25500000920E-02 0. -1.
    10030    2    1    2    0    0  0.00000000000E+00  0.00000000000E+00 -0.53903573490E+03  0.33556329708E+04  0.33120557228E+04 0.  0.
        3    1    3    3  502    0  0.78566505996E+03  0.68785119018E+03  0.10327022262E+04  0.14686329509E+04  0.10100000352E+00 0.  1.
       -3    1    3    3    0  502 -0.78566505996E+03 -0.68785119018E+03 -0.15717379611E+04  0.18870000198E+04  0.10100000352E+00 0. -1.
</event>
<event>
 5   0  0.9181760E-08  0.3300968E+04  0.7818609E-02  0.8162649E-01
        1   -1    0    0  501    0  0.00000000000E+00  0.00000000000E+00  0.26582737525E+04  0.26582737525E+04  0.50400001928E-02 0. -1.
       -1   -1    0    0    0  501  0.00000000000E+00  0.00000000000E+00 -0.10247615378E+04  0.10247615378E+04  0.50400001928E-02 0.  1.
    10030    2    1    2    0    0  0.00000000000E+00  0.00000000000E+00  0.16335122148E+04  0.36830352903E+04  0.33009675542E+04 0.  0.
        1    1    3    3  502    0 -0.36380831804E+03  0.12332647362E+04 -0.33780908539E+03  0.13294410028E+04  0.50400001928E-02 0.  1.
       -1    1    3    3    0  502  0.36380831804E+03 -0.12332647362E+04  0.19713213001E+04  0.23535942875E+04  0.50400001928E-02 0. -1.
</event>
<event>
 5   0  0.2727168E-07  0.3302560E+04  0.7818609E-02  0.8162244E-01
       -2   -1    0    0    0  501  0.00000000000E+00  0.00000000000E+00  0.27507267924E+04  0.27507267924E+04  0.25500000920E-02 0.  1.
        2   -1    0    0  501    0  0.00000000000E+00  0.00000000000E+00 -0.99127473595E+03  0.99127473595E+03  0.25500000920E-02 0. -1.
    10030    2    1    2    0    0  0.00000000000E+00  0.00000000000E+00  0.17594520565E+04  0.37420015284E+04  0.33025602037E+04 0.  0.
        2    1    3    3  502    0 -0.86813950809E+03 -0.84094401514E+03  0.21545442842E+04  0.24704076819E+04  0.25500000920E-02 0.  1.
       -2    1    3    3    0  502  0.86813950809E+03  0.84094401514E+03 -0.39509222770E+03  0.12715938465E+04  0.25500000920E-02 0. -1.
</event>
<event>
 5   0  0.2727168E-07  0.3303410E+04  0.7818609E-02  0.8162028E-01
       -2   -1    0    0    0  501  0.00000000000E+00  0.00000000000E+00  0.99357803297E+03  0.99357803298E+03  0.25500000920E-02 0. -1.
        2   -1    0    0  501    0  0.00000000000E+00  0.00000000000E+00 -0.27457626225E+04  0.27457626225E+04  0.25500000920E-02 0.  1.
    10030    2    1    2    0    0  0.00000000000E+00  0.00000000000E+00 -0.17521845895E+04  0.37393406554E+04  0.33034100112E+04 0.  0.
        2    1    3    3  502    0  0.12133152078E+04  0.10679365752E+04 -0.12608053261E+04  0.20499396070E+04  0.25500000920E-02 0.  1.
       -2    1    3    3    0  502 -0.12133152078E+04 -0.10679365752E+04 -0.49137926343E+03  0.16894010485E+04  0.25500000920E-02 0. -1.
</event>
<event>
 5   0  0.9181760E-08  0.3292170E+04  0.7818609E-02  0.8164891E-01
       -1   -1    0    0    0  501  0.00000000000E+00  0.00000000000E+00  0.14963704271E+04  0.14963704272E+04  0.50400001928E-02 0. -1.
        1   -1    0    0  501    0  0.00000000000E+00  0.00000000000E+00 -0.18107785031E+04  0.18107785031E+04  0.50400001928E-02 0.  1.
    10030    2    1    2    0    0  0.00000000000E+00  0.00000000000E+00 -0.31440807591E+03  0.33071489302E+04  0.32921697417E+04 0.  0.
        1    1    3    3  502    0  0.11492131114E+04 -0.55632504915E+03 -0.12008763505E+04  0.17527955799E+04  0.50400001928E-02 0.  1.
       -1    1    3    3    0  502 -0.11492131114E+04  0.55632504915E+03  0.88646827458E+03  0.15543533503E+04  0.50400001928E-02 0. -1.
</event>
<event>
 5   0  0.8805125E-08  0.3303106E+04  0.7818609E-02  0.8162105E-01
       -1   -1    0    0    0  501  0.00000000000E+00  0.00000000000E+00  0.16918270695E+04  0.16918270695E+04  0.50400001928E-02 0. -1.
        1   -1    0    0  501    0  0.00000000000E+00  0.00000000000E+00 -0.16122377456E+04  0.16122377456E+04  0.50400001928E-02 0.  1.
    10030    2    1    2    0    0  0.00000000000E+00  0.00000000000E+00  0.79589323857E+02  0.33040648152E+04  0.33031060901E+04 0.  0.
        4    1    3    3  502    0 -0.16058163132E+04  0.32207605077E+02  0.42453922510E+03  0.16613002523E+04  0.12699999809E+01 0. -1.
       -4    1    3    3    0  502  0.16058163132E+04 -0.32207605077E+02 -0.34494990125E+03  0.16427645629E+04  0.12699999809E+01 0.  1.
</event>
<event>
 5   0  0.9810351E-08  0.3296584E+04  0.7818609E-02  0.8163765E-01
       -1   -1    0    0    0  501  0.00000000000E+00  0.00000000000E+00  0.10979949724E+04  0.10979949724E+04  0.50400001928E-02 0.  1.
        1   -1    0    0  501    0  0.00000000000E+00  0.00000000000E+00 -0.24743882089E+04  0.24743882089E+04  0.50400001928E-02 0. -1.
    10030    2    1    2    0    0  0.00000000000E+00  0.00000000000E+00 -0.13763932365E+04  0.35723831813E+04  0.32965835728E+04 0.  0.
        5    1    3    3  502    0  0.64106542512E+03  0.11305320879E+04  0.41041247867E+03  0.13629116529E+04  0.46999998093E+01 0.  1.
       -5    1    3    3    0  502 -0.64106542512E+03 -0.11305320879E+04 -0.17868057152E+04  0.22094715284E+04  0.46999998093E+01 0. -1.
</event>
<event>
 5   0  0.2713815E-07  0.3305032E+04  0.7818609E-02  0.8161616E-01
        2   -1    0    0  501    0  0.00000000000E+00  0.00000000000E+00  0.20431688987E+04  0.20431688987E+04  0.25500000920E-02 0. -1.
       -2   -1    0    0    0  501  0.00000000000E+00  0.00000000000E+00 -0.13365559994E+04  0.13365559994E+04  0.25500000920E-02 0.  1.
    10030    2    1    2    0    0  0.00000000000E+00  0.00000000000E+00  0.70661289929E+03  0.33797248980E+04  0.33050323140E+04 0.  0.
        4    1    3    3  502    0  0.18007605405E+03  0.16334774168E+04  0.53081567051E+03  0.17269750274E+04  0.12699999809E+01 0. -1.
       -4    1    3    3    0  502 -0.18007605405E+03 -0.16334774168E+04  0.17579722878E+03  0.16527498706E+04  0.12699999809E+01 0.  1.
</event>
<event>
 5   0  0.9810351E-08  0.3302104E+04  0.7818609E-02  0.8162360E-01
        1   -1    0    0  501    0  0.00000000000E+00  0.00000000000E+00  0.20608503272E+04  0.20608503272E+04  0.50400001928E-02 0.  1.
       -1   -1    0    0    0  501  0.00000000000E+00  0.00000000000E+00 -0.13227414213E+04  0.13227414213E+04  0.50400001928E-02 0. -1.
    10030    2    1    2    0    0  0.00000000000E+00  0.00000000000E+00  0.73810890592E+03  0.33835917486E+04  0.33021036271E+04 0.  0.
        5    1    3    3  502    0  0.11284517832E+04 -0.12051636664E+04  0.38060703521E+03  0.16943159962E+04  0.46999998093E+01 0. -1.
       -5    1    3    3    0  502 -0.11284517832E+04  0.12051636664E+04  0.35750187071E+03  0.16892757523E+04  0.46999998093E+01 0.  1.
</event>
<event>
 5   0  0.2824402E-07  0.3292931E+04  0.7818609E-02  0.8164696E-01
        2   -1    0    0  501    0  0.00000000000E+00  0.00000000000E+00  0.17476564534E+04  0.17476564534E+04  0.25500000920E-02 0.  1.
       -2   -1    0    0    0  501  0.00000000000E+00  0.00000000000E+00 -0.15511337672E+04  0.15511337672E+04  0.25500000920E-02 0. -1.
    10030    2    1    2    0    0  0.00000000000E+00  0.00000000000E+00  0.19652268613E+03  0.32987902206E+04  0.32929311796E+04 0.  0.
        1    1    3    3  502    0  0.13964255571E+04  0.31977730442E+03 -0.71471638216E+03  0.16009626379E+04  0.50400001928E-02 0. -1.
       -1    1    3    3    0  502 -0.13964255571E+04 -0.31977730442E+03  0.91123906829E+03  0.16978275827E+04  0.50400001928E-02 0.  1.
</event>
<event>
 5   0  0.9810351E-08  0.3299753E+04  0.7818609E-02  0.8162958E-01
       -1   -1    0    0    0  501  0.00000000000E+00  0.00000000000E+00  0.19660446500E+04  0.19660446500E+04  0.50400001928E-02 0. -1.
        1   -1    0    0  501    0  0.00000000000E+00  0.00000000000E+00 -0.13845523798E+04  0.13845523798E+04  0.50400001928E-02 0.  1.
    10030    2    1    2    0    0  0.00000000000E+00  0.00000000000E+00  0.58149227028E+03  0.33505970298E+04  0.32997525962E+04 0.  0.
        5    1    3    3  502    0 -0.95170092308E+03  0.16555684440E+03  0.16488625776E+04  0.19109980653E+04  0.46999998093E+01 0. -1.
       -5    1    3    3    0  502  0.95170092308E+03 -0.16555684440E+03 -0.10673703073E+04  0.14395989645E+04  0.46999998093E+01 0.  1.
</event>
<event>
 5   0  0.9283910E-08  0.3296663E+04  0.7818609E-02  0.8163745E-01
       -1   -1    0    0    0  501  0.00000000000E+00  0.00000000000E+00  0.15475534094E+04  0.15475534094E+04  0.50400001928E-02 0.  1.
        1   -1    0    0  501    0  0.00000000000E+00  0.00000000000E+00 -0.17556726114E+04  0.17556726114E+04  0.50400001928E-02 0. -1.
    10030    2    1    2    0    0  0.00000000000E+00  0.00000000000E+00 -0.20811920198E+03  0.33032260208E+04  0.32966632436E+04 0.  0.
        3    1    3    3  502    0 -0.24657200253E+03 -0.98320028970E+03  0.11983420315E+04  0.15695554137E+04  0.10100000352E+00 0.  1.
       -3    1    3    3    0  502  0.24657200253E+03  0.98320028970E+03 -0.14064612335E+04  0.17336706070E+04  0.10100000352E+00 0. -1.
</event>
<event>
 5   0  0.9283910E-08  0.3314935E+04  0.7818609E-02  0.8159106E-01
        1   -1    0    0  501    0  0.00000000000E+00  0.00000000000E+00  0.15626164211E+04  0.15626164211E+04  0.50400001928E-02 0. -1.
       -1   -1    0    0    0  501  0.00000000000E+00  0.00000000000E+00 -0.17580757776E+04  0.17580757776E+04  0.50400001928E-02 0.  1.
    10030    2    1    2    0    0  0.00000000000E+00  0.00000000000E+00 -0.19545935654E+03  0.33206921987E+04  0.33149347382E+04 0.  0.
        3    1    3    3  502    0 -0.13098881441E+04  0.35068678704E+03 -0.10524904517E+04  0.17165443000E+04  0.10100000352E+00 0.  1.
       -3    1    3    3    0  502  0.13098881441E+04 -0.35068678704E+03  0.85703109516E+03  0.16041478987E+04  0.10100000352E+00 0. -1.
</event>
<event>
 5   0  0.8805125E-08  0.3298691E+04  0.7818609E-02  0.8163229E-01
       -3   -1    0    0    0  501  0.00000000000E+00  0.00000000000E+00  0.10387635833E+04  0.10387635882E+04  0.10100000352E+00 0. -1.
        3   -1    0    0  501    0  0.00000000000E+00  0.00000000000E+00 -0.26188248067E+04  0.26188248087E+04  0.10100000352E+00 0.  1.
    10030    2    1    2    0    0  0.00000000000E+00  0.00000000000E+00 -0.15800612234E+04  0.36575883969E+04  0.32986905601E+04 0.  0.
        2    1    3    3  502    0  0.13335810097E+03 -0.83470491021E+03 -0.23603918849E+04  0.25071829851E+04  0.25500000920E-02 0.  1.
       -2    1    3    3    0  502 -0.13335810097E+03  0.83470491021E+03  0.78033066154E+03  0.11504054118E+04  0.25500000920E-02 0. -1.
</event>
<event>
 5   0  0.2713815E-07  0.3296252E+04  0.7818609E-02  0.8163850E-01
        2   -1    0    0  501    0  0.00000000000E+00  0.00000000000E+00  0.18044428700E+04  0.18044428700E+04  0.25500000920E-02 0. -1.
       -2   -1    0    0    0  501  0.00000000000E+00  0.00000000000E+00 -0.15053505481E+04  0.15053505481E+04  0.25500000920E-02 0.  1.
    10030    2    1    2    0    0  0.00000000000E+00  0.00000000000E+00  0.29909232185E+03  0.33097934181E+04  0.32962518492E+04 0.  0.
        4    1    3    3  502    0  0.24059546344E+03  0.47602280545E+03 -0.14162939920E+04  0.15133982202E+04  0.12699999809E+01 0.  1.
       -4    1    3    3    0  502 -0.24059546344E+03 -0.47602280545E+03  0.17153863138E+04  0.17963951979E+04  0.12699999809E+01 0. -1.
</event>
<event>
 5   0  0.2875829E-07  0.3307642E+04  0.7818609E-02  0.8160954E-01
        2   -1    0    0  501    0  0.00000000000E+00  0.00000000000E+00  0.13145880898E+04  0.13145880898E+04  0.25500000920E-02 0.  1.
       -2   -1    0    0    0  501  0.00000000000E+00  0.00000000000E+00 -0.20805935444E+04  0.20805935444E+04  0.25500000920E-02 0. -1.
    10030    2    1    2    0    0  0.00000000000E+00  0.00000000000E+00 -0.76600545461E+03  0.33951816342E+04  0.33076417540E+04 0.  0.
        3    1    3    3  502    0  0.45743996574E+03  0.15584451334E+04 -0.70289294278E+03  0.17697629941E+04  0.10100000352E+00 0.  1.
       -3    1    3    3    0  502 -0.45743996574E+03 -0.15584451334E+04 -0.63112511829E+02  0.16254186401E+04  0.10100000352E+00 0. -1.
</event>
<event>
 5   0  0.2727168E-07  0.3300829E+04  0.7818609E-02  0.8162685E-01
        2   -1    0    0  501    0  0.00000000000E+00  0.00000000000E+00  0.28154527106E+04  0.28154527106E+04  0.25500000920E-02 0.  1.
       -2   -1    0    0    0  501  0.00000000000E+00  0.00000000000E+00 -0.96747059283E+03  0.96747059283E+03  0.25500000920E-02 0. -1.
    10030    2    1    2    0    0  0.00000000000E+00  0.00000000000E+00  0.18479821178E+04  0.37829233035E+04  0.33008288069E+04 0.  0.
        2    1    3    3  502    0 -0.15538783978E+04 -0.33444526884E+02  0.15602423362E+04  0.22022744514E+04  0.25500000920E-02 0. -1.
       -2    1    3    3    0  502  0.15538783978E+04  0.33444526884E+02  0.28773978164E+03  0.15806488521E+04  0.25500000920E-02 0.  1.
</event>
<event>
 5   0  0.2824402E-07  0.3287103E+04  0.7818609E-02  0.8166185E-01
       -2   -1    0    0    0  501  0.00000000000E+00  0.00000000000E+00  0.29245413583E+04  0.29245413583E+04  0.25500000920E-02 0.  1.
        2   -1    0    0  501    0  0.00000000000E+00  0.00000000000E+00 -0.92365285069E+03  0.92365285069E+03  0.25500000920E-02 0. -1.
    10030    2    1    2    0    0  0.00000000000E+00  0.00000000000E+00  0.20008885076E+04  0.38481942090E+04  0.32871026528E+04 0.  0.
        1    1    3    3  502    0  0.81943466331E+03 -0.69125994729E+03  0.24588629560E+04  0.26824094614E+04  0.50400001928E-02 0.  1.
       -1    1    3    3    0  502 -0.81943466331E+03  0.69125994729E+03 -0.45797444844E+03  0.11657847475E+04  0.50400001928E-02 0. -1.
</event>
<event>
 5   0  0.2703956E-07  0.3288195E+04  0.7818609E-02  0.8165906E-01
        2   -1    0    0  501    0  0.00000000000E+00  0.00000000000E+00  0.21627172341E+04  0.21627172341E+04  0.25500000920E-02 0. -1.
       -2   -1    0    0    0  501  0.00000000000E+00  0.00000000000E+00 -0.12498426401E+04  0.12498426402E+04  0.25500000920E-02 0.  1.
    10030    2    1    2    0    0  0.00000000000E+00  0.00000000000E+00  0.91287459391E+03  0.34125598742E+04  0.32881947739E+04 0.  0.
        5    1    3    3  502    0 -0.14002508292E+04  0.27068560264E+03  0.13053355078E+04  0.19333638970E+04  0.46999998093E+01 0. -1.
       -5    1    3    3    0  502  0.14002508292E+04 -0.27068560264E+03 -0.39246091385E+03  0.14791959773E+04  0.46999998093E+01 0.  1.
</event>
<event>
 5   0  0.2875829E-07  0.3294105E+04  0.7818609E-02  0.8164397E-01
        2   -1    0    0  501    0  0.00000000000E+00  0.00000000000E+00  0.18541990751E+04  0.18541990751E+04  0.25500000920E-02 0. -1.
       -2   -1    0    0    0  501  0.00000000000E+00  0.00000000000E+00 -0.14630476942E+04  0.14630476942E+04  0.25500000920E-02 0.  1.
    10030    2    1    2    0    0  0.00000000000E+00  0.00000000000E+00  0.39115138086E+03  0.33172467693E+04  0.32941048444E+04 0.  0.
        3    1    3    3  502    0  0.74160236010E+03  0.14473713369E+04  0.45802862057E+03  0.16895703817E+04  0.10100000352E+00 0. -1.
       -3    1    3    3    0  502 -0.74160236010E+03 -0.14473713369E+04 -0.66877239714E+02  0.16276763876E+04  0.10100000352E+00 0.  1.
</event>
<event>
 5   0  0.9283910E-08  0.3301053E+04  0.7818609E-02  0.8162627E-01
       -1   -1    0    0    0  501  0.00000000000E+00  0.00000000000E+00  0.13254493775E+04  0.13254493775E+04  0.50400001928E-02 0. -1.
        1   -1    0    0  501    0  0.00000000000E+00  0.00000000000E+00 -0.20553316024E+04  0.20553316024E+04  0.50400001928E-02 0.  1.
    10030    2    1    2    0    0  0.00000000000E+00  0.00000000000E+00 -0.72988222491E+03  0.33807809799E+04  0.33010531610E+04 0.  0.
        3    1    3    3  502    0  0.13753412305E+04 -0.59870311043E+03 -0.10702162972E+04  0.18426534801E+04  0.10100000352E+00 0.  1.
       -3    1    3    3    0  502 -0.13753412305E+04  0.59870311043E+03  0.34033407225E+03  0.15381274998E+04  0.10100000352E+00 0. -1.
</event>
<event>
 5   0  0.9283910E-08  0.3299740E+04  0.7818609E-02  0.8162961E-01
       -1   -1    0    0    0  501  0.00000000000E+00  0.00000000000E+00  0.12401240833E+04  0.12401240833E+04  0.50400001928E-02 0. -1.
        1   -1    0    0  501    0  0.00000000000E+00  0.00000000000E+00 -0.21949992557E+04  0.21949992557E+04  0.50400001928E-02 0.  1.
    10030    2    1    2    0    0  0.00000000000E+00  0.00000000000E+00 -0.95487517235E+03  0.34351233390E+04  0.32997402564E+04 0.  0.
        3    1    3    3  502    0  0.66521627650E+03  0.18045229428E+03  0.10830621555E+04  0.12837832247E+04  0.10100000352E+00 0. -1.
       -3    1    3    3    0  502 -0.66521627650E+03 -0.18045229428E+03 -0.20379373279E+04  0.21513401143E+04  0.10100000352E+00 0.  1.
</event>
<event>
 5   0  0.9810351E-08  0.3275667E+04  0.7818609E-02  0.8169115E-01
       -1   -1    0    0    0  501  0.00000000000E+00  0.00000000000E+00  0.11647362959E+04  0.11647362960E+04  0.50400001928E-02 0. -1.
        1   -1    0    0  501    0  0.00000000000E+00  0.00000000000E+00 -0.23030957010E+04  0.23030957010E+04  0.50400001928E-02 0.  1.
    10030    2    1    2    0    0  0.00000000000E+00  0.00000000000E+00 -0.11383594051E+04  0.34678319970E+04  0.32756673555E+04 0.  0.
        5    1    3    3  502    0 -0.88678485380E+03  0.76364912105E+03  0.64387111427E+03  0.13357168333E+04  0.46999998093E+01 0. -1.
       -5    1    3    3    0  502  0.88678485380E+03 -0.76364912105E+03 -0.17822305193E+04  0.21321151637E+04  0.46999998093E+01 0.  1.
</event>
<event>
 5   0  0.9283910E-08  0.3298045E+04  0.7818609E-02  0.8163393E-01
        1   -1    0    0  501    0  0.00000000000E+00  0.00000000000E+00  0.28432233258E+04  0.28432233258E+04  0.50400001928E-02 0. -1.
       -1   -1    0    0    0  501  0.00000000000E+00  0.00000000000E+00 -0.95640605208E+03  0.95640605209E+03  0.50400001928E-02 0.  1.
    10030    2    1    2    0    0  0.00000000000E+00  0.00000000000E+00  0.18868172737E+04  0.37996293779E+04  0.32980454795E+04 0.  0.
        3    1    3    3  502    0 -0.29562519879E+03 -0.49286815152E+03  0.27241025835E+04  0.27840704317E+04  0.10100000352E+00 0. -1.
       -3    1    3    3    0  502  0.29562519879E+03  0.49286815152E+03 -0.83728530981E+03  0.10155589462E+04  0.10100000352E+00 0.  1.
</event>
<event>
 5   0  0.2727168E-07  0.3321194E+04  0.7818609E-02  0.8157523E-01
        2   -1    0    0  501    0  0.00000000000E+00  0.00000000000E+00  0.22881405728E+04  0.22881405728E+04  0.25500000920E-02 0. -1.
       -2   -1    0    0    0  501  0.00000000000E+00  0.00000000000E+00 -0.12051630176E+04  0.12051630176E+04  0.25500000920E-02 0.  1.
    10030    2    1    2    0    0  0.00000000000E+00  0.00000000000E+00  0.10829775551E+04  0.34933035904E+04  0.33211940006E+04 0.  0.
        2    1    3    3  502    0  0.94325977900E+03  0.13497288375E+04  0.76726431626E+03  0.18166456662E+04  0.25500000920E-02 0.  1.
       -2    1    3    3    0  502 -0.94325977900E+03 -0.13497288375E+04  0.31571323887E+03  0.16766579242E+04  0.25500000920E-02 0. -1.
</event>
<event>
 5   0  0.2875829E-07  0.3305531E+04  0.7818609E-02  0.8161489E-01
       -2   -1    0    0    0  501  0.00000000000E+00  0.00000000000E+00  0.11376327544E+04  0.11376327544E+04  0.25500000920E-02 0.  1.
        2   -1    0    0  501    0  0.00000000000E+00  0.00000000000E+00 -0.24011564704E+04  0.24011564704E+04  0.25500000920E-02 0. -1.
    10030    2    1    2    0    0  0.00000000000E+00  0.00000000000E+00 -0.12635237161E+04  0.35387892248E+04  0.33055312729E+04 0.  0.
        3    1    3    3  502    0  0.12562259577E+04 -0.51354307038E+03  0.37809687719E+03  0.14088248297E+04  0.10100000352E+00 0.  1.
       -3    1    3    3    0  502 -0.12562259577E+04  0.51354307038E+03 -0.16416205932E+04  0.21299643951E+04  0.10100000352E+00 0. -1.
</event>
<event>
 5   0  0.9283910E-08  0.3298728E+04  0.7818609E-02  0.8163219E-01
       -1   -1    0    0    0  501  0.00000000000E+00  0.00000000000E+00  0.14161160248E+04  0.14161160248E+04  0.50400001928E-02 0. -1.
        1   -1    0    0  501    0  0.00000000000E+00  0.00000000000E+00 -0.19210303482E+04  0.19210303482E+04  0.50400001928E-02 0.  1.
    10030    2    1    2    0    0  0.00000000000E+00  0.00000000000E+00 -0.50491432337E+03  0.33371463730E+04  0.32987281550E+04 0.  0.
        3    1    3    3  502    0 -0.12512463349E+04  0.24651665606E+03 -0.13105899404E+04  0.18286699687E+04  0.10100000352E+00 0.  1.
       -3    1    3    3    0  502  0.12512463349E+04 -0.24651665606E+03  0.80567561701E+03  0.15084764043E+04  0.10100000352E+00 0. -1.
</event>
<event>
 5   0  0.9454010E-08  0.3291339E+04  0.7818609E-02  0.8165103E-01
        1   -1    0    0  501    0  0.00000000000E+00  0.00000000000E+00  0.18031281450E+04  0.18031281450E+04  0.50400001928E-02 0. -1.
       -1   -1    0    0    0  501  0.00000000000E+00  0.00000000000E+00 -0.15019609816E+04  0.15019609816E+04  0.50400001928E-02 0.  1.
    10030    2    1    2    0    0  0.00000000000E+00  0.00000000000E+00  0.30116716337E+03  0.33050891265E+04  0.32913390093E+04 0.  0.
        2    1    3    3  502    0 -0.10160824281E+04  0.48847039088E+03 -0.10532580501E+04  0.15428478031E+04  0.25500000920E-02 0.  1.
       -2    1    3    3    0  502  0.10160824281E+04 -0.48847039088E+03  0.13544252134E+04  0.17622413235E+04  0.25500000920E-02 0. -1.
</event>
<event>
 5   0  0.2727168E-07  0.3293015E+04  0.7818609E-02  0.8164675E-01
       -2   -1    0    0    0  501  0.00000000000E+00  0.00000000000E+00  0.15327787630E+04  0.15327787630E+04  0.25500000920E-02 0.  1.
        2   -1    0    0  501    0  0.00000000000E+00  0.00000000000E+00 -0.17686747504E+04  0.17686747504E+04  0.25500000920E-02 0. -1.
    10030    2    1    2    0    0  0.00000000000E+00  0.00000000000E+00 -0.23589598738E+03  0.33014535135E+04  0.32930150903E+04 0.  0.
        2    1    3    3  502    0  0.70534510820E+03 -0.60417282515E+03 -0.14810092908E+04  0.17481204317E+04  0.25500000920E-02 0. -1.
       -2    1    3    3    0  502 -0.70534510820E+03  0.60417282515E+03  0.12451133035E+04  0.15533330817E+04  0.25500000920E-02 0.  1.
</event>
<event>
 5   0  0.8805125E-08  0.3301114E+04  0.7818609E-02  0.8162612E-01
        1   -1    0    0  501    0  0.00000000000E+00  0.00000000000E+00  0.16410989657E+04  0.16410989658E+04  0.50400001928E-02 0.  1.
       -1   -1    0    0    0  501  0.00000000000E+00  0.00000000000E+00 -0.16600697672E+04  0.16600697672E+04  0.50400001928E-02 0. -1.
    10030    2    1    2    0    0  0.00000000000E+00  0.00000000000E+00 -0.18970801496E+02  0.33011687330E+04  0.33011142229E+04 0.  0.
        4    1    3    3  502    0  0.33846830981E+03  0.15591924512E+04 -0.43221601232E+03  0.16530136693E+04  0.12699999809E+01 0. -1.
       -4    1    3    3    0  502 -0.33846830981E+03 -0.15591924512E+04  0.41324521083E+03  0.16481550637E+04  0.12699999809E+01 0.  1.
</event>
<event>
 5   0  0.2824402E-07  0.3300643E+04  0.7818609E-02  0.8162732E-01
        2   -1    0    0  501    0  0.00000000000E+00  0.00000000000E+00  0.22584927338E+04  0.22584927338E+04  0.25500000920E-02 0. -1.
       -2   -1    0    0    0  501  0.00000000000E+00  0.00000000000E+00 -0.12059197993E+04  0.12059197993E+04  0.25500000920E-02 0.  1.
    10030    2    1    2    0    0  0.00000000000E+00  0.00000000000E+00  0.10525729346E+04  0.34644125331E+04  0.33006430308E+04 0.  0.
        1    1    3    3  502    0  0.12012685010E+04  0.80015520571E+03  0.13661553959E+04  0.19873789097E+04  0.50400001928E-02 0. -1.
       -1    1    3    3    0  502 -0.12012685010E+04 -0.80015520571E+03 -0.31358246138E+03  0.14770336234E+04  0.50400001928E-02 0.  1.
</event>
<event>
 5   0  0.8805125E-08  0.3274374E+04  0.7818609E-02  0.8169447E-01
       -1   -1    0    0    0  501  0.00000000000E+00  0.00000000000E+00  0.20146993844E+04  0.20146993844E+04  0.50400001928E-02 0.  1.
        1   -1    0    0  501    0  0.00000000000E+00  0.00000000000E+00 -0.13304126679E+04  0.13304126679E+04  0.50400001928E-02 0. -1.
    10030    2    1    2    0    0  0.00000000000E+00  0.00000000000E+00  0.68428671654E+03  0.33451120523E+04  0.32743741894E+04 0.  0.
        4    1    3    3  502    0 -0.10245460700E+04  0.99213621967E+03  0.11634712823E+04  0.18405694677E+04  0.12699999809E+01 0.  1.
       -4    1    3    3    0  502  0.10245460700E+04 -0.99213621967E+03 -0.47918456574E+03  0.15045425846E+04  0.12699999809E+01 0. -1.
</event>
<event>
 5   0  0.9283910E-08  0.3301380E+04  0.7818609E-02  0.8162544E-01
       -1   -1    0    0    0  501  0.00000000000E+00  0.00000000000E+00  0.15813208731E+04  0.15813208731E+04  0.50400001928E-02 0.  1.
        1   -1    0    0  501    0  0.00000000000E+00  0.00000000000E+00 -0.17231019002E+04  0.17231019002E+04  0.50400001928E-02 0. -1.
    10030    2    1    2    0    0  0.00000000000E+00  0.00000000000E+00 -0.14178102710E+03  0.33044227733E+04  0.33013797123E+04 0.  0.
        3    1    3    3  502    0 -0.15969125128E+04  0.29765427440E+03 -0.36450259805E+03  0.16648092368E+04  0.10100000352E+00 0. -1.
       -3    1    3    3    0  502  0.15969125128E+04 -0.29765427440E+03  0.22272157095E+03  0.16396135365E+04  0.10100000352E+00 0.  1.
</event>
<event>
 5   0  0.9454010E-08  0.3297338E+04  0.7818609E-02  0.8163573E-01
       -1   -1    0    0    0  501  0.00000000000E+00  0.00000000000E+00  0.15073020323E+04  0.15073020323E+04  0.50400001928E-02 0.  1.
        1   -1    0    0  501    0  0.00000000000E+00  0.00000000000E+00 -0.18032940587E+04  0.18032940587E+04  0.50400001928E-02 0. -1.
    10030    2    1    2    0    0  0.00000000000E+00  0.00000000000E+00 -0.29599202639E+03  0.33105960910E+04  0.32973375924E+04 0.  0.
        2    1    3    3  502    0  0.91917446783E+03 -0.83822280106E+03  0.93830161374E+03  0.15581749211E+04  0.25500000920E-02 0.  1.
       -2    1    3    3    0  502 -0.91917446783E+03  0.83822280106E+03 -0.12342936401E+04  0.17524211699E+04  0.25500000920E-02 0. -1.
</event>
<event>
 5   0  0.2824402E-07  0.3283620E+04  0.7818609E-02  0.8167076E-01
       -2   -1    0    0    0  501  0.00000000000E+00  0.00000000000E+00  0.14725335656E+04  0.14725335656E+04  0.25500000920E-02 0.  1.
        2   -1    0    0  501    0  0.00000000000E+00  0.00000000000E+00 -0.18305462145E+04  0.18305462145E+04  0.25500000920E-02 0. -1.
    10030    2    1    2    0    0  0.00000000000E+00  0.00000000000E+00 -0.35801264882E+03  0.33030797801E+04  0.32836204070E+04 0.  0.
        1    1    3    3  502    0 -0.41675015594E+03 -0.94607088010E+03 -0.14620295740E+04  0.17906036071E+04  0.50400001928E-02 0. -1.
       -1    1    3    3    0  502  0.41675015594E+03  0.94607088010E+03  0.11040169252E+04  0.15124761730E+04  0.50400001928E-02 0.  1.
</event>
<event>
 5   0  0.2703956E-07  0.3305653E+04  0.7818609E-02  0.8161458E-01
        2   -1    0    0  501    0  0.00000000000E+00  0.00000000000E+00  0.14584184118E+04  0.14584184119E+04  0.25500000920E-02 0.  1.
       -2   -1    0    0    0  501  0.00000000000E+00  0.00000000000E+00 -0.18731493004E+04  0.18731493004E+04  0.25500000920E-02 0. -1.
    10030    2    1    2    0    0  0.00000000000E+00  0.00000000000E+00 -0.41473088851E+03  0.33315677122E+04  0.33056529932E+04 0.  0.
        5    1    3    3  502    0 -0.53821199464E+03 -0.10596430107E+04 -0.13649768951E+04  0.18098893545E+04  0.46999998093E+01 0. -1.
       -5    1    3    3    0  502  0.53821199464E+03  0.10596430107E+04  0.95024600663E+03  0.15216783577E+04  0.46999998093E+01 0.  1.
</event>
<event>
 5   0  0.9810351E-08  0.3277995E+04  0.7818609E-02  0.8168517E-01
       -1   -1    0    0    0  501  0.00000000000E+00  0.00000000000E+00  0.14704760441E+04  0.14704760441E+04  0.50400001928E-02 0. -1.
        1   -1    0    0  501    0  0.00000000000E+00  0.00000000000E+00 -0.18268318755E+04  0.18268318755E+04  0.50400001928E-02 0.  1.
    10030    2    1    2    0    0  0.00000000000E+00  0.00000000000E+00 -0.35635583136E+03  0.32973079196E+04  0.32779948197E+04 0.  0.
        5    1    3    3  502    0 -0.44237026350E+03  0.61136226631E+03 -0.16416847735E+04  0.18068221430E+04  0.46999998093E+01 0.  1.
       -5    1    3    3    0  502  0.44237026350E+03 -0.61136226631E+03  0.12853289422E+04  0.14904857766E+04  0.46999998093E+01 0. -1.
</event>
<event>
 5   0  0.2713815E-07  0.3304877E+04  0.7818609E-02  0.8161656E-01
       -2   -1    0    0    0  501  0.00000000000E+00  0.00000000000E+00  0.90047643665E+03  0.90047643666E+03  0.25500000920E-02 0.  1.
        2   -1    0    0  501    0  0.00000000000E+00  0.00000000000E+00 -0.30323421419E+04  0.30323421419E+04  0.25500000920E-02 0. -1.
    10030    2    1    2    0    0  0.00000000000E+00  0.00000000000E+00 -0.21318657052E+04  0.39328185786E+04  0.33048767884E+04 0.  0.
        4    1    3    3  502    0  0.39181447082E+02  0.13324324583E+04 -0.22280255621E+04  0.25963456935E+04  0.12699999809E+01 0. -1.
       -4    1    3    3    0  502 -0.39181447082E+02 -0.13324324583E+04  0.96159856854E+02  0.13364728851E+04  0.12699999809E+01 0.  1.
</event>
<event>
 5   0  0.9181760E-08  0.3301246E+04  0.7818609E-02  0.8162578E-01
       -1   -1    0    0    0  501  0.00000000000E+00  0.00000000000E+00  0.94859429173E+03  0.94859429174E+03  0.50400001928E-02 0.  1.
        1   -1    0    0  501    0  0.00000000000E+00  0.00000000000E+00 -0.28722045414E+04  0.28722045414E+04  0.50400001928E-02 0. -1.
    10030    2    1    2    0    0  0.00000000000E+00  0.00000000000E+00 -0.19236102497E+04  0.38207988332E+04  0.33012463299E+04 0.  0.
        1    1    3    3  502    0 -0.12656115838E+03  0.16118718021E+04 -0.57723344606E+03  0.17167838782E+04  0.50400001928E-02 0.  1.
       -1    1    3    3    0  502  0.12656115838E+03 -0.16118718021E+04 -0.13463768036E+04  0.21040149550E+04  0.50400001928E-02 0. -1.
</event>
<event>
 5   0  0.9810351E-08  0.3281091E+04  0.7818609E-02  0.8167724E-01
       -1   -1    0    0    0  501  0.00000000000E+00  0.00000000000E+00  0.18742647189E+04  0.18742647189E+04  0.50400001928E-02 0.  1.
        1   -1    0    0  501    0  0.00000000000E+00  0.00000000000E+00 -0.14359705408E+04  0.14359705408E+04  0.50400001928E-02 0. -1.
    10030    2    1    2    0    0  0.00000000000E+00  0.00000000000E+00  0.43829417810E+03  0.33102352598E+04  0.32810906248E+04 0.  0.
        5    1    3    3  502    0 -0.25057277093E+03  0.16034264362E+04  0.46128686427E+03  0.16871783281E+04  0.46999998093E+01 0.  1.
       -5    1    3    3    0  502  0.25057277093E+03 -0.16034264362E+04 -0.22992686172E+02  0.16230569316E+04  0.46999998093E+01 0. -1.
</event>
<event>
 5   0  0.9454010E-08  0.3285889E+04  0.7818609E-02  0.8166495E-01
       -1   -1    0    0    0  501  0.00000000000E+00  0.00000000000E+00  0.95857321142E+03  0.95857321144E+03  0.50400001928E-02 0. -1.
        1   -1    0    0  501    0  0.00000000000E+00  0.00000000000E+00 -0.28159205562E+04  0.28159205562E+04  0.50400001928E-02 0.  1.
    10030    2    1    2    0    0  0.00000000000E+00  0.00000000000E+00 -0.18573473448E+04  0.37744937676E+04  0.32858886230E+04 0.  0.
        2    1    3    3  502    0 -0.72891884793E+03 -0.14140902714E+04 -0.13999087883E+04  0.21191315669E+04  0.25500000920E-02 0.  1.
       -2    1    3    3    0  502  0.72891884793E+03  0.14140902714E+04 -0.45743855648E+03  0.16553622007E+04  0.25500000920E-02 0. -1.
</event>
<event>
 5   0  0.9454010E-08  0.3303393E+04  0.7818609E-02  0.8162033E-01
       -1   -1    0    0    0  501  0.00000000000E+00  0.00000000000E+00  0.17036415476E+04  0.17036415476E+04  0.50400001928E-02 0.  1.
        1   -1    0    0  501    0  0.00000000000E+00  0.00000000000E+00 -0.16013351804E+04  0.16013351804E+04  0.50400001928E-02 0. -1.
    10030    2    1    2    0    0  0.00000000000E+00  0.00000000000E+00  0.10230636722E+03  0.33049767280E+04  0.33033928892E+04 0.  0.
        2    1    3    3  502    0  0.34172252730E+03 -0.49309830263E+03 -0.14884741594E+04  0.16048288211E+04  0.25500000920E-02 0. -1.
       -2    1    3    3    0  502 -0.34172252730E+03  0.49309830263E+03  0.15907805266E+04  0.17001479070E+04  0.25500000920E-02 0.  1.
</event>
<event>
 5   0  0.8805125E-08  0.3298537E+04  0.7818609E-02  0.8163268E-01
        3   -1    0    0  501    0  0.00000000000E+00  0.00000000000E+00  0.18824811803E+04  0.18824811830E+04  0.10100000352E+00 0.  1.
       -3   -1    0    0    0  501  0.00000000000E+00  0.00000000000E+00 -0.14449474581E+04  0.14449474616E+04  0.10100000352E+00 0. -1.
    10030    2    1    2    0    0  0.00000000000E+00  0.00000000000E+00  0.43753372218E+03  0.33274286446E+04  0.32985368919E+04 0.  0.
        4    1    3    3  502    0  0.76338531580E+03 -0.14485269972E+04  0.41822886934E+03  0.16899421890E+04  0.12699999809E+01 0. -1.
       -4    1    3    3    0  502 -0.76338531580E+03  0.14485269972E+04  0.19304852833E+02  0.16374864556E+04  0.12699999809E+01 0.  1.
</event>
<event>
 5   0  0.8805125E-08  0.3285857E+04  0.7818609E-02  0.8166503E-01
        3   -1    0    0  501    0  0.00000000000E+00  0.00000000000E+00  0.15070174908E+04  0.15070174942E+04  0.10100000352E+00 0.  1.
       -3   -1    0    0    0  501  0.00000000000E+00  0.00000000000E+00 -0.17910967127E+04  0.17910967156E+04  0.10100000352E+00 0. -1.
    10030    2    1    2    0    0  0.00000000000E+00  0.00000000000E+00 -0.28407922193E+03  0.32981142097E+04  0.32858570170E+04 0.  0.
        2    1    3    3  502    0  0.10852081618E+04 -0.12124102885E+04 -0.37004025860E+03  0.16686956748E+04  0.25500000920E-02 0.  1.
       -2    1    3    3    0  502 -0.10852081618E+04  0.12124102885E+04  0.85961036672E+02  0.16294185349E+04  0.25500000920E-02 0. -1.
</event>
<event>
 5   0  0.8805125E-08  0.3303008E+04  0.7818609E-02  0.8162131E-01
       -1   -1    0    0    0  501  0.00000000000E+00  0.00000000000E+00  0.11577773914E+04  0.11577773914E+04  0.50400001928E-02 0.  1.
        1   -1    0    0  501    0  0.00000000000E+00  0.00000000000E+00 -0.23557766204E+04  0.23557766204E+04  0.50400001928E-02 0. -1.
    10030    2    1    2    0    0  0.00000000000E+00  0.00000000000E+00 -0.11979992289E+04  0.35135540118E+04  0.33030076659E+04 0.  0.
        4    1    3    3  502    0 -0.45328378404E+02 -0.11944562467E+04 -0.18112396283E+04  0.21701085207E+04  0.12699999809E+01 0. -1.
       -4    1    3    3    0  502  0.45328378404E+02  0.11944562467E+04  0.61324039939E+03  0.13434454911E+04  0.12699999809E+01 0.  1.
</event>
<event>
 5   0  0.9454010E-08  0.3296071E+04  0.7818609E-02  0.8163896E-01
        1   -1    0    0  501    0  0.00000000000E+00  0.00000000000E+00  0.18826448114E+04  0.18826448114E+04  0.50400001928E-02 0.  1.
       -1   -1    0    0    0  501  0.00000000000E+00  0.00000000000E+00 -0.14426623912E+04  0.14426623912E+04  0.50400001928E-02 0. -1.
    10030    2    1    2    0    0  0.00000000000E+00  0.00000000000E+00  0.43998242021E+03  0.33253072027E+04  0.32960709128E+04 0.  0.
        2    1    3    3  502    0  0.64716689991E+03  0.35568962560E+02  0.17486642830E+04  0.18649174035E+04  0.25500000920E-02 0.  1.
       -2    1    3    3    0  502 -0.64716689991E+03 -0.35568962560E+02 -0.13086818628E+04  0.14603897991E+04  0.25500000920E-02 0. -1.
</event>
<event>
 5   0  0.9454010E-08  0.3288897E+04  0.7818609E-02  0.8165726E-01
        1   -1    0    0  501    0  0.00000000000E+00  0.00000000000E+00  0.17352027438E+04  0.17352027439E+04  0.50400001928E-02 0. -1.
       -1   -1    0    0    0  501  0.00000000000E+00  0.00000000000E+00 -0.15584404327E+04  0.15584404327E+04  0.50400001928E-02 0.  1.
    10030    2    1    2    0    0  0.00000000000E+00  0.00000000000E+00  0.17676231117E+03  0.32936431765E+04  0.32888965414E+04 0.  0.
        2    1    3    3  502    0  0.13395203662E+03 -0.82316688964E+02 -0.15508963547E+04  0.15588453061E+04  0.25500000920E-02 0.  1.
       -2    1    3    3    0  502 -0.13395203662E+03  0.82316688964E+02  0.17276586659E+04  0.17347978704E+04  0.25500000920E-02 0. -1.
</event>
<event>
 5   0  0.2824402E-07  0.3299927E+04  0.7818609E-02  0.8162914E-01
       -2   -1    0    0    0  501  0.00000000000E+00  0.00000000000E+00  0.11005540377E+04  0.11005540377E+04  0.25500000920E-02 0. -1.
        2   -1    0    0  501    0  0.00000000000E+00  0.00000000000E+00 -0.24736452764E+04  0.24736452764E+04  0.25500000920E-02 0.  1.
    10030    2    1    2    0    0  0.00000000000E+00  0.00000000000E+00 -0.13730912386E+04  0.35741993141E+04  0.32999274518E+04 0.  0.
        1    1    3    3  502    0 -0.32705342007E+02 -0.20318196248E+03  0.10865984356E+04  0.11059153266E+04  0.50400001928E-02 0. -1.
       -1    1    3    3    0  502  0.32705342007E+02  0.20318196248E+03 -0.24596896743E+04  0.24682839875E+04  0.50400001928E-02 0.  1.
</event>
<event>
 5   0  0.9810351E-08  0.3306334E+04  0.7818609E-02  0.8161286E-01
       -1   -1    0    0    0  501  0.00000000000E+00  0.00000000000E+00  0.12661452919E+04  0.12661452920E+04  0.50400001928E-02 0. -1.
        1   -1    0    0  501    0  0.00000000000E+00  0.00000000000E+00 -0.21584888419E+04  0.21584888419E+04  0.50400001928E-02 0.  1.
    10030    2    1    2    0    0  0.00000000000E+00  0.00000000000E+00 -0.89234354994E+03  0.34246341339E+04  0.33063336099E+04 0.  0.
        5    1    3    3  502    0 -0.94942634224E+03  0.13322346700E+04 -0.19958042881E+03  0.16480637223E+04  0.46999998093E+01 0.  1.
       -5    1    3    3    0  502  0.94942634224E+03 -0.13322346700E+04 -0.69276312113E+03  0.17765704116E+04  0.46999998093E+01 0. -1.
</event>
<event>
 5   0  0.9454010E-08  0.3301984E+04  0.7818609E-02  0.8162391E-01
       -1   -1    0    0    0  501  0.00000000000E+00  0.00000000000E+00  0.10243541664E+04  0.10243541665E+04  0.50400001928E-02 0.  1.
        1   -1    0    0  501    0  0.00000000000E+00  0.00000000000E+00 -0.26609688151E+04  0.26609688151E+04  0.50400001928E-02 0. -1.
    10030    2    1    2    0    0  0.00000000000E+00  0.00000000000E+00 -0.16366146487E+04  0.36853229816E+04  0.33019839446E+04 0.  0.
        2    1    3    3  502    0  0.11812705901E+04 -0.99748654768E+03 -0.14646737767E+04  0.21297062925E+04  0.25500000920E-02 0. -1.
       -2    1    3    3    0  502 -0.11812705901E+04  0.99748654768E+03 -0.17194087195E+03  0.15556166891E+04  0.25500000920E-02 0.  1.
</event>
<event>
 5   0  0.9181760E-08  0.3299394E+04  0.7818609E-02  0.8163049E-01
       -1   -1    0    0    0  501  0.00000000000E+00  0.00000000000E+00  0.13248172120E+04  0.13248172120E+04  0.50400001928E-02 0.  1.
        1   -1    0    0  501    0  0.00000000000E+00  0.00000000000E+00 -0.20542463390E+04  0.20542463390E+04  0.50400001928E-02 0. -1.
    10030    2    1    2    0    0  0.00000000000E+00  0.00000000000E+00 -0.72942912697E+03  0.33790635510E+04  0.32993944339E+04 0.  0.
        1    1    3    3  502    0  0.96856850465E+03  0.66080007404E+03 -0.15532185745E+04  0.19460908576E+04  0.50400001928E-02 0. -1.
       -1    1    3    3    0  502 -0.96856850465E+03 -0.66080007404E+03  0.82378944752E+03  0.14329726934E+04  0.50400001928E-02 0.  1.
</event>
<event>
 5   0  0.2703956E-07  0.3297300E+04  0.7818609E-02  0.8163583E-01
        2   -1    0    0  501    0  0.00000000000E+00  0.00000000000E+00  0.17668973444E+04  0.17668973444E+04  0.25500000920E-02 0. -1.
       -2   -1    0    0    0  501  0.00000000000E+00  0.00000000000E+00 -0.15383162177E+04  0.15383162177E+04  0.25500000920E-02 0.  1.
    10030    2    1    2    0    0  0.00000000000E+00  0.00000000000E+00  0.22858112669E+03  0.33052135622E+04  0.32973000106E+04 0.  0.
        5    1    3    3  502    0  0.71960385034E+03  0.82921965316E+03  0.13471161747E+04  0.17378662241E+04  0.46999998093E+01 0. -1.
       -5    1    3    3    0  502 -0.71960385034E+03 -0.82921965316E+03 -0.11185350480E+04  0.15673473381E+04  0.46999998093E+01 0.  1.
</event>
<event>
 5   0  0.2703956E-07  0.3289909E+04  0.7818609E-02  0.8165468E-01
       -2   -1    0    0    0  501  0.00000000000E+00  0.00000000000E+00  0.14298321443E+04  0.14298321443E+04  0.25500000920E-02 0. -1.
        2   -1    0    0  501    0  0.00000000000E+00  0.00000000000E+00 -0.18924429188E+04  0.18924429188E+04  0.25500000920E-02 0.  1.
    10030    2    1    2    0    0  0.00000000000E+00  0.00000000000E+00 -0.46261077457E+03  0.33222750631E+04  0.32899092490E+04 0.  0.
        5    1    3    3  502    0 -0.12590296430E+04  0.79893428741E+03  0.47007919182E+03  0.15634731127E+04  0.46999998093E+01 0. -1.
       -5    1    3    3    0  502  0.12590296430E+04 -0.79893428741E+03 -0.93268996638E+03  0.17588019504E+04  0.46999998093E+01 0.  1.
</event>
<event>
 5   0  0.2713815E-07  0.3305019E+04  0.7818609E-02  0.8161619E-01
       -2   -1    0    0    0  501  0.00000000000E+00  0.00000000000E+00  0.12547105668E+04  0.12547105668E+04  0.25500000920E-02 0.  1.
        2   -1    0    0  501    0  0.00000000000E+00  0.00000000000E+00 -0.21764283277E+04  0.21764283277E+04  0.25500000920E-02 0. -1.
    10030    2    1    2    0    0  0.00000000000E+00  0.00000000000E+00 -0.92171776094E+03  0.34311388946E+04  0.33050189837E+04 0.  0.
        4    1    3    3  502    0 -0.14539061209E+04  0.77577569086E+03 -0.58849380390E+03  0.17498564230E+04  0.12699999809E+01 0. -1.
       -4    1    3    3    0  502  0.14539061209E+04 -0.77577569086E+03 -0.33322395704E+03  0.16812824716E+04  0.12699999809E+01 0.  1.
</event>
<event>
 5   0  0.9810351E-08  0.3301040E+04  0.7818609E-02  0.8162631E-01
       -1   -1    0    0    0  501  0.00000000000E+00  0.00000000000E+00  0.14784926744E+04  0.14784926745E+04  0.50400001928E-02 0. -1.
        1   -1    0    0  501    0  0.00000000000E+00  0.00000000000E+00 -0.18425635001E+04  0.18425635001E+04  0.50400001928E-02 0.  1.
    10030    2    1    2    0    0  0.00000000000E+00  0.00000000000E+00 -0.36407082569E+03  0.33210561746E+04  0.33010402222E+04 0.  0.
        5    1    3    3  502    0 -0.27585220831E+03 -0.73879543446E+03 -0.16407516955E+04  0.18204398785E+04  0.46999998093E+01 0.  1.
       -5    1    3    3    0  502  0.27585220831E+03  0.73879543446E+03  0.12766808698E+04  0.15006162961E+04  0.46999998093E+01 0. -1.
</event>
<event>
 5   0  0.2727168E-07  0.3300761E+04  0.7818609E-02  0.8162702E-01
       -2   -1    0    0    0  501  0.00000000000E+00  0.00000000000E+00  0.16785517815E+04  0.16785517815E+04  0.25500000920E-02 0. -1.
        2   -1    0    0  501    0  0.00000000000E+00  0.00000000000E+00 -0.16226819158E+04  0.16226819158E+04  0.25500000920E-02 0.  1.
    10030    2    1    2    0    0  0.00000000000E+00  0.00000000000E+00  0.55869865681E+02  0.33012336972E+04  0.33007608944E+04 0.  0.
        2    1    3    3  502    0  0.60278750544E+03  0.81785765492E+03  0.13287025220E+04  0.16726309552E+04  0.25500000920E-02 0. -1.
       -2    1    3    3    0  502 -0.60278750544E+03 -0.81785765492E+03 -0.12728326563E+04  0.16286027420E+04  0.25500000920E-02 0.  1.
</event>
<event>
 5   0  0.9454010E-08  0.3296733E+04  0.7818609E-02  0.8163727E-01
        1   -1    0    0  501    0  0.00000000000E+00  0.00000000000E+00  0.17279762828E+04  0.17279762828E+04  0.50400001928E-02 0. -1.
       -1   -1    0    0    0  501  0.00000000000E+00  0.00000000000E+00 -0.15724244084E+04  0.15724244084E+04  0.50400001928E-02 0.  1.
    10030    2    1    2    0    0  0.00000000000E+00  0.00000000000E+00  0.15555187439E+03  0.33004006913E+04  0.32967329794E+04 0.  0.
        2    1    3    3  502    0 -0.62088417849E+03  0.12947566964E+04  0.88813310065E+03  0.16883934584E+04  0.25500000920E-02 0. -1.
       -2    1    3    3    0  502  0.62088417849E+03 -0.12947566964E+04 -0.73258122625E+03  0.16120072329E+04  0.25500000920E-02 0.  1.
</event>
<event>
 5   0  0.2727168E-07  0.3321661E+04  0.7818609E-02  0.8157405E-01
       -2   -1    0    0    0  501  0.00000000000E+00  0.00000000000E+00  0.15634964289E+04  0.15634964289E+04  0.25500000920E-02 0.  1.
        2   -1    0    0  501    0  0.00000000000E+00  0.00000000000E+00 -0.17642242197E+04  0.17642242197E+04  0.25500000920E-02 0. -1.
    10030    2    1    2    0    0  0.00000000000E+00  0.00000000000E+00 -0.20072779085E+03  0.33277206486E+04  0.33216611912E+04 0.  0.
        2    1    3    3  502    0  0.90189383237E+03  0.12060086098E+04 -0.80199069968E+03  0.17061823859E+04  0.25500000920E-02 0. -1.
       -2    1    3    3    0  502 -0.90189383237E+03 -0.12060086098E+04  0.60126290883E+03  0.16215382627E+04  0.25500000920E-02 0.  1.
</event>
<event>
 5   0  0.9810351E-08  0.3303166E+04  0.7818609E-02  0.8162090E-01
       -1   -1    0    0    0  501  0.00000000000E+00  0.00000000000E+00  0.14569185000E+04  0.14569185001E+04  0.50400001928E-02 0. -1.
        1   -1    0    0  501    0  0.00000000000E+00  0.00000000000E+00 -0.18722571640E+04  0.18722571640E+04  0.50400001928E-02 0.  1.
    10030    2    1    2    0    0  0.00000000000E+00  0.00000000000E+00 -0.41533866392E+03  0.33291756640E+04  0.33031658142E+04 0.  0.
        5    1    3    3  502    0 -0.70917050914E+03  0.18087610411E+02 -0.17108737874E+04  0.18521234243E+04  0.46999998093E+01 0.  1.
       -5    1    3    3    0  502  0.70917050914E+03 -0.18087610411E+02  0.12955351234E+04  0.14770522397E+04  0.46999998093E+01 0. -1.
</event>
<event>
 5   0  0.2713815E-07  0.3297299E+04  0.7818609E-02  0.8163583E-01
        2   -1    0    0  501    0  0.00000000000E+00  0.00000000000E+00  0.11016832272E+04  0.11016832272E+04  0.25500000920E-02 0. -1.
       -2   -1    0    0    0  501  0.00000000000E+00  0.00000000000E+00 -0.24671755985E+04  0.24671755985E+04  0.25500000920E-02 0.  1.
    10030    2    1    2    0    0  0.00000000000E+00  0.00000000000E+00 -0.13654923713E+04  0.35688588256E+04  0.32972994861E+04 0.  0.
        4    1    3    3  502    0  0.13777830270E+04 -0.89478122694E+03 -0.83242832441E+03  0.18416997697E+04  0.12699999809E+01 0. -1.
       -4    1    3    3    0  502 -0.13777830270E+04  0.89478122694E+03 -0.53306404689E+03  0.17271590559E+04  0.12699999809E+01 0.  1.
</event>
<event>
 5   0  0.9181760E-08  0.3288943E+04  0.7818609E-02  0.8165714E-01
        1   -1    0    0  501    0  0.00000000000E+00  0.00000000000E+00  0.23428434486E+04  0.23428434486E+04  0.50400001928E-02 0.  1.
       -1   -1    0    0    0  501  0.00000000000E+00  0.00000000000E+00 -0.11542755940E+04  0.11542755941E+04  0.50400001928E-02 0. -1.
    10030    2    1    2    0    0  0.00000000000E+00  0.00000000000E+00  0.11885678546E+04  0.34971190427E+04  0.32889433035E+04 0.  0.
        1    1    3    3  502    0  0.29007977200E+03  0.72369243335E+03 -0.94526019686E+03  0.12253137770E+04  0.50400001928E-02 0. -1.
       -1    1    3    3    0  502 -0.29007977200E+03 -0.72369243335E+03  0.21338280515E+04  0.22718052657E+04  0.50400001928E-02 0.  1.
</event>
<event>
 5   0  0.9810351E-08  0.3301464E+04  0.7818609E-02  0.8162523E-01
        1   -1    0    0  501    0  0.00000000000E+00  0.00000000000E+00  0.26672955573E+04  0.26672955573E+04  0.50400001928E-02 0. -1.
       -1   -1    0    0    0  501  0.00000000000E+00  0.00000000000E+00 -0.10216024389E+04  0.10216024389E+04  0.50400001928E-02 0.  1.
    10030    2    1    2    0    0  0.00000000000E+00  0.00000000000E+00  0.16456931184E+04  0.36888979963E+04  0.33014637037E+04 0.  0.
        5    1    3    3  502    0 -0.16475753979E+03  0.15125420121E+04  0.15382707169E+04  0.21636144004E+04  0.46999998093E+01 0. -1.
       -5    1    3    3    0  502  0.16475753979E+03 -0.15125420121E+04  0.10742240153E+03  0.15252835958E+04  0.46999998093E+01 0.  1.
</event>
<event>
 5   0  0.9181760E-08  0.3293542E+04  0.7818609E-02  0.8164540E-01
        1   -1    0    0  501    0  0.00000000000E+00  0.00000000000E+00  0.19077942600E+04  0.19077942600E+04  0.50400001928E-02 0. -1.
       -1   -1    0    0    0  501  0.00000000000E+00  0.00000000000E+00 -0.14214611247E+04  0.14214611247E+04  0.50400001928E-02 0.  1.
    10030    2    1    2    0    0  0.00000000000E+00  0.00000000000E+00  0.48633313537E+03  0.33292553847E+04  0.32935423936E+04 0.  0.
        1    1    3    3  502    0  0.11849721513E+03 -0.15322865371E+04 -0.35478101941E+03  0.15772803155E+04  0.50400001928E-02 0.  1.
       -1    1    3    3    0  502 -0.11849721513E+03  0.15322865371E+04  0.84111415478E+03  0.17519750692E+04  0.50400001928E-02 0. -1.
</event>
<event>
 5   0  0.2727168E-07  0.3298843E+04  0.7818609E-02  0.8163190E-01
        2   -1    0    0  501    0  0.00000000000E+00  0.00000000000E+00  0.17367337613E+04  0.17367337613E+04  0.25500000920E-02 0. -1.
       -2   -1    0    0    0  501  0.00000000000E+00  0.00000000000E+00 -0.15664989718E+04  0.15664989718E+04  0.25500000920E-02 0.  1.
    10030    2    1    2    0    0  0.00000000000E+00  0.00000000000E+00  0.17023478959E+03  0.33032327331E+04  0.32988432223E+04 0.  0.
        2    1    3    3  502    0 -0.11279010693E+04 -0.11463684583E+04  0.45203393863E+03  0.16705257095E+04  0.25500000920E-02 0. -1.
       -2    1    3    3    0  502  0.11279010693E+04  0.11463684583E+04 -0.28179914903E+03  0.16327070236E+04  0.25500000920E-02 0.  1.
</event>
<event>
 5   0  0.2875829E-07  0.3304681E+04  0.7818609E-02  0.8161705E-01
       -2   -1    0    0    0  501  0.00000000000E+00  0.00000000000E+00  0.17277294336E+04  0.17277294336E+04  0.25500000920E-02 0. -1.
        2   -1    0    0  501    0  0.00000000000E+00  0.00000000000E+00 -0.15802408991E+04  0.15802408991E+04  0.25500000920E-02 0.  1.
    10030    2    1    2    0    0  0.00000000000E+00  0.00000000000E+00  0.14748853453E+03  0.33079703327E+04  0.33046807492E+04 0.  0.
        3    1    3    3  502    0  0.51998898795E+03 -0.15680829477E+04  0.10469469862E+03  0.16553651164E+04  0.10100000352E+00 0. -1.
       -3    1    3    3    0  502 -0.51998898795E+03  0.15680829477E+04  0.42793835907E+02  0.16526052163E+04  0.10100000352E+00 0.  1.
</event>
<event>
 5   0  0.9810351E-08  0.3309472E+04  0.7818609E-02  0.8160490E-01
        1   -1    0    0  501    0  0.00000000000E+00  0.00000000000E+00  0.23710847654E+04  0.23710847654E+04  0.50400001928E-02 0.  1.
       -1   -1    0    0    0  501  0.00000000000E+00  0.00000000000E+00 -0.11548092295E+04  0.11548092295E+04  0.50400001928E-02 0. -1.
    10030    2    1    2    0    0  0.00000000000E+00  0.00000000000E+00  0.12162755359E+04  0.35258939949E+04  0.33094716019E+04 0.  0.
        5    1    3    3  502    0  0.70913817531E+03  0.16300145756E+03 -0.97521320626E+03  0.12167618150E+04  0.46999998093E+01 0. -1.
       -5    1    3    3    0  502 -0.70913817531E+03 -0.16300145756E+03  0.21914887422E+04  0.23091321798E+04  0.46999998093E+01 0.  1.
</event>
<event>
 5   0  0.2703956E-07  0.3298588E+04  0.7818609E-02  0.8163255E-01
       -2   -1    0    0    0  501  0.00000000000E+00  0.00000000000E+00  0.29957849479E+04  0.29957849479E+04  0.25500000920E-02 0.  1.
        2   -1    0    0  501    0  0.00000000000E+00  0.00000000000E+00 -0.90799950781E+03  0.90799950781E+03  0.25500000920E-02 0. -1.
    10030    2    1    2    0    0  0.00000000000E+00  0.00000000000E+00  0.20877854401E+04  0.39037844557E+04  0.32985883394E+04 0.  0.
        5    1    3    3  502    0  0.11812880593E+04  0.10091617875E+04  0.38890775049E+03  0.16015993010E+04  0.46999998093E+01 0.  1.
       -5    1    3    3    0  502 -0.11812880593E+04 -0.10091617875E+04  0.16988776896E+04  0.23021851548E+04  0.46999998093E+01 0. -1.
</event>
<event>
 5   0  0.2703956E-07  0.3295807E+04  0.7818609E-02  0.8163963E-01
        2   -1    0    0  501    0  0.00000000000E+00  0.00000000000E+00  0.15315796391E+04  0.15315796391E+04  0.25500000920E-02 0.  1.
       -2   -1    0    0    0  501  0.00000000000E+00  0.00000000000E+00 -0.17730623017E+04  0.17730623017E+04  0.25500000920E-02 0. -1.
    10030    2    1    2    0    0  0.00000000000E+00  0.00000000000E+00 -0.24148266257E+03  0.33046419408E+04  0.32958071061E+04 0.  0.
        5    1    3    3  502    0 -0.86707842528E+03 -0.81656899010E+03 -0.12626330701E+04  0.17357633107E+04  0.46999998093E+01 0. -1.
       -5    1    3    3    0  502  0.86707842528E+03  0.81656899010E+03  0.10211504075E+04  0.15688786301E+04  0.46999998093E+01 0.  1.
</event>
<event>
 5   0  0.2703956E-07  0.3302359E+04  0.7818609E-02  0.8162295E-01
        2   -1    0    0  501    0  0.00000000000E+00  0.00000000000E+00  0.22218646482E+04  0.22218646482E+04  0.25500000920E-02 0.  1.
       -2   -1    0    0    0  501  0.00000000000E+00  0.00000000000E+00 -0.12270746673E+04  0.12270746673E+04  0.25500000920E-02 0. -1.
    10030    2    1    2    0    0  0.00000000000E+00  0.00000000000E+00  0.99478998095E+03  0.34489393155E+04  0.33023590501E+04 0.  0.
        5    1    3    3  502    0 -0.94347972706E+03  0.13183869016E+04  0.82446263165E+03  0.18188069548E+04  0.46999998093E+01 0.  1.
       -5    1    3    3    0  502  0.94347972706E+03 -0.13183869016E+04  0.17032734930E+03  0.16301323608E+04  0.46999998093E+01 0. -1.
</event>
<event>
 5   0  0.9181760E-08  0.3277463E+04  0.7818609E-02  0.8168654E-01
        1   -1    0    0  501    0  0.00000000000E+00  0.00000000000E+00  0.95079871008E+03  0.95079871009E+03  0.50400001928E-02 0.  1.
       -1   -1    0    0    0  501  0.00000000000E+00  0.00000000000E+00 -0.28244048169E+04  0.28244048169E+04  0.50400001928E-02 0. -1.
    10030    2    1    2    0    0  0.00000000000E+00  0.00000000000E+00 -0.18736061068E+04  0.37752035270E+04  0.32774627117E+04 0.  0.
        1    1    3    3  502    0 -0.54110974569E+03 -0.67563515756E+03  0.66597353297E+03  0.10921553780E+04  0.50400001928E-02 0.  1.
       -1    1    3    3    0  502  0.54110974569E+03  0.67563515756E+03 -0.25395796398E+04  0.26830481490E+04  0.50400001928E-02 0. -1.
</event>
<event>
 5   0  0.2713815E-07  0.3297484E+04  0.7818609E-02  0.8163536E-01
       -2   -1    0    0    0  501  0.00000000000E+00  0.00000000000E+00  0.15371151691E+04  0.15371151691E+04  0.25500000920E-02 0.  1.
        2   -1    0    0  501    0  0.00000000000E+00  0.00000000000E+00 -0.17684753194E+04  0.17684753194E+04  0.25500000920E-02 0. -1.
    10030    2    1    2    0    0  0.00000000000E+00  0.00000000000E+00 -0.23136015037E+03  0.33055904885E+04  0.32974840346E+04 0.  0.
        4    1    3    3  502    0  0.50486590325E+03 -0.47025201213E+03  0.13854397010E+04  0.15477310210E+04  0.12699999809E+01 0.  1.
       -4    1    3    3    0  502 -0.50486590325E+03  0.47025201213E+03 -0.16167998514E+04  0.17578594675E+04  0.12699999809E+01 0. -1.
</event>
<event>
 5   0  0.9181760E-08  0.3306909E+04  0.7818609E-02  0.8161140E-01
        1   -1    0    0  501    0  0.00000000000E+00  0.00000000000E+00  0.15121454175E+04  0.15121454176E+04  0.50400001928E-02 0.  1.
       -1   -1    0    0    0  501  0.00000000000E+00  0.00000000000E+00 -0.18079689604E+04  0.18079689604E+04  0.50400001928E-02 0. -1.
    10030    2    1    2    0    0  0.00000000000E+00  0.00000000000E+00 -0.29582354286E+03  0.33201143780E+04  0.33069091179E+04 0.  0.
        1    1    3    3  502    0 -0.67724066914E+03 -0.59286672791E+02 -0.16611604501E+04  0.17948882624E+04  0.50400001928E-02 0. -1.
       -1    1    3    3    0  502  0.67724066914E+03  0.59286672791E+02  0.13653369072E+04  0.15252261156E+04  0.50400001928E-02 0.  1.
</event>
<event>
 5   0  0.9283910E-08  0.3290926E+04  0.7818609E-02  0.8165208E-01
        1   -1    0    0  501    0  0.00000000000E+00  0.00000000000E+00  0.21774801519E+04  0.21774801519E+04  0.50400001928E-02 0. -1.
       -1   -1    0    0    0  501  0.00000000000E+00  0.00000000000E+00 -0.12434323265E+04  0.12434323265E+04  0.50400001928E-02 0.  1.
    10030    2    1    2    0    0  0.00000000000E+00  0.00000000000E+00  0.93404782541E+03  0.34209124784E+04  0.32909264417E+04 0.  0.
        3    1    3    3  502    0  0.32797208172E+03  0.86215247769E+03  0.18834434951E+04  0.20971962213E+04  0.10100000352E+00 0. -1.
       -3    1    3    3    0  502 -0.32797208172E+03 -0.86215247769E+03 -0.94939566974E+03  0.13237162570E+04  0.10100000352E+00 0.  1.
</event>
<event>
 5   0  0.8805125E-08  0.3302585E+04  0.7818609E-02  0.8162238E-01
        1   -1    0    0  501    0  0.00000000000E+00  0.00000000000E+00  0.17822012525E+04  0.17822012525E+04  0.50400001928E-02 0.  1.
       -1   -1    0    0    0  501  0.00000000000E+00  0.00000000000E+00 -0.15299990298E+04  0.15299990298E+04  0.50400001928E-02 0. -1.
    10030    2    1    2    0    0  0.00000000000E+00  0.00000000000E+00  0.25220222265E+03  0.33122002823E+04  0.33025845559E+04 0.  0.
        4    1    3    3  502    0 -0.12473226882E+04 -0.16797812530E+03 -0.94599871470E+03  0.15744668050E+04  0.12699999809E+01 0. -1.
       -4    1    3    3    0  502  0.12473226882E+04  0.16797812530E+03  0.11982009373E+04  0.17377334773E+04  0.12699999809E+01 0.  1.
</event>
<event>
 5   0  0.2713815E-07  0.3306262E+04  0.7818609E-02  0.8161304E-01
        2   -1    0    0  501    0  0.00000000000E+00  0.00000000000E+00  0.20988327075E+04  0.20988327075E+04  0.25500000920E-02 0. -1.
       -2   -1    0    0    0  501  0.00000000000E+00  0.00000000000E+00 -0.13020770328E+04  0.13020770328E+04  0.25500000920E-02 0.  1.
    10030    2    1    2    0    0  0.00000000000E+00  0.00000000000E+00  0.79675567471E+03  0.34009097404E+04  0.33062618555E+04 0.  0.
        4    1    3    3  502    0  0.10910908901E+03  0.16227839739E+04  0.70266303439E+03  0.17717419598E+04  0.12699999809E+01 0.  1.
       -4    1    3    3    0  502 -0.10910908901E+03 -0.16227839739E+04  0.94092640318E+02  0.16291677806E+04  0.12699999809E+01 0. -1.
</event>
<event>
 5   0  0.8805125E-08  0.3281622E+04  0.7818609E-02  0.8167588E-01
       -1   -1    0    0    0  501  0.00000000000E+00  0.00000000000E+00  0.93829097664E+03  0.93829097665E+03  0.50400001928E-02 0. -1.
        1   -1    0    0  501    0  0.00000000000E+00  0.00000000000E+00 -0.28693233496E+04  0.28693233496E+04  0.50400001928E-02 0.  1.
    10030    2    1    2    0    0  0.00000000000E+00  0.00000000000E+00 -0.19310323729E+04  0.38076143262E+04  0.32816216772E+04 0.  0.
        4    1    3    3  502    0  0.65585296173E+03  0.63531289671E+03 -0.25472919122E+04  0.27060050412E+04  0.12699999809E+01 0.  1.
       -4    1    3    3    0  502 -0.65585296173E+03 -0.63531289671E+03  0.61625953929E+03  0.11016092850E+04  0.12699999809E+01 0. -1.
</event>
<event>
 5   0  0.9283910E-08  0.3297702E+04  0.7818609E-02  0.8163480E-01
        1   -1    0    0  501    0  0.00000000000E+00  0.00000000000E+00  0.18329463681E+04  0.18329463681E+04  0.50400001928E-02 0.  1.
       -1   -1    0    0    0  501  0.00000000000E+00  0.00000000000E+00 -0.14832453234E+04  0.14832453234E+04  0.50400001928E-02 0. -1.
    10030    2    1    2    0    0  0.00000000000E+00  0.00000000000E+00  0.34970104471E+03  0.33161916915E+04  0.32977017018E+04 0.  0.
        3    1    3    3  502    0  0.96651032678E+03 -0.50482530064E+03  0.14186030970E+04  0.17892527918E+04  0.10100000352E+00 0.  1.
       -3    1    3    3    0  502 -0.96651032678E+03  0.50482530064E+03 -0.10689020523E+04  0.15269388997E+04  0.10100000352E+00 0. -1.
</event>
<event>
 5   0  0.2824402E-07  0.3297780E+04  0.7818609E-02  0.8163460E-01
       -2   -1    0    0    0  501  0.00000000000E+00  0.00000000000E+00  0.14522962674E+04  0.14522962674E+04  0.25500000920E-02 0.  1.
        2   -1    0    0  501    0  0.00000000000E+00  0.00000000000E+00 -0.18720966941E+04  0.18720966941E+04  0.25500000920E-02 0. -1.
    10030    2    1    2    0    0  0.00000000000E+00  0.00000000000E+00 -0.41980042672E+03  0.33243929615E+04  0.32977804906E+04 0.  0.
        1    1    3    3  502    0 -0.90154054425E+03 -0.95152548249E+03  0.79850369105E+03  0.15348564237E+04  0.50400001928E-02 0.  1.
       -1    1    3    3    0  502  0.90154054425E+03  0.95152548249E+03 -0.12183041178E+04  0.17895365378E+04  0.50400001928E-02 0. -1.
</event>
<event>
 5   0  0.2703956E-07  0.3300659E+04  0.7818609E-02  0.8162728E-01
        2   -1    0    0  501    0  0.00000000000E+00  0.00000000000E+00  0.17913549639E+04  0.17913549639E+04  0.25500000920E-02 0. -1.
       -2   -1    0    0    0  501  0.00000000000E+00  0.00000000000E+00 -0.15204059551E+04  0.15204059552E+04  0.25500000920E-02 0.  1.
    10030    2    1    2    0    0  0.00000000000E+00  0.00000000000E+00  0.27094900873E+03  0.33117609190E+04  0.33006585736E+04 0.  0.
        5    1    3    3  502    0 -0.89810279416E+03  0.11136829656E+04 -0.68990192550E+03  0.15883529625E+04  0.46999998093E+01 0.  1.
       -5    1    3    3    0  502  0.89810279416E+03 -0.11136829656E+04  0.96085093423E+03  0.17234079565E+04  0.46999998093E+01 0. -1.
</event>
<event>
 5   0  0.8805125E-08  0.3305465E+04  0.7818609E-02  0.8161506E-01
       -1   -1    0    0    0  501  0.00000000000E+00  0.00000000000E+00  0.13515113459E+04  0.13515113459E+04  0.50400001928E-02 0. -1.
        1   -1    0    0  501    0  0.00000000000E+00  0.00000000000E+00 -0.20210891829E+04  0.20210891829E+04  0.50400001928E-02 0.  1.
    10030    2    1    2    0    0  0.00000000000E+00  0.00000000000E+00 -0.66957783701E+03  0.33726005288E+04  0.33054651484E+04 0.  0.
        4    1    3    3  502    0  0.15302897255E+04  0.47325345363E+03 -0.75020423449E+03  0.17687745706E+04  0.12699999809E+01 0.  1.
       -4    1    3    3    0  502 -0.15302897255E+04 -0.47325345363E+03  0.80626397478E+02  0.16038259582E+04  0.12699999809E+01 0. -1.
</event>
<event>
 5   0  0.2713815E-07  0.3290795E+04  0.7818609E-02  0.8165241E-01
        2   -1    0    0  501    0  0.00000000000E+00  0.00000000000E+00  0.19466190786E+04  0.19466190786E+04  0.25500000920E-02 0. -1.
       -2   -1    0    0    0  501  0.00000000000E+00  0.00000000000E+00 -0.13907876254E+04  0.13907876254E+04  0.25500000920E-02 0.  1.
    10030    2    1    2    0    0  0.00000000000E+00  0.00000000000E+00  0.55583145316E+03  0.33374067039E+04  0.32907954818E+04 0.  0.
        4    1    3    3  502    0 -0.96086688674E+03 -0.10745863995E+04 -0.52662458101E+03  0.15347104503E+04  0.12699999809E+01 0.  1.
       -4    1    3    3    0  502  0.96086688674E+03  0.10745863995E+04  0.10824560342E+04  0.18026962536E+04  0.12699999809E+01 0. -1.
</event>
<event>
 5   0  0.2727168E-07  0.3296782E+04  0.7818609E-02  0.8163715E-01
       -2   -1    0    0    0  501  0.00000000000E+00  0.00000000000E+00  0.13003018561E+04  0.13003018562E+04  0.25500000920E-02 0. -1.
        2   -1    0    0  501    0  0.00000000000E+00  0.00000000000E+00 -0.20896627631E+04  0.20896627631E+04  0.25500000920E-02 0.  1.
    10030    2    1    2    0    0  0.00000000000E+00  0.00000000000E+00 -0.78936090700E+03  0.33899646193E+04  0.32967816850E+04 0.  0.
        2    1    3    3  502    0  0.81340234649E+03  0.10439086560E+04 -0.14052213827E+04  0.19302890441E+04  0.25500000920E-02 0.  1.
       -2    1    3    3    0  502 -0.81340234649E+03 -0.10439086560E+04  0.61586047570E+03  0.14596755752E+04  0.25500000920E-02 0. -1.
</event>
<event>
 5   0  0.9181760E-08  0.3288363E+04  0.7818609E-02  0.8165863E-01
       -1   -1    0    0    0  501  0.00000000000E+00  0.00000000000E+00  0.18330160613E+04  0.18330160613E+04  0.50400001928E-02 0.  1.
        1   -1    0    0  501    0  0.00000000000E+00  0.00000000000E+00 -0.14748000973E+04  0.14748000973E+04  0.50400001928E-02 0. -1.
    10030    2    1    2    0    0  0.00000000000E+00  0.00000000000E+00  0.35821596397E+03  0.33078161586E+04  0.32883626719E+04 0.  0.
        1    1    3    3  502    0  0.14584163499E+04  0.28482689108E+03 -0.52877928493E+03  0.15772482809E+04  0.50400001928E-02 0. -1.
       -1    1    3    3    0  502 -0.14584163499E+04 -0.28482689108E+03  0.88699524890E+03  0.17305678776E+04  0.50400001928E-02 0.  1.
</event>
<event>
 5   0  0.2727168E-07  0.3300266E+04  0.7818609E-02  0.8162828E-01
        2   -1    0    0  501    0  0.00000000000E+00  0.00000000000E+00  0.13939971166E+04  0.13939971166E+04  0.25500000920E-02 0.  1.
       -2   -1    0    0    0  501  0.00000000000E+00  0.00000000000E+00 -0.19533315575E+04  0.19533315575E+04  0.25500000920E-02 0. -1.
    10030    2    1    2    0    0  0.00000000000E+00  0.00000000000E+00 -0.55933444094E+03  0.33473286741E+04  0.33002657826E+04 0.  0.
        2    1    3    3  502    0  0.10553738561E+04  0.92048578427E+03 -0.11649430768E+04  0.18215928270E+04  0.25500000920E-02 0.  1.
       -2    1    3    3    0  502 -0.10553738561E+04 -0.92048578427E+03  0.60560863588E+03  0.15257358471E+04  0.25500000920E-02 0. -1.
</event>
<event>
 5   0  0.8805125E-08  0.3301747E+04  0.7818609E-02  0.8162451E-01
        1   -1    0    0  501    0  0.00000000000E+00  0.00000000000E+00  0.15672546318E+04  0.15672546318E+04  0.50400001928E-02 0.  1.
       -1   -1    0    0    0  501  0.00000000000E+00  0.00000000000E+00 -0.17389539778E+04  0.17389539778E+04  0.50400001928E-02 0. -1.
    10030    2    1    2    0    0  0.00000000000E+00  0.00000000000E+00 -0.17169934600E+03  0.33062086096E+04  0.33017472200E+04 0.  0.
        4    1    3    3  502    0  0.40216616552E+02  0.35587590164E+03 -0.16995845734E+04  0.17369094301E+04  0.12699999809E+01 0. -1.
       -4    1    3    3    0  502 -0.40216616552E+02 -0.35587590164E+03  0.15278852274E+04  0.15692991794E+04  0.12699999809E+01 0.  1.
</event>
<event>
 5   0  0.9181760E-08  0.3298990E+04  0.7818609E-02  0.8163152E-01
        1   -1    0    0  501    0  0.00000000000E+00  0.00000000000E+00  0.13913638177E+04  0.13913638177E+04  0.50400001928E-02 0.  1.
       -1   -1    0    0    0  501  0.00000000000E+00  0.00000000000E+00 -0.19555161448E+04  0.19555161448E+04  0.50400001928E-02 0. -1.
    10030    2    1    2    0    0  0.00000000000E+00  0.00000000000E+00 -0.56415232712E+03  0.33468799625E+04  0.32989903964E+04 0.  0.
        1    1    3    3  502    0  0.16040697926E+04  0.31804891630E+03 -0.62979611039E+02  0.16365089197E+04  0.50400001928E-02 0.  1.
       -1    1    3    3    0  502 -0.16040697926E+04 -0.31804891630E+03 -0.50117271608E+03  0.17103710428E+04  0.50400001928E-02 0. -1.
</event>
<event>
 5   0  0.2824402E-07  0.3301082E+04  0.7818609E-02  0.8162620E-01
       -2   -1    0    0    0  501  0.00000000000E+00  0.00000000000E+00  0.14512944671E+04  0.14512944671E+04  0.25500000920E-02 0. -1.
        2   -1    0    0  501    0  0.00000000000E+00  0.00000000000E+00 -0.18771414916E+04  0.18771414916E+04  0.25500000920E-02 0.  1.
    10030    2    1    2    0    0  0.00000000000E+00  0.00000000000E+00 -0.42584702444E+03  0.33284359587E+04  0.33010816777E+04 0.  0.
        1    1    3    3  502    0 -0.15126754162E+04 -0.41480510763E+03 -0.73102468705E+03  0.17305049221E+04  0.50400001928E-02 0.  1.
       -1    1    3    3    0  502  0.15126754162E+04  0.41480510763E+03  0.30517766261E+03  0.15979310367E+04  0.50400001928E-02 0. -1.
</event>
<event>
 5   0  0.2727168E-07  0.3303739E+04  0.7818609E-02  0.8161945E-01
        2   -1    0    0  501    0  0.00000000000E+00  0.00000000000E+00  0.19104472148E+04  0.19104472148E+04  0.25500000920E-02 0. -1.
       -2   -1    0    0    0  501  0.00000000000E+00  0.00000000000E+00 -0.14282899885E+04  0.14282899885E+04  0.25500000920E-02 0.  1.
    10030    2    1    2    0    0  0.00000000000E+00  0.00000000000E+00  0.48215722635E+03  0.33387372033E+04  0.33037388701E+04 0.  0.
        2    1    3    3  502    0 -0.15765448799E+04 -0.15629745553E+03  0.71374044307E+03  0.17376271387E+04  0.25500000920E-02 0. -1.
       -2    1    3    3    0  502  0.15765448799E+04  0.15629745553E+03 -0.23158321672E+03  0.16011100647E+04  0.25500000920E-02 0.  1.
</event>
<event>
 5   0  0.9181760E-08  0.3301476E+04  0.7818609E-02  0.8162520E-01
        1   -1    0    0  501    0  0.00000000000E+00  0.00000000000E+00  0.20121790165E+04  0.20121790165E+04  0.50400001928E-02 0.  1.
       -1   -1    0    0    0  501  0.00000000000E+00  0.00000000000E+00 -0.13542211379E+04  0.13542211379E+04  0.50400001928E-02 0. -1.
    10030    2    1    2    0    0  0.00000000000E+00  0.00000000000E+00  0.65795787853E+03  0.33664001544E+04  0.33014756443E+04 0.  0.
        1    1    3    3  502    0  0.15847410231E+04 -0.39842482237E+02  0.79840589337E+03  0.17749488737E+04  0.50400001928E-02 0.  1.
       -1    1    3    3    0  502 -0.15847410231E+04  0.39842482237E+02 -0.14044801484E+03  0.15914512807E+04  0.50400001928E-02 0. -1.
</event>
<event>
 5   0  0.9454010E-08  0.3305177E+04  0.7818609E-02  0.8161579E-01
       -1   -1    0    0    0  501  0.00000000000E+00  0.00000000000E+00  0.14809479038E+04  0.14809479038E+04  0.50400001928E-02 0. -1.
        1   -1    0    0  501    0  0.00000000000E+00  0.00000000000E+00 -0.18441221063E+04  0.18441221063E+04  0.50400001928E-02 0.  1.
    10030    2    1    2    0    0  0.00000000000E+00  0.00000000000E+00 -0.36317420249E+03  0.33250700101E+04  0.33051770105E+04 0.  0.
        2    1    3    3  502    0 -0.35226500286E+03  0.37151180884E+03  0.13991552332E+04  0.14898815466E+04  0.25500000920E-02 0. -1.
       -2    1    3    3    0  502  0.35226500286E+03 -0.37151180884E+03 -0.17623294357E+04  0.18351884634E+04  0.25500000920E-02 0.  1.
</event>
<event>
 5   0  0.2824402E-07  0.3301222E+04  0.7818609E-02  0.8162585E-01
        2   -1    0    0  501    0  0.00000000000E+00  0.00000000000E+00  0.13790546097E+04  0.13790546097E+04  0.25500000920E-02 0. -1.
       -2   -1    0    0    0  501  0.00000000000E+00  0.00000000000E+00 -0.19756409272E+04  0.19756409272E+04  0.25500000920E-02 0.  1.
    10030    2    1    2    0    0  0.00000000000E+00  0.00000000000E+00 -0.59658631747E+03  0.33546955369E+04  0.33012220329E+04 0.  0.
        1    1    3    3  502    0 -0.50080599430E+03 -0.15788605992E+03  0.12919130499E+04  0.13945515338E+04  0.50400001928E-02 0. -1.
       -1    1    3    3    0  502  0.50080599430E+03  0.15788605992E+03 -0.18884993674E+04  0.19601440030E+04  0.50400001928E-02 0.  1.
</event>
<event>
 5   0  0.9454010E-08  0.3253220E+04  0.7818609E-02  0.8174902E-01
        1   -1    0    0  501    0  0.00000000000E+00  0.00000000000E+00  0.22034623846E+04  0.22034623846E+04  0.50400001928E-02 0.  1.
       -1   -1    0    0    0  501  0.00000000000E+00  0.00000000000E+00 -0.12007739855E+04  0.12007739855E+04  0.50400001928E-02 0. -1.
    10030    2    1    2    0    0  0.00000000000E+00  0.00000000000E+00  0.10026883991E+04  0.34042363701E+04  0.32532201337E+04 0.  0.
        2    1    3    3  502    0  0.47524588653E+03  0.10316088029E+04  0.17197772132E+04  0.20609970980E+04  0.25500000920E-02 0.  1.
       -2    1    3    3    0  502 -0.47524588653E+03 -0.10316088029E+04 -0.71708881409E+03  0.13432392721E+04  0.25500000920E-02 0. -1.
</event>
<event>
 5   0  0.9283910E-08  0.3299055E+04  0.7818609E-02  0.8163136E-01
       -1   -1    0    0    0  501  0.00000000000E+00  0.00000000000E+00  0.11973767323E+04  0.11973767323E+04  0.50400001928E-02 0. -1.
        1   -1    0    0  501    0  0.00000000000E+00  0.00000000000E+00 -0.22724189040E+04  0.22724189040E+04  0.50400001928E-02 0.  1.
    10030    2    1    2    0    0  0.00000000000E+00  0.00000000000E+00 -0.10750421718E+04  0.34697956363E+04  0.32990553325E+04 0.  0.
        3    1    3    3  502    0 -0.23129710026E+02  0.15824144343E+04 -0.10267520198E+04  0.18864755884E+04  0.10100000352E+00 0. -1.
       -3    1    3    3    0  502  0.23129710026E+02 -0.15824144343E+04 -0.48290151960E+02  0.15833200479E+04  0.10100000352E+00 0.  1.
</event>
<event>
 5   0  0.2713815E-07  0.3270973E+04  0.7818609E-02  0.8170321E-01
        2   -1    0    0  501    0  0.00000000000E+00  0.00000000000E+00  0.26815890955E+04  0.26815890955E+04  0.25500000920E-02 0.  1.
       -2   -1    0    0    0  501  0.00000000000E+00  0.00000000000E+00 -0.99747399105E+03  0.99747399105E+03  0.25500000920E-02 0. -1.
    10030    2    1    2    0    0  0.00000000000E+00  0.00000000000E+00  0.16841151044E+04  0.36790630865E+04  0.32709725633E+04 0.  0.
        4    1    3    3  502    0 -0.37828635076E+03 -0.12647266685E+04 -0.24389323320E+03  0.13424304941E+04  0.12699999809E+01 0. -1.
       -4    1    3    3    0  502  0.37828635076E+03  0.12647266685E+04  0.19280083376E+04  0.23366325925E+04  0.12699999809E+01 0.  1.
</event>
<event>
 5   0  0.2713815E-07  0.3317091E+04  0.7818609E-02  0.8158560E-01
        2   -1    0    0  501    0  0.00000000000E+00  0.00000000000E+00  0.14443068947E+04  0.14443068947E+04  0.25500000920E-02 0. -1.
       -2   -1    0    0    0  501  0.00000000000E+00  0.00000000000E+00 -0.19045623647E+04  0.19045623647E+04  0.25500000920E-02 0.  1.
    10030    2    1    2    0    0  0.00000000000E+00  0.00000000000E+00 -0.46025547001E+03  0.33488692594E+04  0.33170906256E+04 0.  0.
        4    1    3    3  502    0 -0.88234357632E+03 -0.16863038395E+03 -0.16376885012E+04  0.18678842665E+04  0.12699999809E+01 0.  1.
       -4    1    3    3    0  502  0.88234357632E+03  0.16863038395E+03  0.11774330312E+04  0.14809849928E+04  0.12699999809E+01 0. -1.
</event>
<event>
 5   0  0.2713815E-07  0.3297530E+04  0.7818609E-02  0.8163524E-01
        2   -1    0    0  501    0  0.00000000000E+00  0.00000000000E+00  0.18923628882E+04  0.18923628882E+04  0.25500000920E-02 0.  1.
       -2   -1    0    0    0  501  0.00000000000E+00  0.00000000000E+00 -0.14365245417E+04  0.14365245417E+04  0.25500000920E-02 0. -1.
    10030    2    1    2    0    0  0.00000000000E+00  0.00000000000E+00  0.45583834653E+03  0.33288874300E+04  0.32975298214E+04 0.  0.
        4    1    3    3  502    0 -0.98907605061E+03  0.48083523159E+03  0.14679938123E+04  0.18342522726E+04  0.12699999809E+01 0.  1.
       -4    1    3    3    0  502  0.98907605061E+03 -0.48083523159E+03 -0.10121554657E+04  0.14946351573E+04  0.12699999809E+01 0. -1.
</event>
<event>
 5   0  0.2875829E-07  0.3259778E+04  0.7818609E-02  0.8173206E-01
        2   -1    0    0  501    0  0.00000000000E+00  0.00000000000E+00  0.23169333056E+04  0.23169333056E+04  0.25500000920E-02 0. -1.
       -2   -1    0    0    0  501  0.00000000000E+00  0.00000000000E+00 -0.11465754737E+04  0.11465754737E+04  0.25500000920E-02 0.  1.
    10030    2    1    2    0    0  0.00000000000E+00  0.00000000000E+00  0.11703578319E+04  0.34635087793E+04  0.32597784602E+04 0.  0.
        3    1    3    3  502    0 -0.13080141060E+04  0.49921782792E+02  0.16170314287E+04  0.20804287389E+04  0.10100000352E+00 0. -1.
       -3    1    3    3    0  502  0.13080141060E+04 -0.49921782792E+02 -0.44667359681E+03  0.13830800404E+04  0.10100000352E+00 0.  1.
</event>
<event>
 5   0  0.9181760E-08  0.3296416E+04  0.7818609E-02  0.8163808E-01
        1   -1    0    0  501    0  0.00000000000E+00  0.00000000000E+00  0.11862481073E+04  0.11862481073E+04  0.50400001928E-02 0. -1.
       -1   -1    0    0    0  501  0.00000000000E+00  0.00000000000E+00 -0.22900693522E+04  0.22900693522E+04  0.50400001928E-02 0.  1.
    10030    2    1    2    0    0  0.00000000000E+00  0.00000000000E+00 -0.11038212449E+04  0.34763174595E+04  0.32964164996E+04 0.  0.
        1    1    3    3  502    0  0.39195328416E+03  0.81348762531E+03  0.90217962177E+03  0.12764472427E+04  0.50400001928E-02 0. -1.
       -1    1    3    3    0  502 -0.39195328416E+03 -0.81348762531E+03 -0.20060008667E+04  0.21998702168E+04  0.50400001928E-02 0.  1.
</event>
<event>
 5   0  0.2727168E-07  0.3296012E+04  0.7818609E-02  0.8163911E-01
        2   -1    0    0  501    0  0.00000000000E+00  0.00000000000E+00  0.22369833551E+04  0.22369833551E+04  0.25500000920E-02 0.  1.
       -2   -1    0    0    0  501  0.00000000000E+00  0.00000000000E+00 -0.12141013328E+04  0.12141013328E+04  0.25500000920E-02 0. -1.
    10030    2    1    2    0    0  0.00000000000E+00  0.00000000000E+00  0.10228820223E+04  0.34510846879E+04  0.32960124229E+04 0.  0.
        2    1    3    3  502    0 -0.10150613266E+03  0.15519196237E+04 -0.59336261527E+02  0.15563671820E+04  0.25500000920E-02 0.  1.
       -2    1    3    3    0  502  0.10150613266E+03 -0.15519196237E+04  0.10822182838E+04  0.18947175059E+04  0.25500000920E-02 0. -1.
</event>
<event>
 5   0  0.2824402E-07  0.3295849E+04  0.7818609E-02  0.8163953E-01
       -2   -1    0    0    0  501  0.00000000000E+00  0.00000000000E+00  0.12792325040E+04  0.12792325040E+04  0.25500000920E-02 0.  1.
        2   -1    0    0  501    0  0.00000000000E+00  0.00000000000E+00 -0.21228779918E+04  0.21228779918E+04  0.25500000920E-02 0. -1.
    10030    2    1    2    0    0  0.00000000000E+00  0.00000000000E+00 -0.84364548781E+03  0.34021104959E+04  0.32958486187E+04 0.  0.
        1    1    3    3  502    0  0.14964871501E+04  0.26771471450E+03 -0.10783391139E+04  0.18638562722E+04  0.50400001928E-02 0. -1.
       -1    1    3    3    0  502 -0.14964871501E+04 -0.26771471450E+03  0.23469362612E+03  0.15382542237E+04  0.50400001928E-02 0.  1.
</event>
<event>
 5   0  0.9454010E-08  0.3305076E+04  0.7818609E-02  0.8161605E-01
        1   -1    0    0  501    0  0.00000000000E+00  0.00000000000E+00  0.17164045599E+04  0.17164045599E+04  0.50400001928E-02 0. -1.
       -1   -1    0    0    0  501  0.00000000000E+00  0.00000000000E+00 -0.15910478327E+04  0.15910478327E+04  0.50400001928E-02 0.  1.
    10030    2    1    2    0    0  0.00000000000E+00  0.00000000000E+00  0.12535672720E+03  0.33074523925E+04  0.33050759477E+04 0.  0.
        2    1    3    3  502    0  0.82444099373E+03 -0.13774472724E+04  0.45515650672E+03  0.16686016260E+04  0.25500000920E-02 0. -1.
       -2    1    3    3    0  502 -0.82444099373E+03  0.13774472724E+04 -0.32979977952E+03  0.16388507666E+04  0.25500000920E-02 0.  1.
</event>
<event>
 5   0  0.9454010E-08  0.3300744E+04  0.7818609E-02  0.8162706E-01
        1   -1    0    0  501    0  0.00000000000E+00  0.00000000000E+00  0.18335779904E+04  0.18335779904E+04  0.50400001928E-02 0. -1.
       -1   -1    0    0    0  501  0.00000000000E+00  0.00000000000E+00 -0.14854716211E+04  0.14854716211E+04  0.50400001928E-02 0.  1.
    10030    2    1    2    0    0  0.00000000000E+00  0.00000000000E+00  0.34810636931E+03  0.33190496115E+04  0.33007442008E+04 0.  0.
        2    1    3    3  502    0  0.11223347193E+04 -0.29195801796E+03  0.13548112385E+04  0.17833642921E+04  0.25500000920E-02 0. -1.
       -2    1    3    3    0  502 -0.11223347193E+04  0.29195801796E+03 -0.10067048692E+04  0.15356853194E+04  0.25500000920E-02 0.  1.
</event>
<event>
 5   0  0.2824402E-07  0.3297165E+04  0.7818609E-02  0.8163617E-01
       -2   -1    0    0    0  501  0.00000000000E+00  0.00000000000E+00  0.15957876890E+04  0.15957876890E+04  0.25500000920E-02 0.  1.
        2   -1    0    0  501    0  0.00000000000E+00  0.00000000000E+00 -0.17031244642E+04  0.17031244642E+04  0.25500000920E-02 0. -1.
    10030    2    1    2    0    0  0.00000000000E+00  0.00000000000E+00 -0.10733677522E+03  0.32989121532E+04  0.32971654813E+04 0.  0.
        1    1    3    3  502    0 -0.13292845949E+04  0.30119480160E+03  0.87424364283E+03  0.16192645830E+04  0.50400001928E-02 0.  1.
       -1    1    3    3    0  502  0.13292845949E+04 -0.30119480160E+03 -0.98158041805E+03  0.16796475702E+04  0.50400001928E-02 0. -1.
</event>
<event>
 5   0  0.2713815E-07  0.3306159E+04  0.7818609E-02  0.8161330E-01
       -2   -1    0    0    0  501  0.00000000000E+00  0.00000000000E+00  0.20408680359E+04  0.20408680359E+04  0.25500000920E-02 0. -1.
        2   -1    0    0  501    0  0.00000000000E+00  0.00000000000E+00 -0.13389754870E+04  0.13389754870E+04  0.25500000920E-02 0.  1.
    10030    2    1    2    0    0  0.00000000000E+00  0.00000000000E+00  0.70189254891E+03  0.33798435230E+04  0.33061592656E+04 0.  0.
        4    1    3    3  502    0 -0.77381415656E+03  0.14554375552E+04  0.47856369839E+03  0.17164240887E+04  0.12699999809E+01 0. -1.
       -4    1    3    3    0  502  0.77381415656E+03 -0.14554375552E+04  0.22332885051E+03  0.16634194343E+04  0.12699999809E+01 0.  1.
</event>
<event>
 5   0  0.2713815E-07  0.3292455E+04  0.7818609E-02  0.8164818E-01
        2   -1    0    0  501    0  0.00000000000E+00  0.00000000000E+00  0.13024193624E+04  0.13024193624E+04  0.25500000920E-02 0. -1.
       -2   -1    0    0    0  501  0.00000000000E+00  0.00000000000E+00 -0.20807926074E+04  0.20807926074E+04  0.25500000920E-02 0.  1.
    10030    2    1    2    0    0  0.00000000000E+00  0.00000000000E+00 -0.77837324500E+03  0.33832119698E+04  0.32924547566E+04 0.  0.
        4    1    3    3  502    0  0.31597220739E+03 -0.10935473174E+04  0.83287262416E+03  0.14104476567E+04  0.12699999809E+01 0. -1.
       -4    1    3    3    0  502 -0.31597220739E+03  0.10935473174E+04 -0.16112458692E+04  0.19727643131E+04  0.12699999809E+01 0.  1.
</event>
<event>
 5   0  0.9283910E-08  0.3298773E+04  0.7818609E-02  0.8163208E-01
        1   -1    0    0  501    0  0.00000000000E+00  0.00000000000E+00  0.24432119993E+04  0.24432119993E+04  0.50400001928E-02 0. -1.
       -1   -1    0    0    0  501  0.00000000000E+00  0.00000000000E+00 -0.11134830647E+04  0.11134830647E+04  0.50400001928E-02 0.  1.
    10030    2    1    2    0    0  0.00000000000E+00  0.00000000000E+00  0.13297289346E+04  0.35566950640E+04  0.32987726109E+04 0.  0.
        3    1    3    3  502    0 -0.28117503791E+03 -0.42845612882E+03  0.23551931264E+04  0.24103046963E+04  0.10100000352E+00 0. -1.
       -3    1    3    3    0  502  0.28117503791E+03  0.42845612882E+03 -0.10254641918E+04  0.11463903677E+04  0.10100000352E+00 0.  1.
</event>
<event>
 5   0  0.9810351E-08  0.3298127E+04  0.7818609E-02  0.8163372E-01
       -1   -1    0    0    0  501  0.00000000000E+00  0.00000000000E+00  0.18450695075E+04  0.18450695075E+04  0.50400001928E-02 0.  1.
        1   -1    0    0  501    0  0.00000000000E+00  0.00000000000E+00 -0.14738796724E+04  0.14738796724E+04  0.50400001928E-02 0. -1.
    10030    2    1    2    0    0  0.00000000000E+00  0.00000000000E+00  0.37118983515E+03  0.33189491799E+04  0.32981270086E+04 0.  0.
        5    1    3    3  502    0  0.22726045730E+03 -0.10275758270E+04  0.14631884458E+04  0.18023600954E+04  0.46999998093E+01 0.  1.
       -5    1    3    3    0  502 -0.22726045730E+03  0.10275758270E+04 -0.10919986106E+04  0.15165890845E+04  0.46999998093E+01 0. -1.
</event>
<event>
 5   0  0.2727168E-07  0.3294629E+04  0.7818609E-02  0.8164263E-01
        2   -1    0    0  501    0  0.00000000000E+00  0.00000000000E+00  0.15678768103E+04  0.15678768103E+04  0.25500000920E-02 0.  1.
       -2   -1    0    0    0  501  0.00000000000E+00  0.00000000000E+00 -0.17307767386E+04  0.17307767386E+04  0.25500000920E-02 0. -1.
    10030    2    1    2    0    0  0.00000000000E+00  0.00000000000E+00 -0.16289992828E+03  0.32986535489E+04  0.32946287877E+04 0.  0.
        2    1    3    3  502    0  0.51435458248E+03  0.10490579846E+04  0.10812444382E+04  0.15919085485E+04  0.25500000920E-02 0.  1.
       -2    1    3    3    0  502 -0.51435458248E+03 -0.10490579846E+04 -0.12441443665E+04  0.17067450004E+04  0.25500000920E-02 0. -1.
</event>
<event>
 5   0  0.9454010E-08  0.3296629E+04  0.7818609E-02  0.8163754E-01
       -1   -1    0    0    0  501  0.00000000000E+00  0.00000000000E+00  0.20836100130E+04  0.20836100130E+04  0.50400001928E-02 0. -1.
        1   -1    0    0  501    0  0.00000000000E+00  0.00000000000E+00 -0.13039581408E+04  0.13039581408E+04  0.50400001928E-02 0.  1.
    10030    2    1    2    0    0  0.00000000000E+00  0.00000000000E+00  0.77965187221E+03  0.33875681538E+04  0.32966287256E+04 0.  0.
        2    1    3    3  502    0  0.92486708578E+03 -0.12862052076E+04  0.85761702079E+03  0.18014466178E+04  0.25500000920E-02 0. -1.
       -2    1    3    3    0  502 -0.92486708578E+03  0.12862052076E+04 -0.77965148589E+02  0.15861215360E+04  0.25500000920E-02 0.  1.
</event>
<event>
 5   0  0.9454010E-08  0.3299079E+04  0.7818609E-02  0.8163130E-01
       -1   -1    0    0    0  501  0.00000000000E+00  0.00000000000E+00  0.11990327290E+04  0.11990327290E+04  0.50400001928E-02 0. -1.
        1   -1    0    0  501    0  0.00000000000E+00  0.00000000000E+00 -0.22693134858E+04  0.22693134858E+04  0.50400001928E-02 0.  1.
    10030    2    1    2    0    0  0.00000000000E+00  0.00000000000E+00 -0.10702807568E+04  0.34683462148E+04  0.32990793515E+04 0.  0.
        2    1    3    3  502    0 -0.10504634124E+04 -0.99775737497E+03 -0.13642666528E+04  0.19900293113E+04  0.25500000920E-02 0. -1.
       -2    1    3    3    0  502  0.10504634124E+04  0.99775737497E+03  0.29398589596E+03  0.14783169035E+04  0.25500000920E-02 0.  1.
</event>
<event>
 5   0  0.9181760E-08  0.3305471E+04  0.7818609E-02  0.8161505E-01
       -1   -1    0    0    0  501  0.00000000000E+00  0.00000000000E+00  0.18402105351E+04  0.18402105351E+04  0.50400001928E-02 0. -1.
        1   -1    0    0  501    0  0.00000000000E+00  0.00000000000E+00 -0.14843597000E+04  0.14843597000E+04  0.50400001928E-02 0.  1.
    10030    2    1    2    0    0  0.00000000000E+00  0.00000000000E+00  0.35585083506E+03  0.33245702351E+04  0.33054708336E+04 0.  0.
        1    1    3    3  502    0  0.79115514381E+03 -0.74495643257E+03  0.14303707193E+04  0.17963426573E+04  0.50400001928E-02 0. -1.
       -1    1    3    3    0  502 -0.79115514381E+03  0.74495643257E+03 -0.10745198842E+04  0.15282275778E+04  0.50400001928E-02 0.  1.
</event>
<event>
 5   0  0.2727168E-07  0.3295938E+04  0.7818609E-02  0.8163930E-01
       -2   -1    0    0    0  501  0.00000000000E+00  0.00000000000E+00  0.94337283788E+03  0.94337283788E+03  0.25500000920E-02 0.  1.
        2   -1    0    0  501    0  0.00000000000E+00  0.00000000000E+00 -0.28788205629E+04  0.28788205629E+04  0.25500000920E-02 0. -1.
    10030    2    1    2    0    0  0.00000000000E+00  0.00000000000E+00 -0.19354477251E+04  0.38221934008E+04  0.32959375748E+04 0.  0.
        2    1    3    3  502    0 -0.16063126583E+04  0.53874025500E+01 -0.54079629984E+03  0.16949129825E+04  0.25500000920E-02 0.  1.
       -2    1    3    3    0  502  0.16063126583E+04 -0.53874025500E+01 -0.13946514252E+04  0.21272804183E+04  0.25500000920E-02 0. -1.
</event>
<event>
 5   0  0.2713815E-07  0.3300142E+04  0.7818609E-02  0.8162859E-01
        2   -1    0    0  501    0  0.00000000000E+00  0.00000000000E+00  0.18855717899E+04  0.18855717899E+04  0.25500000920E-02 0. -1.
       -2   -1    0    0    0  501  0.00000000000E+00  0.00000000000E+00 -0.14439829348E+04  0.14439829348E+04  0.25500000920E-02 0.  1.
    10030    2    1    2    0    0  0.00000000000E+00  0.00000000000E+00  0.44158885511E+03  0.33295547248E+04  0.33001415043E+04 0.  0.
        4    1    3    3  502    0 -0.56145761706E+03  0.15412362533E+04  0.40066560967E+02  0.16408079676E+04  0.12699999809E+01 0. -1.
       -4    1    3    3    0  502  0.56145761706E+03 -0.15412362533E+04  0.40152229415E+03  0.16887467572E+04  0.12699999809E+01 0.  1.
</event>
<event>
 5   0  0.9283910E-08  0.3297601E+04  0.7818609E-02  0.8163506E-01
        1   -1    0    0  501    0  0.00000000000E+00  0.00000000000E+00  0.24005444414E+04  0.24005444414E+04  0.50400001928E-02 0.  1.
       -1   -1    0    0    0  501  0.00000000000E+00  0.00000000000E+00 -0.11324693098E+04  0.11324693098E+04  0.50400001928E-02 0. -1.
    10030    2    1    2    0    0  0.00000000000E+00  0.00000000000E+00  0.12680751316E+04  0.35330137513E+04  0.32976008896E+04 0.  0.
        3    1    3    3  502    0  0.75445981153E+03  0.51540307724E+02  0.22037878714E+04  0.23299242483E+04  0.10100000352E+00 0.  1.
       -3    1    3    3    0  502 -0.75445981153E+03 -0.51540307724E+02 -0.93571273978E+03  0.12030895030E+04  0.10100000352E+00 0. -1.
</event>
<event>
 5   0  0.2824402E-07  0.3298252E+04  0.7818609E-02  0.8163340E-01
        2   -1    0    0  501    0  0.00000000000E+00  0.00000000000E+00  0.98910389067E+03  0.98910389067E+03  0.25500000920E-02 0. -1.
       -2   -1    0    0    0  501  0.00000000000E+00  0.00000000000E+00 -0.27495756708E+04  0.27495756708E+04  0.25500000920E-02 0.  1.
    10030    2    1    2    0    0  0.00000000000E+00  0.00000000000E+00 -0.17604717801E+04  0.37386795615E+04  0.32982516542E+04 0.  0.
        1    1    3    3  502    0  0.85836732798E+03  0.10402030733E+03  0.71156247122E+03  0.11197927686E+04  0.50400001928E-02 0. -1.
       -1    1    3    3    0  502 -0.85836732798E+03 -0.10402030733E+03 -0.24720342514E+04  0.26188867929E+04  0.50400001928E-02 0.  1.
</event>
<event>
 5   0  0.9454010E-08  0.3305725E+04  0.7818609E-02  0.8161440E-01
       -1   -1    0    0    0  501  0.00000000000E+00  0.00000000000E+00  0.12216436256E+04  0.12216436256E+04  0.50400001928E-02 0.  1.
        1   -1    0    0  501    0  0.00000000000E+00  0.00000000000E+00 -0.22362937559E+04  0.22362937559E+04  0.50400001928E-02 0. -1.
    10030    2    1    2    0    0  0.00000000000E+00  0.00000000000E+00 -0.10146501303E+04  0.34579373816E+04  0.33057247387E+04 0.  0.
        2    1    3    3  502    0  0.15082169061E+04  0.60138622537E+03 -0.83070428011E+03  0.18238566909E+04  0.25500000920E-02 0. -1.
       -2    1    3    3    0  502 -0.15082169061E+04 -0.60138622537E+03 -0.18394585015E+03  0.16340806907E+04  0.25500000920E-02 0.  1.
</event>
<event>
 5   0  0.9181760E-08  0.3303759E+04  0.7818609E-02  0.8161940E-01
       -1   -1    0    0    0  501  0.00000000000E+00  0.00000000000E+00  0.19110651005E+04  0.19110651005E+04  0.50400001928E-02 0.  1.
        1   -1    0    0  501    0  0.00000000000E+00  0.00000000000E+00 -0.14278452163E+04  0.14278452163E+04  0.50400001928E-02 0. -1.
    10030    2    1    2    0    0  0.00000000000E+00  0.00000000000E+00  0.48321988418E+03  0.33389103168E+04  0.33037585637E+04 0.  0.
        1    1    3    3  502    0 -0.36929889234E+03 -0.28741448268E+03  0.18426742533E+04  0.19011673152E+04  0.50400001928E-02 0.  1.
       -1    1    3    3    0  502  0.36929889234E+03  0.28741448268E+03 -0.13594543691E+04  0.14377430015E+04  0.50400001928E-02 0. -1.
</event>
<event>
 5   0  0.9283910E-08  0.3309640E+04  0.7818609E-02  0.8160447E-01
       -1   -1    0    0    0  501  0.00000000000E+00  0.00000000000E+00  0.16656600331E+04  0.16656600332E+04  0.50400001928E-02 0. -1.
        1   -1    0    0  501    0  0.00000000000E+00  0.00000000000E+00 -0.16440506501E+04  0.16440506501E+04  0.50400001928E-02 0.  1.
    10030    2    1    2    0    0  0.00000000000E+00  0.00000000000E+00  0.21609383018E+02  0.33097106833E+04  0.33096401378E+04 0.  0.
        3    1    3    3  502    0 -0.69771205036E+03  0.11396615313E+04 -0.96533031847E+03  0.16484820730E+04  0.10100000352E+00 0.  1.
       -3    1    3    3    0  502  0.69771205036E+03 -0.11396615313E+04  0.98693970149E+03  0.16612286103E+04  0.10100000352E+00 0. -1.
</event>
<event>
 5   0  0.9181760E-08  0.3349830E+04  0.7818609E-02  0.8150331E-01
        1   -1    0    0  501    0  0.00000000000E+00  0.00000000000E+00  0.16352211651E+04  0.16352211651E+04  0.50400001928E-02 0. -1.
       -1   -1    0    0    0  501  0.00000000000E+00  0.00000000000E+00 -0.17155722978E+04  0.17155722978E+04  0.50400001928E-02 0.  1.
    10030    2    1    2    0    0  0.00000000000E+00  0.00000000000E+00 -0.80351132690E+02  0.33507934630E+04  0.33498299251E+04 0.  0.
        1    1    3    3  502    0 -0.57837862654E+03  0.13914134535E+04  0.69132603417E+03  0.16578555184E+04  0.50400001928E-02 0. -1.
       -1    1    3    3    0  502  0.57837862654E+03 -0.13914134535E+04 -0.77167716686E+03  0.16929379446E+04  0.50400001928E-02 0.  1.
</event>
<event>
 5   0  0.9181760E-08  0.3303027E+04  0.7818609E-02  0.8162126E-01
       -1   -1    0    0    0  501  0.00000000000E+00  0.00000000000E+00  0.19732421813E+04  0.19732421813E+04  0.50400001928E-02 0. -1.
        1   -1    0    0  501    0  0.00000000000E+00  0.00000000000E+00 -0.13822409760E+04  0.13822409760E+04  0.50400001928E-02 0.  1.
    10030    2    1    2    0    0  0.00000000000E+00  0.00000000000E+00  0.59100120536E+03  0.33554831573E+04  0.33030266112E+04 0.  0.
        1    1    3    3  502    0 -0.14128727850E+04  0.59266750676E+03  0.92175822893E+03  0.17880443263E+04  0.50400001928E-02 0. -1.
       -1    1    3    3    0  502  0.14128727850E+04 -0.59266750676E+03 -0.33075702357E+03  0.15674388310E+04  0.50400001928E-02 0.  1.
</event>
<event>
 5   0  0.9454010E-08  0.3340816E+04  0.7818609E-02  0.8152587E-01
       -1   -1    0    0    0  501  0.00000000000E+00  0.00000000000E+00  0.12386208109E+04  0.12386208109E+04  0.50400001928E-02 0. -1.
        1   -1    0    0  501    0  0.00000000000E+00  0.00000000000E+00 -0.22527172241E+04  0.22527172241E+04  0.50400001928E-02 0.  1.
    10030    2    1    2    0    0  0.00000000000E+00  0.00000000000E+00 -0.10140964132E+04  0.34913380350E+04  0.33408157296E+04 0.  0.
        2    1    3    3  502    0 -0.22324868241E+03  0.11514737464E+04  0.73587862192E+03  0.13846476480E+04  0.25500000920E-02 0. -1.
       -2    1    3    3    0  502  0.22324868241E+03 -0.11514737464E+04 -0.17499750351E+04  0.21066903869E+04  0.25500000920E-02 0.  1.
</event>
<event>
 5   0  0.9181760E-08  0.3306868E+04  0.7818609E-02  0.8161150E-01
       -1   -1    0    0    0  501  0.00000000000E+00  0.00000000000E+00  0.16661637771E+04  0.16661637771E+04  0.50400001928E-02 0. -1.
        1   -1    0    0  501    0  0.00000000000E+00  0.00000000000E+00 -0.16408010461E+04  0.16408010461E+04  0.50400001928E-02 0.  1.
    10030    2    1    2    0    0  0.00000000000E+00  0.00000000000E+00  0.25362730979E+02  0.33069648231E+04  0.33068675621E+04 0.  0.
        1    1    3    3  502    0 -0.10652332314E+04  0.57903953423E+03  0.11369184372E+04  0.16621047356E+04  0.50400001928E-02 0. -1.
       -1    1    3    3    0  502  0.10652332314E+04 -0.57903953423E+03 -0.11115557062E+04  0.16448600875E+04  0.50400001928E-02 0.  1.
</event>
<event>
 5   0  0.2727168E-07  0.3295519E+04  0.7818609E-02  0.8164036E-01
       -2   -1    0    0    0  501  0.00000000000E+00  0.00000000000E+00  0.27051016966E+04  0.27051016966E+04  0.25500000920E-02 0.  1.
        2   -1    0    0  501    0  0.00000000000E+00  0.00000000000E+00 -0.10037003896E+04  0.10037003896E+04  0.25500000920E-02 0. -1.
    10030    2    1    2    0    0  0.00000000000E+00  0.00000000000E+00  0.17014013071E+04  0.37088020862E+04  0.32955191559E+04 0.  0.
        2    1    3    3  502    0 -0.87947973178E+03 -0.31371372366E+03  0.23786090336E+04  0.25553242130E+04  0.25500000920E-02 0.  1.
       -2    1    3    3    0  502  0.87947973178E+03  0.31371372366E+03 -0.67720772651E+03  0.11534778732E+04  0.25500000920E-02 0. -1.
</event>
<event>
 5   0  0.9454010E-08  0.3303242E+04  0.7818609E-02  0.8162071E-01
        1   -1    0    0  501    0  0.00000000000E+00  0.00000000000E+00  0.17551842418E+04  0.17551842418E+04  0.50400001928E-02 0. -1.
       -1   -1    0    0    0  501  0.00000000000E+00  0.00000000000E+00 -0.15541679938E+04  0.15541679938E+04  0.50400001928E-02 0.  1.
    10030    2    1    2    0    0  0.00000000000E+00  0.00000000000E+00  0.20101624801E+03  0.33093522355E+04  0.33032415423E+04 0.  0.
        2    1    3    3  502    0 -0.15981867597E+04  0.15886737075E+03 -0.28544655493E+03  0.16312325083E+04  0.25500000920E-02 0.  1.
       -2    1    3    3    0  502  0.15981867597E+04 -0.15886737075E+03  0.48646280294E+03  0.16781197272E+04  0.25500000920E-02 0. -1.
</event>
<event>
 5   0  0.9810351E-08  0.3251591E+04  0.7818609E-02  0.8175323E-01
        1   -1    0    0  501    0  0.00000000000E+00  0.00000000000E+00  0.22328794621E+04  0.22328794621E+04  0.50400001928E-02 0.  1.
       -1   -1    0    0    0  501  0.00000000000E+00  0.00000000000E+00 -0.11837681373E+04  0.11837681373E+04  0.50400001928E-02 0. -1.
    10030    2    1    2    0    0  0.00000000000E+00  0.00000000000E+00  0.10491113249E+04  0.34166475994E+04  0.32515913407E+04 0.  0.
        5    1    3    3  502    0 -0.51066067955E+03 -0.96781676296E+03 -0.73887149163E+03  0.13203775170E+04  0.46999998093E+01 0. -1.
       -5    1    3    3    0  502  0.51066067955E+03  0.96781676296E+03  0.17879828165E+04  0.20962700824E+04  0.46999998093E+01 0.  1.
</event>
<event>
 5   0  0.2824402E-07  0.3303492E+04  0.7818609E-02  0.8162007E-01
       -2   -1    0    0    0  501  0.00000000000E+00  0.00000000000E+00  0.12136285453E+04  0.12136285453E+04  0.25500000920E-02 0.  1.
        2   -1    0    0  501    0  0.00000000000E+00  0.00000000000E+00 -0.22480235435E+04  0.22480235435E+04  0.25500000920E-02 0. -1.
    10030    2    1    2    0    0  0.00000000000E+00  0.00000000000E+00 -0.10343949982E+04  0.34616520888E+04  0.33034924203E+04 0.  0.
        1    1    3    3  502    0  0.32347596430E+03 -0.37713664904E+03 -0.21678597166E+04  0.22240693565E+04  0.50400001928E-02 0. -1.
       -1    1    3    3    0  502 -0.32347596430E+03  0.37713664904E+03  0.11334647183E+04  0.12375827323E+04  0.50400001928E-02 0.  1.
</event>
<event>
 5   0  0.2824402E-07  0.3297692E+04  0.7818609E-02  0.8163483E-01
        2   -1    0    0  501    0  0.00000000000E+00  0.00000000000E+00  0.20751652122E+04  0.20751652122E+04  0.25500000920E-02 0.  1.
       -2   -1    0    0    0  501  0.00000000000E+00  0.00000000000E+00 -0.13101096100E+04  0.13101096100E+04  0.25500000920E-02 0. -1.
    10030    2    1    2    0    0  0.00000000000E+00  0.00000000000E+00  0.76505560214E+03  0.33852748222E+04  0.32976924580E+04 0.  0.
        1    1    3    3  502    0  0.13109363282E+04 -0.10075771704E+03  0.14039344542E+04  0.19234703340E+04  0.50400001928E-02 0.  1.
       -1    1    3    3    0  502 -0.13109363282E+04  0.10075771704E+03 -0.63887885204E+03  0.14618044882E+04  0.50400001928E-02 0. -1.
</event>
<event>
 5   0  0.2727168E-07  0.3302701E+04  0.7818609E-02  0.8162208E-01
       -2   -1    0    0    0  501  0.00000000000E+00  0.00000000000E+00  0.14107742762E+04  0.14107742762E+04  0.25500000920E-02 0.  1.
        2   -1    0    0  501    0  0.00000000000E+00  0.00000000000E+00 -0.19329522132E+04  0.19329522132E+04  0.25500000920E-02 0. -1.
    10030    2    1    2    0    0  0.00000000000E+00  0.00000000000E+00 -0.52217793698E+03  0.33437264894E+04  0.33027014758E+04 0.  0.
        2    1    3    3  502    0 -0.63117810811E+03  0.44492958655E+03  0.12167037412E+04  0.14410815851E+04  0.25500000920E-02 0.  1.
       -2    1    3    3    0  502  0.63117810811E+03 -0.44492958655E+03 -0.17388816782E+04  0.19026449043E+04  0.25500000920E-02 0. -1.
</event>
<event>
 5   0  0.2703956E-07  0.3303938E+04  0.7818609E-02  0.8161894E-01
       -2   -1    0    0    0  501  0.00000000000E+00  0.00000000000E+00  0.10222309067E+04  0.10222309067E+04  0.25500000920E-02 0. -1.
        2   -1    0    0  501    0  0.00000000000E+00  0.00000000000E+00 -0.26696532609E+04  0.26696532609E+04  0.25500000920E-02 0.  1.
    10030    2    1    2    0    0  0.00000000000E+00  0.00000000000E+00 -0.16474223542E+04  0.36918841676E+04  0.33039383006E+04 0.  0.
        5    1    3    3  502    0  0.15754840225E+04 -0.48427721307E+03 -0.69975488314E+03  0.17906293057E+04  0.46999998093E+01 0. -1.
       -5    1    3    3    0  502 -0.15754840225E+04  0.48427721307E+03 -0.94766747111E+03  0.19012548619E+04  0.46999998093E+01 0.  1.
</event>
<event>
 5   0  0.8805125E-08  0.3289187E+04  0.7818609E-02  0.8165652E-01
        1   -1    0    0  501    0  0.00000000000E+00  0.00000000000E+00  0.17770989376E+04  0.17770989376E+04  0.50400001928E-02 0.  1.
       -1   -1    0    0    0  501  0.00000000000E+00  0.00000000000E+00 -0.15219676620E+04  0.15219676620E+04  0.50400001928E-02 0. -1.
    10030    2    1    2    0    0  0.00000000000E+00  0.00000000000E+00  0.25513127567E+03  0.32990665996E+04  0.32891865956E+04 0.  0.
        4    1    3    3  502    0 -0.73110412945E+03 -0.10737595463E+04  0.11391647887E+04  0.17277646947E+04  0.12699999809E+01 0.  1.
       -4    1    3    3    0  502  0.73110412945E+03  0.10737595463E+04 -0.88403351304E+03  0.15713019049E+04  0.12699999809E+01 0. -1.
</event>
<event>
 5   0  0.2824402E-07  0.3299455E+04  0.7818609E-02  0.8163034E-01
       -2   -1    0    0    0  501  0.00000000000E+00  0.00000000000E+00  0.13723451983E+04  0.13723451983E+04  0.25500000920E-02 0. -1.
        2   -1    0    0  501    0  0.00000000000E+00  0.00000000000E+00 -0.19831747710E+04  0.19831747710E+04  0.25500000920E-02 0.  1.
    10030    2    1    2    0    0  0.00000000000E+00  0.00000000000E+00 -0.61082957265E+03  0.33555199693E+04  0.32994547273E+04 0.  0.
        1    1    3    3  502    0 -0.95248713675E+03 -0.50573450956E+03 -0.15750681337E+04  0.19088841677E+04  0.50400001928E-02 0. -1.
       -1    1    3    3    0  502  0.95248713675E+03  0.50573450956E+03  0.96423856108E+03  0.14466358016E+04  0.50400001928E-02 0.  1.
</event>
<event>
 5   0  0.9181760E-08  0.3295891E+04  0.7818609E-02  0.8163942E-01
       -1   -1    0    0    0  501  0.00000000000E+00  0.00000000000E+00  0.12845135180E+04  0.12845135180E+04  0.50400001928E-02 0.  1.
        1   -1    0    0  501    0  0.00000000000E+00  0.00000000000E+00 -0.21142050200E+04  0.21142050200E+04  0.50400001928E-02 0. -1.
    10030    2    1    2    0    0  0.00000000000E+00  0.00000000000E+00 -0.82969150204E+03  0.33987185380E+04  0.32958913380E+04 0.  0.
        1    1    3    3  502    0  0.47982911737E+03 -0.39067637007E+03 -0.19898681675E+04  0.20838520417E+04  0.50400001928E-02 0. -1.
       -1    1    3    3    0  502 -0.47982911737E+03  0.39067637007E+03  0.11601766654E+04  0.13148664963E+04  0.50400001928E-02 0.  1.
</event>
<event>
 5   0  0.9454010E-08  0.3302735E+04  0.7818609E-02  0.8162200E-01
        1   -1    0    0  501    0  0.00000000000E+00  0.00000000000E+00  0.17506848368E+04  0.17506848368E+04  0.50400001928E-02 0.  1.
       -1   -1    0    0    0  501  0.00000000000E+00  0.00000000000E+00 -0.15576840515E+04  0.15576840515E+04  0.50400001928E-02 0. -1.
    10030    2    1    2    0    0  0.00000000000E+00  0.00000000000E+00  0.19300078532E+03  0.33083688883E+04  0.33027345334E+04 0.  0.
        2    1    3    3  502    0  0.13135088781E+04 -0.40647246476E+03  0.10126580696E+04  0.17076304646E+04  0.25500000920E-02 0.  1.
       -2    1    3    3    0  502 -0.13135088781E+04  0.40647246476E+03 -0.81965728426E+03  0.16007384237E+04  0.25500000920E-02 0. -1.
</event>
<event>
 5   0  0.9283910E-08  0.3278166E+04  0.7818609E-02  0.8168473E-01
       -1   -1    0    0    0  501  0.00000000000E+00  0.00000000000E+00  0.12276611879E+04  0.12276611879E+04  0.50400001928E-02 0. -1.
        1   -1    0    0  501    0  0.00000000000E+00  0.00000000000E+00 -0.21883835040E+04  0.21883835040E+04  0.50400001928E-02 0.  1.
    10030    2    1    2    0    0  0.00000000000E+00  0.00000000000E+00 -0.96072231614E+03  0.34160446919E+04  0.32781662509E+04 0.  0.
        3    1    3    3  502    0  0.89222166412E+02 -0.58951942894E+03 -0.20713714758E+04  0.21554752499E+04  0.10100000352E+00 0.  1.
       -3    1    3    3    0  502 -0.89222166412E+02  0.58951942894E+03  0.11106491596E+04  0.12605694420E+04  0.10100000352E+00 0. -1.
</event>
<event>
 5   0  0.9810351E-08  0.3281725E+04  0.7818609E-02  0.8167561E-01
        1   -1    0    0  501    0  0.00000000000E+00  0.00000000000E+00  0.19813663715E+04  0.19813663715E+04  0.50400001928E-02 0.  1.
       -1   -1    0    0    0  501  0.00000000000E+00  0.00000000000E+00 -0.13588750033E+04  0.13588750033E+04  0.50400001928E-02 0. -1.
    10030    2    1    2    0    0  0.00000000000E+00  0.00000000000E+00  0.62249136817E+03  0.33402413749E+04  0.32817246897E+04 0.  0.
        5    1    3    3  502    0 -0.86372061774E+03 -0.37896629989E+03  0.16778628694E+04  0.19248050967E+04  0.46999998093E+01 0.  1.
       -5    1    3    3    0  502  0.86372061774E+03  0.37896629989E+03 -0.10553715012E+04  0.14154362781E+04  0.46999998093E+01 0. -1.
</event>
<event>
 5   0  0.9454010E-08  0.3295959E+04  0.7818609E-02  0.8163924E-01
       -1   -1    0    0    0  501  0.00000000000E+00  0.00000000000E+00  0.20705202530E+04  0.20705202531E+04  0.50400001928E-02 0. -1.
        1   -1    0    0  501    0  0.00000000000E+00  0.00000000000E+00 -0.13116683519E+04  0.13116683519E+04  0.50400001928E-02 0.  1.
    10030    2    1    2    0    0  0.00000000000E+00  0.00000000000E+00  0.75885190119E+03  0.33821886049E+04  0.32959586695E+04 0.  0.
        2    1    3    3  502    0 -0.41136596721E+03  0.15822309070E+04  0.16624264642E+03  0.16432629794E+04  0.25500000920E-02 0. -1.
       -2    1    3    3    0  502  0.41136596721E+03 -0.15822309070E+04  0.59260925477E+03  0.17389256255E+04  0.25500000920E-02 0.  1.
</event>
<event>
 5   0  0.2824402E-07  0.3262908E+04  0.7818609E-02  0.8172398E-01
       -2   -1    0    0    0  501  0.00000000000E+00  0.00000000000E+00  0.18178649574E+04  0.18178649574E+04  0.25500000920E-02 0. -1.
        2   -1    0    0  501    0  0.00000000000E+00  0.00000000000E+00 -0.14641579160E+04  0.14641579160E+04  0.25500000920E-02 0.  1.
    10030    2    1    2    0    0  0.00000000000E+00  0.00000000000E+00  0.35370704139E+03  0.32820228734E+04  0.32629075179E+04 0.  0.
        1    1    3    3  502    0 -0.98241402367E+03 -0.87089034447E+03  0.11510594601E+04  0.17460026308E+04  0.50400001928E-02 0. -1.
       -1    1    3    3    0  502  0.98241402367E+03  0.87089034447E+03 -0.79735241875E+03  0.15360202426E+04  0.50400001928E-02 0.  1.
</event>
<event>
 5   0  0.2875829E-07  0.3302977E+04  0.7818609E-02  0.8162138E-01
       -2   -1    0    0    0  501  0.00000000000E+00  0.00000000000E+00  0.20491527316E+04  0.20491527317E+04  0.25500000920E-02 0.  1.
        2   -1    0    0  501    0  0.00000000000E+00  0.00000000000E+00 -0.13309964231E+04  0.13309964231E+04  0.25500000920E-02 0. -1.
    10030    2    1    2    0    0  0.00000000000E+00  0.00000000000E+00  0.71815630851E+03  0.33801491548E+04  0.33029774182E+04 0.  0.
        3    1    3    3  502    0 -0.34696978975E+03  0.16088514302E+04  0.49873640079E+03  0.17197467742E+04  0.10100000352E+00 0. -1.
       -3    1    3    3    0  502  0.34696978975E+03 -0.16088514302E+04  0.21941990772E+03  0.16604023806E+04  0.10100000352E+00 0.  1.
</event>
<event>
 5   0  0.9181760E-08  0.3310940E+04  0.7818609E-02  0.8160117E-01
       -1   -1    0    0    0  501  0.00000000000E+00  0.00000000000E+00  0.12508225308E+04  0.12508225308E+04  0.50400001928E-02 0. -1.
        1   -1    0    0  501    0  0.00000000000E+00  0.00000000000E+00 -0.21910230807E+04  0.21910230807E+04  0.50400001928E-02 0.  1.
    10030    2    1    2    0    0  0.00000000000E+00  0.00000000000E+00 -0.94020054990E+03  0.34418456116E+04  0.33109400689E+04 0.  0.
        1    1    3    3  502    0  0.16255770569E+04 -0.19223817864E+03 -0.72710944122E+03  0.17911293713E+04  0.50400001928E-02 0.  1.
       -1    1    3    3    0  502 -0.16255770569E+04  0.19223817864E+03 -0.21309110868E+03  0.16507162403E+04  0.50400001928E-02 0. -1.
</event>
<event>
 5   0  0.9454010E-08  0.3304269E+04  0.7818609E-02  0.8161810E-01
        1   -1    0    0  501    0  0.00000000000E+00  0.00000000000E+00  0.11989118884E+04  0.11989118884E+04  0.50400001928E-02 0.  1.
       -1   -1    0    0    0  501  0.00000000000E+00  0.00000000000E+00 -0.22766880252E+04  0.22766880252E+04  0.50400001928E-02 0. -1.
    10030    2    1    2    0    0  0.00000000000E+00  0.00000000000E+00 -0.10777761369E+04  0.34755999136E+04  0.33042689598E+04 0.  0.
        2    1    3    3  502    0 -0.48918482511E+02  0.55061408108E+03 -0.21765296402E+04  0.22456291232E+04  0.25500000920E-02 0. -1.
       -2    1    3    3    0  502  0.48918482511E+02 -0.55061408108E+03  0.10987535033E+04  0.12299707904E+04  0.25500000920E-02 0.  1.
</event>
<event>
 5   0  0.9181760E-08  0.3301281E+04  0.7818609E-02  0.8162570E-01
        1   -1    0    0  501    0  0.00000000000E+00  0.00000000000E+00  0.22359538688E+04  0.22359538688E+04  0.50400001928E-02 0. -1.
       -1   -1    0    0    0  501  0.00000000000E+00  0.00000000000E+00 -0.12185462930E+04  0.12185462930E+04  0.50400001928E-02 0.  1.
    10030    2    1    2    0    0  0.00000000000E+00  0.00000000000E+00  0.10174075758E+04  0.34545001618E+04  0.33012805383E+04 0.  0.
        1    1    3    3  502    0  0.56009297951E+03 -0.88541751410E+02  0.21308348937E+04  0.22049945877E+04  0.50400001928E-02 0. -1.
       -1    1    3    3    0  502 -0.56009297951E+03  0.88541751410E+02 -0.11134273179E+04  0.12495055741E+04  0.50400001928E-02 0.  1.
</event>
<event>
 5   0  0.8805125E-08  0.3280282E+04  0.7818609E-02  0.8167931E-01
        1   -1    0    0  501    0  0.00000000000E+00  0.00000000000E+00  0.16178531754E+04  0.16178531755E+04  0.50400001928E-02 0. -1.
       -1   -1    0    0    0  501  0.00000000000E+00  0.00000000000E+00 -0.16627354207E+04  0.16627354207E+04  0.50400001928E-02 0.  1.
    10030    2    1    2    0    0  0.00000000000E+00  0.00000000000E+00 -0.44882245235E+02  0.32805885961E+04  0.32802815613E+04 0.  0.
        4    1    3    3  502    0 -0.47909997768E+03 -0.13657960545E+03 -0.15852355846E+04  0.16616751333E+04  0.12699999809E+01 0.  1.
       -4    1    3    3    0  502  0.47909997768E+03  0.13657960545E+03  0.15403533393E+04  0.16189134628E+04  0.12699999809E+01 0. -1.
</event>
<event>
 5   0  0.9283910E-08  0.3308708E+04  0.7818609E-02  0.8160683E-01
       -1   -1    0    0    0  501  0.00000000000E+00  0.00000000000E+00  0.19495969117E+04  0.19495969117E+04  0.50400001928E-02 0. -1.
        1   -1    0    0  501    0  0.00000000000E+00  0.00000000000E+00 -0.14038222971E+04  0.14038222971E+04  0.50400001928E-02 0.  1.
    10030    2    1    2    0    0  0.00000000000E+00  0.00000000000E+00  0.54577461460E+03  0.33534192088E+04  0.33087082766E+04 0.  0.
        3    1    3    3  502    0 -0.44685289159E+03  0.12604653300E+04  0.12599248489E+04  0.18373516239E+04  0.10100000352E+00 0. -1.
       -3    1    3    3    0  502  0.44685289159E+03 -0.12604653300E+04 -0.71415023425E+03  0.15160675849E+04  0.10100000352E+00 0.  1.
</event>
<event>
 5   0  0.2824402E-07  0.3309782E+04  0.7818609E-02  0.8160411E-01
        2   -1    0    0  501    0  0.00000000000E+00  0.00000000000E+00  0.15015598138E+04  0.15015598138E+04  0.25500000920E-02 0.  1.
       -2   -1    0    0    0  501  0.00000000000E+00  0.00000000000E+00 -0.18238791254E+04  0.18238791254E+04  0.25500000920E-02 0. -1.
    10030    2    1    2    0    0  0.00000000000E+00  0.00000000000E+00 -0.32231931155E+03  0.33254389392E+04  0.33097816242E+04 0.  0.
        1    1    3    3  502    0 -0.99819488126E+03  0.80940884716E+02  0.11625397234E+04  0.15344194526E+04  0.50400001928E-02 0.  1.
       -1    1    3    3    0  502  0.99819488126E+03 -0.80940884716E+02 -0.14848590350E+04  0.17910194867E+04  0.50400001928E-02 0. -1.
</event>
<event>
 5   0  0.9810351E-08  0.3301260E+04  0.7818609E-02  0.8162575E-01
        1   -1    0    0  501    0  0.00000000000E+00  0.00000000000E+00  0.19729001634E+04  0.19729001634E+04  0.50400001928E-02 0. -1.
       -1   -1    0    0    0  501  0.00000000000E+00  0.00000000000E+00 -0.13810022115E+04  0.13810022116E+04  0.50400001928E-02 0.  1.
    10030    2    1    2    0    0  0.00000000000E+00  0.00000000000E+00  0.59189795181E+03  0.33539023749E+04  0.33012600557E+04 0.  0.
        5    1    3    3  502    0 -0.43800404127E+03  0.15308523766E+04  0.73785735136E+03  0.17549393437E+04  0.46999998093E+01 0. -1.
       -5    1    3    3    0  502  0.43800404127E+03 -0.15308523766E+04 -0.14595939955E+03  0.15989630313E+04  0.46999998093E+01 0.  1.
</event>
<event>
 5   0  0.2727168E-07  0.3302072E+04  0.7818609E-02  0.8162368E-01
       -2   -1    0    0    0  501  0.00000000000E+00  0.00000000000E+00  0.10105940027E+04  0.10105940027E+04  0.25500000920E-02 0. -1.
        2   -1    0    0  501    0  0.00000000000E+00  0.00000000000E+00 -0.26973438817E+04  0.26973438817E+04  0.25500000920E-02 0.  1.
    10030    2    1    2    0    0  0.00000000000E+00  0.00000000000E+00 -0.16867498790E+04  0.37079378843E+04  0.33020718042E+04 0.  0.
        2    1    3    3  502    0 -0.27615311641E+03  0.13150621449E+04  0.23384330946E+03  0.13639397648E+04  0.25500000920E-02 0.  1.
       -2    1    3    3    0  502  0.27615311641E+03 -0.13150621449E+04 -0.19205931885E+04  0.23439981195E+04  0.25500000920E-02 0. -1.
</event>
<event>
 5   0  0.8805125E-08  0.3298733E+04  0.7818609E-02  0.8163218E-01
       -1   -1    0    0    0  501  0.00000000000E+00  0.00000000000E+00  0.23367804363E+04  0.23367804363E+04  0.50400001928E-02 0. -1.
        1   -1    0    0  501    0  0.00000000000E+00  0.00000000000E+00 -0.11641699197E+04  0.11641699198E+04  0.50400001928E-02 0.  1.
    10030    2    1    2    0    0  0.00000000000E+00  0.00000000000E+00  0.11726105166E+04  0.35009503561E+04  0.32987327828E+04 0.  0.
        4    1    3    3  502    0 -0.42219077715E+03 -0.87250610563E+03  0.20026144897E+04  0.22248546837E+04  0.12699999809E+01 0. -1.
       -4    1    3    3    0  502  0.42219077715E+03  0.87250610563E+03 -0.83000397310E+03  0.12760956723E+04  0.12699999809E+01 0.  1.
</event>
<event>
 5   0  0.2875829E-07  0.3305646E+04  0.7818609E-02  0.8161460E-01
       -2   -1    0    0    0  501  0.00000000000E+00  0.00000000000E+00  0.20919427399E+04  0.20919427399E+04  0.25500000920E-02 0. -1.
        2   -1    0    0  501    0  0.00000000000E+00  0.00000000000E+00 -0.13058786700E+04  0.13058786700E+04  0.25500000920E-02 0.  1.
    10030    2    1    2    0    0  0.00000000000E+00  0.00000000000E+00  0.78606406982E+03  0.33978214099E+04  0.33056457178E+04 0.  0.
        3    1    3    3  502    0 -0.89212846082E+03  0.11717973350E+04  0.11641653552E+04  0.18773074254E+04  0.10100000352E+00 0. -1.
       -3    1    3    3    0  502  0.89212846082E+03 -0.11717973350E+04 -0.37810128535E+03  0.15205139845E+04  0.10100000352E+00 0.  1.
</event>
<event>
 5   0  0.9181760E-08  0.3295143E+04  0.7818609E-02  0.8164132E-01
       -1   -1    0    0    0  501  0.00000000000E+00  0.00000000000E+00  0.12146119660E+04  0.12146119660E+04  0.50400001928E-02 0.  1.
        1   -1    0    0  501    0  0.00000000000E+00  0.00000000000E+00 -0.22348638398E+04  0.22348638398E+04  0.50400001928E-02 0. -1.
    10030    2    1    2    0    0  0.00000000000E+00  0.00000000000E+00 -0.10202518738E+04  0.34494758058E+04  0.32951433123E+04 0.  0.
        1    1    3    3  502    0 -0.25811517901E+03  0.60624583269E+03  0.10706783800E+04  0.12571832200E+04  0.50400001928E-02 0.  1.
       -1    1    3    3    0  502  0.25811517901E+03 -0.60624583269E+03 -0.20909302538E+04  0.21922925858E+04  0.50400001928E-02 0. -1.
</event>
<event>
 5   0  0.2875829E-07  0.3297445E+04  0.7818609E-02  0.8163546E-01
        2   -1    0    0  501    0  0.00000000000E+00  0.00000000000E+00  0.97786011146E+03  0.97786011146E+03  0.25500000920E-02 0. -1.
       -2   -1    0    0    0  501  0.00000000000E+00  0.00000000000E+00 -0.27798311053E+04  0.27798311053E+04  0.25500000920E-02 0.  1.
    10030    2    1    2    0    0  0.00000000000E+00  0.00000000000E+00 -0.18019709938E+04  0.37576912168E+04  0.32974450439E+04 0.  0.
        3    1    3    3  502    0  0.74768629928E+03  0.12809765548E+04 -0.17214412451E+04  0.22722886495E+04  0.10100000352E+00 0.  1.
       -3    1    3    3    0  502 -0.74768629928E+03 -0.12809765548E+04 -0.80529748726E+02  0.14854025672E+04  0.10100000352E+00 0. -1.
</event>
<event>
 5   0  0.9810351E-08  0.3293815E+04  0.7818609E-02  0.8164471E-01
       -1   -1    0    0    0  501  0.00000000000E+00  0.00000000000E+00  0.21592774921E+04  0.21592774921E+04  0.50400001928E-02 0.  1.
        1   -1    0    0  501    0  0.00000000000E+00  0.00000000000E+00 -0.12561168294E+04  0.12561168294E+04  0.50400001928E-02 0. -1.
    10030    2    1    2    0    0  0.00000000000E+00  0.00000000000E+00  0.90316066270E+03  0.34153943215E+04  0.32938152937E+04 0.  0.
        5    1    3    3  502    0 -0.91361207988E+03  0.86230050408E+03 -0.65263698961E+03  0.14156999407E+04  0.46999998093E+01 0. -1.
       -5    1    3    3    0  502  0.91361207988E+03 -0.86230050408E+03  0.15557976523E+04  0.19996943808E+04  0.46999998093E+01 0.  1.
</event>
<event>
 5   0  0.9810351E-08  0.3295781E+04  0.7818609E-02  0.8163970E-01
        1   -1    0    0  501    0  0.00000000000E+00  0.00000000000E+00  0.14131193049E+04  0.14131193049E+04  0.50400001928E-02 0. -1.
       -1   -1    0    0    0  501  0.00000000000E+00  0.00000000000E+00 -0.19216659231E+04  0.19216659231E+04  0.50400001928E-02 0.  1.
    10030    2    1    2    0    0  0.00000000000E+00  0.00000000000E+00 -0.50854661824E+03  0.33347852280E+04  0.32957810689E+04 0.  0.
        5    1    3    3  502    0  0.75611010346E+03 -0.46731297486E+03 -0.16582962225E+04  0.18815026858E+04  0.46999998093E+01 0.  1.
       -5    1    3    3    0  502 -0.75611010346E+03  0.46731297486E+03  0.11497496042E+04  0.14532825422E+04  0.46999998093E+01 0. -1.
</event>
<event>
 5   0  0.9283910E-08  0.3301240E+04  0.7818609E-02  0.8162580E-01
        1   -1    0    0  501    0  0.00000000000E+00  0.00000000000E+00  0.19535400977E+04  0.19535400977E+04  0.50400001928E-02 0.  1.
       -1   -1    0    0    0  501  0.00000000000E+00  0.00000000000E+00 -0.13946716402E+04  0.13946716402E+04  0.50400001928E-02 0. -1.
    10030    2    1    2    0    0  0.00000000000E+00  0.00000000000E+00  0.55886845748E+03  0.33482117380E+04  0.33012403562E+04 0.  0.
        3    1    3    3  502    0 -0.53330456565E+03 -0.33821331775E+03  0.18261724333E+04  0.19322804595E+04  0.10100000352E+00 0.  1.
       -3    1    3    3    0  502  0.53330456565E+03  0.33821331775E+03 -0.12673039758E+04  0.14159312784E+04  0.10100000352E+00 0. -1.
</event>
<event>
 5   0  0.2703956E-07  0.3287659E+04  0.7818609E-02  0.8166043E-01
        2   -1    0    0  501    0  0.00000000000E+00  0.00000000000E+00  0.24706182264E+04  0.24706182264E+04  0.25500000920E-02 0. -1.
       -2   -1    0    0    0  501  0.00000000000E+00  0.00000000000E+00 -0.10937242154E+04  0.10937242154E+04  0.25500000920E-02 0.  1.
    10030    2    1    2    0    0  0.00000000000E+00  0.00000000000E+00  0.13768940110E+04  0.35643424418E+04  0.32876587300E+04 0.  0.
        5    1    3    3  502    0  0.10129833095E+04  0.98272629740E+03  0.16021465915E+04  0.21351304296E+04  0.46999998093E+01 0. -1.
       -5    1    3    3    0  502 -0.10129833095E+04 -0.98272629740E+03 -0.22525258042E+03  0.14292120122E+04  0.46999998093E+01 0.  1.
</event>
<event>
 5   0  0.2824402E-07  0.3302186E+04  0.7818609E-02  0.8162339E-01
       -2   -1    0    0    0  501  0.00000000000E+00  0.00000000000E+00  0.12614555746E+04  0.12614555746E+04  0.25500000920E-02 0.  1.
        2   -1    0    0  501    0  0.00000000000E+00  0.00000000000E+00 -0.21610815662E+04  0.21610815662E+04  0.25500000920E-02 0. -1.
    10030    2    1    2    0    0  0.00000000000E+00  0.00000000000E+00 -0.89962599156E+03  0.34225371408E+04  0.33021861782E+04 0.  0.
        1    1    3    3  502    0 -0.85560880119E+02 -0.50387494787E+03  0.11774062406E+04  0.12835482393E+04  0.50400001928E-02 0.  1.
       -1    1    3    3    0  502  0.85560880119E+02  0.50387494787E+03 -0.20770322321E+04  0.21389889015E+04  0.50400001928E-02 0. -1.
</event>
<event>
 5   0  0.2824402E-07  0.3314820E+04  0.7818609E-02  0.8159135E-01
       -2   -1    0    0    0  501  0.00000000000E+00  0.00000000000E+00  0.12081963705E+04  0.12081963705E+04  0.25500000920E-02 0.  1.
        2   -1    0    0  501    0  0.00000000000E+00  0.00000000000E+00 -0.22736436936E+04  0.22736436936E+04  0.25500000920E-02 0. -1.
    10030    2    1    2    0    0  0.00000000000E+00  0.00000000000E+00 -0.10654473232E+04  0.34818400641E+04  0.33148200907E+04 0.  0.
        1    1    3    3  502    0 -0.74754523057E+03  0.11640241634E+04 -0.14915320145E+04  0.20343165621E+04  0.50400001928E-02 0. -1.
       -1    1    3    3    0  502  0.74754523057E+03 -0.11640241634E+04  0.42608469129E+03  0.14475235020E+04  0.50400001928E-02 0.  1.
</event>
<event>
 5   0  0.9454010E-08  0.3303134E+04  0.7818609E-02  0.8162099E-01
        1   -1    0    0  501    0  0.00000000000E+00  0.00000000000E+00  0.19885782728E+04  0.19885782729E+04  0.50400001928E-02 0. -1.
       -1   -1    0    0    0  501  0.00000000000E+00  0.00000000000E+00 -0.13716698653E+04  0.13716698653E+04  0.50400001928E-02 0.  1.
    10030    2    1    2    0    0  0.00000000000E+00  0.00000000000E+00  0.61690840754E+03  0.33602481382E+04  0.33031335981E+04 0.  0.
        2    1    3    3  502    0 -0.60448610968E+03  0.13595733041E+04  0.10376680081E+04  0.18140005295E+04  0.25500000920E-02 0. -1.
       -2    1    3    3    0  502  0.60448610968E+03 -0.13595733041E+04 -0.42075960056E+03  0.15462476087E+04  0.25500000920E-02 0.  1.
</event>
<event>
 5   0  0.9454010E-08  0.3300384E+04  0.7818609E-02  0.8162798E-01
        1   -1    0    0  501    0  0.00000000000E+00  0.00000000000E+00  0.22438615182E+04  0.22438615182E+04  0.50400001928E-02 0.  1.
       -1   -1    0    0    0  501  0.00000000000E+00  0.00000000000E+00 -0.12135923192E+04  0.12135923192E+04  0.50400001928E-02 0. -1.
    10030    2    1    2    0    0  0.00000000000E+00  0.00000000000E+00  0.10302691990E+04  0.34574538374E+04  0.33003836770E+04 0.  0.
        2    1    3    3  502    0 -0.72876446413E+03 -0.50688567867E+03 -0.94214851245E+03  0.12944784876E+04  0.25500000920E-02 0. -1.
       -2    1    3    3    0  502  0.72876446413E+03  0.50688567867E+03  0.19724177114E+04  0.21629753498E+04  0.25500000920E-02 0.  1.
</event>
<event>
 5   0  0.2727168E-07  0.3378588E+04  0.7818609E-02  0.8143182E-01
        2   -1    0    0  501    0  0.00000000000E+00  0.00000000000E+00  0.18484692253E+04  0.18484692253E+04  0.25500000920E-02 0.  1.
       -2   -1    0    0    0  501  0.00000000000E+00  0.00000000000E+00 -0.15438256100E+04  0.15438256100E+04  0.25500000920E-02 0. -1.
    10030    2    1    2    0    0  0.00000000000E+00  0.00000000000E+00  0.30464361531E+03  0.33922948354E+04  0.33785879473E+04 0.  0.
        2    1    3    3  502    0 -0.12784580810E+03  0.15012553826E+04  0.91935948027E+03  0.17650309143E+04  0.25500000920E-02 0. -1.
       -2    1    3    3    0  502  0.12784580810E+03 -0.15012553826E+04 -0.61471586496E+03  0.16272639211E+04  0.25500000920E-02 0.  1.
</event>
<event>
 5   0  0.9810351E-08  0.3298664E+04  0.7818609E-02  0.8163235E-01
       -1   -1    0    0    0  501  0.00000000000E+00  0.00000000000E+00  0.20258593892E+04  0.20258593892E+04  0.50400001928E-02 0. -1.
        1   -1    0    0  501    0  0.00000000000E+00  0.00000000000E+00 -0.13427859861E+04  0.13427859861E+04  0.50400001928E-02 0.  1.
    10030    2    1    2    0    0  0.00000000000E+00  0.00000000000E+00  0.68307340309E+03  0.33686453752E+04  0.32986637280E+04 0.  0.
        5    1    3    3  502    0 -0.10194268464E+04 -0.16512826746E+03  0.16548110738E+04  0.19506204705E+04  0.46999998093E+01 0. -1.
       -5    1    3    3    0  502  0.10194268464E+04  0.16512826746E+03 -0.97173767068E+03  0.14180249048E+04  0.46999998093E+01 0.  1.
</event>
<event>
 5   0  0.8805125E-08  0.3300934E+04  0.7818609E-02  0.8162658E-01
        1   -1    0    0  501    0  0.00000000000E+00  0.00000000000E+00  0.27391052382E+04  0.27391052382E+04  0.50400001928E-02 0.  1.
       -1   -1    0    0    0  501  0.00000000000E+00  0.00000000000E+00 -0.99450049702E+03  0.99450049703E+03  0.50400001928E-02 0. -1.
    10030    2    1    2    0    0  0.00000000000E+00  0.00000000000E+00  0.17446047412E+04  0.37336057352E+04  0.33009341228E+04 0.  0.
        4    1    3    3  502    0  0.85613034556E+02  0.15182854567E+01  0.27365906944E+04  0.27379302654E+04  0.12699999809E+01 0.  1.
       -4    1    3    3    0  502 -0.85613034556E+02 -0.15182854567E+01 -0.99198595321E+03  0.99567546979E+03  0.12699999809E+01 0. -1.
</event>
<event>
 5   0  0.9283910E-08  0.3297850E+04  0.7818609E-02  0.8163443E-01
       -1   -1    0    0    0  501  0.00000000000E+00  0.00000000000E+00  0.20239689474E+04  0.20239689475E+04  0.50400001928E-02 0. -1.
        1   -1    0    0  501    0  0.00000000000E+00  0.00000000000E+00 -0.13433768460E+04  0.13433768460E+04  0.50400001928E-02 0.  1.
    10030    2    1    2    0    0  0.00000000000E+00  0.00000000000E+00  0.68059210143E+03  0.33673457935E+04  0.32978496152E+04 0.  0.
        3    1    3    3  502    0  0.89510682393E+03  0.11514601356E+04  0.11258433845E+04  0.18424440309E+04  0.10100000352E+00 0. -1.
       -3    1    3    3    0  502 -0.89510682393E+03 -0.11514601356E+04 -0.44525128311E+03  0.15249017626E+04  0.10100000352E+00 0.  1.
</event>
<event>
 5   0  0.9810351E-08  0.3299972E+04  0.7818609E-02  0.8162902E-01
       -1   -1    0    0    0  501  0.00000000000E+00  0.00000000000E+00  0.13814120609E+04  0.13814120609E+04  0.50400001928E-02 0. -1.
        1   -1    0    0  501    0  0.00000000000E+00  0.00000000000E+00 -0.19707764901E+04  0.19707764901E+04  0.50400001928E-02 0.  1.
    10030    2    1    2    0    0  0.00000000000E+00  0.00000000000E+00 -0.58936442916E+03  0.33521885510E+04  0.32999723712E+04 0.  0.
        5    1    3    3  502    0 -0.39486838992E+02 -0.38493657705E+03  0.13346605260E+04  0.13896316736E+04  0.46999998093E+01 0. -1.
       -5    1    3    3    0  502  0.39486838992E+02  0.38493657705E+03 -0.19240249551E+04  0.19625568773E+04  0.46999998093E+01 0.  1.
</event>
<event>
 5   0  0.2727168E-07  0.3306579E+04  0.7818609E-02  0.8161223E-01
        2   -1    0    0  501    0  0.00000000000E+00  0.00000000000E+00  0.10600920608E+04  0.10600920608E+04  0.25500000920E-02 0.  1.
       -2   -1    0    0    0  501  0.00000000000E+00  0.00000000000E+00 -0.25784229196E+04  0.25784229196E+04  0.25500000920E-02 0. -1.
    10030    2    1    2    0    0  0.00000000000E+00  0.00000000000E+00 -0.15183308588E+04  0.36385149804E+04  0.33065786950E+04 0.  0.
        2    1    3    3  502    0  0.44182551411E+02 -0.69931403936E+03 -0.24069456098E+04  0.25068664488E+04  0.25500000920E-02 0. -1.
       -2    1    3    3    0  502 -0.44182551411E+02  0.69931403936E+03  0.88861475099E+03  0.11316485316E+04  0.25500000920E-02 0.  1.
</event>
<event>
 5   0  0.2727168E-07  0.3303027E+04  0.7818609E-02  0.8162126E-01
       -2   -1    0    0    0  501  0.00000000000E+00  0.00000000000E+00  0.32344934023E+04  0.32344934023E+04  0.25500000920E-02 0. -1.
        2   -1    0    0  501    0  0.00000000000E+00  0.00000000000E+00 -0.84325317941E+03  0.84325317941E+03  0.25500000920E-02 0.  1.
    10030    2    1    2    0    0  0.00000000000E+00  0.00000000000E+00  0.23912402229E+04  0.40777465817E+04  0.33030270028E+04 0.  0.
        2    1    3    3  502    0 -0.48782721015E+03 -0.11421135216E+04  0.25395767922E+04  0.28269858448E+04  0.25500000920E-02 0. -1.
       -2    1    3    3    0  502  0.48782721015E+03  0.11421135216E+04 -0.14833656933E+03  0.12507607369E+04  0.25500000920E-02 0.  1.
</event>
<event>
 5   0  0.8805125E-08  0.3300421E+04  0.7818609E-02  0.8162788E-01
        1   -1    0    0  501    0  0.00000000000E+00  0.00000000000E+00  0.23113320241E+04  0.23113320241E+04  0.50400001928E-02 0. -1.
       -1   -1    0    0    0  501  0.00000000000E+00  0.00000000000E+00 -0.11781927099E+04  0.11781927099E+04  0.50400001928E-02 0.  1.
    10030    2    1    2    0    0  0.00000000000E+00  0.00000000000E+00  0.11331393142E+04  0.34895247341E+04  0.33004209071E+04 0.  0.
        4    1    3    3  502    0  0.28819132611E+03 -0.16202527324E+04  0.69571478555E+03  0.17866991445E+04  0.12699999809E+01 0.  1.
       -4    1    3    3    0  502 -0.28819132611E+03  0.16202527324E+04  0.43742452866E+03  0.17028255896E+04  0.12699999809E+01 0. -1.
</event>
<event>
 5   0  0.9181760E-08  0.3310365E+04  0.7818609E-02  0.8160263E-01
       -1   -1    0    0    0  501  0.00000000000E+00  0.00000000000E+00  0.13252695807E+04  0.13252695807E+04  0.50400001928E-02 0.  1.
        1   -1    0    0  501    0  0.00000000000E+00  0.00000000000E+00 -0.20672245342E+04  0.20672245343E+04  0.50400001928E-02 0. -1.
    10030    2    1    2    0    0  0.00000000000E+00  0.00000000000E+00 -0.74195495352E+03  0.33924941150E+04  0.33103654129E+04 0.  0.
        1    1    3    3  502    0 -0.57092325621E+03  0.11998184737E+04  0.64047999447E+03  0.14750363919E+04  0.50400001928E-02 0.  1.
       -1    1    3    3    0  502  0.57092325621E+03 -0.11998184737E+04 -0.13824349480E+04  0.19174577230E+04  0.50400001928E-02 0. -1.
</event>
<event>
 5   0  0.9181760E-08  0.3302414E+04  0.7818609E-02  0.8162281E-01
        1   -1    0    0  501    0  0.00000000000E+00  0.00000000000E+00  0.13940634912E+04  0.13940634912E+04  0.50400001928E-02 0.  1.
       -1   -1    0    0    0  501  0.00000000000E+00  0.00000000000E+00 -0.19557818254E+04  0.19557818254E+04  0.50400001928E-02 0. -1.
    10030    2    1    2    0    0  0.00000000000E+00  0.00000000000E+00 -0.56171833421E+03  0.33498453166E+04  0.33024136867E+04 0.  0.
        1    1    3    3  502    0  0.15718267765E+03  0.37162742753E+03  0.13432843310E+04  0.14025783874E+04  0.50400001928E-02 0.  1.
       -1    1    3    3    0  502 -0.15718267765E+03 -0.37162742753E+03 -0.19050026652E+04  0.19472669292E+04  0.50400001928E-02 0. -1.
</event>
<event>
 5   0  0.9810351E-08  0.3299675E+04  0.7818609E-02  0.8162978E-01
       -1   -1    0    0    0  501  0.00000000000E+00  0.00000000000E+00  0.13953521608E+04  0.13953521608E+04  0.50400001928E-02 0.  1.
        1   -1    0    0  501    0  0.00000000000E+00  0.00000000000E+00 -0.19507359998E+04  0.19507359998E+04  0.50400001928E-02 0. -1.
    10030    2    1    2    0    0  0.00000000000E+00  0.00000000000E+00 -0.55538383904E+03  0.33460881606E+04  0.32996749491E+04 0.  0.
        5    1    3    3  502    0 -0.12884304339E+04  0.77495390145E+03 -0.96646228758E+03  0.17873662120E+04  0.46999998093E+01 0.  1.
       -5    1    3    3    0  502  0.12884304339E+04 -0.77495390145E+03  0.41107844853E+03  0.15587219487E+04  0.46999998093E+01 0. -1.
</event>
<event>
 5   0  0.2824402E-07  0.3302661E+04  0.7818609E-02  0.8162219E-01
       -2   -1    0    0    0  501  0.00000000000E+00  0.00000000000E+00  0.14638851042E+04  0.14638851042E+04  0.25500000920E-02 0.  1.
        2   -1    0    0  501    0  0.00000000000E+00  0.00000000000E+00 -0.18627780770E+04  0.18627780770E+04  0.25500000920E-02 0. -1.
    10030    2    1    2    0    0  0.00000000000E+00  0.00000000000E+00 -0.39889297282E+03  0.33266631811E+04  0.33026613991E+04 0.  0.
        1    1    3    3  502    0  0.93612676847E+03 -0.11826285293E+04  0.47771109157E+03  0.15821350929E+04  0.50400001928E-02 0.  1.
       -1    1    3    3    0  502 -0.93612676847E+03  0.11826285293E+04 -0.87660406439E+03  0.17445280883E+04  0.50400001928E-02 0. -1.
</event>
<event>
 5   0  0.2875829E-07  0.3303702E+04  0.7818609E-02  0.8161954E-01
        2   -1    0    0  501    0  0.00000000000E+00  0.00000000000E+00  0.19895033612E+04  0.19895033613E+04  0.25500000920E-02 0. -1.
       -2   -1    0    0    0  501  0.00000000000E+00  0.00000000000E+00 -0.13715041499E+04  0.13715041499E+04  0.25500000920E-02 0.  1.
    10030    2    1    2    0    0  0.00000000000E+00  0.00000000000E+00  0.61799921138E+03  0.33610075111E+04  0.33037022361E+04 0.  0.
        3    1    3    3  502    0 -0.60489043409E+03  0.41112119134E+03 -0.11978055857E+04  0.14034426610E+04  0.10100000352E+00 0.  1.
       -3    1    3    3    0  502  0.60489043409E+03 -0.41112119134E+03  0.18158047971E+04  0.19575648502E+04  0.10100000352E+00 0. -1.
</event>
<event>
 5   0  0.2824402E-07  0.3301480E+04  0.7818609E-02  0.8162519E-01
       -2   -1    0    0    0  501  0.00000000000E+00  0.00000000000E+00  0.11276214730E+04  0.11276214731E+04  0.25500000920E-02 0.  1.
        2   -1    0    0  501    0  0.00000000000E+00  0.00000000000E+00 -0.24165397757E+04  0.24165397757E+04  0.25500000920E-02 0. -1.
    10030    2    1    2    0    0  0.00000000000E+00  0.00000000000E+00 -0.12889183027E+04  0.35441612488E+04  0.33014797540E+04 0.  0.
        1    1    3    3  502    0  0.70616196078E+03  0.10857899695E+04  0.45416255529E+03  0.13725407824E+04  0.50400001928E-02 0.  1.
       -1    1    3    3    0  502 -0.70616196078E+03 -0.10857899695E+04 -0.17430808580E+04  0.21716204664E+04  0.50400001928E-02 0. -1.
</event>
<event>
 5   0  0.2875829E-07  0.3299685E+04  0.7818609E-02  0.8162976E-01
       -2   -1    0    0    0  501  0.00000000000E+00  0.00000000000E+00  0.17184876412E+04  0.17184876412E+04  0.25500000920E-02 0.  1.
        2   -1    0    0  501    0  0.00000000000E+00  0.00000000000E+00 -0.15839391157E+04  0.15839391157E+04  0.25500000920E-02 0. -1.
    10030    2    1    2    0    0  0.00000000000E+00  0.00000000000E+00  0.13454852555E+03  0.33024267569E+04  0.32996847090E+04 0.  0.
        3    1    3    3  502    0  0.72135853988E+02  0.31148355401E+03  0.16871847711E+04  0.17172122897E+04  0.10100000352E+00 0.  1.
       -3    1    3    3    0  502 -0.72135853988E+02 -0.31148355401E+03 -0.15526362456E+04  0.15852144672E+04  0.10100000352E+00 0. -1.
</event>
<event>
 5   0  0.2703956E-07  0.3298937E+04  0.7818609E-02  0.8163166E-01
        2   -1    0    0  501    0  0.00000000000E+00  0.00000000000E+00  0.22434042743E+04  0.22434042743E+04  0.25500000920E-02 0.  1.
       -2   -1    0    0    0  501  0.00000000000E+00  0.00000000000E+00 -0.12127760757E+04  0.12127760757E+04  0.25500000920E-02 0. -1.
    10030    2    1    2    0    0  0.00000000000E+00  0.00000000000E+00  0.10306281986E+04  0.34561803500E+04  0.32989374241E+04 0.  0.
        5    1    3    3  502    0 -0.28001391967E+03 -0.12696949800E+04 -0.54804845867E+03  0.14109969314E+04  0.46999998093E+01 0. -1.
       -5    1    3    3    0  502  0.28001391967E+03  0.12696949800E+04  0.15786766572E+04  0.20451834186E+04  0.46999998093E+01 0.  1.
</event>
<event>
 5   0  0.9454010E-08  0.3295266E+04  0.7818609E-02  0.8164101E-01
       -1   -1    0    0    0  501  0.00000000000E+00  0.00000000000E+00  0.10043066925E+04  0.10043066925E+04  0.50400001928E-02 0.  1.
        1   -1    0    0  501    0  0.00000000000E+00  0.00000000000E+00 -0.27030532034E+04  0.27030532034E+04  0.50400001928E-02 0. -1.
    10030    2    1    2    0    0  0.00000000000E+00  0.00000000000E+00 -0.16987465109E+04  0.37073598959E+04  0.32952659512E+04 0.  0.
        2    1    3    3  502    0 -0.11962846605E+04 -0.11213583004E+04 -0.10313161066E+04  0.19370478411E+04  0.25500000920E-02 0. -1.
       -2    1    3    3    0  502  0.11962846605E+04  0.11213583004E+04 -0.66743040427E+03  0.17703120548E+04  0.25500000920E-02 0.  1.
</event>
<event>
 5   0  0.9283910E-08  0.3294067E+04  0.7818609E-02  0.8164407E-01
        1   -1    0    0  501    0  0.00000000000E+00  0.00000000000E+00  0.17949235571E+04  0.17949235571E+04  0.50400001928E-02 0.  1.
       -1   -1    0    0    0  501  0.00000000000E+00  0.00000000000E+00 -0.15113289100E+04  0.15113289100E+04  0.50400001928E-02 0. -1.
    10030    2    1    2    0    0  0.00000000000E+00  0.00000000000E+00  0.28359464706E+03  0.33062524671E+04  0.32940673114E+04 0.  0.
        3    1    3    3  502    0 -0.83558824004E+03  0.13034921432E+04  0.70549782149E+03  0.17014777873E+04  0.10100000352E+00 0.  1.
       -3    1    3    3    0  502  0.83558824004E+03 -0.13034921432E+04 -0.42190317442E+03  0.16047746798E+04  0.10100000352E+00 0. -1.
</event>
<event>
 5   0  0.2824402E-07  0.3302446E+04  0.7818609E-02  0.8162273E-01
       -2   -1    0    0    0  501  0.00000000000E+00  0.00000000000E+00  0.11095953232E+04  0.11095953232E+04  0.25500000920E-02 0.  1.
        2   -1    0    0  501    0  0.00000000000E+00  0.00000000000E+00 -0.24572362813E+04  0.24572362813E+04  0.25500000920E-02 0. -1.
    10030    2    1    2    0    0  0.00000000000E+00  0.00000000000E+00 -0.13476409582E+04  0.35668316045E+04  0.33024462967E+04 0.  0.
        1    1    3    3  502    0  0.11564655058E+04  0.96120917452E+03  0.62840707992E+02  0.15050862095E+04  0.50400001928E-02 0.  1.
       -1    1    3    3    0  502 -0.11564655058E+04 -0.96120917452E+03 -0.14104816662E+04  0.20617453950E+04  0.50400001928E-02 0. -1.
</event>
<event>
 5   0  0.9283910E-08  0.3294932E+04  0.7818609E-02  0.8164186E-01
       -1   -1    0    0    0  501  0.00000000000E+00  0.00000000000E+00  0.19694249835E+04  0.19694249835E+04  0.50400001928E-02 0. -1.
        1   -1    0    0  501    0  0.00000000000E+00  0.00000000000E+00 -0.13781404208E+04  0.13781404208E+04  0.50400001928E-02 0.  1.
    10030    2    1    2    0    0  0.00000000000E+00  0.00000000000E+00  0.59128456264E+03  0.33475654043E+04  0.32949319723E+04 0.  0.
        3    1    3    3  502    0  0.14998451250E+04  0.54003345435E+03 -0.12690111486E+03  0.15991483464E+04  0.10100000352E+00 0.  1.
       -3    1    3    3    0  502 -0.14998451250E+04 -0.54003345435E+03  0.71818567750E+03  0.17484170579E+04  0.10100000352E+00 0. -1.
</event>
<event>
 5   0  0.9454010E-08  0.3295340E+04  0.7818609E-02  0.8164082E-01
        1   -1    0    0  501    0  0.00000000000E+00  0.00000000000E+00  0.19771337142E+04  0.19771337142E+04  0.50400001928E-02 0. -1.
       -1   -1    0    0    0  501  0.00000000000E+00  0.00000000000E+00 -0.13731068317E+04  0.13731068317E+04  0.50400001928E-02 0.  1.
    10030    2    1    2    0    0  0.00000000000E+00  0.00000000000E+00  0.60402688248E+03  0.33502405459E+04  0.32953396244E+04 0.  0.
        2    1    3    3  502    0  0.14294836836E+04  0.60140048823E+03  0.86780073015E+03  0.17771280922E+04  0.25500000920E-02 0.  1.
       -2    1    3    3    0  502 -0.14294836836E+04 -0.60140048823E+03 -0.26377384767E+03  0.15731124536E+04  0.25500000920E-02 0. -1.
</event>
<event>
 5   0  0.8805125E-08  0.3324022E+04  0.7818609E-02  0.8156810E-01
        1   -1    0    0  501    0  0.00000000000E+00  0.00000000000E+00  0.12474059928E+04  0.12474059928E+04  0.50400001928E-02 0.  1.
       -1   -1    0    0    0  501  0.00000000000E+00  0.00000000000E+00 -0.22144196053E+04  0.22144196053E+04  0.50400001928E-02 0. -1.
    10030    2    1    2    0    0  0.00000000000E+00  0.00000000000E+00 -0.96701361251E+03  0.34618255982E+04  0.33240218329E+04 0.  0.
        4    1    3    3  502    0  0.13078751819E+04  0.96662143877E+03 -0.84032426443E+03  0.18305848737E+04  0.12699999809E+01 0. -1.
       -4    1    3    3    0  502 -0.13078751819E+04 -0.96662143877E+03 -0.12668934807E+03  0.16312407245E+04  0.12699999809E+01 0.  1.
</event>
<event>
 5   0  0.2713815E-07  0.3298820E+04  0.7818609E-02  0.8163196E-01
       -2   -1    0    0    0  501  0.00000000000E+00  0.00000000000E+00  0.11341031348E+04  0.11341031348E+04  0.25500000920E-02 0.  1.
        2   -1    0    0  501    0  0.00000000000E+00  0.00000000000E+00 -0.23988587739E+04  0.23988587739E+04  0.25500000920E-02 0. -1.
    10030    2    1    2    0    0  0.00000000000E+00  0.00000000000E+00 -0.12647556391E+04  0.35329619086E+04  0.32988199437E+04 0.  0.
        4    1    3    3  502    0 -0.58478757403E+03 -0.12963063223E+04  0.26249104345E+03  0.14461292296E+04  0.12699999809E+01 0.  1.
       -4    1    3    3    0  502  0.58478757403E+03  0.12963063223E+04 -0.15272466825E+04  0.20868326790E+04  0.12699999809E+01 0. -1.
</event>
<event>
 5   0  0.8805125E-08  0.3303014E+04  0.7818609E-02  0.8162129E-01
       -3   -1    0    0    0  501  0.00000000000E+00  0.00000000000E+00  0.26811940265E+04  0.26811940284E+04  0.10100000352E+00 0. -1.
        3   -1    0    0  501    0  0.00000000000E+00  0.00000000000E+00 -0.10172615660E+04  0.10172615710E+04  0.10100000352E+00 0.  1.
    10030    2    1    2    0    0  0.00000000000E+00  0.00000000000E+00  0.16639324605E+04  0.36984555994E+04  0.33030141670E+04 0.  0.
        4    1    3    3  502    0 -0.41568969702E+03 -0.47890848304E+02  0.26208530263E+04  0.26540466567E+04  0.12699999809E+01 0. -1.
       -4    1    3    3    0  502  0.41568969702E+03  0.47890848304E+02 -0.95692056577E+03  0.10444089427E+04  0.12699999809E+01 0.  1.
</event>
<event>
 5   0  0.9810351E-08  0.3290383E+04  0.7818609E-02  0.8165347E-01
       -1   -1    0    0    0  501  0.00000000000E+00  0.00000000000E+00  0.15656229901E+04  0.15656229901E+04  0.50400001928E-02 0. -1.
        1   -1    0    0  501    0  0.00000000000E+00  0.00000000000E+00 -0.17288036625E+04  0.17288036625E+04  0.50400001928E-02 0.  1.
    10030    2    1    2    0    0  0.00000000000E+00  0.00000000000E+00 -0.16318067238E+03  0.32944266526E+04  0.32903828102E+04 0.  0.
        5    1    3    3  502    0  0.46764561378E+03 -0.13756102215E+04  0.69113324237E+03  0.16089385166E+04  0.46999998093E+01 0. -1.
       -5    1    3    3    0  502 -0.46764561378E+03  0.13756102215E+04 -0.85431391475E+03  0.16854881360E+04  0.46999998093E+01 0.  1.
</event>
<event>
 5   0  0.9810351E-08  0.3293330E+04  0.7818609E-02  0.8164595E-01
       -1   -1    0    0    0  501  0.00000000000E+00  0.00000000000E+00  0.12302945622E+04  0.12302945622E+04  0.50400001928E-02 0. -1.
        1   -1    0    0  501    0  0.00000000000E+00  0.00000000000E+00 -0.22039478054E+04  0.22039478054E+04  0.50400001928E-02 0.  1.
    10030    2    1    2    0    0  0.00000000000E+00  0.00000000000E+00 -0.97365324323E+03  0.34342423676E+04  0.32933296224E+04 0.  0.
        5    1    3    3  502    0 -0.87246851249E+03  0.15398778278E+03 -0.19342249497E+04  0.21274777998E+04  0.46999998093E+01 0.  1.
       -5    1    3    3    0  502  0.87246851249E+03 -0.15398778278E+03  0.96057170647E+03  0.13067645679E+04  0.46999998093E+01 0. -1.
</event>
<event>
 5   0  0.2703956E-07  0.3315853E+04  0.7818609E-02  0.8158873E-01
        2   -1    0    0  501    0  0.00000000000E+00  0.00000000000E+00  0.18784458455E+04  0.18784458455E+04  0.25500000920E-02 0. -1.
       -2   -1    0    0    0  501  0.00000000000E+00  0.00000000000E+00 -0.14632949966E+04  0.14632949966E+04  0.25500000920E-02 0.  1.
    10030    2    1    2    0    0  0.00000000000E+00  0.00000000000E+00  0.41515084894E+03  0.33417408422E+04  0.33158530771E+04 0.  0.
        5    1    3    3  502    0  0.13381635878E+04  0.33033054339E+02 -0.77828745979E+03  0.15483947916E+04  0.46999998093E+01 0.  1.
       -5    1    3    3    0  502 -0.13381635878E+04 -0.33033054339E+02  0.11934383087E+04  0.17933460506E+04  0.46999998093E+01 0. -1.
</event>
<event>
 5   0  0.2824402E-07  0.3303375E+04  0.7818609E-02  0.8162037E-01
        2   -1    0    0  501    0  0.00000000000E+00  0.00000000000E+00  0.21263459680E+04  0.21263459680E+04  0.25500000920E-02 0. -1.
       -2   -1    0    0    0  501  0.00000000000E+00  0.00000000000E+00 -0.12829860785E+04  0.12829860785E+04  0.25500000920E-02 0.  1.
    10030    2    1    2    0    0  0.00000000000E+00  0.00000000000E+00  0.84335988952E+03  0.34093320466E+04  0.33033754102E+04 0.  0.
        1    1    3    3  502    0  0.17820058854E+03  0.15305325575E+03  0.21090177464E+04  0.21220595193E+04  0.50400001928E-02 0. -1.
       -1    1    3    3    0  502 -0.17820058854E+03 -0.15305325575E+03 -0.12656578569E+04  0.12872725273E+04  0.50400001928E-02 0.  1.
</event>
<event>
 5   0  0.9454010E-08  0.3291030E+04  0.7818609E-02  0.8165182E-01
        1   -1    0    0  501    0  0.00000000000E+00  0.00000000000E+00  0.15883182895E+04  0.15883182895E+04  0.50400001928E-02 0. -1.
       -1   -1    0    0    0  501  0.00000000000E+00  0.00000000000E+00 -0.17047715048E+04  0.17047715048E+04  0.50400001928E-02 0.  1.
    10030    2    1    2    0    0  0.00000000000E+00  0.00000000000E+00 -0.11645321526E+03  0.32930897943E+04  0.32910300883E+04 0.  0.
        2    1    3    3  502    0 -0.64516666910E+03 -0.11067703466E+04 -0.10916067622E+04  0.16830882194E+04  0.25500000920E-02 0.  1.
       -2    1    3    3    0  502  0.64516666910E+03  0.11067703466E+04  0.97515354694E+03  0.16100015749E+04  0.25500000920E-02 0. -1.
</event>
<event>
 5   0  0.9454010E-08  0.3302462E+04  0.7818609E-02  0.8162269E-01
        1   -1    0    0  501    0  0.00000000000E+00  0.00000000000E+00  0.24186723851E+04  0.24186723851E+04  0.50400001928E-02 0.  1.
       -1   -1    0    0    0  501  0.00000000000E+00  0.00000000000E+00 -0.11272977524E+04  0.11272977524E+04  0.50400001928E-02 0. -1.
    10030    2    1    2    0    0  0.00000000000E+00  0.00000000000E+00  0.12913746327E+04  0.35459701375E+04  0.33024620777E+04 0.  0.
        2    1    3    3  502    0 -0.95822451031E+03 -0.20395539079E+03  0.20728960016E+04  0.22927472270E+04  0.25500000920E-02 0.  1.
       -2    1    3    3    0  502  0.95822451031E+03  0.20395539079E+03 -0.78152136883E+03  0.12532229106E+04  0.25500000920E-02 0. -1.
</event>
<event>
 5   0  0.2824402E-07  0.3301984E+04  0.7818609E-02  0.8162391E-01
       -2   -1    0    0    0  501  0.00000000000E+00  0.00000000000E+00  0.93020068828E+03  0.93020068828E+03  0.25500000920E-02 0. -1.
        2   -1    0    0  501    0  0.00000000000E+00  0.00000000000E+00 -0.29303075916E+04  0.29303075916E+04  0.25500000920E-02 0.  1.
    10030    2    1    2    0    0  0.00000000000E+00  0.00000000000E+00 -0.20001069033E+04  0.38605082799E+04  0.33019837302E+04 0.  0.
        1    1    3    3  502    0  0.20381663117E+03  0.47093072995E+02  0.91464406294E+03  0.93826048545E+03  0.50400001928E-02 0. -1.
       -1    1    3    3    0  502 -0.20381663117E+03 -0.47093072995E+02 -0.29147509663E+04  0.29222477944E+04  0.50400001928E-02 0.  1.
</event>
<event>
 5   0  0.2824402E-07  0.3291838E+04  0.7818609E-02  0.8164975E-01
       -2   -1    0    0    0  501  0.00000000000E+00  0.00000000000E+00  0.13630510433E+04  0.13630510433E+04  0.25500000920E-02 0. -1.
        2   -1    0    0  501    0  0.00000000000E+00  0.00000000000E+00 -0.19874894413E+04  0.19874894413E+04  0.25500000920E-02 0.  1.
    10030    2    1    2    0    0  0.00000000000E+00  0.00000000000E+00 -0.62443839802E+03  0.33505404846E+04  0.32918381227E+04 0.  0.
        1    1    3    3  502    0  0.77260538039E+02  0.13467700368E+03 -0.19800189003E+04  0.19860971607E+04  0.50400001928E-02 0.  1.
       -1    1    3    3    0  502 -0.77260538039E+02 -0.13467700368E+03  0.13555805023E+04  0.13644433239E+04  0.50400001928E-02 0. -1.
</event>
<event>
 5   0  0.2875829E-07  0.3300051E+04  0.7818609E-02  0.8162882E-01
       -2   -1    0    0    0  501  0.00000000000E+00  0.00000000000E+00  0.12554571059E+04  0.12554571059E+04  0.25500000920E-02 0.  1.
        2   -1    0    0  501    0  0.00000000000E+00  0.00000000000E+00 -0.21686002716E+04  0.21686002716E+04  0.25500000920E-02 0. -1.
    10030    2    1    2    0    0  0.00000000000E+00  0.00000000000E+00 -0.91314316569E+03  0.34240573776E+04  0.33000512850E+04 0.  0.
        3    1    3    3  502    0  0.13785968436E+04 -0.14899306768E+02 -0.13971872944E+04  0.19628763569E+04  0.10100000352E+00 0. -1.
       -3    1    3    3    0  502 -0.13785968436E+04  0.14899306768E+02  0.48404412875E+03  0.14611810207E+04  0.10100000352E+00 0.  1.
</event>
<event>
 5   0  0.8805125E-08  0.3297714E+04  0.7818609E-02  0.8163477E-01
       -1   -1    0    0    0  501  0.00000000000E+00  0.00000000000E+00  0.10255024118E+04  0.10255024118E+04  0.50400001928E-02 0. -1.
        1   -1    0    0  501    0  0.00000000000E+00  0.00000000000E+00 -0.26511189809E+04  0.26511189809E+04  0.50400001928E-02 0.  1.
    10030    2    1    2    0    0  0.00000000000E+00  0.00000000000E+00 -0.16256165691E+04  0.36766213927E+04  0.32977136983E+04 0.  0.
        4    1    3    3  502    0  0.13686983909E+04  0.41868483510E+03 -0.17254580712E+04  0.22418384074E+04  0.12699999809E+01 0.  1.
       -4    1    3    3    0  502 -0.13686983909E+04 -0.41868483510E+03  0.99841502103E+02  0.14347829853E+04  0.12699999809E+01 0. -1.
</event>
<event>
 5   0  0.8805125E-08  0.3259060E+04  0.7818609E-02  0.8173391E-01
        1   -1    0    0  501    0  0.00000000000E+00  0.00000000000E+00  0.22151396706E+04  0.22151396706E+04  0.50400001928E-02 0. -1.
       -1   -1    0    0    0  501  0.00000000000E+00  0.00000000000E+00 -0.11987363973E+04  0.11987363973E+04  0.50400001928E-02 0.  1.
    10030    2    1    2    0    0  0.00000000000E+00  0.00000000000E+00  0.10164032733E+04  0.34138760680E+04  0.32590603237E+04 0.  0.
        4    1    3    3  502    0 -0.99480897462E+02  0.14518030880E+04  0.12763424288E+04  0.19356343311E+04  0.12699999809E+01 0. -1.
       -4    1    3    3    0  502  0.99480897462E+02 -0.14518030880E+04 -0.25993915546E+03  0.14782417369E+04  0.12699999809E+01 0.  1.
</event>
<event>
 5   0  0.9181760E-08  0.3300738E+04  0.7818609E-02  0.8162708E-01
       -1   -1    0    0    0  501  0.00000000000E+00  0.00000000000E+00  0.10275570876E+04  0.10275570876E+04  0.50400001928E-02 0. -1.
        1   -1    0    0  501    0  0.00000000000E+00  0.00000000000E+00 -0.26506730154E+04  0.26506730154E+04  0.50400001928E-02 0.  1.
    10030    2    1    2    0    0  0.00000000000E+00  0.00000000000E+00 -0.16231159278E+04  0.36782301030E+04  0.33007380047E+04 0.  0.
        1    1    3    3  502    0 -0.46831513587E+03  0.11471781018E+03 -0.25704350981E+04  0.26152659207E+04  0.50400001928E-02 0.  1.
       -1    1    3    3    0  502  0.46831513587E+03 -0.11471781018E+03  0.94731917027E+03  0.10629641823E+04  0.50400001928E-02 0. -1.
</event>
<event>
 5   0  0.2703956E-07  0.3301206E+04  0.7818609E-02  0.8162588E-01
        2   -1    0    0  501    0  0.00000000000E+00  0.00000000000E+00  0.20696580093E+04  0.20696580093E+04  0.25500000920E-02 0. -1.
       -2   -1    0    0    0  501  0.00000000000E+00  0.00000000000E+00 -0.13163967487E+04  0.13163967487E+04  0.25500000920E-02 0.  1.
    10030    2    1    2    0    0  0.00000000000E+00  0.00000000000E+00  0.75326126060E+03  0.33860547579E+04  0.33012064911E+04 0.  0.
        5    1    3    3  502    0 -0.14733872608E+04  0.67959182349E+02 -0.38334514873E+03  0.15239632751E+04  0.46999998093E+01 0.  1.
       -5    1    3    3    0  502  0.14733872608E+04 -0.67959182349E+02  0.11366064093E+04  0.18620914829E+04  0.46999998093E+01 0. -1.
</event>
<event>
 5   0  0.9283910E-08  0.3302148E+04  0.7818609E-02  0.8162349E-01
        1   -1    0    0  501    0  0.00000000000E+00  0.00000000000E+00  0.19479634988E+04  0.19479634988E+04  0.50400001928E-02 0.  1.
       -1   -1    0    0    0  501  0.00000000000E+00  0.00000000000E+00 -0.13994333250E+04  0.13994333251E+04  0.50400001928E-02 0. -1.
    10030    2    1    2    0    0  0.00000000000E+00  0.00000000000E+00  0.54853017371E+03  0.33473968238E+04  0.33021478078E+04 0.  0.
        3    1    3    3  502    0  0.59096120739E+03 -0.31432052906E+03 -0.12557254356E+04  0.14229824045E+04  0.10100000352E+00 0. -1.
       -3    1    3    3    0  502 -0.59096120739E+03  0.31432052906E+03  0.18042556093E+04  0.19244144194E+04  0.10100000352E+00 0.  1.
</event>
<event>
 5   0  0.2703956E-07  0.3300703E+04  0.7818609E-02  0.8162717E-01
        2   -1    0    0  501    0  0.00000000000E+00  0.00000000000E+00  0.15917259587E+04  0.15917259587E+04  0.25500000920E-02 0. -1.
       -2   -1    0    0    0  501  0.00000000000E+00  0.00000000000E+00 -0.17111362710E+04  0.17111362710E+04  0.25500000920E-02 0.  1.
    10030    2    1    2    0    0  0.00000000000E+00  0.00000000000E+00 -0.11941031226E+03  0.33028622297E+04  0.33007029684E+04 0.  0.
        5    1    3    3  502    0 -0.10793574894E+04  0.92279346555E+03  0.78172397289E+03  0.16210104348E+04  0.46999998093E+01 0. -1.
       -5    1    3    3    0  502  0.10793574894E+04 -0.92279346555E+03 -0.90113428514E+03  0.16818517949E+04  0.46999998093E+01 0.  1.
</event>
<event>
 5   0  0.2824402E-07  0.3302714E+04  0.7818609E-02  0.8162205E-01
       -2   -1    0    0    0  501  0.00000000000E+00  0.00000000000E+00  0.20910598703E+04  0.20910598703E+04  0.25500000920E-02 0.  1.
        2   -1    0    0  501    0  0.00000000000E+00  0.00000000000E+00 -0.13041138875E+04  0.13041138875E+04  0.25500000920E-02 0. -1.
    10030    2    1    2    0    0  0.00000000000E+00  0.00000000000E+00  0.78694598286E+03  0.33951737578E+04  0.33027141665E+04 0.  0.
        1    1    3    3  502    0  0.10906529763E+04 -0.85722145015E+03 -0.52750252445E+03  0.14841197534E+04  0.50400001928E-02 0. -1.
       -1    1    3    3    0  502 -0.10906529763E+04  0.85722145015E+03  0.13144485073E+04  0.19110540044E+04  0.50400001928E-02 0.  1.
</event>
<event>
 5   0  0.2713815E-07  0.3309597E+04  0.7818609E-02  0.8160458E-01
       -2   -1    0    0    0  501  0.00000000000E+00  0.00000000000E+00  0.17994238981E+04  0.17994238981E+04  0.25500000920E-02 0.  1.
        2   -1    0    0  501    0  0.00000000000E+00  0.00000000000E+00 -0.15217974262E+04  0.15217974262E+04  0.25500000920E-02 0. -1.
    10030    2    1    2    0    0  0.00000000000E+00  0.00000000000E+00  0.27762647184E+03  0.33212213243E+04  0.33095973512E+04 0.  0.
        4    1    3    3  502    0  0.10206501093E+04  0.12814214098E+04 -0.95651476764E+02  0.16410113628E+04  0.12699999809E+01 0.  1.
       -4    1    3    3    0  502 -0.10206501093E+04 -0.12814214098E+04  0.37327794860E+03  0.16802099615E+04  0.12699999809E+01 0. -1.
</event>
<event>
 5   0  0.2703956E-07  0.3304591E+04  0.7818609E-02  0.8161728E-01
       -2   -1    0    0    0  501  0.00000000000E+00  0.00000000000E+00  0.15496397331E+04  0.15496397331E+04  0.25500000920E-02 0.  1.
        2   -1    0    0  501    0  0.00000000000E+00  0.00000000000E+00 -0.17617521400E+04  0.17617521400E+04  0.25500000920E-02 0. -1.
    10030    2    1    2    0    0  0.00000000000E+00  0.00000000000E+00 -0.21211240685E+03  0.33113918731E+04  0.33045914217E+04 0.  0.
        5    1    3    3  502    0 -0.12231781524E+04 -0.67309449957E+03  0.77941264211E+03  0.15989769087E+04  0.46999998093E+01 0.  1.
       -5    1    3    3    0  502  0.12231781524E+04  0.67309449957E+03 -0.99152504896E+03  0.17124149645E+04  0.46999998093E+01 0. -1.
</event>
<event>
 5   0  0.8805125E-08  0.3299431E+04  0.7818609E-02  0.8163040E-01
        1   -1    0    0  501    0  0.00000000000E+00  0.00000000000E+00  0.16075226301E+04  0.16075226301E+04  0.50400001928E-02 0.  1.
       -1   -1    0    0    0  501  0.00000000000E+00  0.00000000000E+00 -0.16930157522E+04  0.16930157522E+04  0.50400001928E-02 0. -1.
    10030    2    1    2    0    0  0.00000000000E+00  0.00000000000E+00 -0.85493122115E+02  0.33005383823E+04  0.32994309417E+04 0.  0.
        4    1    3    3  502    0 -0.63033824094E+03 -0.65298110648E+03 -0.14208333228E+04  0.16859654704E+04  0.12699999809E+01 0. -1.
       -4    1    3    3    0  502  0.63033824094E+03  0.65298110648E+03  0.13353402007E+04  0.16145729119E+04  0.12699999809E+01 0.  1.
</event>
<event>
 5   0  0.2824402E-07  0.3305741E+04  0.7818609E-02  0.8161436E-01
        2   -1    0    0  501    0  0.00000000000E+00  0.00000000000E+00  0.21511027388E+04  0.21511027388E+04  0.25500000920E-02 0.  1.
       -2   -1    0    0    0  501  0.00000000000E+00  0.00000000000E+00 -0.12700374690E+04  0.12700374690E+04  0.25500000920E-02 0. -1.
    10030    2    1    2    0    0  0.00000000000E+00  0.00000000000E+00  0.88106526985E+03  0.34211402078E+04  0.33057411139E+04 0.  0.
        1    1    3    3  502    0  0.71119865684E+02 -0.63541536568E+03 -0.11368700025E+04  0.13043328275E+04  0.50400001928E-02 0. -1.
       -1    1    3    3    0  502 -0.71119865684E+02  0.63541536568E+03  0.20179352723E+04  0.21168073804E+04  0.50400001928E-02 0.  1.
</event>
<event>
 5   0  0.9181760E-08  0.3302338E+04  0.7818609E-02  0.8162301E-01
       -1   -1    0    0    0  501  0.00000000000E+00  0.00000000000E+00  0.12482660278E+04  0.12482660278E+04  0.50400001928E-02 0.  1.
        1   -1    0    0  501    0  0.00000000000E+00  0.00000000000E+00 -0.21841172989E+04  0.21841172989E+04  0.50400001928E-02 0. -1.
    10030    2    1    2    0    0  0.00000000000E+00  0.00000000000E+00 -0.93585127103E+03  0.34323833267E+04  0.33023382171E+04 0.  0.
        1    1    3    3  502    0  0.29784816582E+03 -0.64613948754E+02 -0.21546281707E+04  0.21760769853E+04  0.50400001928E-02 0. -1.
       -1    1    3    3    0  502 -0.29784816582E+03  0.64613948754E+02  0.12187768996E+04  0.12563063414E+04  0.50400001928E-02 0.  1.
</event>
<event>
 5   0  0.9454010E-08  0.3302679E+04  0.7818609E-02  0.8162214E-01
        1   -1    0    0  501    0  0.00000000000E+00  0.00000000000E+00  0.28820434482E+04  0.28820434482E+04  0.50400001928E-02 0. -1.
       -1   -1    0    0    0  501  0.00000000000E+00  0.00000000000E+00 -0.94617647074E+03  0.94617647076E+03  0.50400001928E-02 0.  1.
    10030    2    1    2    0    0  0.00000000000E+00  0.00000000000E+00  0.19358669774E+04  0.38282199189E+04  0.33026787300E+04 0.  0.
        2    1    3    3  502    0  0.39291368004E+03  0.56816281963E+03  0.27065183691E+04  0.27932833426E+04  0.25500000920E-02 0. -1.
       -2    1    3    3    0  502 -0.39291368004E+03 -0.56816281963E+03 -0.77065139168E+03  0.10349365764E+04  0.25500000920E-02 0.  1.
</event>
<event>
 5   0  0.9454010E-08  0.3302301E+04  0.7818609E-02  0.8162310E-01
        1   -1    0    0  501    0  0.00000000000E+00  0.00000000000E+00  0.19840356503E+04  0.19840356503E+04  0.50400001928E-02 0. -1.
       -1   -1    0    0    0  501  0.00000000000E+00  0.00000000000E+00 -0.13741172221E+04  0.13741172221E+04  0.50400001928E-02 0.  1.
    10030    2    1    2    0    0  0.00000000000E+00  0.00000000000E+00  0.60991842823E+03  0.33581528724E+04  0.33023007473E+04 0.  0.
        2    1    3    3  502    0 -0.74134614446E+03  0.11324357552E+04 -0.65670550936E+03  0.15044158240E+04  0.25500000920E-02 0.  1.
       -2    1    3    3    0  502  0.74134614446E+03 -0.11324357552E+04  0.12666239376E+04  0.18537370484E+04  0.25500000920E-02 0. -1.
</event>
<event>
 5   0  0.9181760E-08  0.3302831E+04  0.7818609E-02  0.8162175E-01
       -1   -1    0    0    0  501  0.00000000000E+00  0.00000000000E+00  0.23648407670E+04  0.23648407670E+04  0.50400001928E-02 0. -1.
        1   -1    0    0  501    0  0.00000000000E+00  0.00000000000E+00 -0.11532163629E+04  0.11532163629E+04  0.50400001928E-02 0.  1.
    10030    2    1    2    0    0  0.00000000000E+00  0.00000000000E+00  0.12116244041E+04  0.35180571299E+04  0.33028309483E+04 0.  0.
        1    1    3    3  502    0  0.15057758582E+03  0.66913006007E+03 -0.99433396500E+03  0.12079357105E+04  0.50400001928E-02 0.  1.
       -1    1    3    3    0  502 -0.15057758582E+03 -0.66913006007E+03  0.22059583691E+04  0.23101214195E+04  0.50400001928E-02 0. -1.
</event>
<event>
 5   0  0.8805125E-08  0.3300856E+04  0.7818609E-02  0.8162678E-01
        1   -1    0    0  501    0  0.00000000000E+00  0.00000000000E+00  0.14730980604E+04  0.14730980604E+04  0.50400001928E-02 0.  1.
       -1   -1    0    0    0  501  0.00000000000E+00  0.00000000000E+00 -0.18491049526E+04  0.18491049526E+04  0.50400001928E-02 0. -1.
    10030    2    1    2    0    0  0.00000000000E+00  0.00000000000E+00 -0.37600689223E+03  0.33222030130E+04  0.33008562035E+04 0.  0.
        4    1    3    3  502    0 -0.12245090471E+04  0.26182325667E+03 -0.12701017978E+04  0.17835733833E+04  0.12699999809E+01 0. -1.
       -4    1    3    3    0  502  0.12245090471E+04 -0.26182325667E+03  0.89409490558E+03  0.15386296296E+04  0.12699999809E+01 0.  1.
</event>
<event>
 5   0  0.2713815E-07  0.3299261E+04  0.7818609E-02  0.8163084E-01
        2   -1    0    0  501    0  0.00000000000E+00  0.00000000000E+00  0.17688584465E+04  0.17688584465E+04  0.25500000920E-02 0. -1.
       -2   -1    0    0    0  501  0.00000000000E+00  0.00000000000E+00 -0.15384386179E+04  0.15384386179E+04  0.25500000920E-02 0.  1.
    10030    2    1    2    0    0  0.00000000000E+00  0.00000000000E+00  0.23041982859E+03  0.33072970643E+04  0.32992606103E+04 0.  0.
        4    1    3    3  502    0  0.66578313493E+03 -0.14898331517E+04  0.35747716685E+03  0.16705273240E+04  0.12699999809E+01 0. -1.
       -4    1    3    3    0  502 -0.66578313493E+03  0.14898331517E+04 -0.12705733827E+03  0.16367697403E+04  0.12699999809E+01 0.  1.
</event>
<event>
 5   0  0.2713815E-07  0.3274594E+04  0.7818609E-02  0.8169390E-01
        2   -1    0    0  501    0  0.00000000000E+00  0.00000000000E+00  0.19160242875E+04  0.19160242875E+04  0.25500000920E-02 0. -1.
       -2   -1    0    0    0  501  0.00000000000E+00  0.00000000000E+00 -0.13991168249E+04  0.13991168249E+04  0.25500000920E-02 0.  1.
    10030    2    1    2    0    0  0.00000000000E+00  0.00000000000E+00  0.51690746268E+03  0.33151411124E+04  0.32745942146E+04 0.  0.
        4    1    3    3  502    0 -0.40776083643E+02 -0.75661944094E+03 -0.12109327393E+04  0.14284590926E+04  0.12699999809E+01 0.  1.
       -4    1    3    3    0  502  0.40776083643E+02  0.75661944094E+03  0.17278402019E+04  0.18866820198E+04  0.12699999809E+01 0. -1.
</event>
<event>
 5   0  0.9810351E-08  0.3294628E+04  0.7818609E-02  0.8164264E-01
       -1   -1    0    0    0  501  0.00000000000E+00  0.00000000000E+00  0.12110126496E+04  0.12110126496E+04  0.50400001928E-02 0.  1.
        1   -1    0    0  501    0  0.00000000000E+00  0.00000000000E+00 -0.22408052801E+04  0.22408052801E+04  0.50400001928E-02 0. -1.
    10030    2    1    2    0    0  0.00000000000E+00  0.00000000000E+00 -0.10297926305E+04  0.34518179298E+04  0.32946280759E+04 0.  0.
        5    1    3    3  502    0  0.74016300950E+03 -0.60379994642E+03 -0.19210187997E+04  0.21454022874E+04  0.46999998093E+01 0. -1.
       -5    1    3    3    0  502 -0.74016300950E+03  0.60379994642E+03  0.89122616922E+03  0.13064156424E+04  0.46999998093E+01 0.  1.
</event>
<event>
 5   0  0.2727168E-07  0.3335509E+04  0.7818609E-02  0.8153918E-01
        2   -1    0    0  501    0  0.00000000000E+00  0.00000000000E+00  0.29686767237E+04  0.29686767237E+04  0.25500000920E-02 0.  1.
       -2   -1    0    0    0  501  0.00000000000E+00  0.00000000000E+00 -0.93691749498E+03  0.93691749498E+03  0.25500000920E-02 0. -1.
    10030    2    1    2    0    0  0.00000000000E+00  0.00000000000E+00  0.20317592287E+04  0.39055942187E+04  0.33355090522E+04 0.  0.
        2    1    3    3  502    0 -0.50529628635E+03 -0.15641355733E+04  0.13461536075E+04  0.21246114853E+04  0.25500000920E-02 0.  1.
       -2    1    3    3    0  502  0.50529628635E+03  0.15641355733E+04  0.68560562119E+03  0.17809827333E+04  0.25500000920E-02 0. -1.
</event>
<event>
 5   0  0.8805125E-08  0.3378090E+04  0.7818609E-02  0.8143305E-01
       -3   -1    0    0    0  501  0.00000000000E+00  0.00000000000E+00  0.12406353763E+04  0.12406353804E+04  0.10100000352E+00 0. -1.
        3   -1    0    0  501    0  0.00000000000E+00  0.00000000000E+00 -0.22995253747E+04  0.22995253769E+04  0.10100000352E+00 0.  1.
    10030    2    1    2    0    0  0.00000000000E+00  0.00000000000E+00 -0.10588899985E+04  0.35401607573E+04  0.33780897204E+04 0.  0.
        2    1    3    3  502    0 -0.75386271578E+03  0.27069893124E+02  0.10542945540E+04  0.12963713897E+04  0.25500000920E-02 0. -1.
       -2    1    3    3    0  502  0.75386271578E+03 -0.27069893124E+02 -0.21131845525E+04  0.22437893676E+04  0.25500000920E-02 0.  1.
</event>
<event>
 5   0  0.2824402E-07  0.3297240E+04  0.7818609E-02  0.8163598E-01
        2   -1    0    0  501    0  0.00000000000E+00  0.00000000000E+00  0.20527642162E+04  0.20527642162E+04  0.25500000920E-02 0. -1.
       -2   -1    0    0    0  501  0.00000000000E+00  0.00000000000E+00 -0.13240432029E+04  0.13240432029E+04  0.25500000920E-02 0.  1.
    10030    2    1    2    0    0  0.00000000000E+00  0.00000000000E+00  0.72872101328E+03  0.33768074191E+04  0.32972403659E+04 0.  0.
        1    1    3    3  502    0 -0.16366302569E+03 -0.25522495738E+03  0.20239663677E+04  0.20465495896E+04  0.50400001928E-02 0. -1.
       -1    1    3    3    0  502  0.16366302569E+03  0.25522495738E+03 -0.12952453544E+04  0.13302578295E+04  0.50400001928E-02 0.  1.
</event>
<event>
 5   0  0.2713815E-07  0.3294066E+04  0.7818609E-02  0.8164407E-01
       -2   -1    0    0    0  501  0.00000000000E+00  0.00000000000E+00  0.12975010475E+04  0.12975010475E+04  0.25500000920E-02 0. -1.
        2   -1    0    0  501    0  0.00000000000E+00  0.00000000000E+00 -0.20907254829E+04  0.20907254829E+04  0.25500000920E-02 0.  1.
    10030    2    1    2    0    0  0.00000000000E+00  0.00000000000E+00 -0.79322443538E+03  0.33882265305E+04  0.32940664864E+04 0.  0.
        4    1    3    3  502    0  0.63343858022E+03  0.12763511490E+04 -0.12463005430E+04  0.18930354849E+04  0.12699999809E+01 0. -1.
       -4    1    3    3    0  502 -0.63343858022E+03 -0.12763511490E+04  0.45307610767E+03  0.14951910456E+04  0.12699999809E+01 0.  1.
</event>
<event>
 5   0  0.9810351E-08  0.3301972E+04  0.7818609E-02  0.8162394E-01
       -1   -1    0    0    0  501  0.00000000000E+00  0.00000000000E+00  0.14946478954E+04  0.14946478954E+04  0.50400001928E-02 0.  1.
        1   -1    0    0  501    0  0.00000000000E+00  0.00000000000E+00 -0.18236765927E+04  0.18236765927E+04  0.50400001928E-02 0. -1.
    10030    2    1    2    0    0  0.00000000000E+00  0.00000000000E+00 -0.32902869736E+03  0.33183244881E+04  0.33019717631E+04 0.  0.
        5    1    3    3  502    0 -0.10151451515E+04 -0.11984911718E+04 -0.67578878809E+03  0.17098576969E+04  0.46999998093E+01 0. -1.
       -5    1    3    3    0  502  0.10151451515E+04  0.11984911718E+04  0.34676009073E+03  0.16084667911E+04  0.46999998093E+01 0.  1.
</event>
<event>
 5   0  0.2713815E-07  0.3296433E+04  0.7818609E-02  0.8163804E-01
       -2   -1    0    0    0  501  0.00000000000E+00  0.00000000000E+00  0.10959839146E+04  0.10959839146E+04  0.25500000920E-02 0. -1.
        2   -1    0    0  501    0  0.00000000000E+00  0.00000000000E+00 -0.24787016774E+04  0.24787016774E+04  0.25500000920E-02 0.  1.
    10030    2    1    2    0    0  0.00000000000E+00  0.00000000000E+00 -0.13827177628E+04  0.35746855920E+04  0.32964327189E+04 0.  0.
        4    1    3    3  502    0  0.13073962980E+04 -0.70831994607E+01 -0.17797094401E+04  0.22083257359E+04  0.12699999809E+01 0.  1.
       -4    1    3    3    0  502 -0.13073962980E+04  0.70831994607E+01  0.39699167722E+03  0.13663598562E+04  0.12699999809E+01 0. -1.
</event>
<event>
 5   0  0.2703956E-07  0.3291072E+04  0.7818609E-02  0.8165171E-01
        2   -1    0    0  501    0  0.00000000000E+00  0.00000000000E+00  0.21443650963E+04  0.21443650963E+04  0.25500000920E-02 0. -1.
       -2   -1    0    0    0  501  0.00000000000E+00  0.00000000000E+00 -0.12627463166E+04  0.12627463166E+04  0.25500000920E-02 0.  1.
    10030    2    1    2    0    0  0.00000000000E+00  0.00000000000E+00  0.88161877973E+03  0.34071114129E+04  0.32910722427E+04 0.  0.
        5    1    3    3  502    0 -0.17810775490E+02 -0.91496340309E+02 -0.12600039599E+04  0.12634559245E+04  0.46999998093E+01 0.  1.
       -5    1    3    3    0  502  0.17810775490E+02  0.91496340309E+02  0.21416227397E+04  0.21436554884E+04  0.46999998093E+01 0. -1.
</event>
<event>
 5   0  0.2824402E-07  0.3295702E+04  0.7818609E-02  0.8163990E-01
       -2   -1    0    0    0  501  0.00000000000E+00  0.00000000000E+00  0.12532372654E+04  0.12532372654E+04  0.25500000920E-02 0.  1.
        2   -1    0    0  501    0  0.00000000000E+00  0.00000000000E+00 -0.21667193680E+04  0.21667193680E+04  0.25500000920E-02 0. -1.
    10030    2    1    2    0    0  0.00000000000E+00  0.00000000000E+00 -0.91348210262E+03  0.34199566334E+04  0.32957023262E+04 0.  0.
        1    1    3    3  502    0 -0.58788531226E+02  0.12112042401E+04 -0.16145772397E+04  0.20192403189E+04  0.50400001928E-02 0. -1.
       -1    1    3    3    0  502  0.58788531226E+02 -0.12112042401E+04  0.70109513705E+03  0.14007163145E+04  0.50400001928E-02 0.  1.
</event>
<event>
 5   0  0.8805125E-08  0.3293677E+04  0.7818609E-02  0.8164506E-01
       -1   -1    0    0    0  501  0.00000000000E+00  0.00000000000E+00  0.11781617500E+04  0.11781617500E+04  0.50400001928E-02 0. -1.
        1   -1    0    0  501    0  0.00000000000E+00  0.00000000000E+00 -0.23019570961E+04  0.23019570961E+04  0.50400001928E-02 0.  1.
    10030    2    1    2    0    0  0.00000000000E+00  0.00000000000E+00 -0.11237953461E+04  0.34801188461E+04  0.32936774589E+04 0.  0.
        4    1    3    3  502    0  0.59102341982E+03 -0.15371185839E+04 -0.56805542704E+03  0.17420478768E+04  0.12699999809E+01 0.  1.
       -4    1    3    3    0  502 -0.59102341982E+03  0.15371185839E+04 -0.55573991909E+03  0.17380709693E+04  0.12699999809E+01 0. -1.
</event>
<event>
 5   0  0.2824402E-07  0.3295988E+04  0.7818609E-02  0.8163917E-01
        2   -1    0    0  501    0  0.00000000000E+00  0.00000000000E+00  0.22428179822E+04  0.22428179822E+04  0.25500000920E-02 0.  1.
       -2   -1    0    0    0  501  0.00000000000E+00  0.00000000000E+00 -0.12109250699E+04  0.12109250699E+04  0.25500000920E-02 0. -1.
    10030    2    1    2    0    0  0.00000000000E+00  0.00000000000E+00  0.10318929122E+04  0.34537430521E+04  0.32959881808E+04 0.  0.
        1    1    3    3  502    0 -0.92455235472E+03  0.91135104679E+03  0.15796828304E+04  0.20446896175E+04  0.50400001928E-02 0.  1.
       -1    1    3    3    0  502  0.92455235472E+03 -0.91135104679E+03 -0.54778991819E+03  0.14090534346E+04  0.50400001928E-02 0. -1.
</event>
<event>
 5   0  0.8805125E-08  0.3298612E+04  0.7818609E-02  0.8163249E-01
        1   -1    0    0  501    0  0.00000000000E+00  0.00000000000E+00  0.20413797084E+04  0.20413797084E+04  0.50400001928E-02 0. -1.
       -1   -1    0    0    0  501  0.00000000000E+00  0.00000000000E+00 -0.13325352222E+04  0.13325352222E+04  0.50400001928E-02 0.  1.
    10030    2    1    2    0    0  0.00000000000E+00  0.00000000000E+00  0.70884448627E+03  0.33739149306E+04  0.32986120495E+04 0.  0.
        4    1    3    3  502    0  0.10883214014E+04 -0.81450734958E+03 -0.60089263394E+03  0.14862500683E+04  0.12699999809E+01 0.  1.
       -4    1    3    3    0  502 -0.10883214014E+04  0.81450734958E+03  0.13097371202E+04  0.18876648623E+04  0.12699999809E+01 0. -1.
</event>
<event>
 5   0  0.2875829E-07  0.3300635E+04  0.7818609E-02  0.8162734E-01
       -2   -1    0    0    0  501  0.00000000000E+00  0.00000000000E+00  0.18248086996E+04  0.18248086996E+04  0.25500000920E-02 0. -1.
        2   -1    0    0  501    0  0.00000000000E+00  0.00000000000E+00 -0.14925110628E+04  0.14925110628E+04  0.25500000920E-02 0.  1.
    10030    2    1    2    0    0  0.00000000000E+00  0.00000000000E+00  0.33229763679E+03  0.33173197624E+04  0.33006345885E+04 0.  0.
        3    1    3    3  502    0  0.12163112632E+04  0.10514422007E+04 -0.20802792096E+03  0.16211784036E+04  0.10100000352E+00 0. -1.
       -3    1    3    3    0  502 -0.12163112632E+04 -0.10514422007E+04  0.54032555776E+03  0.16961413588E+04  0.10100000352E+00 0.  1.
</event>
<event>
 5   0  0.8805125E-08  0.3293543E+04  0.7818609E-02  0.8164540E-01
       -1   -1    0    0    0  501  0.00000000000E+00  0.00000000000E+00  0.12132510696E+04  0.12132510696E+04  0.50400001928E-02 0. -1.
        1   -1    0    0  501    0  0.00000000000E+00  0.00000000000E+00 -0.22351978766E+04  0.22351978766E+04  0.50400001928E-02 0.  1.
    10030    2    1    2    0    0  0.00000000000E+00  0.00000000000E+00 -0.10219468069E+04  0.34484489462E+04  0.32935429037E+04 0.  0.
        4    1    3    3  502    0 -0.70826058948E+03  0.14684893554E+04 -0.75374190377E+03  0.17961688451E+04  0.12699999809E+01 0.  1.
       -4    1    3    3    0  502  0.70826058948E+03 -0.14684893554E+04 -0.26820490315E+03  0.16522801011E+04  0.12699999809E+01 0. -1.
</event>
<event>
 5   0  0.9181760E-08  0.3299786E+04  0.7818609E-02  0.8162950E-01
       -1   -1    0    0    0  501  0.00000000000E+00  0.00000000000E+00  0.16314881587E+04  0.16314881587E+04  0.50400001928E-02 0. -1.
        1   -1    0    0  501    0  0.00000000000E+00  0.00000000000E+00 -0.16685052698E+04  0.16685052699E+04  0.50400001928E-02 0.  1.
    10030    2    1    2    0    0  0.00000000000E+00  0.00000000000E+00 -0.37017111140E+02  0.32999934286E+04  0.32997858055E+04 0.  0.
        1    1    3    3  502    0  0.25503585634E+03  0.12952655011E+04  0.97119535716E+03  0.16388948801E+04  0.50400001928E-02 0. -1.
       -1    1    3    3    0  502 -0.25503585634E+03 -0.12952655011E+04 -0.10082124683E+04  0.16610985484E+04  0.50400001928E-02 0.  1.
</event>
<event>
 5   0  0.2824402E-07  0.3302855E+04  0.7818609E-02  0.8162169E-01
        2   -1    0    0  501    0  0.00000000000E+00  0.00000000000E+00  0.24734476665E+04  0.24734476665E+04  0.25500000920E-02 0. -1.
       -2   -1    0    0    0  501  0.00000000000E+00  0.00000000000E+00 -0.11025958057E+04  0.11025958057E+04  0.25500000920E-02 0.  1.
    10030    2    1    2    0    0  0.00000000000E+00  0.00000000000E+00  0.13708518608E+04  0.35760434722E+04  0.33028551423E+04 0.  0.
        1    1    3    3  502    0  0.98337451722E+03 -0.13132584192E+04  0.88953927590E+03  0.18662671942E+04  0.50400001928E-02 0.  1.
       -1    1    3    3    0  502 -0.98337451722E+03  0.13132584192E+04  0.48131258485E+03  0.17097762780E+04  0.50400001928E-02 0. -1.
</event>
<event>
 5   0  0.2713815E-07  0.3311229E+04  0.7818609E-02  0.8160044E-01
        2   -1    0    0  501    0  0.00000000000E+00  0.00000000000E+00  0.23724652065E+04  0.23724652065E+04  0.25500000920E-02 0.  1.
       -2   -1    0    0    0  501  0.00000000000E+00  0.00000000000E+00 -0.11553634051E+04  0.11553634051E+04  0.25500000920E-02 0. -1.
    10030    2    1    2    0    0  0.00000000000E+00  0.00000000000E+00  0.12171018014E+04  0.35278286116E+04  0.33112290646E+04 0.  0.
        4    1    3    3  502    0 -0.13638724481E+03  0.11443363536E+04  0.18749825532E+04  0.22008335599E+04  0.12699999809E+01 0.  1.
       -4    1    3    3    0  502  0.13638724481E+03 -0.11443363536E+04 -0.65788075187E+03  0.13269950517E+04  0.12699999809E+01 0. -1.
</event>
<event>
 5   0  0.8805125E-08  0.3298556E+04  0.7818609E-02  0.8163263E-01
       -3   -1    0    0    0  501  0.00000000000E+00  0.00000000000E+00  0.15293107938E+04  0.15293107971E+04  0.10100000352E+00 0. -1.
        3   -1    0    0  501    0  0.00000000000E+00  0.00000000000E+00 -0.17786557323E+04  0.17786557351E+04  0.10100000352E+00 0.  1.
    10030    2    1    2    0    0  0.00000000000E+00  0.00000000000E+00 -0.24934493847E+03  0.33079665322E+04  0.32985556961E+04 0.  0.
        4    1    3    3  502    0 -0.14339655984E+03  0.12240788941E+04 -0.12237847792E+04  0.17368311694E+04  0.12699999809E+01 0.  1.
       -4    1    3    3    0  502  0.14339655984E+03 -0.12240788941E+04  0.97443984069E+03  0.15711353629E+04  0.12699999809E+01 0. -1.
</event>
<event>
 5   0  0.2824402E-07  0.3311718E+04  0.7818609E-02  0.8159920E-01
       -2   -1    0    0    0  501  0.00000000000E+00  0.00000000000E+00  0.19432326222E+04  0.19432326222E+04  0.25500000920E-02 0.  1.
        2   -1    0    0  501    0  0.00000000000E+00  0.00000000000E+00 -0.14109835385E+04  0.14109835386E+04  0.25500000920E-02 0. -1.
    10030    2    1    2    0    0  0.00000000000E+00  0.00000000000E+00  0.53224908369E+03  0.33542161608E+04  0.33117181290E+04 0.  0.
        1    1    3    3  502    0 -0.10522361329E+03  0.25277193126E+03  0.19201467600E+04  0.19395693434E+04  0.50400001928E-02 0.  1.
       -1    1    3    3    0  502  0.10522361329E+03 -0.25277193126E+03 -0.13878976763E+04  0.14146468174E+04  0.50400001928E-02 0. -1.
</event>
<event>
 5   0  0.2875829E-07  0.3316931E+04  0.7818609E-02  0.8158601E-01
       -2   -1    0    0    0  501  0.00000000000E+00  0.00000000000E+00  0.13936098951E+04  0.13936098951E+04  0.25500000920E-02 0.  1.
        2   -1    0    0  501    0  0.00000000000E+00  0.00000000000E+00 -0.19736568372E+04  0.19736568372E+04  0.25500000920E-02 0. -1.
    10030    2    1    2    0    0  0.00000000000E+00  0.00000000000E+00 -0.58004694215E+03  0.33672667323E+04  0.33169309296E+04 0.  0.
        3    1    3    3  502    0  0.52331823668E+03 -0.15654671616E+04 -0.45358419409E+03  0.17118084128E+04  0.10100000352E+00 0. -1.
       -3    1    3    3    0  502 -0.52331823668E+03  0.15654671616E+04 -0.12646274805E+03  0.16554583195E+04  0.10100000352E+00 0.  1.
</event>
<event>
 5   0  0.9181760E-08  0.3298583E+04  0.7818609E-02  0.8163256E-01
       -1   -1    0    0    0  501  0.00000000000E+00  0.00000000000E+00  0.35822877484E+04  0.35822877484E+04  0.50400001928E-02 0.  1.
        1   -1    0    0  501    0  0.00000000000E+00  0.00000000000E+00 -0.75933682740E+03  0.75933682742E+03  0.50400001928E-02 0. -1.
    10030    2    1    2    0    0  0.00000000000E+00  0.00000000000E+00  0.28229509210E+04  0.43416245758E+04  0.32985833406E+04 0.  0.
        1    1    3    3  502    0 -0.43395740969E+03  0.28076447223E+03  0.34729355607E+04  0.35111862854E+04  0.50400001928E-02 0.  1.
       -1    1    3    3    0  502  0.43395740969E+03 -0.28076447223E+03 -0.64998463969E+03  0.83043829039E+03  0.50400001928E-02 0. -1.
</event>
<event>
 5   0  0.9181760E-08  0.3301270E+04  0.7818609E-02  0.8162572E-01
       -1   -1    0    0    0  501  0.00000000000E+00  0.00000000000E+00  0.29503674791E+04  0.29503674791E+04  0.50400001928E-02 0.  1.
        1   -1    0    0  501    0  0.00000000000E+00  0.00000000000E+00 -0.92347676848E+03  0.92347676849E+03  0.50400001928E-02 0. -1.
    10030    2    1    2    0    0  0.00000000000E+00  0.00000000000E+00  0.20268907106E+04  0.38738442476E+04  0.33012699529E+04 0.  0.
        1    1    3    3  502    0  0.14313370298E+04  0.30662578113E+03  0.19085357988E+04  0.24052554870E+04  0.50400001928E-02 0.  1.
       -1    1    3    3    0  502 -0.14313370298E+04 -0.30662578113E+03  0.11835491185E+03  0.14685887606E+04  0.50400001928E-02 0. -1.
</event>
<event>
 5   0  0.9283910E-08  0.3292601E+04  0.7818609E-02  0.8164781E-01
       -1   -1    0    0    0  501  0.00000000000E+00  0.00000000000E+00  0.20215762901E+04  0.20215762901E+04  0.50400001928E-02 0. -1.
        1   -1    0    0  501    0  0.00000000000E+00  0.00000000000E+00 -0.13406892636E+04  0.13406892636E+04  0.50400001928E-02 0.  1.
    10030    2    1    2    0    0  0.00000000000E+00  0.00000000000E+00  0.68088702647E+03  0.33622655537E+04  0.32926011770E+04 0.  0.
        3    1    3    3  502    0 -0.33017519405E+03 -0.83508156409E+03  0.17494669827E+04  0.19664718689E+04  0.10100000352E+00 0. -1.
       -3    1    3    3    0  502  0.33017519405E+03  0.83508156409E+03 -0.10685799563E+04  0.13957936848E+04  0.10100000352E+00 0.  1.
</event>
<event>
 5   0  0.9810351E-08  0.3210318E+04  0.7818609E-02  0.8186098E-01
       -1   -1    0    0    0  501  0.00000000000E+00  0.00000000000E+00  0.15585304148E+04  0.15585304148E+04  0.50400001928E-02 0. -1.
        1   -1    0    0  501    0  0.00000000000E+00  0.00000000000E+00 -0.16531822587E+04  0.16531822587E+04  0.50400001928E-02 0.  1.
    10030    2    1    2    0    0  0.00000000000E+00  0.00000000000E+00 -0.94651843904E+02  0.32117126736E+04  0.32103176363E+04 0.  0.
        5    1    3    3  502    0  0.11423149723E+04 -0.80905850198E+02 -0.11725739866E+04  0.16390183332E+04  0.46999998093E+01 0.  1.
       -5    1    3    3    0  502 -0.11423149723E+04  0.80905850198E+02  0.10779221427E+04  0.15726943404E+04  0.46999998093E+01 0. -1.
</event>
<event>
 5   0  0.9810351E-08  0.3310322E+04  0.7818609E-02  0.8160274E-01
        1   -1    0    0  501    0  0.00000000000E+00  0.00000000000E+00  0.17300130913E+04  0.17300130913E+04  0.50400001928E-02 0. -1.
       -1   -1    0    0    0  501  0.00000000000E+00  0.00000000000E+00 -0.15835472754E+04  0.15835472755E+04  0.50400001928E-02 0.  1.
    10030    2    1    2    0    0  0.00000000000E+00  0.00000000000E+00  0.14646581583E+03  0.33135603667E+04  0.33103217470E+04 0.  0.
        5    1    3    3  502    0  0.48846231562E+03 -0.13612242922E+04 -0.73254434732E+03  0.16211632608E+04  0.46999998093E+01 0.  1.
       -5    1    3    3    0  502 -0.48846231562E+03  0.13612242922E+04  0.87901016315E+03  0.16923971060E+04  0.46999998093E+01 0. -1.
</event>
<event>
 5   0  0.2713815E-07  0.3304188E+04  0.7818609E-02  0.8161831E-01
       -2   -1    0    0    0  501  0.00000000000E+00  0.00000000000E+00  0.14961959481E+04  0.14961959481E+04  0.25500000920E-02 0.  1.
        2   -1    0    0  501    0  0.00000000000E+00  0.00000000000E+00 -0.18242362570E+04  0.18242362570E+04  0.25500000920E-02 0. -1.
    10030    2    1    2    0    0  0.00000000000E+00  0.00000000000E+00 -0.32804030892E+03  0.33204322051E+04  0.33041881884E+04 0.  0.
        4    1    3    3  502    0 -0.67970177141E+03 -0.12946437899E+04 -0.93677145974E+03  0.17365596510E+04  0.12699999809E+01 0. -1.
       -4    1    3    3    0  502  0.67970177141E+03  0.12946437899E+04  0.60873115082E+03  0.15838725541E+04  0.12699999809E+01 0.  1.
</event>
<event>
 5   0  0.2824402E-07  0.3300191E+04  0.7818609E-02  0.8162847E-01
       -2   -1    0    0    0  501  0.00000000000E+00  0.00000000000E+00  0.19373024090E+04  0.19373024090E+04  0.25500000920E-02 0.  1.
        2   -1    0    0  501    0  0.00000000000E+00  0.00000000000E+00 -0.14054671989E+04  0.14054671989E+04  0.25500000920E-02 0. -1.
    10030    2    1    2    0    0  0.00000000000E+00  0.00000000000E+00  0.53183521008E+03  0.33427696080E+04  0.33001908977E+04 0.  0.
        1    1    3    3  502    0 -0.14995931007E+04  0.43924272398E+03  0.80294797940E+03  0.17568264274E+04  0.50400001928E-02 0.  1.
       -1    1    3    3    0  502  0.14995931007E+04 -0.43924272398E+03 -0.27111276932E+03  0.15859431806E+04  0.50400001928E-02 0. -1.
</event>
<event>
 5   0  0.8805125E-08  0.3302521E+04  0.7818609E-02  0.8162254E-01
       -1   -1    0    0    0  501  0.00000000000E+00  0.00000000000E+00  0.12920309298E+04  0.12920309298E+04  0.50400001928E-02 0.  1.
        1   -1    0    0  501    0  0.00000000000E+00  0.00000000000E+00 -0.21103678167E+04  0.21103678167E+04  0.50400001928E-02 0. -1.
    10030    2    1    2    0    0  0.00000000000E+00  0.00000000000E+00 -0.81833688686E+03  0.34023987465E+04  0.33025205479E+04 0.  0.
        4    1    3    3  502    0 -0.16394796923E+04 -0.16079872330E+03 -0.29211457000E+03  0.16730458529E+04  0.12699999809E+01 0. -1.
       -4    1    3    3    0  502  0.16394796923E+04  0.16079872330E+03 -0.52622231686E+03  0.17293528936E+04  0.12699999809E+01 0.  1.
</event>
<event>
 5   0  0.2703956E-07  0.3300797E+04  0.7818609E-02  0.8162693E-01
       -2   -1    0    0    0  501  0.00000000000E+00  0.00000000000E+00  0.17630273873E+04  0.17630273873E+04  0.25500000920E-02 0.  1.
        2   -1    0    0  501    0  0.00000000000E+00  0.00000000000E+00 -0.15449647869E+04  0.15449647869E+04  0.25500000920E-02 0. -1.
    10030    2    1    2    0    0  0.00000000000E+00  0.00000000000E+00  0.21806260038E+03  0.33079921742E+04  0.33007970139E+04 0.  0.
        5    1    3    3  502    0 -0.74010752288E+03 -0.13870293588E+04  0.61230476921E+03  0.16871718371E+04  0.46999998093E+01 0.  1.
       -5    1    3    3    0  502  0.74010752288E+03  0.13870293588E+04 -0.39424216883E+03  0.16208203371E+04  0.46999998093E+01 0. -1.
</event>
<event>
 5   0  0.9454010E-08  0.3285968E+04  0.7818609E-02  0.8166475E-01
       -1   -1    0    0    0  501  0.00000000000E+00  0.00000000000E+00  0.14405869122E+04  0.14405869122E+04  0.50400001928E-02 0.  1.
        1   -1    0    0  501    0  0.00000000000E+00  0.00000000000E+00 -0.18738168734E+04  0.18738168734E+04  0.50400001928E-02 0. -1.
    10030    2    1    2    0    0  0.00000000000E+00  0.00000000000E+00 -0.43322996119E+03  0.33144037856E+04  0.32859677806E+04 0.  0.
        2    1    3    3  502    0  0.14941534355E+04  0.13621502437E+03 -0.89199665121E+03  0.17454818955E+04  0.25500000920E-02 0. -1.
       -2    1    3    3    0  502 -0.14941534355E+04 -0.13621502437E+03  0.45876669002E+03  0.15689218902E+04  0.25500000920E-02 0.  1.
</event>
<event>
 5   0  0.2727168E-07  0.3288332E+04  0.7818609E-02  0.8165871E-01
        2   -1    0    0  501    0  0.00000000000E+00  0.00000000000E+00  0.19974339222E+04  0.19974339222E+04  0.25500000920E-02 0.  1.
       -2   -1    0    0    0  501  0.00000000000E+00  0.00000000000E+00 -0.13533770785E+04  0.13533770785E+04  0.25500000920E-02 0. -1.
    10030    2    1    2    0    0  0.00000000000E+00  0.00000000000E+00  0.64405684362E+03  0.33508110007E+04  0.32883316659E+04 0.  0.
        2    1    3    3  502    0 -0.14674094448E+04 -0.20714634037E+03  0.10476548186E+04  0.18148776003E+04  0.25500000920E-02 0.  1.
       -2    1    3    3    0  502  0.14674094448E+04  0.20714634037E+03 -0.40359797498E+03  0.15359334004E+04  0.25500000920E-02 0. -1.
</event>
<event>
 5   0  0.2875829E-07  0.3301461E+04  0.7818609E-02  0.8162524E-01
       -2   -1    0    0    0  501  0.00000000000E+00  0.00000000000E+00  0.26003430304E+04  0.26003430304E+04  0.25500000920E-02 0. -1.
        2   -1    0    0  501    0  0.00000000000E+00  0.00000000000E+00 -0.10479046137E+04  0.10479046137E+04  0.25500000920E-02 0.  1.
    10030    2    1    2    0    0  0.00000000000E+00  0.00000000000E+00  0.15524384167E+04  0.36482476441E+04  0.33014611666E+04 0.  0.
        3    1    3    3  502    0  0.31584625642E+03  0.14991070471E+04  0.14554646167E+04  0.21131630456E+04  0.10100000352E+00 0. -1.
       -3    1    3    3    0  502 -0.31584625642E+03 -0.14991070471E+04  0.96973799997E+02  0.15350845985E+04  0.10100000352E+00 0.  1.
</event>
<event>
 5   0  0.2824402E-07  0.3304876E+04  0.7818609E-02  0.8161656E-01
       -2   -1    0    0    0  501  0.00000000000E+00  0.00000000000E+00  0.14969129981E+04  0.14969129981E+04  0.25500000920E-02 0.  1.
        2   -1    0    0  501    0  0.00000000000E+00  0.00000000000E+00 -0.18241210859E+04  0.18241210859E+04  0.25500000920E-02 0. -1.
    10030    2    1    2    0    0  0.00000000000E+00  0.00000000000E+00 -0.32720808773E+03  0.33210340840E+04  0.33048755278E+04 0.  0.
        1    1    3    3  502    0  0.16083093723E+04  0.25928378611E+03  0.11463135966E+03  0.16331036304E+04  0.50400001928E-02 0.  1.
       -1    1    3    3    0  502 -0.16083093723E+04 -0.25928378611E+03 -0.44183944739E+03  0.16879304536E+04  0.50400001928E-02 0. -1.
</event>
<event>
 5   0  0.2713815E-07  0.3297740E+04  0.7818609E-02  0.8163471E-01
        2   -1    0    0  501    0  0.00000000000E+00  0.00000000000E+00  0.20674317470E+04  0.20674317470E+04  0.25500000920E-02 0.  1.
       -2   -1    0    0    0  501  0.00000000000E+00  0.00000000000E+00 -0.13150477824E+04  0.13150477824E+04  0.25500000920E-02 0. -1.
    10030    2    1    2    0    0  0.00000000000E+00  0.00000000000E+00  0.75238396463E+03  0.33824795294E+04  0.32977395495E+04 0.  0.
        4    1    3    3  502    0 -0.42377766253E+03  0.12758312509E+04  0.13554162312E+04  0.19090541273E+04  0.12699999809E+01 0.  1.
       -4    1    3    3    0  502  0.42377766253E+03 -0.12758312509E+04 -0.60303226659E+03  0.14734254021E+04  0.12699999809E+01 0. -1.
</event>
<event>
 5   0  0.9810351E-08  0.3298601E+04  0.7818609E-02  0.8163251E-01
       -1   -1    0    0    0  501  0.00000000000E+00  0.00000000000E+00  0.18344793177E+04  0.18344793177E+04  0.50400001928E-02 0.  1.
        1   -1    0    0  501    0  0.00000000000E+00  0.00000000000E+00 -0.14828146429E+04  0.14828146429E+04  0.50400001928E-02 0. -1.
    10030    2    1    2    0    0  0.00000000000E+00  0.00000000000E+00  0.35166467485E+03  0.33172939606E+04  0.32986013972E+04 0.  0.
        5    1    3    3  502    0 -0.19605943985E+02 -0.31574931163E+03  0.18036738337E+04  0.18312136438E+04  0.46999998093E+01 0.  1.
       -5    1    3    3    0  502  0.19605943985E+02  0.31574931163E+03 -0.14520091588E+04  0.14860803168E+04  0.46999998093E+01 0. -1.
</event>
<event>
 5   0  0.8805125E-08  0.3299931E+04  0.7818609E-02  0.8162913E-01
        1   -1    0    0  501    0  0.00000000000E+00  0.00000000000E+00  0.16179608675E+04  0.16179608675E+04  0.50400001928E-02 0. -1.
       -1   -1    0    0    0  501  0.00000000000E+00  0.00000000000E+00 -0.16826030417E+04  0.16826030417E+04  0.50400001928E-02 0.  1.
    10030    2    1    2    0    0  0.00000000000E+00  0.00000000000E+00 -0.64642174215E+02  0.33005639092E+04  0.32999308338E+04 0.  0.
        4    1    3    3  502    0  0.90353822051E+02 -0.84947502341E+03 -0.14441912138E+04  0.16779337005E+04  0.12699999809E+01 0.  1.
       -4    1    3    3    0  502 -0.90353822051E+02  0.84947502341E+03  0.13795490396E+04  0.16226302087E+04  0.12699999809E+01 0. -1.
</event>
<event>
 5   0  0.8805125E-08  0.3299398E+04  0.7818609E-02  0.8163049E-01
        3   -1    0    0  501    0  0.00000000000E+00  0.00000000000E+00  0.12068323165E+04  0.12068323207E+04  0.10100000352E+00 0.  1.
       -3   -1    0    0    0  501  0.00000000000E+00  0.00000000000E+00 -0.22550823439E+04  0.22550823462E+04  0.10100000352E+00 0. -1.
    10030    2    1    2    0    0  0.00000000000E+00  0.00000000000E+00 -0.10482500274E+04  0.34619146669E+04  0.32993976784E+04 0.  0.
        1    1    3    3  502    0 -0.12592824016E+04  0.76525323582E+03  0.25409633348E+03  0.14953158959E+04  0.50400001928E-02 0.  1.
       -1    1    3    3    0  502  0.12592824016E+04 -0.76525323582E+03 -0.13023463609E+04  0.19665987709E+04  0.50400001928E-02 0. -1.
</event>
<event>
 5   0  0.2875829E-07  0.3292799E+04  0.7818609E-02  0.8164730E-01
       -2   -1    0    0    0  501  0.00000000000E+00  0.00000000000E+00  0.14753786787E+04  0.14753786787E+04  0.25500000920E-02 0. -1.
        2   -1    0    0  501    0  0.00000000000E+00  0.00000000000E+00 -0.18372440689E+04  0.18372440689E+04  0.25500000920E-02 0.  1.
    10030    2    1    2    0    0  0.00000000000E+00  0.00000000000E+00 -0.36186539021E+03  0.33126227477E+04  0.32927986437E+04 0.  0.
        3    1    3    3  502    0 -0.14915346843E+04 -0.19713571442E+03  0.49174264017E+03  0.15828294409E+04  0.10100000352E+00 0. -1.
       -3    1    3    3    0  502  0.14915346843E+04  0.19713571442E+03 -0.85360803038E+03  0.17297933068E+04  0.10100000352E+00 0.  1.
</event>
<event>
 5   0  0.2727168E-07  0.3281079E+04  0.7818609E-02  0.8167726E-01
        2   -1    0    0  501    0  0.00000000000E+00  0.00000000000E+00  0.21884557704E+04  0.21884557704E+04  0.25500000920E-02 0.  1.
       -2   -1    0    0    0  501  0.00000000000E+00  0.00000000000E+00 -0.12298034445E+04  0.12298034445E+04  0.25500000920E-02 0. -1.
    10030    2    1    2    0    0  0.00000000000E+00  0.00000000000E+00  0.95865232594E+03  0.34182592149E+04  0.32810793618E+04 0.  0.
        2    1    3    3  502    0  0.13732645317E+04 -0.18269425455E+03  0.13947783349E+04  0.19658685786E+04  0.25500000920E-02 0.  1.
       -2    1    3    3    0  502 -0.13732645317E+04  0.18269425455E+03 -0.43612600897E+03  0.14523906363E+04  0.25500000920E-02 0. -1.
</event>
<event>
 5   0  0.2703956E-07  0.3288739E+04  0.7818609E-02  0.8165767E-01
       -2   -1    0    0    0  501  0.00000000000E+00  0.00000000000E+00  0.10019079510E+04  0.10019079510E+04  0.25500000920E-02 0. -1.
        2   -1    0    0  501    0  0.00000000000E+00  0.00000000000E+00 -0.26988022189E+04  0.26988022189E+04  0.25500000920E-02 0.  1.
    10030    2    1    2    0    0  0.00000000000E+00  0.00000000000E+00 -0.16968942679E+04  0.37007101699E+04  0.32887392121E+04 0.  0.
        5    1    3    3  502    0  0.14852747069E+04 -0.52079718843E+03 -0.13841719706E+04  0.20960020993E+04  0.46999998093E+01 0.  1.
       -5    1    3    3    0  502 -0.14852747069E+04  0.52079718843E+03 -0.31272229738E+03  0.16047080705E+04  0.46999998093E+01 0. -1.
</event>
<event>
 5   0  0.8805125E-08  0.3296506E+04  0.7818609E-02  0.8163785E-01
        1   -1    0    0  501    0  0.00000000000E+00  0.00000000000E+00  0.12855409302E+04  0.12855409303E+04  0.50400001928E-02 0. -1.
       -1   -1    0    0    0  501  0.00000000000E+00  0.00000000000E+00 -0.21133029347E+04  0.21133029347E+04  0.50400001928E-02 0.  1.
    10030    2    1    2    0    0  0.00000000000E+00  0.00000000000E+00 -0.82776200441E+03  0.33988438649E+04  0.32965056776E+04 0.  0.
        4    1    3    3  502    0 -0.60481737763E+03  0.70029595484E+03 -0.18202336834E+04  0.20419281965E+04  0.12699999809E+01 0.  1.
       -4    1    3    3    0  502  0.60481737763E+03 -0.70029595484E+03  0.99247167899E+03  0.13569156684E+04  0.12699999809E+01 0. -1.
</event>
<event>
 5   0  0.9181760E-08  0.3294894E+04  0.7818609E-02  0.8164196E-01
       -1   -1    0    0    0  501  0.00000000000E+00  0.00000000000E+00  0.99622085250E+03  0.99622085252E+03  0.50400001928E-02 0. -1.
        1   -1    0    0  501    0  0.00000000000E+00  0.00000000000E+00 -0.27243776855E+04  0.27243776855E+04  0.50400001928E-02 0.  1.
    10030    2    1    2    0    0  0.00000000000E+00  0.00000000000E+00 -0.17281568330E+04  0.37205985380E+04  0.32948941473E+04 0.  0.
        1    1    3    3  502    0 -0.75158257311E+03  0.10095989311E+04 -0.20643909094E+04  0.24178246820E+04  0.50400001928E-02 0.  1.
       -1    1    3    3    0  502  0.75158257311E+03 -0.10095989311E+04  0.33623407636E+03  0.13027738561E+04  0.50400001928E-02 0. -1.
</event>
<event>
 5   0  0.2727168E-07  0.3301126E+04  0.7818609E-02  0.8162609E-01
        2   -1    0    0  501    0  0.00000000000E+00  0.00000000000E+00  0.24957456223E+04  0.24957456223E+04  0.25500000920E-02 0. -1.
       -2   -1    0    0    0  501  0.00000000000E+00  0.00000000000E+00 -0.10916008622E+04  0.10916008622E+04  0.25500000920E-02 0.  1.
    10030    2    1    2    0    0  0.00000000000E+00  0.00000000000E+00  0.14041447601E+04  0.35873464845E+04  0.33011259128E+04 0.  0.
        2    1    3    3  502    0  0.37136662636E+03  0.72048207033E+03  0.22645661376E+04  0.24052582764E+04  0.25500000920E-02 0. -1.
       -2    1    3    3    0  502 -0.37136662636E+03 -0.72048207033E+03 -0.86042137745E+03  0.11820882080E+04  0.25500000920E-02 0.  1.
</event>
<event>
 5   0  0.8805125E-08  0.3294363E+04  0.7818609E-02  0.8164331E-01
        1   -1    0    0  501    0  0.00000000000E+00  0.00000000000E+00  0.21299430468E+04  0.21299430468E+04  0.50400001928E-02 0.  1.
       -1   -1    0    0    0  501  0.00000000000E+00  0.00000000000E+00 -0.12738397360E+04  0.12738397360E+04  0.50400001928E-02 0. -1.
    10030    2    1    2    0    0  0.00000000000E+00  0.00000000000E+00  0.85610331072E+03  0.34037827828E+04  0.32943625110E+04 0.  0.
        4    1    3    3  502    0 -0.43812429467E+03  0.14112200159E+04 -0.32393371270E+03  0.15127555962E+04  0.12699999809E+01 0. -1.
       -4    1    3    3    0  502  0.43812429467E+03 -0.14112200159E+04  0.11800370234E+04  0.18910271866E+04  0.12699999809E+01 0.  1.
</event>
<event>
 5   0  0.2713815E-07  0.3289516E+04  0.7818609E-02  0.8165568E-01
       -2   -1    0    0    0  501  0.00000000000E+00  0.00000000000E+00  0.15079549750E+04  0.15079549750E+04  0.25500000920E-02 0. -1.
        2   -1    0    0  501    0  0.00000000000E+00  0.00000000000E+00 -0.17939717931E+04  0.17939717931E+04  0.25500000920E-02 0.  1.
    10030    2    1    2    0    0  0.00000000000E+00  0.00000000000E+00 -0.28601681806E+03  0.33019267681E+04  0.32895158856E+04 0.  0.
        4    1    3    3  502    0 -0.13665917679E+04  0.47958101308E+02  0.77441694278E+03  0.15714949105E+04  0.12699999809E+01 0. -1.
       -4    1    3    3    0  502  0.13665917679E+04 -0.47958101308E+02 -0.10604337608E+04  0.17304318576E+04  0.12699999809E+01 0.  1.
</event>
<event>
 5   0  0.9810351E-08  0.3297789E+04  0.7818609E-02  0.8163458E-01
        1   -1    0    0  501    0  0.00000000000E+00  0.00000000000E+00  0.11160303216E+04  0.11160303216E+04  0.50400001928E-02 0. -1.
       -1   -1    0    0    0  501  0.00000000000E+00  0.00000000000E+00 -0.24361818249E+04  0.24361818249E+04  0.50400001928E-02 0.  1.
    10030    2    1    2    0    0  0.00000000000E+00  0.00000000000E+00 -0.13201515033E+04  0.35522121465E+04  0.32977888262E+04 0.  0.
        5    1    3    3  502    0 -0.15433228235E+04 -0.77491840365E+01 -0.12853101594E+04  0.20084694877E+04  0.46999998093E+01 0.  1.
       -5    1    3    3    0  502  0.15433228235E+04  0.77491840365E+01 -0.34841343915E+02  0.15437426588E+04  0.46999998093E+01 0. -1.
</event>
<event>
 5   0  0.2703956E-07  0.3302817E+04  0.7818609E-02  0.8162179E-01
        2   -1    0    0  501    0  0.00000000000E+00  0.00000000000E+00  0.14506969758E+04  0.14506969758E+04  0.25500000920E-02 0. -1.
       -2   -1    0    0    0  501  0.00000000000E+00  0.00000000000E+00 -0.18798898978E+04  0.18798898978E+04  0.25500000920E-02 0.  1.
    10030    2    1    2    0    0  0.00000000000E+00  0.00000000000E+00 -0.42919292200E+03  0.33305868736E+04  0.33028173365E+04 0.  0.
        5    1    3    3  502    0  0.92549345238E+03  0.74665248317E+03 -0.13701369937E+04  0.18142010728E+04  0.46999998093E+01 0.  1.
       -5    1    3    3    0  502 -0.92549345238E+03 -0.74665248317E+03  0.94094407166E+03  0.15163858008E+04  0.46999998093E+01 0. -1.
</event>
<event>
 5   0  0.2824402E-07  0.3298315E+04  0.7818609E-02  0.8163324E-01
        2   -1    0    0  501    0  0.00000000000E+00  0.00000000000E+00  0.19185627560E+04  0.19185627560E+04  0.25500000920E-02 0.  1.
       -2   -1    0    0    0  501  0.00000000000E+00  0.00000000000E+00 -0.14175825737E+04  0.14175825737E+04  0.25500000920E-02 0. -1.
    10030    2    1    2    0    0  0.00000000000E+00  0.00000000000E+00  0.50098018232E+03  0.33361453297E+04  0.32983154060E+04 0.  0.
        1    1    3    3  502    0  0.60330984170E+03  0.66307242239E+03 -0.11496092153E+04  0.14578234291E+04  0.50400001928E-02 0.  1.
       -1    1    3    3    0  502 -0.60330984170E+03 -0.66307242239E+03  0.16505893977E+04  0.18783219006E+04  0.50400001928E-02 0. -1.
</event>
<event>
 5   0  0.9283910E-08  0.3301418E+04  0.7818609E-02  0.8162535E-01
        1   -1    0    0  501    0  0.00000000000E+00  0.00000000000E+00  0.22914739238E+04  0.22914739238E+04  0.50400001928E-02 0. -1.
       -1   -1    0    0    0  501  0.00000000000E+00  0.00000000000E+00 -0.11891212662E+04  0.11891212662E+04  0.50400001928E-02 0.  1.
    10030    2    1    2    0    0  0.00000000000E+00  0.00000000000E+00  0.11023526576E+04  0.34805951900E+04  0.33014181036E+04 0.  0.
        3    1    3    3  502    0  0.16008504806E+04  0.17021033606E+03  0.16648009397E+03  0.16184589744E+04  0.10100000352E+00 0. -1.
       -3    1    3    3    0  502 -0.16008504806E+04 -0.17021033606E+03  0.93587256366E+03  0.18621362156E+04  0.10100000352E+00 0.  1.
</event>
<event>
 5   0  0.8805125E-08  0.3302144E+04  0.7818609E-02  0.8162350E-01
        1   -1    0    0  501    0  0.00000000000E+00  0.00000000000E+00  0.24827353311E+04  0.24827353311E+04  0.50400001928E-02 0.  1.
       -1   -1    0    0    0  501  0.00000000000E+00  0.00000000000E+00 -0.10979978536E+04  0.10979978536E+04  0.50400001928E-02 0. -1.
    10030    2    1    2    0    0  0.00000000000E+00  0.00000000000E+00  0.13847374775E+04  0.35807331847E+04  0.33021435854E+04 0.  0.
        4    1    3    3  502    0 -0.14782102627E+04  0.14524763694E+03  0.14741915651E+04  0.20927123167E+04  0.12699999809E+01 0.  1.
       -4    1    3    3    0  502  0.14782102627E+04 -0.14524763694E+03 -0.89454087644E+02  0.14880208680E+04  0.12699999809E+01 0. -1.
</event>
<event>
 5   0  0.8805125E-08  0.3306932E+04  0.7818609E-02  0.8161134E-01
        1   -1    0    0  501    0  0.00000000000E+00  0.00000000000E+00  0.22248698558E+04  0.22248698558E+04  0.50400001928E-02 0. -1.
       -1   -1    0    0    0  501  0.00000000000E+00  0.00000000000E+00 -0.12288135731E+04  0.12288135732E+04  0.50400001928E-02 0.  1.
    10030    2    1    2    0    0  0.00000000000E+00  0.00000000000E+00  0.99605628267E+03  0.34536834290E+04  0.33069322807E+04 0.  0.
        4    1    3    3  502    0  0.81160288540E+03 -0.73755596118E+03  0.17903830088E+04  0.20995620902E+04  0.12699999809E+01 0. -1.
       -4    1    3    3    0  502 -0.81160288540E+03  0.73755596118E+03 -0.79432672612E+03  0.13541213388E+04  0.12699999809E+01 0.  1.
</event>
<event>
 5   0  0.8805125E-08  0.3298406E+04  0.7818609E-02  0.8163301E-01
       -1   -1    0    0    0  501  0.00000000000E+00  0.00000000000E+00  0.13109105674E+04  0.13109105674E+04  0.50400001928E-02 0.  1.
        1   -1    0    0  501    0  0.00000000000E+00  0.00000000000E+00 -0.20747946336E+04  0.20747946336E+04  0.50400001928E-02 0. -1.
    10030    2    1    2    0    0  0.00000000000E+00  0.00000000000E+00 -0.76388406624E+03  0.33857052010E+04  0.32984058030E+04 0.  0.
        4    1    3    3  502    0 -0.14067681280E+04  0.27902587643E+02 -0.12649982310E+04  0.18920880682E+04  0.12699999809E+01 0. -1.
       -4    1    3    3    0  502  0.14067681280E+04 -0.27902587643E+02  0.50111416475E+03  0.14936171328E+04  0.12699999809E+01 0.  1.
</event>
<event>
 5   0  0.9283910E-08  0.3295913E+04  0.7818609E-02  0.8163936E-01
       -1   -1    0    0    0  501  0.00000000000E+00  0.00000000000E+00  0.14811757622E+04  0.14811757622E+04  0.50400001928E-02 0.  1.
        1   -1    0    0  501    0  0.00000000000E+00  0.00000000000E+00 -0.18335172132E+04  0.18335172132E+04  0.50400001928E-02 0. -1.
    10030    2    1    2    0    0  0.00000000000E+00  0.00000000000E+00 -0.35234145095E+03  0.33146929754E+04  0.32959133823E+04 0.  0.
        3    1    3    3  502    0 -0.25843671598E+03 -0.80762441397E+03 -0.15972735601E+04  0.18084052550E+04  0.10100000352E+00 0. -1.
       -3    1    3    3    0  502  0.25843671598E+03  0.80762441397E+03  0.12449321092E+04  0.15062877205E+04  0.10100000352E+00 0.  1.
</event>
<event>
 5   0  0.2703956E-07  0.3280793E+04  0.7818609E-02  0.8167800E-01
       -2   -1    0    0    0  501  0.00000000000E+00  0.00000000000E+00  0.18795843111E+04  0.18795843111E+04  0.25500000920E-02 0.  1.
        2   -1    0    0  501    0  0.00000000000E+00  0.00000000000E+00 -0.14316465011E+04  0.14316465011E+04  0.25500000920E-02 0. -1.
    10030    2    1    2    0    0  0.00000000000E+00  0.00000000000E+00  0.44793781000E+03  0.33112308122E+04  0.32807927716E+04 0.  0.
        5    1    3    3  502    0 -0.12824481334E+04  0.96529459260E+03 -0.11741670033E+03  0.16094333279E+04  0.46999998093E+01 0. -1.
       -5    1    3    3    0  502  0.12824481334E+04 -0.96529459260E+03  0.56535451033E+03  0.17017974844E+04  0.46999998093E+01 0.  1.
</event>
<event>
 5   0  0.2727168E-07  0.3304669E+04  0.7818609E-02  0.8161708E-01
        2   -1    0    0  501    0  0.00000000000E+00  0.00000000000E+00  0.13201775340E+04  0.13201775340E+04  0.25500000920E-02 0. -1.
       -2   -1    0    0    0  501  0.00000000000E+00  0.00000000000E+00 -0.20680626628E+04  0.20680626628E+04  0.25500000920E-02 0.  1.
    10030    2    1    2    0    0  0.00000000000E+00  0.00000000000E+00 -0.74788512879E+03  0.33882401968E+04  0.33046693428E+04 0.  0.
        2    1    3    3  502    0  0.40117545622E+01  0.14741439423E+04 -0.11392046363E+04  0.18630361403E+04  0.25500000920E-02 0.  1.
       -2    1    3    3    0  502 -0.40117545622E+01 -0.14741439423E+04  0.39131950747E+03  0.15252040565E+04  0.25500000920E-02 0. -1.
</event>
<event>
 5   0  0.9454010E-08  0.3300632E+04  0.7818609E-02  0.8162735E-01
       -1   -1    0    0    0  501  0.00000000000E+00  0.00000000000E+00  0.13066360450E+04  0.13066360450E+04  0.50400001928E-02 0.  1.
        1   -1    0    0  501    0  0.00000000000E+00  0.00000000000E+00 -0.20843932731E+04  0.20843932731E+04  0.50400001928E-02 0. -1.
    10030    2    1    2    0    0  0.00000000000E+00  0.00000000000E+00 -0.77775722807E+03  0.33910293181E+04  0.33006322925E+04 0.  0.
        2    1    3    3  502    0  0.97188047584E+03  0.10715384596E+04 -0.12048580765E+04  0.18826654812E+04  0.25500000920E-02 0. -1.
       -2    1    3    3    0  502 -0.97188047584E+03 -0.10715384596E+04  0.42710084840E+03  0.15083638369E+04  0.25500000920E-02 0.  1.
</event>
<event>
 5   0  0.9181760E-08  0.3284528E+04  0.7818609E-02  0.8166843E-01
        1   -1    0    0  501    0  0.00000000000E+00  0.00000000000E+00  0.32629078185E+04  0.32629078185E+04  0.50400001928E-02 0. -1.
       -1   -1    0    0    0  501  0.00000000000E+00  0.00000000000E+00 -0.82657289138E+03  0.82657289139E+03  0.50400001928E-02 0.  1.
    10030    2    1    2    0    0  0.00000000000E+00  0.00000000000E+00  0.24363349271E+04  0.40894807099E+04  0.32845280634E+04 0.  0.
        1    1    3    3  502    0 -0.28571655345E+03  0.65783709486E+03  0.30576132562E+04  0.31406022379E+04  0.50400001928E-02 0. -1.
       -1    1    3    3    0  502  0.28571655345E+03 -0.65783709486E+03 -0.62127832910E+03  0.94887847195E+03  0.50400001928E-02 0.  1.
</event>
<event>
 5   0  0.9283910E-08  0.3300676E+04  0.7818609E-02  0.8162723E-01
        1   -1    0    0  501    0  0.00000000000E+00  0.00000000000E+00  0.18603455575E+04  0.18603455575E+04  0.50400001928E-02 0. -1.
       -1   -1    0    0    0  501  0.00000000000E+00  0.00000000000E+00 -0.14640376448E+04  0.14640376448E+04  0.50400001928E-02 0.  1.
    10030    2    1    2    0    0  0.00000000000E+00  0.00000000000E+00  0.39630791275E+03  0.33243832023E+04  0.33006762511E+04 0.  0.
        3    1    3    3  502    0  0.98173863340E+03 -0.12930098604E+04 -0.10050693325E+03  0.16265875006E+04  0.10100000352E+00 0. -1.
       -3    1    3    3    0  502 -0.98173863340E+03  0.12930098604E+04  0.49681484600E+03  0.16977957017E+04  0.10100000352E+00 0.  1.
</event>
<event>
 5   0  0.9181760E-08  0.3295237E+04  0.7818609E-02  0.8164108E-01
       -1   -1    0    0    0  501  0.00000000000E+00  0.00000000000E+00  0.15533919248E+04  0.15533919248E+04  0.50400001928E-02 0. -1.
        1   -1    0    0  501    0  0.00000000000E+00  0.00000000000E+00 -0.17475606045E+04  0.17475606046E+04  0.50400001928E-02 0.  1.
    10030    2    1    2    0    0  0.00000000000E+00  0.00000000000E+00 -0.19416867977E+03  0.33009525293E+04  0.32952368845E+04 0.  0.
        1    1    3    3  502    0 -0.13692626270E+04  0.86104368006E+03 -0.41126854696E+03  0.16689572129E+04  0.50400001928E-02 0.  1.
       -1    1    3    3    0  502  0.13692626270E+04 -0.86104368006E+03  0.21709986720E+03  0.16319953165E+04  0.50400001928E-02 0. -1.
</event>
<event>
 5   0  0.8805125E-08  0.3304411E+04  0.7818609E-02  0.8161774E-01
       -1   -1    0    0    0  501  0.00000000000E+00  0.00000000000E+00  0.14551796761E+04  0.14551796762E+04  0.50400001928E-02 0.  1.
        1   -1    0    0  501    0  0.00000000000E+00  0.00000000000E+00 -0.18759073819E+04  0.18759073819E+04  0.50400001928E-02 0. -1.
    10030    2    1    2    0    0  0.00000000000E+00  0.00000000000E+00 -0.42072770571E+03  0.33310870580E+04  0.33044105655E+04 0.  0.
        4    1    3    3  502    0 -0.17339876062E+03  0.11264161087E+04 -0.14162232410E+04  0.18178477003E+04  0.12699999809E+01 0. -1.
       -4    1    3    3    0  502  0.17339876062E+03 -0.11264161087E+04  0.99549553526E+03  0.15132393577E+04  0.12699999809E+01 0.  1.
</event>
<event>
 5   0  0.8805125E-08  0.3302238E+04  0.7818609E-02  0.8162326E-01
       -1   -1    0    0    0  501  0.00000000000E+00  0.00000000000E+00  0.20146420754E+04  0.20146420755E+04  0.50400001928E-02 0. -1.
        1   -1    0    0  501    0  0.00000000000E+00  0.00000000000E+00 -0.13531899989E+04  0.13531899989E+04  0.50400001928E-02 0.  1.
    10030    2    1    2    0    0  0.00000000000E+00  0.00000000000E+00  0.66145207651E+03  0.33678320744E+04  0.33022377310E+04 0.  0.
        4    1    3    3  502    0 -0.43851503364E+02 -0.45814753167E+03 -0.12864476535E+04  0.13662983909E+04  0.12699999809E+01 0.  1.
       -4    1    3    3    0  502  0.43851503364E+02  0.45814753167E+03  0.19478997300E+04  0.20015336835E+04  0.12699999809E+01 0. -1.
</event>
<event>
 5   0  0.9283910E-08  0.3294732E+04  0.7818609E-02  0.8164237E-01
       -1   -1    0    0    0  501  0.00000000000E+00  0.00000000000E+00  0.18694128551E+04  0.18694128551E+04  0.50400001928E-02 0.  1.
        1   -1    0    0  501    0  0.00000000000E+00  0.00000000000E+00 -0.14516932468E+04  0.14516932468E+04  0.50400001928E-02 0. -1.
    10030    2    1    2    0    0  0.00000000000E+00  0.00000000000E+00  0.41771960839E+03  0.33211061019E+04  0.32947315625E+04 0.  0.
        3    1    3    3  502    0  0.13594153517E+04 -0.88881172759E+03 -0.68694388402E+02  0.16256430465E+04  0.10100000352E+00 0. -1.
       -3    1    3    3    0  502 -0.13594153517E+04  0.88881172759E+03  0.48641399679E+03  0.16954630554E+04  0.10100000352E+00 0.  1.
</event>
<event>
 5   0  0.2727168E-07  0.3299693E+04  0.7818609E-02  0.8162973E-01
        2   -1    0    0  501    0  0.00000000000E+00  0.00000000000E+00  0.17873006989E+04  0.17873006989E+04  0.25500000920E-02 0. -1.
       -2   -1    0    0    0  501  0.00000000000E+00  0.00000000000E+00 -0.15229635575E+04  0.15229635575E+04  0.25500000920E-02 0.  1.
    10030    2    1    2    0    0  0.00000000000E+00  0.00000000000E+00  0.26433714147E+03  0.33102642564E+04  0.32996932165E+04 0.  0.
        2    1    3    3  502    0  0.24438036397E+03  0.40209005179E+03  0.17185617616E+04  0.17818116344E+04  0.25500000920E-02 0. -1.
       -2    1    3    3    0  502 -0.24438036397E+03 -0.40209005179E+03 -0.14542246201E+04  0.15284526220E+04  0.25500000920E-02 0.  1.
</event>
<event>
 5   0  0.8805125E-08  0.3286408E+04  0.7818609E-02  0.8166363E-01
       -3   -1    0    0    0  501  0.00000000000E+00  0.00000000000E+00  0.10594589988E+04  0.10594590036E+04  0.10100000352E+00 0. -1.
        3   -1    0    0  501    0  0.00000000000E+00  0.00000000000E+00 -0.25485829514E+04  0.25485829534E+04  0.10100000352E+00 0.  1.
    10030    2    1    2    0    0  0.00000000000E+00  0.00000000000E+00 -0.14891239527E+04  0.36080419570E+04  0.32864078592E+04 0.  0.
        1    1    3    3  502    0 -0.33796947660E+03 -0.60967172540E+03  0.88908482492E+03  0.11297764406E+04  0.50400001928E-02 0. -1.
       -1    1    3    3    0  502  0.33796947660E+03  0.60967172540E+03 -0.23782087776E+04  0.24782655164E+04  0.50400001928E-02 0.  1.
</event>
<event>
 5   0  0.2824402E-07  0.3299713E+04  0.7818609E-02  0.8162969E-01
       -2   -1    0    0    0  501  0.00000000000E+00  0.00000000000E+00  0.19981048204E+04  0.19981048204E+04  0.25500000920E-02 0. -1.
        2   -1    0    0  501    0  0.00000000000E+00  0.00000000000E+00 -0.13623037831E+04  0.13623037831E+04  0.25500000920E-02 0.  1.
    10030    2    1    2    0    0  0.00000000000E+00  0.00000000000E+00  0.63580103730E+03  0.33604086036E+04  0.32997125669E+04 0.  0.
        1    1    3    3  502    0  0.85350658663E+03 -0.10807823343E+04 -0.60736093414E+03  0.15051416053E+04  0.50400001928E-02 0.  1.
       -1    1    3    3    0  502 -0.85350658663E+03  0.10807823343E+04  0.12431619714E+04  0.18552669983E+04  0.50400001928E-02 0. -1.
</event>
<event>
 5   0  0.9283910E-08  0.3301278E+04  0.7818609E-02  0.8162570E-01
        1   -1    0    0  501    0  0.00000000000E+00  0.00000000000E+00  0.27089025653E+04  0.27089025653E+04  0.50400001928E-02 0.  1.
       -1   -1    0    0    0  501  0.00000000000E+00  0.00000000000E+00 -0.10057981679E+04  0.10057981679E+04  0.50400001928E-02 0. -1.
    10030    2    1    2    0    0  0.00000000000E+00  0.00000000000E+00  0.17031043974E+04  0.37147007331E+04  0.33012780780E+04 0.  0.
        3    1    3    3  502    0  0.14857190216E+04  0.51304975617E+03  0.14186822466E+04  0.21173663807E+04  0.10100000352E+00 0.  1.
       -3    1    3    3    0  502 -0.14857190216E+04 -0.51304975617E+03  0.28442215081E+03  0.15973343524E+04  0.10100000352E+00 0. -1.
</event>
<event>
 5   0  0.2824402E-07  0.3303173E+04  0.7818609E-02  0.8162088E-01
        2   -1    0    0  501    0  0.00000000000E+00  0.00000000000E+00  0.25032738180E+04  0.25032738180E+04  0.25500000920E-02 0.  1.
       -2   -1    0    0    0  501  0.00000000000E+00  0.00000000000E+00 -0.10896684648E+04  0.10896684648E+04  0.25500000920E-02 0. -1.
    10030    2    1    2    0    0  0.00000000000E+00  0.00000000000E+00  0.14136053532E+04  0.35929422828E+04  0.33031733459E+04 0.  0.
        1    1    3    3  502    0 -0.14036675285E+04 -0.66867457475E+03  0.10086078202E+03  0.15580696758E+04  0.50400001928E-02 0. -1.
       -1    1    3    3    0  502  0.14036675285E+04  0.66867457475E+03  0.13127445712E+04  0.20348726070E+04  0.50400001928E-02 0.  1.
</event>
<event>
 5   0  0.9181760E-08  0.3304175E+04  0.7818609E-02  0.8161834E-01
        1   -1    0    0  501    0  0.00000000000E+00  0.00000000000E+00  0.18448618004E+04  0.18448618004E+04  0.50400001928E-02 0.  1.
       -1   -1    0    0    0  501  0.00000000000E+00  0.00000000000E+00 -0.14794570228E+04  0.14794570228E+04  0.50400001928E-02 0. -1.
    10030    2    1    2    0    0  0.00000000000E+00  0.00000000000E+00  0.36540477758E+03  0.33243188232E+04  0.33041753868E+04 0.  0.
        1    1    3    3  502    0  0.28194168006E+03  0.78950775996E+03  0.16149610834E+04  0.18195914142E+04  0.50400001928E-02 0.  1.
       -1    1    3    3    0  502 -0.28194168006E+03 -0.78950775996E+03 -0.12495563058E+04  0.15047274090E+04  0.50400001928E-02 0. -1.
</event>
<event>
 5   0  0.2703956E-07  0.3328153E+04  0.7818609E-02  0.8155769E-01
        2   -1    0    0  501    0  0.00000000000E+00  0.00000000000E+00  0.91498516455E+03  0.91498516455E+03  0.25500000920E-02 0.  1.
       -2   -1    0    0    0  501  0.00000000000E+00  0.00000000000E+00 -0.30264424643E+04  0.30264424643E+04  0.25500000920E-02 0. -1.
    10030    2    1    2    0    0  0.00000000000E+00  0.00000000000E+00 -0.21114572998E+04  0.39414276289E+04  0.33281526144E+04 0.  0.
        5    1    3    3  502    0 -0.94501731410E+03 -0.31030047649E+03  0.52418715307E+03  0.11243390819E+04  0.46999998093E+01 0.  1.
       -5    1    3    3    0  502  0.94501731410E+03  0.31030047649E+03 -0.26356444528E+04  0.28170885470E+04  0.46999998093E+01 0. -1.
</event>
<event>
 5   0  0.9454010E-08  0.3302158E+04  0.7818609E-02  0.8162347E-01
       -1   -1    0    0    0  501  0.00000000000E+00  0.00000000000E+00  0.12765759569E+04  0.12765759569E+04  0.50400001928E-02 0. -1.
        1   -1    0    0  501    0  0.00000000000E+00  0.00000000000E+00 -0.21354482159E+04  0.21354482159E+04  0.50400001928E-02 0.  1.
    10030    2    1    2    0    0  0.00000000000E+00  0.00000000000E+00 -0.85887225902E+03  0.34120241729E+04  0.33021579912E+04 0.  0.
        2    1    3    3  502    0 -0.10798595811E+04 -0.11779483674E+04 -0.40739368523E+00  0.15980172831E+04  0.25500000920E-02 0. -1.
       -2    1    3    3    0  502  0.10798595811E+04  0.11779483674E+04 -0.85846486534E+03  0.18140068898E+04  0.25500000920E-02 0.  1.
</event>
<event>
 5   0  0.2875829E-07  0.3299034E+04  0.7818609E-02  0.8163141E-01
        2   -1    0    0  501    0  0.00000000000E+00  0.00000000000E+00  0.25543473446E+04  0.25543473446E+04  0.25500000920E-02 0. -1.
       -2   -1    0    0    0  501  0.00000000000E+00  0.00000000000E+00 -0.10652062859E+04  0.10652062859E+04  0.25500000920E-02 0.  1.
    10030    2    1    2    0    0  0.00000000000E+00  0.00000000000E+00  0.14891410587E+04  0.36195536306E+04  0.32990343120E+04 0.  0.
        3    1    3    3  502    0  0.85438292289E+03  0.77461185681E+02  0.22903284621E+04  0.24457258409E+04  0.10100000352E+00 0. -1.
       -3    1    3    3    0  502 -0.85438292289E+03 -0.77461185681E+02 -0.80118740341E+03  0.11738277897E+04  0.10100000352E+00 0.  1.
</event>
<event>
 5   0  0.2727168E-07  0.3294936E+04  0.7818609E-02  0.8164185E-01
       -2   -1    0    0    0  501  0.00000000000E+00  0.00000000000E+00  0.87830152760E+03  0.87830152761E+03  0.25500000920E-02 0. -1.
        2   -1    0    0  501    0  0.00000000000E+00  0.00000000000E+00 -0.30902259492E+04  0.30902259492E+04  0.25500000920E-02 0.  1.
    10030    2    1    2    0    0  0.00000000000E+00  0.00000000000E+00 -0.22119244216E+04  0.39685274768E+04  0.32949356120E+04 0.  0.
        2    1    3    3  502    0 -0.11446536459E+04  0.76287207346E+03 -0.14009878186E+02  0.13756460469E+04  0.25500000920E-02 0. -1.
       -2    1    3    3    0  502  0.11446536459E+04 -0.76287207346E+03 -0.21979145434E+04  0.25928814299E+04  0.25500000920E-02 0.  1.
</event>
<event>
 5   0  0.9454010E-08  0.3318345E+04  0.7818609E-02  0.8158243E-01
       -1   -1    0    0    0  501  0.00000000000E+00  0.00000000000E+00  0.14179317172E+04  0.14179317173E+04  0.50400001928E-02 0. -1.
        1   -1    0    0  501    0  0.00000000000E+00  0.00000000000E+00 -0.19414564937E+04  0.19414564937E+04  0.50400001928E-02 0.  1.
    10030    2    1    2    0    0  0.00000000000E+00  0.00000000000E+00 -0.52352477649E+03  0.33593882110E+04  0.33183446115E+04 0.  0.
        2    1    3    3  502    0 -0.14539649248E+04  0.19667949333E+03  0.52251691324E+03  0.15574725520E+04  0.25500000920E-02 0. -1.
       -2    1    3    3    0  502  0.14539649248E+04 -0.19667949333E+03 -0.10460416897E+04  0.18019156590E+04  0.25500000920E-02 0.  1.
</event>
<event>
 5   0  0.2703956E-07  0.3297088E+04  0.7818609E-02  0.8163637E-01
       -2   -1    0    0    0  501  0.00000000000E+00  0.00000000000E+00  0.18356263584E+04  0.18356263584E+04  0.25500000920E-02 0. -1.
        2   -1    0    0  501    0  0.00000000000E+00  0.00000000000E+00 -0.14805287879E+04  0.14805287879E+04  0.25500000920E-02 0.  1.
    10030    2    1    2    0    0  0.00000000000E+00  0.00000000000E+00  0.35509757047E+03  0.33161551463E+04  0.32970882108E+04 0.  0.
        5    1    3    3  502    0 -0.54673011082E+03 -0.45339980152E+03  0.16738315091E+04  0.18183011865E+04  0.46999998093E+01 0. -1.
       -5    1    3    3    0  502  0.54673011082E+03  0.45339980152E+03 -0.13187339386E+04  0.14978539598E+04  0.46999998093E+01 0.  1.
</event>
<event>
 5   0  0.2703956E-07  0.3291113E+04  0.7818609E-02  0.8165160E-01
       -2   -1    0    0    0  501  0.00000000000E+00  0.00000000000E+00  0.10197121940E+04  0.10197121940E+04  0.25500000920E-02 0.  1.
        2   -1    0    0  501    0  0.00000000000E+00  0.00000000000E+00 -0.26555101455E+04  0.26555101455E+04  0.25500000920E-02 0. -1.
    10030    2    1    2    0    0  0.00000000000E+00  0.00000000000E+00 -0.16357979515E+04  0.36752223395E+04  0.32911129283E+04 0.  0.
        5    1    3    3  502    0  0.94285259324E+03 -0.76338786800E+03  0.42366178013E+03  0.12850071765E+04  0.46999998093E+01 0.  1.
       -5    1    3    3    0  502 -0.94285259324E+03  0.76338786800E+03 -0.20594597316E+04  0.23902151630E+04  0.46999998093E+01 0. -1.
</event>
<event>
 5   0  0.2875829E-07  0.3297871E+04  0.7818609E-02  0.8163437E-01
        2   -1    0    0  501    0  0.00000000000E+00  0.00000000000E+00  0.18792039763E+04  0.18792039763E+04  0.25500000920E-02 0.  1.
       -2   -1    0    0    0  501  0.00000000000E+00  0.00000000000E+00 -0.14468830238E+04  0.14468830238E+04  0.25500000920E-02 0. -1.
    10030    2    1    2    0    0  0.00000000000E+00  0.00000000000E+00  0.43232095256E+03  0.33260870001E+04  0.32978710293E+04 0.  0.
        3    1    3    3  502    0  0.10379649548E+04  0.12109486002E+04  0.63833543647E+03  0.17179173145E+04  0.10100000352E+00 0.  1.
       -3    1    3    3    0  502 -0.10379649548E+04 -0.12109486002E+04 -0.20601448391E+03  0.16081696856E+04  0.10100000352E+00 0. -1.
</event>
<event>
 5   0  0.2824402E-07  0.3300693E+04  0.7818609E-02  0.8162719E-01
        2   -1    0    0  501    0  0.00000000000E+00  0.00000000000E+00  0.13599638507E+04  0.13599638507E+04  0.25500000920E-02 0. -1.
       -2   -1    0    0    0  501  0.00000000000E+00  0.00000000000E+00 -0.20027327935E+04  0.20027327935E+04  0.25500000920E-02 0.  1.
    10030    2    1    2    0    0  0.00000000000E+00  0.00000000000E+00 -0.64276894283E+03  0.33626966442E+04  0.33006933828E+04 0.  0.
        1    1    3    3  502    0  0.10781903568E+04 -0.12467158911E+04 -0.40569926834E+03  0.16974648317E+04  0.50400001928E-02 0.  1.
       -1    1    3    3    0  502 -0.10781903568E+04  0.12467158911E+04 -0.23706967449E+03  0.16652318125E+04  0.50400001928E-02 0. -1.
</event>
<event>
 5   0  0.9810351E-08  0.3302748E+04  0.7818609E-02  0.8162197E-01
       -1   -1    0    0    0  501  0.00000000000E+00  0.00000000000E+00  0.90190284385E+03  0.90190284386E+03  0.50400001928E-02 0. -1.
        1   -1    0    0  501    0  0.00000000000E+00  0.00000000000E+00 -0.30236469501E+04  0.30236469501E+04  0.50400001928E-02 0.  1.
    10030    2    1    2    0    0  0.00000000000E+00  0.00000000000E+00 -0.21217441063E+04  0.39255497940E+04  0.33027478155E+04 0.  0.
        5    1    3    3  502    0 -0.65065739976E+03  0.97495347139E+03 -0.24434637185E+04  0.27100602128E+04  0.46999998093E+01 0.  1.
       -5    1    3    3    0  502  0.65065739976E+03 -0.97495347139E+03  0.32171961219E+03  0.12154895812E+04  0.46999998093E+01 0. -1.
</event>
<event>
 5   0  0.9181760E-08  0.3273428E+04  0.7818609E-02  0.8169690E-01
        1   -1    0    0  501    0  0.00000000000E+00  0.00000000000E+00  0.22827980843E+04  0.22827980843E+04  0.50400001928E-02 0.  1.
       -1   -1    0    0    0  501  0.00000000000E+00  0.00000000000E+00 -0.11734861525E+04  0.11734861525E+04  0.50400001928E-02 0. -1.
    10030    2    1    2    0    0  0.00000000000E+00  0.00000000000E+00  0.11093119318E+04  0.34562842367E+04  0.32734275253E+04 0.  0.
        1    1    3    3  502    0  0.99968100535E+03  0.13423399102E+03  0.19156320632E+04  0.21649542901E+04  0.50400001928E-02 0.  1.
       -1    1    3    3    0  502 -0.99968100535E+03 -0.13423399102E+03 -0.80632013136E+03  0.12913299466E+04  0.50400001928E-02 0. -1.
</event>
<event>
 5   0  0.2727168E-07  0.3305115E+04  0.7818609E-02  0.8161595E-01
        2   -1    0    0  501    0  0.00000000000E+00  0.00000000000E+00  0.25189276770E+04  0.25189276770E+04  0.25500000920E-02 0. -1.
       -2   -1    0    0    0  501  0.00000000000E+00  0.00000000000E+00 -0.10841702489E+04  0.10841702489E+04  0.25500000920E-02 0.  1.
    10030    2    1    2    0    0  0.00000000000E+00  0.00000000000E+00  0.14347574280E+04  0.36030979259E+04  0.33051150942E+04 0.  0.
        2    1    3    3  502    0 -0.91981304429E+03  0.68283666106E+03  0.20158226628E+04  0.23185907250E+04  0.25500000920E-02 0. -1.
       -2    1    3    3    0  502  0.91981304429E+03 -0.68283666106E+03 -0.58106523475E+03  0.12845072009E+04  0.25500000920E-02 0.  1.
</event>
<event>
 5   0  0.9454010E-08  0.3297655E+04  0.7818609E-02  0.8163492E-01
        1   -1    0    0  501    0  0.00000000000E+00  0.00000000000E+00  0.22566235277E+04  0.22566235277E+04  0.50400001928E-02 0.  1.
       -1   -1    0    0    0  501  0.00000000000E+00  0.00000000000E+00 -0.12047342419E+04  0.12047342419E+04  0.50400001928E-02 0. -1.
    10030    2    1    2    0    0  0.00000000000E+00  0.00000000000E+00  0.10518892858E+04  0.34613577697E+04  0.32976547030E+04 0.  0.
        2    1    3    3  502    0  0.63592973977E+03  0.14288903370E+04 -0.21982100535E+02  0.15641666925E+04  0.25500000920E-02 0. -1.
       -2    1    3    3    0  502 -0.63592973977E+03 -0.14288903370E+04  0.10738713863E+04  0.18971910772E+04  0.25500000920E-02 0.  1.
</event>
<event>
 5   0  0.2824402E-07  0.3300065E+04  0.7818609E-02  0.8162879E-01
        2   -1    0    0  501    0  0.00000000000E+00  0.00000000000E+00  0.14313751924E+04  0.14313751924E+04  0.25500000920E-02 0.  1.
       -2   -1    0    0    0  501  0.00000000000E+00  0.00000000000E+00 -0.19020921967E+04  0.19020921967E+04  0.25500000920E-02 0. -1.
    10030    2    1    2    0    0  0.00000000000E+00  0.00000000000E+00 -0.47071700433E+03  0.33334673891E+04  0.33000652018E+04 0.  0.
        1    1    3    3  502    0 -0.28741369560E+03  0.12583313208E+04 -0.12736747714E+04  0.18133537351E+04  0.50400001928E-02 0. -1.
       -1    1    3    3    0  502  0.28741369560E+03 -0.12583313208E+04  0.80295776711E+03  0.15201136540E+04  0.50400001928E-02 0.  1.
</event>
<event>
 5   0  0.2703956E-07  0.3295201E+04  0.7818609E-02  0.8164118E-01
       -2   -1    0    0    0  501  0.00000000000E+00  0.00000000000E+00  0.93084148258E+03  0.93084148259E+03  0.25500000920E-02 0.  1.
        2   -1    0    0  501    0  0.00000000000E+00  0.00000000000E+00 -0.29162726893E+04  0.29162726893E+04  0.25500000920E-02 0. -1.
    10030    2    1    2    0    0  0.00000000000E+00  0.00000000000E+00 -0.19854312068E+04  0.38471141719E+04  0.32952011130E+04 0.  0.
        5    1    3    3  502    0  0.15703233175E+04 -0.36389235667E+03 -0.59468450541E+03  0.17181399011E+04  0.46999998093E+01 0.  1.
       -5    1    3    3    0  502 -0.15703233175E+04  0.36389235667E+03 -0.13907467013E+04  0.21289742709E+04  0.46999998093E+01 0. -1.
</event>
<event>
 5   0  0.9810351E-08  0.3302069E+04  0.7818609E-02  0.8162369E-01
       -1   -1    0    0    0  501  0.00000000000E+00  0.00000000000E+00  0.27879545692E+04  0.27879545693E+04  0.50400001928E-02 0.  1.
        1   -1    0    0  501    0  0.00000000000E+00  0.00000000000E+00 -0.97774706686E+03  0.97774706687E+03  0.50400001928E-02 0. -1.
    10030    2    1    2    0    0  0.00000000000E+00  0.00000000000E+00  0.18102075024E+04  0.37657016361E+04  0.33020686865E+04 0.  0.
        5    1    3    3  502    0  0.14355599516E+04 -0.24672209470E+03  0.18670773955E+02  0.14567343116E+04  0.46999998093E+01 0. -1.
       -5    1    3    3    0  502 -0.14355599516E+04  0.24672209470E+03  0.17915367284E+04  0.23089673246E+04  0.46999998093E+01 0.  1.
</event>
<event>
 5   0  0.9810351E-08  0.3309191E+04  0.7818609E-02  0.8160561E-01
        1   -1    0    0  501    0  0.00000000000E+00  0.00000000000E+00  0.26238100579E+04  0.26238100579E+04  0.50400001928E-02 0.  1.
       -1   -1    0    0    0  501  0.00000000000E+00  0.00000000000E+00 -0.10434008572E+04  0.10434008572E+04  0.50400001928E-02 0. -1.
    10030    2    1    2    0    0  0.00000000000E+00  0.00000000000E+00  0.15804092007E+04  0.36672109151E+04  0.33091906343E+04 0.  0.
        5    1    3    3  502    0  0.36802984934E+03  0.15929355072E+04  0.50816200224E+03  0.17120573035E+04  0.46999998093E+01 0. -1.
       -5    1    3    3    0  502 -0.36802984934E+03 -0.15929355072E+04  0.10722471985E+04  0.19551536115E+04  0.46999998093E+01 0.  1.
</event>
<event>
 5   0  0.2824402E-07  0.3311841E+04  0.7818609E-02  0.8159889E-01
        2   -1    0    0  501    0  0.00000000000E+00  0.00000000000E+00  0.20639794728E+04  0.20639794728E+04  0.25500000920E-02 0. -1.
       -2   -1    0    0    0  501  0.00000000000E+00  0.00000000000E+00 -0.13285367325E+04  0.13285367325E+04  0.25500000920E-02 0.  1.
    10030    2    1    2    0    0  0.00000000000E+00  0.00000000000E+00  0.73544274031E+03  0.33925162053E+04  0.33118409048E+04 0.  0.
        1    1    3    3  502    0 -0.12513612856E+04 -0.92389135471E+03  0.94952901642E+03  0.18223846069E+04  0.50400001928E-02 0. -1.
       -1    1    3    3    0  502  0.12513612856E+04  0.92389135471E+03 -0.21408627611E+03  0.15701315983E+04  0.50400001928E-02 0.  1.
</event>
<event>
 5   0  0.2713815E-07  0.3304473E+04  0.7818609E-02  0.8161758E-01
        2   -1    0    0  501    0  0.00000000000E+00  0.00000000000E+00  0.17503649947E+04  0.17503649947E+04  0.25500000920E-02 0.  1.
       -2   -1    0    0    0  501  0.00000000000E+00  0.00000000000E+00 -0.15596092448E+04  0.15596092448E+04  0.25500000920E-02 0. -1.
    10030    2    1    2    0    0  0.00000000000E+00  0.00000000000E+00  0.19075574986E+03  0.33099742395E+04  0.33044729852E+04 0.  0.
        4    1    3    3  502    0  0.48255573265E+03  0.21076895241E+03  0.16640630426E+04  0.17453913627E+04  0.12699999809E+01 0.  1.
       -4    1    3    3    0  502 -0.48255573265E+03 -0.21076895241E+03 -0.14733072927E+04  0.15645828767E+04  0.12699999809E+01 0. -1.
</event>
<event>
 5   0  0.9454010E-08  0.3306961E+04  0.7818609E-02  0.8161126E-01
       -1   -1    0    0    0  501  0.00000000000E+00  0.00000000000E+00  0.36170750761E+04  0.36170750761E+04  0.50400001928E-02 0. -1.
        1   -1    0    0  501    0  0.00000000000E+00  0.00000000000E+00 -0.75585886078E+03  0.75585886079E+03  0.50400001928E-02 0.  1.
    10030    2    1    2    0    0  0.00000000000E+00  0.00000000000E+00  0.28612162153E+04  0.43729339369E+04  0.33069612918E+04 0.  0.
        2    1    3    3  502    0 -0.23201736466E+03 -0.12192834867E+04 -0.14024980833E+02  0.12412417083E+04  0.25500000920E-02 0.  1.
       -2    1    3    3    0  502  0.23201736466E+03  0.12192834867E+04  0.28752411962E+04  0.31316922286E+04  0.25500000920E-02 0. -1.
</event>
<event>
 5   0  0.8805125E-08  0.3295585E+04  0.7818609E-02  0.8164020E-01
       -1   -1    0    0    0  501  0.00000000000E+00  0.00000000000E+00  0.14780805540E+04  0.14780805540E+04  0.50400001928E-02 0. -1.
        1   -1    0    0  501    0  0.00000000000E+00  0.00000000000E+00 -0.18369904106E+04  0.18369904106E+04  0.50400001928E-02 0.  1.
    10030    2    1    2    0    0  0.00000000000E+00  0.00000000000E+00 -0.35890985661E+03  0.33150709647E+04  0.32955848063E+04 0.  0.
        4    1    3    3  502    0  0.13610950775E+04  0.63429598274E+03  0.50301594526E+03  0.15836470118E+04  0.12699999809E+01 0. -1.
       -4    1    3    3    0  502 -0.13610950775E+04 -0.63429598274E+03 -0.86192580186E+03  0.17314239529E+04  0.12699999809E+01 0.  1.
</event>
<event>
 5   0  0.2703956E-07  0.3299873E+04  0.7818609E-02  0.8162928E-01
       -2   -1    0    0    0  501  0.00000000000E+00  0.00000000000E+00  0.18322057959E+04  0.18322057959E+04  0.25500000920E-02 0. -1.
        2   -1    0    0  501    0  0.00000000000E+00  0.00000000000E+00 -0.14857998921E+04  0.14857998921E+04  0.25500000920E-02 0.  1.
    10030    2    1    2    0    0  0.00000000000E+00  0.00000000000E+00  0.34640590377E+03  0.33180056880E+04  0.32998734362E+04 0.  0.
        5    1    3    3  502    0 -0.27300058327E+03 -0.90775442555E+03  0.15310758555E+04  0.18007672756E+04  0.46999998093E+01 0. -1.
       -5    1    3    3    0  502  0.27300058327E+03  0.90775442555E+03 -0.11846699517E+04  0.15172384124E+04  0.46999998093E+01 0.  1.
</event>
<event>
 5   0  0.9181760E-08  0.3322245E+04  0.7818609E-02  0.8157258E-01
        1   -1    0    0  501    0  0.00000000000E+00  0.00000000000E+00  0.17935489132E+04  0.17935489132E+04  0.50400001928E-02 0.  1.
       -1   -1    0    0    0  501  0.00000000000E+00  0.00000000000E+00 -0.15384740626E+04  0.15384740626E+04  0.50400001928E-02 0. -1.
    10030    2    1    2    0    0  0.00000000000E+00  0.00000000000E+00  0.25507485057E+03  0.33320229758E+04  0.33222453148E+04 0.  0.
        1    1    3    3  502    0 -0.40297920084E+03 -0.13613374934E+04  0.99245386405E+03  0.17322230455E+04  0.50400001928E-02 0.  1.
       -1    1    3    3    0  502  0.40297920084E+03  0.13613374934E+04 -0.73737901347E+03  0.15997999302E+04  0.50400001928E-02 0. -1.
</event>
<event>
 5   0  0.2703956E-07  0.3299978E+04  0.7818609E-02  0.8162901E-01
        2   -1    0    0  501    0  0.00000000000E+00  0.00000000000E+00  0.16862749407E+04  0.16862749407E+04  0.25500000920E-02 0.  1.
       -2   -1    0    0    0  501  0.00000000000E+00  0.00000000000E+00 -0.16144835172E+04  0.16144835172E+04  0.25500000920E-02 0. -1.
    10030    2    1    2    0    0  0.00000000000E+00  0.00000000000E+00  0.71791423550E+02  0.33007584579E+04  0.32999776346E+04 0.  0.
        5    1    3    3  502    0  0.13203675689E+04 -0.80372375509E+03  0.61317923524E+03  0.16629351329E+04  0.46999998093E+01 0.  1.
       -5    1    3    3    0  502 -0.13203675689E+04  0.80372375509E+03 -0.54138781169E+03  0.16378233251E+04  0.46999998093E+01 0. -1.
</event>
<event>
 5   0  0.9454010E-08  0.3299396E+04  0.7818609E-02  0.8163049E-01
       -1   -1    0    0    0  501  0.00000000000E+00  0.00000000000E+00  0.10699137720E+04  0.10699137720E+04  0.50400001928E-02 0.  1.
        1   -1    0    0  501    0  0.00000000000E+00  0.00000000000E+00 -0.25436656526E+04  0.25436656526E+04  0.50400001928E-02 0. -1.
    10030    2    1    2    0    0  0.00000000000E+00  0.00000000000E+00 -0.14737518805E+04  0.36135794246E+04  0.32993956496E+04 0.  0.
        2    1    3    3  502    0 -0.72689499339E+02 -0.10711027430E+04 -0.21087330397E+04  0.23662839817E+04  0.25500000920E-02 0. -1.
       -2    1    3    3    0  502  0.72689499339E+02  0.10711027430E+04  0.63498115915E+03  0.12472954429E+04  0.25500000920E-02 0.  1.
</event>
<event>
 5   0  0.2824402E-07  0.3298158E+04  0.7818609E-02  0.8163364E-01
       -2   -1    0    0    0  501  0.00000000000E+00  0.00000000000E+00  0.14960182531E+04  0.14960182531E+04  0.25500000920E-02 0. -1.
        2   -1    0    0  501    0  0.00000000000E+00  0.00000000000E+00 -0.18177998331E+04  0.18177998331E+04  0.25500000920E-02 0.  1.
    10030    2    1    2    0    0  0.00000000000E+00  0.00000000000E+00 -0.32178158002E+03  0.33138180862E+04  0.32981581107E+04 0.  0.
        1    1    3    3  502    0 -0.11407500237E+04 -0.11650800327E+04  0.86733514630E+02  0.16328639875E+04  0.50400001928E-02 0. -1.
       -1    1    3    3    0  502  0.11407500237E+04  0.11650800327E+04 -0.40851509465E+03  0.16809540987E+04  0.50400001928E-02 0.  1.
</event>
<event>
 5   0  0.2727168E-07  0.3312310E+04  0.7818609E-02  0.8159770E-01
       -2   -1    0    0    0  501  0.00000000000E+00  0.00000000000E+00  0.15186384710E+04  0.15186384710E+04  0.25500000920E-02 0. -1.
        2   -1    0    0  501    0  0.00000000000E+00  0.00000000000E+00 -0.18061239871E+04  0.18061239871E+04  0.25500000920E-02 0.  1.
    10030    2    1    2    0    0  0.00000000000E+00  0.00000000000E+00 -0.28748551607E+03  0.33247624581E+04  0.33123099917E+04 0.  0.
        2    1    3    3  502    0  0.13279286388E+04  0.86913937300E+03 -0.61886320565E+03  0.17034639376E+04  0.25500000920E-02 0.  1.
       -2    1    3    3    0  502 -0.13279286388E+04 -0.86913937300E+03  0.33137768959E+03  0.16212985205E+04  0.25500000920E-02 0. -1.
</event>
<event>
 5   0  0.8805125E-08  0.3304601E+04  0.7818609E-02  0.8161726E-01
       -1   -1    0    0    0  501  0.00000000000E+00  0.00000000000E+00  0.17876403388E+04  0.17876403388E+04  0.50400001928E-02 0. -1.
        1   -1    0    0  501    0  0.00000000000E+00  0.00000000000E+00 -0.15272073930E+04  0.15272073930E+04  0.50400001928E-02 0.  1.
    10030    2    1    2    0    0  0.00000000000E+00  0.00000000000E+00  0.26043294573E+03  0.33148477318E+04  0.33046013626E+04 0.  0.
        4    1    3    3  502    0 -0.36544365231E+03 -0.15680114400E+04  0.50269921096E+03  0.16866881895E+04  0.12699999809E+01 0.  1.
       -4    1    3    3    0  502  0.36544365231E+03  0.15680114400E+04 -0.24226626523E+03  0.16281595423E+04  0.12699999809E+01 0. -1.
</event>
<event>
 5   0  0.2713815E-07  0.3299136E+04  0.7818609E-02  0.8163115E-01
       -2   -1    0    0    0  501  0.00000000000E+00  0.00000000000E+00  0.13144119902E+04  0.13144119902E+04  0.25500000920E-02 0. -1.
        2   -1    0    0  501    0  0.00000000000E+00  0.00000000000E+00 -0.20701842701E+04  0.20701842701E+04  0.25500000920E-02 0.  1.
    10030    2    1    2    0    0  0.00000000000E+00  0.00000000000E+00 -0.75577227986E+03  0.33845962603E+04  0.32991362666E+04 0.  0.
        4    1    3    3  502    0  0.10108108458E+04  0.12072921087E+04 -0.88233524103E+03  0.18049404124E+04  0.12699999809E+01 0.  1.
       -4    1    3    3    0  502 -0.10108108458E+04 -0.12072921087E+04  0.12656296117E+03  0.15796558479E+04  0.12699999809E+01 0. -1.
</event>
<event>
 5   0  0.2703956E-07  0.3299284E+04  0.7818609E-02  0.8163078E-01
       -2   -1    0    0    0  501  0.00000000000E+00  0.00000000000E+00  0.23454742995E+04  0.23454742995E+04  0.25500000920E-02 0. -1.
        2   -1    0    0  501    0  0.00000000000E+00  0.00000000000E+00 -0.11602423945E+04  0.11602423945E+04  0.25500000920E-02 0.  1.
    10030    2    1    2    0    0  0.00000000000E+00  0.00000000000E+00  0.11852319049E+04  0.35057166940E+04  0.32992839936E+04 0.  0.
        5    1    3    3  502    0  0.11762504726E+04 -0.88519792434E+03  0.13836099194E+04  0.20202819206E+04  0.46999998093E+01 0. -1.
       -5    1    3    3    0  502 -0.11762504726E+04  0.88519792434E+03 -0.19837801448E+03  0.14854347734E+04  0.46999998093E+01 0.  1.
</event>
<event>
 5   0  0.9181760E-08  0.3300777E+04  0.7818609E-02  0.8162698E-01
       -1   -1    0    0    0  501  0.00000000000E+00  0.00000000000E+00  0.30932775195E+04  0.30932775195E+04  0.50400001928E-02 0. -1.
        1   -1    0    0  501    0  0.00000000000E+00  0.00000000000E+00 -0.88054916633E+03  0.88054916635E+03  0.50400001928E-02 0.  1.
    10030    2    1    2    0    0  0.00000000000E+00  0.00000000000E+00  0.22127283531E+04  0.39738266858E+04  0.33007774485E+04 0.  0.
        1    1    3    3  502    0 -0.74686559215E+03 -0.88205569232E+03  0.25247029572E+04  0.27766806585E+04  0.50400001928E-02 0. -1.
       -1    1    3    3    0  502  0.74686559215E+03  0.88205569232E+03 -0.31197460409E+03  0.11971460273E+04  0.50400001928E-02 0.  1.
</event>
<event>
 5   0  0.2713815E-07  0.3303821E+04  0.7818609E-02  0.8161924E-01
        2   -1    0    0  501    0  0.00000000000E+00  0.00000000000E+00  0.14012935324E+04  0.14012935325E+04  0.25500000920E-02 0. -1.
       -2   -1    0    0    0  501  0.00000000000E+00  0.00000000000E+00 -0.19473494441E+04  0.19473494441E+04  0.25500000920E-02 0.  1.
    10030    2    1    2    0    0  0.00000000000E+00  0.00000000000E+00 -0.54605591166E+03  0.33486429766E+04  0.33038209282E+04 0.  0.
        4    1    3    3  502    0 -0.26107134366E+03  0.12003072141E+04  0.84645221435E+03  0.14917702969E+04  0.12699999809E+01 0. -1.
       -4    1    3    3    0  502  0.26107134366E+03 -0.12003072141E+04 -0.13925081260E+04  0.18568726797E+04  0.12699999809E+01 0.  1.
</event>
<event>
 5   0  0.9283910E-08  0.3302532E+04  0.7818609E-02  0.8162251E-01
       -1   -1    0    0    0  501  0.00000000000E+00  0.00000000000E+00  0.17621872233E+04  0.17621872233E+04  0.50400001928E-02 0.  1.
        1   -1    0    0  501    0  0.00000000000E+00  0.00000000000E+00 -0.15473268065E+04  0.15473268065E+04  0.50400001928E-02 0. -1.
    10030    2    1    2    0    0  0.00000000000E+00  0.00000000000E+00  0.21486041686E+03  0.33095140298E+04  0.33025320763E+04 0.  0.
        3    1    3    3  502    0 -0.15110236324E+04 -0.47316997666E+03  0.57703298335E+03  0.16852445871E+04  0.10100000352E+00 0.  1.
       -3    1    3    3    0  502  0.15110236324E+04  0.47316997666E+03 -0.36217256649E+03  0.16242694427E+04  0.10100000352E+00 0. -1.
</event>
<event>
 5   0  0.9454010E-08  0.3301934E+04  0.7818609E-02  0.8162403E-01
       -1   -1    0    0    0  501  0.00000000000E+00  0.00000000000E+00  0.10014682758E+04  0.10014682758E+04  0.50400001928E-02 0. -1.
        1   -1    0    0  501    0  0.00000000000E+00  0.00000000000E+00 -0.27216962072E+04  0.27216962072E+04  0.50400001928E-02 0.  1.
    10030    2    1    2    0    0  0.00000000000E+00  0.00000000000E+00 -0.17202279314E+04  0.37231644830E+04  0.33019342258E+04 0.  0.
        2    1    3    3  502    0 -0.16046133433E+03 -0.14474944022E+03 -0.27056797374E+04  0.27142960564E+04  0.25500000920E-02 0.  1.
       -2    1    3    3    0  502  0.16046133433E+03  0.14474944022E+03  0.98545180602E+03  0.10088684266E+04  0.25500000920E-02 0. -1.
</event>
<event>
 5   0  0.9454010E-08  0.3294110E+04  0.7818609E-02  0.8164396E-01
       -1   -1    0    0    0  501  0.00000000000E+00  0.00000000000E+00  0.95712951142E+03  0.95712951143E+03  0.50400001928E-02 0.  1.
        1   -1    0    0  501    0  0.00000000000E+00  0.00000000000E+00 -0.28342986328E+04  0.28342986328E+04  0.50400001928E-02 0. -1.
    10030    2    1    2    0    0  0.00000000000E+00  0.00000000000E+00 -0.18771691213E+04  0.37914281442E+04  0.32941104205E+04 0.  0.
        2    1    3    3  502    0  0.63790033817E+03 -0.60191606746E+03  0.66600842686E+03  0.11012660979E+04  0.25500000920E-02 0.  1.
       -2    1    3    3    0  502 -0.63790033817E+03  0.60191606746E+03 -0.25431775482E+04  0.26901620463E+04  0.25500000920E-02 0. -1.
</event>
<event>
 5   0  0.9181760E-08  0.3299724E+04  0.7818609E-02  0.8162966E-01
       -1   -1    0    0    0  501  0.00000000000E+00  0.00000000000E+00  0.17163374602E+04  0.17163374602E+04  0.50400001928E-02 0. -1.
        1   -1    0    0  501    0  0.00000000000E+00  0.00000000000E+00 -0.15859612449E+04  0.15859612449E+04  0.50400001928E-02 0.  1.
    10030    2    1    2    0    0  0.00000000000E+00  0.00000000000E+00  0.13037621532E+03  0.33022987051E+04  0.32997240460E+04 0.  0.
        1    1    3    3  502    0 -0.33814240334E+03  0.16094958129E+04 -0.66168403250E+02  0.16459633393E+04  0.50400001928E-02 0. -1.
       -1    1    3    3    0  502  0.33814240334E+03 -0.16094958129E+04  0.19654461857E+03  0.16563353658E+04  0.50400001928E-02 0.  1.
</event>
<event>
 5   0  0.9810351E-08  0.3301116E+04  0.7818609E-02  0.8162612E-01
        1   -1    0    0  501    0  0.00000000000E+00  0.00000000000E+00  0.15718899653E+04  0.15718899654E+04  0.50400001928E-02 0.  1.
       -1   -1    0    0    0  501  0.00000000000E+00  0.00000000000E+00 -0.17331627961E+04  0.17331627961E+04  0.50400001928E-02 0. -1.
    10030    2    1    2    0    0  0.00000000000E+00  0.00000000000E+00 -0.16127283075E+03  0.33050527615E+04  0.33011156947E+04 0.  0.
        5    1    3    3  502    0  0.13876741321E+03 -0.13599250903E+03  0.15603940046E+04  0.15724509204E+04  0.46999998093E+01 0.  1.
       -5    1    3    3    0  502 -0.13876741321E+03  0.13599250903E+03 -0.17216668354E+04  0.17326018410E+04  0.46999998093E+01 0. -1.
</event>
<event>
 5   0  0.9454010E-08  0.3289602E+04  0.7818609E-02  0.8165546E-01
       -1   -1    0    0    0  501  0.00000000000E+00  0.00000000000E+00  0.14131426668E+04  0.14131426668E+04  0.50400001928E-02 0. -1.
        1   -1    0    0  501    0  0.00000000000E+00  0.00000000000E+00 -0.19144350636E+04  0.19144350637E+04  0.50400001928E-02 0.  1.
    10030    2    1    2    0    0  0.00000000000E+00  0.00000000000E+00 -0.50129239683E+03  0.33275777305E+04  0.32896017214E+04 0.  0.
        2    1    3    3  502    0  0.10975023830E+04  0.11593570742E+04  0.14984046787E+03  0.16034564141E+04  0.25500000920E-02 0.  1.
       -2    1    3    3    0  502 -0.10975023830E+04 -0.11593570742E+04 -0.65113286469E+03  0.17241213164E+04  0.25500000920E-02 0. -1.
</event>
<event>
 5   0  0.2713815E-07  0.3233217E+04  0.7818609E-02  0.8180099E-01
        2   -1    0    0  501    0  0.00000000000E+00  0.00000000000E+00  0.22874742215E+04  0.22874742215E+04  0.25500000920E-02 0. -1.
       -2   -1    0    0    0  501  0.00000000000E+00  0.00000000000E+00 -0.11424925834E+04  0.11424925834E+04  0.25500000920E-02 0.  1.
    10030    2    1    2    0    0  0.00000000000E+00  0.00000000000E+00  0.11449816381E+04  0.34299668050E+04  0.32332165612E+04 0.  0.
        4    1    3    3  502    0 -0.15456082187E+04  0.38151961564E+03  0.87058618124E+03  0.18144927376E+04  0.12699999809E+01 0. -1.
       -4    1    3    3    0  502  0.15456082187E+04 -0.38151961564E+03  0.27439545684E+03  0.16154740674E+04  0.12699999809E+01 0.  1.
</event>
<event>
 5   0  0.2713815E-07  0.3284478E+04  0.7818609E-02  0.8166856E-01
       -2   -1    0    0    0  501  0.00000000000E+00  0.00000000000E+00  0.13923119864E+04  0.13923119864E+04  0.25500000920E-02 0.  1.
        2   -1    0    0  501    0  0.00000000000E+00  0.00000000000E+00 -0.19370288758E+04  0.19370288758E+04  0.25500000920E-02 0. -1.
    10030    2    1    2    0    0  0.00000000000E+00  0.00000000000E+00 -0.54471688939E+03  0.33293408622E+04  0.32844777495E+04 0.  0.
        4    1    3    3  502    0 -0.10563355825E+04 -0.61918020222E+03  0.83699314807E+03  0.14831682738E+04  0.12699999809E+01 0.  1.
       -4    1    3    3    0  502  0.10563355825E+04  0.61918020222E+03 -0.13817100375E+04  0.18461725884E+04  0.12699999809E+01 0. -1.
</event>
<event>
 5   0  0.2824402E-07  0.3291921E+04  0.7818609E-02  0.8164954E-01
        2   -1    0    0  501    0  0.00000000000E+00  0.00000000000E+00  0.29068214112E+04  0.29068214112E+04  0.25500000920E-02 0.  1.
       -2   -1    0    0    0  501  0.00000000000E+00  0.00000000000E+00 -0.93200986503E+03  0.93200986503E+03  0.25500000920E-02 0. -1.
    10030    2    1    2    0    0  0.00000000000E+00  0.00000000000E+00  0.19748115462E+04  0.38388312763E+04  0.32919211601E+04 0.  0.
        1    1    3    3  502    0 -0.24378563938E+03 -0.45978165971E+01 -0.91083243080E+03  0.94290418120E+03  0.50400001928E-02 0. -1.
       -1    1    3    3    0  502  0.24378563938E+03  0.45978165971E+01  0.28856439770E+04  0.28959270951E+04  0.50400001928E-02 0.  1.
</event>
<event>
 5   0  0.8805125E-08  0.3296083E+04  0.7818609E-02  0.8163893E-01
        1   -1    0    0  501    0  0.00000000000E+00  0.00000000000E+00  0.16258012600E+04  0.16258012600E+04  0.50400001928E-02 0. -1.
       -1   -1    0    0    0  501  0.00000000000E+00  0.00000000000E+00 -0.16705860248E+04  0.16705860248E+04  0.50400001928E-02 0.  1.
    10030    2    1    2    0    0  0.00000000000E+00  0.00000000000E+00 -0.44784764812E+02  0.32963872848E+04  0.32960830475E+04 0.  0.
        4    1    3    3  502    0  0.45547506474E+03 -0.14140076026E+04  0.69123091818E+03  0.16384983460E+04  0.12699999809E+01 0. -1.
       -4    1    3    3    0  502 -0.45547506474E+03  0.14140076026E+04 -0.73601568299E+03  0.16578889388E+04  0.12699999809E+01 0.  1.
</event>
<event>
 5   0  0.8805125E-08  0.3302388E+04  0.7818609E-02  0.8162288E-01
        1   -1    0    0  501    0  0.00000000000E+00  0.00000000000E+00  0.14664858226E+04  0.14664858226E+04  0.50400001928E-02 0. -1.
       -1   -1    0    0    0  501  0.00000000000E+00  0.00000000000E+00 -0.18591668272E+04  0.18591668272E+04  0.50400001928E-02 0.  1.
    10030    2    1    2    0    0  0.00000000000E+00  0.00000000000E+00 -0.39268100463E+03  0.33256526498E+04  0.33023881019E+04 0.  0.
        4    1    3    3  502    0 -0.56112114332E+03 -0.15236915139E+04 -0.49836565827E+03  0.16984883600E+04  0.12699999809E+01 0.  1.
       -4    1    3    3    0  502  0.56112114332E+03  0.15236915139E+04  0.10568465364E+03  0.16271642897E+04  0.12699999809E+01 0. -1.
</event>
<event>
 5   0  0.2703956E-07  0.3293755E+04  0.7818609E-02  0.8164486E-01
       -2   -1    0    0    0  501  0.00000000000E+00  0.00000000000E+00  0.16249424402E+04  0.16249424402E+04  0.25500000920E-02 0. -1.
        2   -1    0    0  501    0  0.00000000000E+00  0.00000000000E+00 -0.16691087070E+04  0.16691087070E+04  0.25500000920E-02 0.  1.
    10030    2    1    2    0    0  0.00000000000E+00  0.00000000000E+00 -0.44166266794E+02  0.32940511473E+04  0.32937550458E+04 0.  0.
        5    1    3    3  502    0 -0.73252501311E+02 -0.16450727785E+04  0.14372723833E+01  0.16467102147E+04  0.46999998093E+01 0. -1.
       -5    1    3    3    0  502  0.73252501311E+02  0.16450727785E+04 -0.45603539177E+02  0.16473409326E+04  0.46999998093E+01 0.  1.
</event>
<event>
 5   0  0.9810351E-08  0.3300435E+04  0.7818609E-02  0.8162785E-01
       -1   -1    0    0    0  501  0.00000000000E+00  0.00000000000E+00  0.17592046831E+04  0.17592046831E+04  0.50400001928E-02 0. -1.
        1   -1    0    0  501    0  0.00000000000E+00  0.00000000000E+00 -0.15479819468E+04  0.15479819468E+04  0.50400001928E-02 0.  1.
    10030    2    1    2    0    0  0.00000000000E+00  0.00000000000E+00  0.21122273625E+03  0.33071866299E+04  0.33004345715E+04 0.  0.
        5    1    3    3  502    0 -0.37296839234E+03 -0.15828326228E+04  0.38677489932E+03  0.16715506113E+04  0.46999998093E+01 0. -1.
       -5    1    3    3    0  502  0.37296839234E+03  0.15828326228E+04 -0.17555216307E+03  0.16356360186E+04  0.46999998093E+01 0.  1.
</event>
<event>
 5   0  0.8805125E-08  0.3299233E+04  0.7818609E-02  0.8163091E-01
        3   -1    0    0  501    0  0.00000000000E+00  0.00000000000E+00  0.17640079817E+04  0.17640079846E+04  0.10100000352E+00 0. -1.
       -3   -1    0    0    0  501  0.00000000000E+00  0.00000000000E+00 -0.15426426940E+04  0.15426426973E+04  0.10100000352E+00 0.  1.
    10030    2    1    2    0    0  0.00000000000E+00  0.00000000000E+00  0.22136528769E+03  0.33066506818E+04  0.32992326594E+04 0.  0.
        1    1    3    3  502    0  0.10074318753E+04 -0.77294391453E+03  0.11660805594E+04  0.17239794516E+04  0.50400001928E-02 0. -1.
       -1    1    3    3    0  502 -0.10074318753E+04  0.77294391453E+03 -0.94471527175E+03  0.15826712303E+04  0.50400001928E-02 0.  1.
</event>
<event>
 5   0  0.2727168E-07  0.3301559E+04  0.7818609E-02  0.8162499E-01
       -2   -1    0    0    0  501  0.00000000000E+00  0.00000000000E+00  0.11516652565E+04  0.11516652565E+04  0.25500000920E-02 0.  1.
        2   -1    0    0  501    0  0.00000000000E+00  0.00000000000E+00 -0.23662023869E+04  0.23662023869E+04  0.25500000920E-02 0. -1.
    10030    2    1    2    0    0  0.00000000000E+00  0.00000000000E+00 -0.12145371304E+04  0.35178676434E+04  0.33015590734E+04 0.  0.
        2    1    3    3  502    0  0.13364034540E+03 -0.44069328566E+03 -0.22963745720E+04  0.23420944663E+04  0.25500000920E-02 0. -1.
       -2    1    3    3    0  502 -0.13364034540E+03  0.44069328566E+03  0.10818374416E+04  0.11757731771E+04  0.25500000920E-02 0.  1.
</event>
<event>
 5   0  0.9283910E-08  0.3304759E+04  0.7818609E-02  0.8161685E-01
        1   -1    0    0  501    0  0.00000000000E+00  0.00000000000E+00  0.12966278061E+04  0.12966278061E+04  0.50400001928E-02 0.  1.
       -1   -1    0    0    0  501  0.00000000000E+00  0.00000000000E+00 -0.21057378232E+04  0.21057378232E+04  0.50400001928E-02 0. -1.
    10030    2    1    2    0    0  0.00000000000E+00  0.00000000000E+00 -0.80911001706E+03  0.34023656293E+04  0.33047591222E+04 0.  0.
        3    1    3    3  502    0  0.70664818705E+03  0.54114958440E+03  0.10287426680E+04  0.13603330548E+04  0.10100000352E+00 0.  1.
       -3    1    3    3    0  502 -0.70664818705E+03 -0.54114958440E+03 -0.18378526850E+04  0.20420325744E+04  0.10100000352E+00 0. -1.
</event>
<event>
 5   0  0.2875829E-07  0.3299373E+04  0.7818609E-02  0.8163055E-01
       -2   -1    0    0    0  501  0.00000000000E+00  0.00000000000E+00  0.14448474333E+04  0.14448474333E+04  0.25500000920E-02 0.  1.
        2   -1    0    0  501    0  0.00000000000E+00  0.00000000000E+00 -0.18835661869E+04  0.18835661869E+04  0.25500000920E-02 0. -1.
    10030    2    1    2    0    0  0.00000000000E+00  0.00000000000E+00 -0.43871875361E+03  0.33284136202E+04  0.32993731348E+04 0.  0.
        3    1    3    3  502    0  0.14278266808E+04  0.44906320850E+03 -0.91909195592E+03  0.17564386779E+04  0.10100000352E+00 0. -1.
       -3    1    3    3    0  502 -0.14278266808E+04 -0.44906320850E+03  0.48037320230E+03  0.15719749423E+04  0.10100000352E+00 0.  1.
</event>
<event>
 5   0  0.2713815E-07  0.3299279E+04  0.7818609E-02  0.8163079E-01
        2   -1    0    0  501    0  0.00000000000E+00  0.00000000000E+00  0.19646018395E+04  0.19646018395E+04  0.25500000920E-02 0. -1.
       -2   -1    0    0    0  501  0.00000000000E+00  0.00000000000E+00 -0.13851716371E+04  0.13851716371E+04  0.25500000920E-02 0.  1.
    10030    2    1    2    0    0  0.00000000000E+00  0.00000000000E+00  0.57943020238E+03  0.33497734766E+04  0.32992791615E+04 0.  0.
        4    1    3    3  502    0 -0.37414049720E+03 -0.26498590235E+03  0.18986159728E+04  0.19531878724E+04  0.12699999809E+01 0. -1.
       -4    1    3    3    0  502  0.37414049720E+03  0.26498590235E+03 -0.13191857704E+04  0.13965856042E+04  0.12699999809E+01 0.  1.
</event>
<event>
 5   0  0.2713815E-07  0.3295195E+04  0.7818609E-02  0.8164119E-01
       -2   -1    0    0    0  501  0.00000000000E+00  0.00000000000E+00  0.12470634213E+04  0.12470634213E+04  0.25500000920E-02 0.  1.
        2   -1    0    0  501    0  0.00000000000E+00  0.00000000000E+00 -0.21767754336E+04  0.21767754336E+04  0.25500000920E-02 0. -1.
    10030    2    1    2    0    0  0.00000000000E+00  0.00000000000E+00 -0.92971201231E+03  0.34238388549E+04  0.32951946950E+04 0.  0.
        4    1    3    3  502    0 -0.58730262849E+03 -0.12686043531E+04 -0.13708452153E+04  0.19579324807E+04  0.12699999809E+01 0. -1.
       -4    1    3    3    0  502  0.58730262849E+03  0.12686043531E+04  0.44113320296E+03  0.14659063741E+04  0.12699999809E+01 0.  1.
</event>
<event>
 5   0  0.8805125E-08  0.3298335E+04  0.7818609E-02  0.8163319E-01
       -1   -1    0    0    0  501  0.00000000000E+00  0.00000000000E+00  0.11172311040E+04  0.11172311040E+04  0.50400001928E-02 0. -1.
        1   -1    0    0  501    0  0.00000000000E+00  0.00000000000E+00 -0.24343699865E+04  0.24343699865E+04  0.50400001928E-02 0.  1.
    10030    2    1    2    0    0  0.00000000000E+00  0.00000000000E+00 -0.13171388826E+04  0.35516010905E+04  0.32983352574E+04 0.  0.
        4    1    3    3  502    0 -0.16186584289E+04  0.15925914626E+03 -0.36499234540E+03  0.16669251963E+04  0.12699999809E+01 0.  1.
       -4    1    3    3    0  502  0.16186584289E+04 -0.15925914626E+03 -0.95214653717E+03  0.18846758942E+04  0.12699999809E+01 0. -1.
</event>
<event>
 5   0  0.2824402E-07  0.3309347E+04  0.7818609E-02  0.8160521E-01
        2   -1    0    0  501    0  0.00000000000E+00  0.00000000000E+00  0.11203127861E+04  0.11203127861E+04  0.25500000920E-02 0.  1.
       -2   -1    0    0    0  501  0.00000000000E+00  0.00000000000E+00 -0.24439105931E+04  0.24439105931E+04  0.25500000920E-02 0. -1.
    10030    2    1    2    0    0  0.00000000000E+00  0.00000000000E+00 -0.13235978070E+04  0.35642233793E+04  0.33093469360E+04 0.  0.
        1    1    3    3  502    0 -0.12250357428E+04  0.10991524632E+04 -0.47808750458E+03  0.17138892527E+04  0.50400001928E-02 0.  1.
       -1    1    3    3    0  502  0.12250357428E+04 -0.10991524632E+04 -0.84551030238E+03  0.18503341266E+04  0.50400001928E-02 0. -1.
</event>
<event>
 5   0  0.9181760E-08  0.3346260E+04  0.7818609E-02  0.8151223E-01
       -1   -1    0    0    0  501  0.00000000000E+00  0.00000000000E+00  0.19519041364E+04  0.19519041364E+04  0.50400001928E-02 0. -1.
        1   -1    0    0  501    0  0.00000000000E+00  0.00000000000E+00 -0.14341704855E+04  0.14341704855E+04  0.50400001928E-02 0.  1.
    10030    2    1    2    0    0  0.00000000000E+00  0.00000000000E+00  0.51773365088E+03  0.33860746219E+04  0.33462595852E+04 0.  0.
        1    1    3    3  502    0 -0.23042356746E+03 -0.16503938428E+04  0.10718853862E+03  0.16698455736E+04  0.50400001928E-02 0.  1.
       -1    1    3    3    0  502  0.23042356746E+03  0.16503938428E+04  0.41054511225E+03  0.17162290483E+04  0.50400001928E-02 0. -1.
</event>
<event>
 5   0  0.9810351E-08  0.3296485E+04  0.7818609E-02  0.8163790E-01
       -1   -1    0    0    0  501  0.00000000000E+00  0.00000000000E+00  0.19688551916E+04  0.19688551916E+04  0.50400001928E-02 0. -1.
        1   -1    0    0  501    0  0.00000000000E+00  0.00000000000E+00 -0.13798387285E+04  0.13798387285E+04  0.50400001928E-02 0.  1.
    10030    2    1    2    0    0  0.00000000000E+00  0.00000000000E+00  0.58901646308E+03  0.33486939201E+04  0.32964845786E+04 0.  0.
        5    1    3    3  502    0  0.94267961768E+03 -0.63881463856E+03 -0.91598166338E+03  0.14614285825E+04  0.46999998093E+01 0.  1.
       -5    1    3    3    0  502 -0.94267961768E+03  0.63881463856E+03  0.15049981265E+04  0.18872653376E+04  0.46999998093E+01 0. -1.
</event>
<event>
 5   0  0.2824402E-07  0.3297552E+04  0.7818609E-02  0.8163519E-01
        2   -1    0    0  501    0  0.00000000000E+00  0.00000000000E+00  0.24182500583E+04  0.24182500583E+04  0.25500000920E-02 0.  1.
       -2   -1    0    0    0  501  0.00000000000E+00  0.00000000000E+00 -0.11241444577E+04  0.11241444577E+04  0.25500000920E-02 0. -1.
    10030    2    1    2    0    0  0.00000000000E+00  0.00000000000E+00  0.12941056007E+04  0.35423945160E+04  0.32975520619E+04 0.  0.
        1    1    3    3  502    0  0.14546689767E+03 -0.75853315487E+03 -0.91778999285E+03  0.11995297563E+04  0.50400001928E-02 0. -1.
       -1    1    3    3    0  502 -0.14546689767E+03  0.75853315487E+03  0.22118955935E+04  0.23428647596E+04  0.50400001928E-02 0.  1.
</event>
<event>
 5   0  0.9810351E-08  0.3302288E+04  0.7818609E-02  0.8162313E-01
       -1   -1    0    0    0  501  0.00000000000E+00  0.00000000000E+00  0.14187074624E+04  0.14187074624E+04  0.50400001928E-02 0. -1.
        1   -1    0    0  501    0  0.00000000000E+00  0.00000000000E+00 -0.19216626571E+04  0.19216626571E+04  0.50400001928E-02 0.  1.
    10030    2    1    2    0    0  0.00000000000E+00  0.00000000000E+00 -0.50295519473E+03  0.33403701195E+04  0.33022883895E+04 0.  0.
        5    1    3    3  502    0 -0.13071195590E+04 -0.81760006548E+03 -0.84924388463E+03  0.17601899540E+04  0.46999998093E+01 0.  1.
       -5    1    3    3    0  502  0.13071195590E+04  0.81760006548E+03  0.34628868990E+03  0.15801801655E+04  0.46999998093E+01 0. -1.
</event>
<event>
 5   0  0.9283910E-08  0.3305751E+04  0.7818609E-02  0.8161434E-01
        1   -1    0    0  501    0  0.00000000000E+00  0.00000000000E+00  0.25330202942E+04  0.25330202942E+04  0.50400001928E-02 0. -1.
       -1   -1    0    0    0  501  0.00000000000E+00  0.00000000000E+00 -0.10785533309E+04  0.10785533309E+04  0.50400001928E-02 0.  1.
    10030    2    1    2    0    0  0.00000000000E+00  0.00000000000E+00  0.14544669633E+04  0.36115736252E+04  0.33057510346E+04 0.  0.
        3    1    3    3  502    0 -0.56440645558E+03 -0.81880414698E+03 -0.71513208539E+03  0.12249117470E+04  0.10100000352E+00 0.  1.
       -3    1    3    3    0  502  0.56440645558E+03  0.81880414698E+03  0.21695990487E+04  0.23866618781E+04  0.10100000352E+00 0. -1.
</event>
<event>
 5   0  0.8805125E-08  0.3298793E+04  0.7818609E-02  0.8163203E-01
        1   -1    0    0  501    0  0.00000000000E+00  0.00000000000E+00  0.20971174528E+04  0.20971174528E+04  0.50400001928E-02 0. -1.
       -1   -1    0    0    0  501  0.00000000000E+00  0.00000000000E+00 -0.12972609725E+04  0.12972609725E+04  0.50400001928E-02 0.  1.
    10030    2    1    2    0    0  0.00000000000E+00  0.00000000000E+00  0.79985648036E+03  0.33943784253E+04  0.32987928861E+04 0.  0.
        4    1    3    3  502    0  0.56040503988E+03  0.11355500044E+04  0.14874245435E+04  0.19534484910E+04  0.12699999809E+01 0. -1.
       -4    1    3    3    0  502 -0.56040503988E+03 -0.11355500044E+04 -0.68756806317E+03  0.14409299343E+04  0.12699999809E+01 0.  1.
</event>
<event>
 5   0  0.2703956E-07  0.3296019E+04  0.7818609E-02  0.8163909E-01
       -2   -1    0    0    0  501  0.00000000000E+00  0.00000000000E+00  0.21879510995E+04  0.21879510995E+04  0.25500000920E-02 0.  1.
        2   -1    0    0  501    0  0.00000000000E+00  0.00000000000E+00 -0.12413145534E+04  0.12413145534E+04  0.25500000920E-02 0. -1.
    10030    2    1    2    0    0  0.00000000000E+00  0.00000000000E+00  0.94663654613E+03  0.34292656529E+04  0.32960191395E+04 0.  0.
        5    1    3    3  502    0 -0.25300597298E+03  0.11206867991E+04  0.17025911096E+04  0.20539692063E+04  0.46999998093E+01 0. -1.
       -5    1    3    3    0  502  0.25300597298E+03 -0.11206867991E+04 -0.75595456349E+03  0.13752964466E+04  0.46999998093E+01 0.  1.
</event>
<event>
 5   0  0.2824402E-07  0.3265279E+04  0.7818609E-02  0.8171787E-01
       -2   -1    0    0    0  501  0.00000000000E+00  0.00000000000E+00  0.14298295020E+04  0.14298295020E+04  0.25500000920E-02 0.  1.
        2   -1    0    0  501    0  0.00000000000E+00  0.00000000000E+00 -0.18642160106E+04  0.18642160106E+04  0.25500000920E-02 0. -1.
    10030    2    1    2    0    0  0.00000000000E+00  0.00000000000E+00 -0.43438650859E+03  0.32940455126E+04  0.32652785793E+04 0.  0.
        1    1    3    3  502    0  0.51276131296E+03 -0.52961555154E+03  0.12523815273E+04  0.14532296056E+04  0.50400001928E-02 0.  1.
       -1    1    3    3    0  502 -0.51276131296E+03  0.52961555154E+03 -0.16867680359E+04  0.18408159070E+04  0.50400001928E-02 0. -1.
</event>
<event>
 5   0  0.9454010E-08  0.3299236E+04  0.7818609E-02  0.8163090E-01
        1   -1    0    0  501    0  0.00000000000E+00  0.00000000000E+00  0.96943600867E+03  0.96943600868E+03  0.50400001928E-02 0.  1.
       -1   -1    0    0    0  501  0.00000000000E+00  0.00000000000E+00 -0.28070332455E+04  0.28070332455E+04  0.50400001928E-02 0. -1.
    10030    2    1    2    0    0  0.00000000000E+00  0.00000000000E+00 -0.18375972368E+04  0.37764692541E+04  0.32992357331E+04 0.  0.
        2    1    3    3  502    0  0.94560454591E+03  0.11324120665E+04 -0.17636044413E+04  0.22993098249E+04  0.25500000920E-02 0. -1.
       -2    1    3    3    0  502 -0.94560454591E+03 -0.11324120665E+04 -0.73992795455E+02  0.14771594292E+04  0.25500000920E-02 0.  1.
</event>
<event>
 5   0  0.9810351E-08  0.3305029E+04  0.7818609E-02  0.8161617E-01
        1   -1    0    0  501    0  0.00000000000E+00  0.00000000000E+00  0.13906101692E+04  0.13906101692E+04  0.50400001928E-02 0. -1.
       -1   -1    0    0    0  501  0.00000000000E+00  0.00000000000E+00 -0.19637449525E+04  0.19637449525E+04  0.50400001928E-02 0.  1.
    10030    2    1    2    0    0  0.00000000000E+00  0.00000000000E+00 -0.57313478331E+03  0.33543551218E+04  0.33050287144E+04 0.  0.
        5    1    3    3  502    0 -0.11465101818E+04  0.11132776830E+04 -0.71345007506E+03  0.17501159664E+04  0.46999998093E+01 0.  1.
       -5    1    3    3    0  502  0.11465101818E+04 -0.11132776830E+04  0.14031529175E+03  0.16042391553E+04  0.46999998093E+01 0. -1.
</event>
<event>
 5   0  0.2875829E-07  0.3297599E+04  0.7818609E-02  0.8163506E-01
       -2   -1    0    0    0  501  0.00000000000E+00  0.00000000000E+00  0.14248607286E+04  0.14248607286E+04  0.25500000920E-02 0. -1.
        2   -1    0    0  501    0  0.00000000000E+00  0.00000000000E+00 -0.19079341373E+04  0.19079341373E+04  0.25500000920E-02 0.  1.
    10030    2    1    2    0    0  0.00000000000E+00  0.00000000000E+00 -0.48307340872E+03  0.33327948659E+04  0.32975993844E+04 0.  0.
        3    1    3    3  502    0 -0.88912789819E+03  0.12645717111E+04 -0.82111200095E+03  0.17504042277E+04  0.10100000352E+00 0.  1.
       -3    1    3    3    0  502  0.88912789819E+03 -0.12645717111E+04  0.33803859223E+03  0.15823906382E+04  0.10100000352E+00 0. -1.
</event>
<event>
 5   0  0.2824402E-07  0.3297337E+04  0.7818609E-02  0.8163573E-01
        2   -1    0    0  501    0  0.00000000000E+00  0.00000000000E+00  0.22272976493E+04  0.22272976493E+04  0.25500000920E-02 0.  1.
       -2   -1    0    0    0  501  0.00000000000E+00  0.00000000000E+00 -0.12203609963E+04  0.12203609963E+04  0.25500000920E-02 0. -1.
    10030    2    1    2    0    0  0.00000000000E+00  0.00000000000E+00  0.10069366530E+04  0.34476586456E+04  0.32973366091E+04 0.  0.
        1    1    3    3  502    0 -0.99069532308E+03 -0.53223387217E+03  0.17639807707E+04  0.20919795117E+04  0.50400001928E-02 0.  1.
       -1    1    3    3    0  502  0.99069532308E+03  0.53223387217E+03 -0.75704411774E+03  0.13556791339E+04  0.50400001928E-02 0. -1.
</event>
<event>
 5   0  0.8805125E-08  0.3293143E+04  0.7818609E-02  0.8164642E-01
        3   -1    0    0  501    0  0.00000000000E+00  0.00000000000E+00  0.30944168244E+04  0.30944168261E+04  0.10100000352E+00 0. -1.
       -3   -1    0    0    0  501  0.00000000000E+00  0.00000000000E+00 -0.87615775969E+03  0.87615776551E+03  0.10100000352E+00 0.  1.
    10030    2    1    2    0    0  0.00000000000E+00  0.00000000000E+00  0.22182590647E+04  0.39705745916E+04  0.32931427708E+04 0.  0.
        5    1    3    3  502    0  0.89521910124E+03 -0.13581405077E+04  0.80123090251E+03  0.18132721602E+04  0.46999998093E+01 0.  1.
       -5    1    3    3    0  502 -0.89521910124E+03  0.13581405077E+04  0.14170281622E+04  0.21573024314E+04  0.46999998093E+01 0. -1.
</event>
<event>
 5   0  0.9454010E-08  0.3295212E+04  0.7818609E-02  0.8164115E-01
       -1   -1    0    0    0  501  0.00000000000E+00  0.00000000000E+00  0.92449195843E+03  0.92449195844E+03  0.50400001928E-02 0.  1.
        1   -1    0    0  501    0  0.00000000000E+00  0.00000000000E+00 -0.29363222533E+04  0.29363222533E+04  0.50400001928E-02 0. -1.
    10030    2    1    2    0    0  0.00000000000E+00  0.00000000000E+00 -0.20118302949E+04  0.38608142118E+04  0.32952124730E+04 0.  0.
        2    1    3    3  502    0  0.10548462361E+04 -0.66823882759E+03  0.25345859015E+03  0.12741604960E+04  0.25500000920E-02 0.  1.
       -2    1    3    3    0  502 -0.10548462361E+04  0.66823882759E+03 -0.22652888850E+04  0.25866537158E+04  0.25500000920E-02 0. -1.
</event>
<event>
 5   0  0.9810351E-08  0.3298264E+04  0.7818609E-02  0.8163337E-01
       -1   -1    0    0    0  501  0.00000000000E+00  0.00000000000E+00  0.13058308177E+04  0.13058308177E+04  0.50400001928E-02 0. -1.
        1   -1    0    0  501    0  0.00000000000E+00  0.00000000000E+00 -0.20826871049E+04  0.20826871049E+04  0.50400001928E-02 0.  1.
    10030    2    1    2    0    0  0.00000000000E+00  0.00000000000E+00 -0.77685628715E+03  0.33885179226E+04  0.32982643952E+04 0.  0.
        5    1    3    3  502    0 -0.45057480105E+03  0.14554307555E+04  0.25996677527E+03  0.15456070489E+04  0.46999998093E+01 0.  1.
       -5    1    3    3    0  502  0.45057480105E+03 -0.14554307555E+04 -0.10368230624E+04  0.18429108737E+04  0.46999998093E+01 0. -1.
</event>
<event>
 5   0  0.9454010E-08  0.3303091E+04  0.7818609E-02  0.8162109E-01
       -1   -1    0    0    0  501  0.00000000000E+00  0.00000000000E+00  0.14926409165E+04  0.14926409165E+04  0.50400001928E-02 0.  1.
        1   -1    0    0  501    0  0.00000000000E+00  0.00000000000E+00 -0.18273670008E+04  0.18273670009E+04  0.50400001928E-02 0. -1.
    10030    2    1    2    0    0  0.00000000000E+00  0.00000000000E+00 -0.33472608437E+03  0.33200079173E+04  0.33030911310E+04 0.  0.
        2    1    3    3  502    0  0.24021205941E+03  0.16338879732E+04 -0.18508890979E+03  0.16617910961E+04  0.25500000920E-02 0. -1.
       -2    1    3    3    0  502 -0.24021205941E+03 -0.16338879732E+04 -0.14963717458E+03  0.16582168213E+04  0.25500000920E-02 0.  1.
</event>
<event>
 5   0  0.9810351E-08  0.3295364E+04  0.7818609E-02  0.8164076E-01
       -1   -1    0    0    0  501  0.00000000000E+00  0.00000000000E+00  0.14980096098E+04  0.14980096098E+04  0.50400001928E-02 0. -1.
        1   -1    0    0  501    0  0.00000000000E+00  0.00000000000E+00 -0.18123090662E+04  0.18123090662E+04  0.50400001928E-02 0.  1.
    10030    2    1    2    0    0  0.00000000000E+00  0.00000000000E+00 -0.31429945643E+03  0.33103186760E+04  0.32953642573E+04 0.  0.
        5    1    3    3  502    0 -0.34861105954E+03 -0.70697887821E+03  0.12963044883E+04  0.15171605787E+04  0.46999998093E+01 0. -1.
       -5    1    3    3    0  502  0.34861105954E+03  0.70697887821E+03 -0.16106039447E+04  0.17931580973E+04  0.46999998093E+01 0.  1.
</event>
<event>
 5   0  0.9454010E-08  0.3295574E+04  0.7818609E-02  0.8164022E-01
        1   -1    0    0  501    0  0.00000000000E+00  0.00000000000E+00  0.25019273801E+04  0.25019273801E+04  0.50400001928E-02 0.  1.
       -1   -1    0    0    0  501  0.00000000000E+00  0.00000000000E+00 -0.10852444469E+04  0.10852444469E+04  0.50400001928E-02 0. -1.
    10030    2    1    2    0    0  0.00000000000E+00  0.00000000000E+00  0.14166829332E+04  0.35871718270E+04  0.32955744846E+04 0.  0.
        2    1    3    3  502    0  0.30806933716E+03 -0.11178700946E+03 -0.10494128271E+04  0.10993954401E+04  0.25500000920E-02 0. -1.
       -2    1    3    3    0  502 -0.30806933716E+03  0.11178700946E+03  0.24660957603E+04  0.24877763869E+04  0.25500000920E-02 0.  1.
</event>
<event>
 5   0  0.2875829E-07  0.3294325E+04  0.7818609E-02  0.8164341E-01
       -2   -1    0    0    0  501  0.00000000000E+00  0.00000000000E+00  0.99863657693E+03  0.99863657693E+03  0.25500000920E-02 0.  1.
        2   -1    0    0  501    0  0.00000000000E+00  0.00000000000E+00 -0.27168481890E+04  0.27168481890E+04  0.25500000920E-02 0. -1.
    10030    2    1    2    0    0  0.00000000000E+00  0.00000000000E+00 -0.17182116121E+04  0.37154847659E+04  0.32943248021E+04 0.  0.
        3    1    3    3  502    0 -0.12051874341E+04  0.10781923097E+04 -0.50573125213E+03  0.16943256823E+04  0.10100000352E+00 0.  1.
       -3    1    3    3    0  502  0.12051874341E+04 -0.10781923097E+04 -0.12124803599E+04  0.20211590837E+04  0.10100000352E+00 0. -1.
</event>
<event>
 5   0  0.2727168E-07  0.3302478E+04  0.7818609E-02  0.8162265E-01
       -2   -1    0    0    0  501  0.00000000000E+00  0.00000000000E+00  0.19153545140E+04  0.19153545140E+04  0.25500000920E-02 0.  1.
        2   -1    0    0  501    0  0.00000000000E+00  0.00000000000E+00 -0.14235433511E+04  0.14235433511E+04  0.25500000920E-02 0. -1.
    10030    2    1    2    0    0  0.00000000000E+00  0.00000000000E+00  0.49181116286E+03  0.33388978651E+04  0.33024779687E+04 0.  0.
        2    1    3    3  502    0 -0.99320604380E+03 -0.10034752588E+04  0.11116014678E+04  0.17969637347E+04  0.25500000920E-02 0.  1.
       -2    1    3    3    0  502  0.99320604380E+03  0.10034752588E+04 -0.61979030492E+03  0.15419341304E+04  0.25500000920E-02 0. -1.
</event>
<event>
 5   0  0.2824402E-07  0.3297150E+04  0.7818609E-02  0.8163621E-01
        2   -1    0    0  501    0  0.00000000000E+00  0.00000000000E+00  0.17251331711E+04  0.17251331711E+04  0.25500000920E-02 0. -1.
       -2   -1    0    0    0  501  0.00000000000E+00  0.00000000000E+00 -0.15754145881E+04  0.15754145881E+04  0.25500000920E-02 0.  1.
    10030    2    1    2    0    0  0.00000000000E+00  0.00000000000E+00  0.14971858303E+03  0.33005477592E+04  0.32971502630E+04 0.  0.
        1    1    3    3  502    0 -0.25553534250E+03  0.46730219278E+02  0.17045165284E+04  0.17241979644E+04  0.50400001928E-02 0. -1.
       -1    1    3    3    0  502  0.25553534250E+03 -0.46730219278E+02 -0.15547979454E+04  0.15763497949E+04  0.50400001928E-02 0.  1.
</event>
<event>
 5   0  0.9454010E-08  0.3293701E+04  0.7818609E-02  0.8164500E-01
       -1   -1    0    0    0  501  0.00000000000E+00  0.00000000000E+00  0.13835660336E+04  0.13835660336E+04  0.50400001928E-02 0. -1.
        1   -1    0    0  501    0  0.00000000000E+00  0.00000000000E+00 -0.19602363734E+04  0.19602363734E+04  0.50400001928E-02 0.  1.
    10030    2    1    2    0    0  0.00000000000E+00  0.00000000000E+00 -0.57667033977E+03  0.33438024070E+04  0.32937009361E+04 0.  0.
        2    1    3    3  502    0  0.65304964894E+03  0.75875632554E+03 -0.16158696015E+04  0.19008470677E+04  0.25500000920E-02 0.  1.
       -2    1    3    3    0  502 -0.65304964894E+03 -0.75875632554E+03  0.10391992618E+04  0.14429553393E+04  0.25500000920E-02 0. -1.
</event>
<event>
 5   0  0.2713815E-07  0.3300920E+04  0.7818609E-02  0.8162661E-01
        2   -1    0    0  501    0  0.00000000000E+00  0.00000000000E+00  0.19666725284E+04  0.19666725284E+04  0.25500000920E-02 0. -1.
       -2   -1    0    0    0  501  0.00000000000E+00  0.00000000000E+00 -0.13850900058E+04  0.13850900058E+04  0.25500000920E-02 0.  1.
    10030    2    1    2    0    0  0.00000000000E+00  0.00000000000E+00  0.58158252265E+03  0.33517625342E+04  0.33009201527E+04 0.  0.
        4    1    3    3  502    0 -0.11366642141E+04 -0.14847792145E+03 -0.91491768918E+03  0.14666721582E+04  0.12699999809E+01 0.  1.
       -4    1    3    3    0  502  0.11366642141E+04  0.14847792145E+03  0.14965002118E+04  0.18850903760E+04  0.12699999809E+01 0. -1.
</event>
<event>
 5   0  0.9181760E-08  0.3298799E+04  0.7818609E-02  0.8163201E-01
        1   -1    0    0  501    0  0.00000000000E+00  0.00000000000E+00  0.15294871588E+04  0.15294871588E+04  0.50400001928E-02 0. -1.
       -1   -1    0    0    0  501  0.00000000000E+00  0.00000000000E+00 -0.17787134190E+04  0.17787134190E+04  0.50400001928E-02 0.  1.
    10030    2    1    2    0    0  0.00000000000E+00  0.00000000000E+00 -0.24922626020E+03  0.33082005778E+04  0.32987993777E+04 0.  0.
        1    1    3    3  502    0  0.34490449999E+03  0.12872099020E+04 -0.10993145477E+04  0.17275302952E+04  0.50400001928E-02 0.  1.
       -1    1    3    3    0  502 -0.34490449999E+03 -0.12872099020E+04  0.85008828751E+03  0.15806702827E+04  0.50400001928E-02 0. -1.
</event>
<event>
 5   0  0.8805125E-08  0.3326485E+04  0.7818609E-02  0.8156189E-01
       -1   -1    0    0    0  501  0.00000000000E+00  0.00000000000E+00  0.12535425359E+04  0.12535425359E+04  0.50400001928E-02 0. -1.
        1   -1    0    0  501    0  0.00000000000E+00  0.00000000000E+00 -0.22068455979E+04  0.22068455979E+04  0.50400001928E-02 0.  1.
    10030    2    1    2    0    0  0.00000000000E+00  0.00000000000E+00 -0.95330306201E+03  0.34603881337E+04  0.33264845270E+04 0.  0.
        4    1    3    3  502    0  0.67898141584E+03  0.60229005469E+03 -0.19265295358E+04  0.21296212664E+04  0.12699999809E+01 0.  1.
       -4    1    3    3    0  502 -0.67898141584E+03 -0.60229005469E+03  0.97322647380E+03  0.13307668674E+04  0.12699999809E+01 0. -1.
</event>
<event>
 5   0  0.2875829E-07  0.3300288E+04  0.7818609E-02  0.8162822E-01
       -2   -1    0    0    0  501  0.00000000000E+00  0.00000000000E+00  0.11381407744E+04  0.11381407744E+04  0.25500000920E-02 0.  1.
        2   -1    0    0  501    0  0.00000000000E+00  0.00000000000E+00 -0.23924764865E+04  0.23924764865E+04  0.25500000920E-02 0. -1.
    10030    2    1    2    0    0  0.00000000000E+00  0.00000000000E+00 -0.12543357121E+04  0.35306172609E+04  0.33002878911E+04 0.  0.
        3    1    3    3  502    0 -0.14747462061E+04  0.71004049930E+03 -0.85141892075E+03  0.18449791521E+04  0.10100000352E+00 0. -1.
       -3    1    3    3    0  502  0.14747462061E+04 -0.71004049930E+03 -0.40291679135E+03  0.16856381088E+04  0.10100000352E+00 0.  1.
</event>
<event>
 5   0  0.9810351E-08  0.3281571E+04  0.7818609E-02  0.8167601E-01
       -1   -1    0    0    0  501  0.00000000000E+00  0.00000000000E+00  0.11979507590E+04  0.11979507590E+04  0.50400001928E-02 0.  1.
        1   -1    0    0  501    0  0.00000000000E+00  0.00000000000E+00 -0.22473181677E+04  0.22473181677E+04  0.50400001928E-02 0. -1.
    10030    2    1    2    0    0  0.00000000000E+00  0.00000000000E+00 -0.10493674087E+04  0.34452689266E+04  0.32815706633E+04 0.  0.
        5    1    3    3  502    0  0.88373441145E+03 -0.13529559518E+04 -0.22647577295E+03  0.16318056511E+04  0.46999998093E+01 0.  1.
       -5    1    3    3    0  502 -0.88373441145E+03  0.13529559518E+04 -0.82289163576E+03  0.18134632755E+04  0.46999998093E+01 0. -1.
</event>
<event>
 5   0  0.2875829E-07  0.3304294E+04  0.7818609E-02  0.8161804E-01
       -2   -1    0    0    0  501  0.00000000000E+00  0.00000000000E+00  0.99938585910E+03  0.99938585911E+03  0.25500000920E-02 0.  1.
        2   -1    0    0  501    0  0.00000000000E+00  0.00000000000E+00 -0.27312678961E+04  0.27312678961E+04  0.25500000920E-02 0. -1.
    10030    2    1    2    0    0  0.00000000000E+00  0.00000000000E+00 -0.17318820370E+04  0.37306537552E+04  0.33042944862E+04 0.  0.
        3    1    3    3  502    0  0.22312534399E+03  0.25354931327E+03  0.95999300858E+03  0.10176732089E+04  0.10100000352E+00 0.  1.
       -3    1    3    3    0  502 -0.22312534399E+03 -0.25354931327E+03 -0.26918750456E+04  0.27129805463E+04  0.10100000352E+00 0. -1.
</event>
<event>
 5   0  0.8805125E-08  0.3280023E+04  0.7818609E-02  0.8167997E-01
        1   -1    0    0  501    0  0.00000000000E+00  0.00000000000E+00  0.10023912002E+04  0.10023912003E+04  0.50400001928E-02 0.  1.
       -1   -1    0    0    0  501  0.00000000000E+00  0.00000000000E+00 -0.26832218357E+04  0.26832218357E+04  0.50400001928E-02 0. -1.
    10030    2    1    2    0    0  0.00000000000E+00  0.00000000000E+00 -0.16808306355E+04  0.36856130360E+04  0.32800231441E+04 0.  0.
        4    1    3    3  502    0  0.52629880031E+03  0.77272237552E+03 -0.23544522226E+04  0.25332858462E+04  0.12699999809E+01 0. -1.
       -4    1    3    3    0  502 -0.52629880031E+03 -0.77272237552E+03  0.67362158715E+03  0.11523271898E+04  0.12699999809E+01 0.  1.
</event>
<event>
 5   0  0.9810351E-08  0.3298767E+04  0.7818609E-02  0.8163209E-01
        1   -1    0    0  501    0  0.00000000000E+00  0.00000000000E+00  0.88299447161E+03  0.88299447163E+03  0.50400001928E-02 0. -1.
       -1   -1    0    0    0  501  0.00000000000E+00  0.00000000000E+00 -0.30809543911E+04  0.30809543911E+04  0.50400001928E-02 0.  1.
    10030    2    1    2    0    0  0.00000000000E+00  0.00000000000E+00 -0.21979599195E+04  0.39639488627E+04  0.32987668573E+04 0.  0.
        5    1    3    3  502    0 -0.58919831752E+03  0.25078410213E+03  0.72751996682E+03  0.96920313422E+03  0.46999998093E+01 0. -1.
       -5    1    3    3    0  502  0.58919831752E+03 -0.25078410213E+03 -0.29254798863E+04  0.29947457285E+04  0.46999998093E+01 0.  1.
</event>
<event>
 5   0  0.2703956E-07  0.3293567E+04  0.7818609E-02  0.8164534E-01
       -2   -1    0    0    0  501  0.00000000000E+00  0.00000000000E+00  0.28349303580E+04  0.28349303580E+04  0.25500000920E-02 0.  1.
        2   -1    0    0  501    0  0.00000000000E+00  0.00000000000E+00 -0.95660077009E+03  0.95660077009E+03  0.25500000920E-02 0. -1.
    10030    2    1    2    0    0  0.00000000000E+00  0.00000000000E+00  0.18783295879E+04  0.37915311281E+04  0.32935674055E+04 0.  0.
        5    1    3    3  502    0  0.17914828809E+03  0.16363413566E+04  0.88557149131E+03  0.18692153703E+04  0.46999998093E+01 0.  1.
       -5    1    3    3    0  502 -0.17914828809E+03 -0.16363413566E+04  0.99275809658E+03  0.19223157578E+04  0.46999998093E+01 0. -1.
</event>
<event>
 5   0  0.9181760E-08  0.3297260E+04  0.7818609E-02  0.8163593E-01
       -1   -1    0    0    0  501  0.00000000000E+00  0.00000000000E+00  0.15179765711E+04  0.15179765711E+04  0.50400001928E-02 0. -1.
        1   -1    0    0  501    0  0.00000000000E+00  0.00000000000E+00 -0.17905293585E+04  0.17905293585E+04  0.50400001928E-02 0.  1.
    10030    2    1    2    0    0  0.00000000000E+00  0.00000000000E+00 -0.27255278736E+03  0.33085059296E+04  0.32972604484E+04 0.  0.
        1    1    3    3  502    0 -0.34481505642E+03 -0.49231700491E+03  0.14041167147E+04  0.15273562796E+04  0.50400001928E-02 0. -1.
       -1    1    3    3    0  502  0.34481505642E+03  0.49231700491E+03 -0.16766695021E+04  0.17811496500E+04  0.50400001928E-02 0.  1.
</event>
<event>
 5   0  0.2703956E-07  0.3306732E+04  0.7818609E-02  0.8161185E-01
       -2   -1    0    0    0  501  0.00000000000E+00  0.00000000000E+00  0.17915199650E+04  0.17915199650E+04  0.25500000920E-02 0. -1.
        2   -1    0    0  501    0  0.00000000000E+00  0.00000000000E+00 -0.15258658890E+04  0.15258658890E+04  0.25500000920E-02 0.  1.
    10030    2    1    2    0    0  0.00000000000E+00  0.00000000000E+00  0.26565407601E+03  0.33173858540E+04  0.33067320449E+04 0.  0.
        5    1    3    3  502    0 -0.62073520765E+03  0.13019457471E+04 -0.67799855481E+03  0.15937625472E+04  0.46999998093E+01 0.  1.
       -5    1    3    3    0  502  0.62073520765E+03 -0.13019457471E+04  0.94365263082E+03  0.17236233069E+04  0.46999998093E+01 0. -1.
</event>
<event>
 5   0  0.9454010E-08  0.3291962E+04  0.7818609E-02  0.8164944E-01
       -1   -1    0    0    0  501  0.00000000000E+00  0.00000000000E+00  0.32317775201E+04  0.32317775201E+04  0.50400001928E-02 0. -1.
        1   -1    0    0  501    0  0.00000000000E+00  0.00000000000E+00 -0.83831702600E+03  0.83831702601E+03  0.50400001928E-02 0.  1.
    10030    2    1    2    0    0  0.00000000000E+00  0.00000000000E+00  0.23934604941E+04  0.40700945461E+04  0.32919624053E+04 0.  0.
        2    1    3    3  502    0 -0.13425398169E+04  0.94824299068E+03  0.10884067950E+04  0.19713465654E+04  0.25500000920E-02 0. -1.
       -2    1    3    3    0  502  0.13425398169E+04 -0.94824299068E+03  0.13050536991E+04  0.20987479808E+04  0.25500000920E-02 0.  1.
</event>
<event>
 5   0  0.9283910E-08  0.3301107E+04  0.7818609E-02  0.8162614E-01
        1   -1    0    0  501    0  0.00000000000E+00  0.00000000000E+00  0.23011462863E+04  0.23011462863E+04  0.50400001928E-02 0.  1.
       -1   -1    0    0    0  501  0.00000000000E+00  0.00000000000E+00 -0.11839001208E+04  0.11839001208E+04  0.50400001928E-02 0. -1.
    10030    2    1    2    0    0  0.00000000000E+00  0.00000000000E+00  0.11172461655E+04  0.34850464071E+04  0.33011073090E+04 0.  0.
        3    1    3    3  502    0 -0.70442699157E+03 -0.10282716777E+04  0.17009337182E+04  0.21087284210E+04  0.10100000352E+00 0.  1.
       -3    1    3    3    0  502  0.70442699157E+03  0.10282716777E+04 -0.58368755270E+03  0.13763179861E+04  0.10100000352E+00 0. -1.
</event>
<event>
 5   0  0.9810351E-08  0.3303007E+04  0.7818609E-02  0.8162131E-01
        1   -1    0    0  501    0  0.00000000000E+00  0.00000000000E+00  0.88145279556E+03  0.88145279558E+03  0.50400001928E-02 0. -1.
       -1   -1    0    0    0  501  0.00000000000E+00  0.00000000000E+00 -0.30942822795E+04  0.30942822796E+04  0.50400001928E-02 0.  1.
    10030    2    1    2    0    0  0.00000000000E+00  0.00000000000E+00 -0.22128294840E+04  0.39757350751E+04  0.33030069728E+04 0.  0.
        5    1    3    3  502    0 -0.39168167101E+03  0.15980923007E+04 -0.93564544167E+03  0.18928201223E+04  0.46999998093E+01 0. -1.
       -5    1    3    3    0  502  0.39168167101E+03 -0.15980923007E+04 -0.12771840423E+04  0.20829149528E+04  0.46999998093E+01 0.  1.
</event>
<event>
 5   0  0.2727168E-07  0.3293374E+04  0.7818609E-02  0.8164583E-01
        2   -1    0    0  501    0  0.00000000000E+00  0.00000000000E+00  0.15205171127E+04  0.15205171127E+04  0.25500000920E-02 0.  1.
       -2   -1    0    0    0  501  0.00000000000E+00  0.00000000000E+00 -0.17833267384E+04  0.17833267384E+04  0.25500000920E-02 0. -1.
    10030    2    1    2    0    0  0.00000000000E+00  0.00000000000E+00 -0.26280962575E+03  0.33038438511E+04  0.32933744538E+04 0.  0.
        2    1    3    3  502    0 -0.12194253966E+04 -0.41156261036E+03  0.89908836691E+03  0.15699496717E+04  0.25500000920E-02 0.  1.
       -2    1    3    3    0  502  0.12194253966E+04  0.41156261036E+03 -0.11618979927E+04  0.17338941794E+04  0.25500000920E-02 0. -1.
</event>
<event>
 5   0  0.2824402E-07  0.3302769E+04  0.7818609E-02  0.8162191E-01
       -2   -1    0    0    0  501  0.00000000000E+00  0.00000000000E+00  0.25536337622E+04  0.25536337622E+04  0.25500000920E-02 0. -1.
        2   -1    0    0  501    0  0.00000000000E+00  0.00000000000E+00 -0.10679174406E+04  0.10679174406E+04  0.25500000920E-02 0.  1.
    10030    2    1    2    0    0  0.00000000000E+00  0.00000000000E+00  0.14857163216E+04  0.36215512028E+04  0.33027685547E+04 0.  0.
        1    1    3    3  502    0  0.10422534091E+04  0.75568679409E+03  0.18769561984E+04  0.22760314739E+04  0.50400001928E-02 0. -1.
       -1    1    3    3    0  502 -0.10422534091E+04 -0.75568679409E+03 -0.39123987680E+03  0.13455197289E+04  0.50400001928E-02 0.  1.
</event>
<event>
 5   0  0.9181760E-08  0.3316380E+04  0.7818609E-02  0.8158740E-01
       -1   -1    0    0    0  501  0.00000000000E+00  0.00000000000E+00  0.15156638078E+04  0.15156638078E+04  0.50400001928E-02 0.  1.
        1   -1    0    0  501    0  0.00000000000E+00  0.00000000000E+00 -0.18141186970E+04  0.18141186970E+04  0.50400001928E-02 0. -1.
    10030    2    1    2    0    0  0.00000000000E+00  0.00000000000E+00 -0.29845488919E+03  0.33297825048E+04  0.33163799855E+04 0.  0.
        1    1    3    3  502    0  0.29659988392E+03  0.56188932155E+03  0.13885964422E+04  0.15270531032E+04  0.50400001928E-02 0.  1.
       -1    1    3    3    0  502 -0.29659988392E+03 -0.56188932155E+03 -0.16870513313E+04  0.18027294016E+04  0.50400001928E-02 0. -1.
</event>
<event>
 5   0  0.9283910E-08  0.3298867E+04  0.7818609E-02  0.8163184E-01
        1   -1    0    0  501    0  0.00000000000E+00  0.00000000000E+00  0.16498520199E+04  0.16498520199E+04  0.50400001928E-02 0. -1.
       -1   -1    0    0    0  501  0.00000000000E+00  0.00000000000E+00 -0.16490146860E+04  0.16490146860E+04  0.50400001928E-02 0.  1.
    10030    2    1    2    0    0  0.00000000000E+00  0.00000000000E+00  0.83733384164E+00  0.32988667059E+04  0.32988665996E+04 0.  0.
        3    1    3    3  502    0 -0.10430089388E+04  0.28371257464E+03  0.12463198784E+04  0.16497495934E+04  0.10100000352E+00 0. -1.
       -3    1    3    3    0  502  0.10430089388E+04 -0.28371257464E+03 -0.12454825446E+04  0.16491171124E+04  0.10100000352E+00 0.  1.
</event>
<event>
 5   0  0.9283910E-08  0.3309287E+04  0.7818609E-02  0.8160536E-01
       -1   -1    0    0    0  501  0.00000000000E+00  0.00000000000E+00  0.11944836083E+04  0.11944836083E+04  0.50400001928E-02 0.  1.
        1   -1    0    0  501    0  0.00000000000E+00  0.00000000000E+00 -0.22920738782E+04  0.22920738782E+04  0.50400001928E-02 0. -1.
    10030    2    1    2    0    0  0.00000000000E+00  0.00000000000E+00 -0.10975902699E+04  0.34865574865E+04  0.33092867368E+04 0.  0.
        3    1    3    3  502    0  0.11186565795E+04 -0.11322860720E+04 -0.72493549547E+02  0.15933360024E+04  0.10100000352E+00 0.  1.
       -3    1    3    3    0  502 -0.11186565795E+04  0.11322860720E+04 -0.10250967203E+04  0.18932214841E+04  0.10100000352E+00 0. -1.
</event>
<event>
 5   0  0.8805125E-08  0.3254422E+04  0.7818609E-02  0.8174590E-01
        1   -1    0    0  501    0  0.00000000000E+00  0.00000000000E+00  0.16639245741E+04  0.16639245741E+04  0.50400001928E-02 0. -1.
       -1   -1    0    0    0  501  0.00000000000E+00  0.00000000000E+00 -0.15913077037E+04  0.15913077037E+04  0.50400001928E-02 0.  1.
    10030    2    1    2    0    0  0.00000000000E+00  0.00000000000E+00  0.72616870340E+02  0.32552322778E+04  0.32544222179E+04 0.  0.
        4    1    3    3  502    0  0.10363603390E+04 -0.11359760136E+04 -0.49611169006E+03  0.16157390500E+04  0.12699999809E+01 0. -1.
       -4    1    3    3    0  502 -0.10363603390E+04  0.11359760136E+04  0.56872856040E+03  0.16394932278E+04  0.12699999809E+01 0.  1.
</event>
<event>
 5   0  0.2824402E-07  0.3327221E+04  0.7818609E-02  0.8156003E-01
        2   -1    0    0  501    0  0.00000000000E+00  0.00000000000E+00  0.21011130971E+04  0.21011130971E+04  0.25500000920E-02 0.  1.
       -2   -1    0    0    0  501  0.00000000000E+00  0.00000000000E+00 -0.13172067006E+04  0.13172067006E+04  0.25500000920E-02 0. -1.
    10030    2    1    2    0    0  0.00000000000E+00  0.00000000000E+00  0.78390639647E+03  0.34183197977E+04  0.33272212131E+04 0.  0.
        1    1    3    3  502    0 -0.98276723574E+03 -0.13098678974E+04  0.90640202374E+02  0.16400612777E+04  0.50400001928E-02 0.  1.
       -1    1    3    3    0  502  0.98276723574E+03  0.13098678974E+04  0.69326619410E+03  0.17782585201E+04  0.50400001928E-02 0. -1.
</event>
<event>
 5   0  0.2875829E-07  0.3289002E+04  0.7818609E-02  0.8165699E-01
        2   -1    0    0  501    0  0.00000000000E+00  0.00000000000E+00  0.23060991173E+04  0.23060991173E+04  0.25500000920E-02 0. -1.
       -2   -1    0    0    0  501  0.00000000000E+00  0.00000000000E+00 -0.11727091953E+04  0.11727091953E+04  0.25500000920E-02 0.  1.
    10030    2    1    2    0    0  0.00000000000E+00  0.00000000000E+00  0.11333899220E+04  0.34788083126E+04  0.32890020615E+04 0.  0.
        3    1    3    3  502    0  0.13180482792E+04  0.10668494669E+03  0.16007381125E+04  0.20762936833E+04  0.10100000352E+00 0. -1.
       -3    1    3    3    0  502 -0.13180482792E+04 -0.10668494669E+03 -0.46734819054E+03  0.14025146293E+04  0.10100000352E+00 0.  1.
</event>
<event>
 5   0  0.9283910E-08  0.3262627E+04  0.7818609E-02  0.8172471E-01
       -1   -1    0    0    0  501  0.00000000000E+00  0.00000000000E+00  0.29364930732E+04  0.29364930732E+04  0.50400001928E-02 0.  1.
        1   -1    0    0  501    0  0.00000000000E+00  0.00000000000E+00 -0.90624568046E+03  0.90624568047E+03  0.50400001928E-02 0. -1.
    10030    2    1    2    0    0  0.00000000000E+00  0.00000000000E+00  0.20302473927E+04  0.38427387537E+04  0.32626272624E+04 0.  0.
        3    1    3    3  502    0 -0.88390770370E+03  0.11867318133E+04  0.20632324471E+03  0.14940530503E+04  0.10100000352E+00 0. -1.
       -3    1    3    3    0  502  0.88390770370E+03 -0.11867318133E+04  0.18239241480E+04  0.23486857034E+04  0.10100000352E+00 0.  1.
</event>
<event>
 5   0  0.2713815E-07  0.3295911E+04  0.7818609E-02  0.8163937E-01
        2   -1    0    0  501    0  0.00000000000E+00  0.00000000000E+00  0.20656904417E+04  0.20656904417E+04  0.25500000920E-02 0. -1.
       -2   -1    0    0    0  501  0.00000000000E+00  0.00000000000E+00 -0.13146970309E+04  0.13146970309E+04  0.25500000920E-02 0.  1.
    10030    2    1    2    0    0  0.00000000000E+00  0.00000000000E+00  0.75099341082E+03  0.33803874727E+04  0.32959108547E+04 0.  0.
        4    1    3    3  502    0 -0.18625619033E+03 -0.76344497267E+03 -0.11101519423E+04  0.13601391629E+04  0.12699999809E+01 0.  1.
       -4    1    3    3    0  502  0.18625619033E+03  0.76344497267E+03  0.18611453531E+04  0.20202483097E+04  0.12699999809E+01 0. -1.
</event>
<event>
 5   0  0.9283910E-08  0.3333101E+04  0.7818609E-02  0.8154524E-01
       -1   -1    0    0    0  501  0.00000000000E+00  0.00000000000E+00  0.17771787043E+04  0.17771787043E+04  0.50400001928E-02 0. -1.
        1   -1    0    0  501    0  0.00000000000E+00  0.00000000000E+00 -0.15628087945E+04  0.15628087945E+04  0.50400001928E-02 0.  1.
    10030    2    1    2    0    0  0.00000000000E+00  0.00000000000E+00  0.21436990985E+03  0.33399874988E+04  0.33331009637E+04 0.  0.
        3    1    3    3  502    0  0.29457772842E+03  0.10285034111E+03  0.17476489681E+04  0.17752834018E+04  0.10100000352E+00 0. -1.
       -3    1    3    3    0  502 -0.29457772842E+03 -0.10285034111E+03 -0.15332790582E+04  0.15647040971E+04  0.10100000352E+00 0.  1.
</event>
<event>
 5   0  0.9283910E-08  0.3299514E+04  0.7818609E-02  0.8163019E-01
       -1   -1    0    0    0  501  0.00000000000E+00  0.00000000000E+00  0.13155574431E+04  0.13155574431E+04  0.50400001928E-02 0.  1.
        1   -1    0    0  501    0  0.00000000000E+00  0.00000000000E+00 -0.20688550746E+04  0.20688550746E+04  0.50400001928E-02 0. -1.
    10030    2    1    2    0    0  0.00000000000E+00  0.00000000000E+00 -0.75329763148E+03  0.33844125177E+04  0.32995137170E+04 0.  0.
        3    1    3    3  502    0 -0.66724551636E+03 -0.20760364745E+03  0.11562547824E+04  0.13510147984E+04  0.10100000352E+00 0.  1.
       -3    1    3    3    0  502  0.66724551636E+03  0.20760364745E+03 -0.19095524139E+04  0.20333977193E+04  0.10100000352E+00 0. -1.
</event>
<event>
 5   0  0.2703956E-07  0.3296989E+04  0.7818609E-02  0.8163662E-01
        2   -1    0    0  501    0  0.00000000000E+00  0.00000000000E+00  0.23052339516E+04  0.23052339516E+04  0.25500000920E-02 0. -1.
       -2   -1    0    0    0  501  0.00000000000E+00  0.00000000000E+00 -0.11788538924E+04  0.11788538924E+04  0.25500000920E-02 0.  1.
    10030    2    1    2    0    0  0.00000000000E+00  0.00000000000E+00  0.11263800592E+04  0.34840878440E+04  0.32969889394E+04 0.  0.
        5    1    3    3  502    0  0.13276863965E+03  0.46006018444E+03 -0.11037377470E+04  0.12031383915E+04  0.46999998093E+01 0.  1.
       -5    1    3    3    0  502 -0.13276863965E+03 -0.46006018444E+03  0.22301178062E+04  0.22809494525E+04  0.46999998093E+01 0. -1.
</event>
<event>
 5   0  0.8805125E-08  0.3288004E+04  0.7818609E-02  0.8165955E-01
       -1   -1    0    0    0  501  0.00000000000E+00  0.00000000000E+00  0.10460540225E+04  0.10460540225E+04  0.50400001928E-02 0. -1.
        1   -1    0    0  501    0  0.00000000000E+00  0.00000000000E+00 -0.25837496900E+04  0.25837496900E+04  0.50400001928E-02 0.  1.
    10030    2    1    2    0    0  0.00000000000E+00  0.00000000000E+00 -0.15376956675E+04  0.36298037126E+04  0.32880035015E+04 0.  0.
        4    1    3    3  502    0  0.93189215344E+03 -0.33620859429E+03  0.67951292226E+03  0.12013320228E+04  0.12699999809E+01 0. -1.
       -4    1    3    3    0  502 -0.93189215344E+03  0.33620859429E+03 -0.22172085898E+04  0.24284716898E+04  0.12699999809E+01 0.  1.
</event>
<event>
 5   0  0.9283910E-08  0.3268660E+04  0.7818609E-02  0.8170916E-01
        1   -1    0    0  501    0  0.00000000000E+00  0.00000000000E+00  0.21795668467E+04  0.21795668467E+04  0.50400001928E-02 0.  1.
       -1   -1    0    0    0  501  0.00000000000E+00  0.00000000000E+00 -0.12254886554E+04  0.12254886554E+04  0.50400001928E-02 0. -1.
    10030    2    1    2    0    0  0.00000000000E+00  0.00000000000E+00  0.95407819132E+03  0.34050555021E+04  0.32686599360E+04 0.  0.
        3    1    3    3  502    0 -0.51390878844E+03  0.14853650752E+04  0.94363893247E+03  0.18332665094E+04  0.10100000352E+00 0.  1.
       -3    1    3    3    0  502  0.51390878844E+03 -0.14853650752E+04  0.10439258847E+02  0.15717889927E+04  0.10100000352E+00 0. -1.
</event>
<event>
 5   0  0.2727168E-07  0.3283024E+04  0.7818609E-02  0.8167228E-01
        2   -1    0    0  501    0  0.00000000000E+00  0.00000000000E+00  0.29471551489E+04  0.29471551489E+04  0.25500000920E-02 0.  1.
       -2   -1    0    0    0  501  0.00000000000E+00  0.00000000000E+00 -0.91429221714E+03  0.91429221714E+03  0.25500000920E-02 0. -1.
    10030    2    1    2    0    0  0.00000000000E+00  0.00000000000E+00  0.20328629318E+04  0.38614473661E+04  0.32830236157E+04 0.  0.
        2    1    3    3  502    0 -0.95475789245E+02  0.16020539645E+04  0.14219488477E+04  0.21442087252E+04  0.25500000920E-02 0.  1.
       -2    1    3    3    0  502  0.95475789245E+02 -0.16020539645E+04  0.61091408406E+03  0.17172386409E+04  0.25500000920E-02 0. -1.
</event>
<event>
 5   0  0.9181760E-08  0.3301449E+04  0.7818609E-02  0.8162527E-01
        1   -1    0    0  501    0  0.00000000000E+00  0.00000000000E+00  0.27022558517E+04  0.27022558517E+04  0.50400001928E-02 0.  1.
       -1   -1    0    0    0  501  0.00000000000E+00  0.00000000000E+00 -0.10083764196E+04  0.10083764196E+04  0.50400001928E-02 0. -1.
    10030    2    1    2    0    0  0.00000000000E+00  0.00000000000E+00  0.16938794321E+04  0.37106322713E+04  0.33014488217E+04 0.  0.
        1    1    3    3  502    0 -0.62244943007E+03 -0.22211051185E+03 -0.85319072829E+03  0.10792176756E+04  0.50400001928E-02 0. -1.
       -1    1    3    3    0  502  0.62244943007E+03  0.22211051185E+03  0.25470701604E+04  0.26314145957E+04  0.50400001928E-02 0.  1.
</event>
<event>
 5   0  0.2824402E-07  0.3302487E+04  0.7818609E-02  0.8162263E-01
       -2   -1    0    0    0  501  0.00000000000E+00  0.00000000000E+00  0.19506882964E+04  0.19506882964E+04  0.25500000920E-02 0. -1.
        2   -1    0    0  501    0  0.00000000000E+00  0.00000000000E+00 -0.13977658434E+04  0.13977658434E+04  0.25500000920E-02 0.  1.
    10030    2    1    2    0    0  0.00000000000E+00  0.00000000000E+00  0.55292245299E+03  0.33484541399E+04  0.33024872275E+04 0.  0.
        1    1    3    3  502    0  0.47384328843E+03 -0.78895653988E+03 -0.11136158545E+04  0.14446868710E+04  0.50400001928E-02 0.  1.
       -1    1    3    3    0  502 -0.47384328843E+03  0.78895653988E+03  0.16665383075E+04  0.19037672689E+04  0.50400001928E-02 0. -1.
</event>
<event>
 5   0  0.9454010E-08  0.3298036E+04  0.7818609E-02  0.8163395E-01
       -1   -1    0    0    0  501  0.00000000000E+00  0.00000000000E+00  0.15016130050E+04  0.15016130050E+04  0.50400001928E-02 0.  1.
        1   -1    0    0  501    0  0.00000000000E+00  0.00000000000E+00 -0.18108925010E+04  0.18108925010E+04  0.50400001928E-02 0. -1.
    10030    2    1    2    0    0  0.00000000000E+00  0.00000000000E+00 -0.30927949602E+03  0.33125055059E+04  0.32980356154E+04 0.  0.
        2    1    3    3  502    0 -0.67007599467E+03  0.10592917906E+04  0.92158319408E+03  0.15557687874E+04  0.25500000920E-02 0.  1.
       -2    1    3    3    0  502  0.67007599467E+03 -0.10592917906E+04 -0.12308626901E+04  0.17567367185E+04  0.25500000920E-02 0. -1.
</event>
<event>
 5   0  0.8805125E-08  0.3261088E+04  0.7818609E-02  0.8172868E-01
        1   -1    0    0  501    0  0.00000000000E+00  0.00000000000E+00  0.22702067281E+04  0.22702067281E+04  0.50400001928E-02 0.  1.
       -1   -1    0    0    0  501  0.00000000000E+00  0.00000000000E+00 -0.11711151412E+04  0.11711151412E+04  0.50400001928E-02 0. -1.
    10030    2    1    2    0    0  0.00000000000E+00  0.00000000000E+00  0.10990915869E+04  0.34413218693E+04  0.32610878388E+04 0.  0.
        4    1    3    3  502    0  0.11712699869E+03  0.31426717298E+02 -0.11663491266E+04  0.11726373141E+04  0.12699999809E+01 0. -1.
       -4    1    3    3    0  502 -0.11712699869E+03 -0.31426717298E+02  0.22654407134E+04  0.22686845553E+04  0.12699999809E+01 0.  1.
</event>
<event>
 5   0  0.2875829E-07  0.3304021E+04  0.7818609E-02  0.8161873E-01
       -2   -1    0    0    0  501  0.00000000000E+00  0.00000000000E+00  0.16287457111E+04  0.16287457111E+04  0.25500000920E-02 0.  1.
        2   -1    0    0  501    0  0.00000000000E+00  0.00000000000E+00 -0.16756080501E+04  0.16756080501E+04  0.25500000920E-02 0. -1.
    10030    2    1    2    0    0  0.00000000000E+00  0.00000000000E+00 -0.46862339018E+02  0.33043537611E+04  0.33040214436E+04 0.  0.
        3    1    3    3  502    0  0.11121065483E+04 -0.85038476299E+03 -0.90056225170E+03  0.16646163520E+04  0.10100000352E+00 0.  1.
       -3    1    3    3    0  502 -0.11121065483E+04  0.85038476299E+03  0.85369991268E+03  0.16397374092E+04  0.10100000352E+00 0. -1.
</event>
<event>
 5   0  0.9283910E-08  0.3301931E+04  0.7818609E-02  0.8162404E-01
       -1   -1    0    0    0  501  0.00000000000E+00  0.00000000000E+00  0.13855260802E+04  0.13855260802E+04  0.50400001928E-02 0. -1.
        1   -1    0    0  501    0  0.00000000000E+00  0.00000000000E+00 -0.19672579162E+04  0.19672579162E+04  0.50400001928E-02 0.  1.
    10030    2    1    2    0    0  0.00000000000E+00  0.00000000000E+00 -0.58173183596E+03  0.33527839965E+04  0.33019310408E+04 0.  0.
        3    1    3    3  502    0 -0.14473160720E+04  0.13147892544E+03  0.50457396843E+03  0.15383775285E+04  0.10100000352E+00 0. -1.
       -3    1    3    3    0  502  0.14473160720E+04 -0.13147892544E+03 -0.10863058044E+04  0.18144064680E+04  0.10100000352E+00 0.  1.
</event>
<event>
 5   0  0.2727168E-07  0.3304459E+04  0.7818609E-02  0.8161762E-01
        2   -1    0    0  501    0  0.00000000000E+00  0.00000000000E+00  0.14488906997E+04  0.14488906997E+04  0.25500000920E-02 0. -1.
       -2   -1    0    0    0  501  0.00000000000E+00  0.00000000000E+00 -0.18841046697E+04  0.18841046697E+04  0.25500000920E-02 0.  1.
    10030    2    1    2    0    0  0.00000000000E+00  0.00000000000E+00 -0.43521397001E+03  0.33329953694E+04  0.33044586444E+04 0.  0.
        2    1    3    3  502    0  0.50429308242E+03 -0.10122863574E+04  0.99729750372E+03  0.15078585787E+04  0.25500000920E-02 0. -1.
       -2    1    3    3    0  502 -0.50429308242E+03  0.10122863574E+04 -0.14325114737E+04  0.18251367907E+04  0.25500000920E-02 0.  1.
</event>
<event>
 5   0  0.2875829E-07  0.3299207E+04  0.7818609E-02  0.8163097E-01
       -2   -1    0    0    0  501  0.00000000000E+00  0.00000000000E+00  0.14295315524E+04  0.14295315524E+04  0.25500000920E-02 0. -1.
        2   -1    0    0  501    0  0.00000000000E+00  0.00000000000E+00 -0.19035546861E+04  0.19035546861E+04  0.25500000920E-02 0.  1.
    10030    2    1    2    0    0  0.00000000000E+00  0.00000000000E+00 -0.47402313366E+03  0.33330862385E+04  0.32992068656E+04 0.  0.
        3    1    3    3  502    0  0.68965688192E+03 -0.12923717924E+04  0.52928925564E+03  0.15575617455E+04  0.10100000352E+00 0. -1.
       -3    1    3    3    0  502 -0.68965688192E+03  0.12923717924E+04 -0.10033123893E+04  0.17755244930E+04  0.10100000352E+00 0.  1.
</event>
<event>
 5   0  0.2727168E-07  0.3301849E+04  0.7818609E-02  0.8162425E-01
        2   -1    0    0  501    0  0.00000000000E+00  0.00000000000E+00  0.30818454754E+04  0.30818454754E+04  0.25500000920E-02 0.  1.
       -2   -1    0    0    0  501  0.00000000000E+00  0.00000000000E+00 -0.88438949843E+03  0.88438949843E+03  0.25500000920E-02 0. -1.
    10030    2    1    2    0    0  0.00000000000E+00  0.00000000000E+00  0.21974559770E+04  0.39662349738E+04  0.33018490421E+04 0.  0.
        2    1    3    3  502    0  0.15871049536E+04  0.32591263400E+03  0.14794028907E+04  0.21940269123E+04  0.25500000920E-02 0. -1.
       -2    1    3    3    0  502 -0.15871049536E+04 -0.32591263400E+03  0.71805308621E+03  0.17722080615E+04  0.25500000920E-02 0.  1.
</event>
<event>
 5   0  0.2727168E-07  0.3305370E+04  0.7818609E-02  0.8161530E-01
        2   -1    0    0  501    0  0.00000000000E+00  0.00000000000E+00  0.19021622327E+04  0.19021622327E+04  0.25500000920E-02 0.  1.
       -2   -1    0    0    0  501  0.00000000000E+00  0.00000000000E+00 -0.14359280792E+04  0.14359280792E+04  0.25500000920E-02 0. -1.
    10030    2    1    2    0    0  0.00000000000E+00  0.00000000000E+00  0.46623415351E+03  0.33380903119E+04  0.33053702735E+04 0.  0.
        2    1    3    3  502    0  0.24359084625E+03 -0.10177309687E+04  0.15249415363E+04  0.18494754700E+04  0.25500000920E-02 0.  1.
       -2    1    3    3    0  502 -0.24359084625E+03  0.10177309687E+04 -0.10587073828E+04  0.14886148419E+04  0.25500000920E-02 0. -1.
</event>
<event>
 5   0  0.9810351E-08  0.3303843E+04  0.7818609E-02  0.8161918E-01
       -1   -1    0    0    0  501  0.00000000000E+00  0.00000000000E+00  0.12522127969E+04  0.12522127969E+04  0.50400001928E-02 0. -1.
        1   -1    0    0  501    0  0.00000000000E+00  0.00000000000E+00 -0.21792176519E+04  0.21792176519E+04  0.50400001928E-02 0.  1.
    10030    2    1    2    0    0  0.00000000000E+00  0.00000000000E+00 -0.92700485501E+03  0.34314304489E+04  0.33038427511E+04 0.  0.
        5    1    3    3  502    0  0.63066550246E+03 -0.13622898301E+04 -0.11795084986E+04  0.19091450823E+04  0.46999998093E+01 0. -1.
       -5    1    3    3    0  502 -0.63066550246E+03  0.13622898301E+04  0.25250364362E+03  0.15222853665E+04  0.46999998093E+01 0.  1.
</event>
<event>
 5   0  0.9181760E-08  0.3257146E+04  0.7818609E-02  0.8173886E-01
       -1   -1    0    0    0  501  0.00000000000E+00  0.00000000000E+00  0.13734132403E+04  0.13734132403E+04  0.50400001928E-02 0.  1.
        1   -1    0    0  501    0  0.00000000000E+00  0.00000000000E+00 -0.19311372286E+04  0.19311372286E+04  0.50400001928E-02 0. -1.
    10030    2    1    2    0    0  0.00000000000E+00  0.00000000000E+00 -0.55772398822E+03  0.33045504689E+04  0.32571456453E+04 0.  0.
        1    1    3    3  502    0 -0.77468790249E+03  0.63126600556E+03  0.10257817285E+04  0.14320845892E+04  0.50400001928E-02 0.  1.
       -1    1    3    3    0  502  0.77468790249E+03 -0.63126600556E+03 -0.15835057167E+04  0.18724658797E+04  0.50400001928E-02 0. -1.
</event>
<event>
 5   0  0.2727168E-07  0.3299673E+04  0.7818609E-02  0.8162979E-01
       -2   -1    0    0    0  501  0.00000000000E+00  0.00000000000E+00  0.15148104912E+04  0.15148104912E+04  0.25500000920E-02 0. -1.
        2   -1    0    0  501    0  0.00000000000E+00  0.00000000000E+00 -0.17968980154E+04  0.17968980154E+04  0.25500000920E-02 0.  1.
    10030    2    1    2    0    0  0.00000000000E+00  0.00000000000E+00 -0.28208752419E+03  0.33117085066E+04  0.32996726901E+04 0.  0.
        2    1    3    3  502    0  0.11198869484E+04  0.32188512627E+03  0.10312076535E+04  0.15560032251E+04  0.25500000920E-02 0. -1.
       -2    1    3    3    0  502 -0.11198869484E+04 -0.32188512627E+03 -0.13132951777E+04  0.17557052815E+04  0.25500000920E-02 0.  1.
</event>
<event>
 5   0  0.2727168E-07  0.3281905E+04  0.7818609E-02  0.8167515E-01
        2   -1    0    0  501    0  0.00000000000E+00  0.00000000000E+00  0.18710397172E+04  0.18710397172E+04  0.25500000920E-02 0. -1.
       -2   -1    0    0    0  501  0.00000000000E+00  0.00000000000E+00 -0.14391599351E+04  0.14391599351E+04  0.25500000920E-02 0.  1.
    10030    2    1    2    0    0  0.00000000000E+00  0.00000000000E+00  0.43187978211E+03  0.33101996523E+04  0.32819051771E+04 0.  0.
        2    1    3    3  502    0 -0.86776772937E+03  0.21241483174E+03 -0.11723659481E+04  0.14739683881E+04  0.25500000920E-02 0.  1.
       -2    1    3    3    0  502  0.86776772937E+03 -0.21241483174E+03  0.16042457302E+04  0.18362312642E+04  0.25500000920E-02 0. -1.
</event>
<event>
 5   0  0.2875829E-07  0.3301596E+04  0.7818609E-02  0.8162489E-01
       -2   -1    0    0    0  501  0.00000000000E+00  0.00000000000E+00  0.18232155807E+04  0.18232155807E+04  0.25500000920E-02 0.  1.
        2   -1    0    0  501    0  0.00000000000E+00  0.00000000000E+00 -0.14946859152E+04  0.14946859152E+04  0.25500000920E-02 0. -1.
    10030    2    1    2    0    0  0.00000000000E+00  0.00000000000E+00  0.32852966551E+03  0.33179014958E+04  0.33015963707E+04 0.  0.
        3    1    3    3  502    0  0.12657195368E+04 -0.49114617751E+03  0.11079787234E+04  0.17523947544E+04  0.10100000352E+00 0.  1.
       -3    1    3    3    0  502 -0.12657195368E+04  0.49114617751E+03 -0.77944905790E+03  0.15655067415E+04  0.10100000352E+00 0. -1.
</event>
<event>
 5   0  0.9454010E-08  0.3301603E+04  0.7818609E-02  0.8162488E-01
       -1   -1    0    0    0  501  0.00000000000E+00  0.00000000000E+00  0.10641548227E+04  0.10641548228E+04  0.50400001928E-02 0. -1.
        1   -1    0    0  501    0  0.00000000000E+00  0.00000000000E+00 -0.25608549071E+04  0.25608549071E+04  0.50400001928E-02 0.  1.
    10030    2    1    2    0    0  0.00000000000E+00  0.00000000000E+00 -0.14967000844E+04  0.36250097299E+04  0.33016033074E+04 0.  0.
        2    1    3    3  502    0  0.10903742352E+04 -0.12363555922E+04 -0.84441305976E+03  0.18521675244E+04  0.25500000920E-02 0. -1.
       -2    1    3    3    0  502 -0.10903742352E+04  0.12363555922E+04 -0.65228702463E+03  0.17728422055E+04  0.25500000920E-02 0.  1.
</event>
<event>
 5   0  0.9181760E-08  0.3298159E+04  0.7818609E-02  0.8163364E-01
       -1   -1    0    0    0  501  0.00000000000E+00  0.00000000000E+00  0.11694263718E+04  0.11694263718E+04  0.50400001928E-02 0.  1.
        1   -1    0    0  501    0  0.00000000000E+00  0.00000000000E+00 -0.23254677924E+04  0.23254677924E+04  0.50400001928E-02 0. -1.
    10030    2    1    2    0    0  0.00000000000E+00  0.00000000000E+00 -0.11560414207E+04  0.34948941642E+04  0.32981591006E+04 0.  0.
        1    1    3    3  502    0 -0.31422626228E+03  0.13832480088E+04  0.31318847999E+03  0.14526528222E+04  0.50400001928E-02 0.  1.
       -1    1    3    3    0  502  0.31422626228E+03 -0.13832480088E+04 -0.14692299007E+04  0.20422413420E+04  0.50400001928E-02 0. -1.
</event>
<event>
 5   0  0.2727168E-07  0.3302481E+04  0.7818609E-02  0.8162264E-01
       -2   -1    0    0    0  501  0.00000000000E+00  0.00000000000E+00  0.13731246188E+04  0.13731246188E+04  0.25500000920E-02 0. -1.
        2   -1    0    0  501    0  0.00000000000E+00  0.00000000000E+00 -0.19856870650E+04  0.19856870650E+04  0.25500000920E-02 0.  1.
    10030    2    1    2    0    0  0.00000000000E+00  0.00000000000E+00 -0.61256244624E+03  0.33588116838E+04  0.33024813666E+04 0.  0.
        2    1    3    3  502    0  0.83097779596E+03  0.13543407219E+04 -0.76320237781E+03  0.17627367239E+04  0.25500000920E-02 0.  1.
       -2    1    3    3    0  502 -0.83097779596E+03 -0.13543407219E+04  0.15063993157E+03  0.15960749598E+04  0.25500000920E-02 0. -1.
</event>
<event>
 5   0  0.2703956E-07  0.3303683E+04  0.7818609E-02  0.8161959E-01
        2   -1    0    0  501    0  0.00000000000E+00  0.00000000000E+00  0.14893739880E+04  0.14893739880E+04  0.25500000920E-02 0.  1.
       -2   -1    0    0    0  501  0.00000000000E+00  0.00000000000E+00 -0.18320316593E+04  0.18320316593E+04  0.25500000920E-02 0. -1.
    10030    2    1    2    0    0  0.00000000000E+00  0.00000000000E+00 -0.34265767126E+03  0.33214056472E+04  0.33036829742E+04 0.  0.
        5    1    3    3  502    0 -0.15634768594E+04 -0.17572378271E+03 -0.67723748338E+03  0.17128956292E+04  0.46999998093E+01 0. -1.
       -5    1    3    3    0  502  0.15634768594E+04  0.17572378271E+03  0.33457981213E+03  0.16085100181E+04  0.46999998093E+01 0.  1.
</event>
<event>
 5   0  0.9454010E-08  0.3306018E+04  0.7818609E-02  0.8161366E-01
        1   -1    0    0  501    0  0.00000000000E+00  0.00000000000E+00  0.17967097410E+04  0.17967097410E+04  0.50400001928E-02 0.  1.
       -1   -1    0    0    0  501  0.00000000000E+00  0.00000000000E+00 -0.15208017637E+04  0.15208017637E+04  0.50400001928E-02 0. -1.
    10030    2    1    2    0    0  0.00000000000E+00  0.00000000000E+00  0.27590797732E+03  0.33175115047E+04  0.33060183563E+04 0.  0.
        2    1    3    3  502    0 -0.13526286005E+04 -0.66658060484E+03  0.81743833521E+03  0.17152665290E+04  0.25500000920E-02 0. -1.
       -2    1    3    3    0  502  0.13526286005E+04  0.66658060484E+03 -0.54153035789E+03  0.16022449757E+04  0.25500000920E-02 0.  1.
</event>
<event>
 5   0  0.9810351E-08  0.3237349E+04  0.7818609E-02  0.8179022E-01
        1   -1    0    0  501    0  0.00000000000E+00  0.00000000000E+00  0.16925159475E+04  0.16925159475E+04  0.50400001928E-02 0.  1.
       -1   -1    0    0    0  501  0.00000000000E+00  0.00000000000E+00 -0.15480549027E+04  0.15480549028E+04  0.50400001928E-02 0. -1.
    10030    2    1    2    0    0  0.00000000000E+00  0.00000000000E+00  0.14446104475E+03  0.32405708503E+04  0.32373492926E+04 0.  0.
        5    1    3    3  502    0  0.13660653220E+04 -0.31081586065E+03 -0.73934417195E+03  0.15841063278E+04  0.46999998093E+01 0. -1.
       -5    1    3    3    0  502 -0.13660653220E+04  0.31081586065E+03  0.88380521669E+03  0.16564645225E+04  0.46999998093E+01 0.  1.
</event>
<event>
 5   0  0.2713815E-07  0.3300169E+04  0.7818609E-02  0.8162852E-01
        2   -1    0    0  501    0  0.00000000000E+00  0.00000000000E+00  0.13871357276E+04  0.13871357276E+04  0.25500000920E-02 0.  1.
       -2   -1    0    0    0  501  0.00000000000E+00  0.00000000000E+00 -0.19628788975E+04  0.19628788975E+04  0.25500000920E-02 0. -1.
    10030    2    1    2    0    0  0.00000000000E+00  0.00000000000E+00 -0.57574316986E+03  0.33500146250E+04  0.33001693578E+04 0.  0.
        4    1    3    3  502    0  0.11595739514E+04  0.90540887266E+03 -0.10464203653E+04  0.18053736924E+04  0.12699999809E+01 0. -1.
       -4    1    3    3    0  502 -0.11595739514E+04 -0.90540887266E+03  0.47067719546E+03  0.15446409326E+04  0.12699999809E+01 0.  1.
</event>
<event>
 5   0  0.9283910E-08  0.3303714E+04  0.7818609E-02  0.8161951E-01
        1   -1    0    0  501    0  0.00000000000E+00  0.00000000000E+00  0.22521755148E+04  0.22521755148E+04  0.50400001928E-02 0. -1.
       -1   -1    0    0    0  501  0.00000000000E+00  0.00000000000E+00 -0.12115536035E+04  0.12115536035E+04  0.50400001928E-02 0.  1.
    10030    2    1    2    0    0  0.00000000000E+00  0.00000000000E+00  0.10406219113E+04  0.34637291184E+04  0.33037138864E+04 0.  0.
        3    1    3    3  502    0  0.27283088210E+03  0.14905576756E+04  0.12097575696E+04  0.19389977468E+04  0.10100000352E+00 0. -1.
       -3    1    3    3    0  502 -0.27283088210E+03 -0.14905576756E+04 -0.16913565831E+03  0.15247313716E+04  0.10100000352E+00 0.  1.
</event>
<event>
 5   0  0.9454010E-08  0.3296608E+04  0.7818609E-02  0.8163759E-01
        1   -1    0    0  501    0  0.00000000000E+00  0.00000000000E+00  0.23525378719E+04  0.23525378719E+04  0.50400001928E-02 0.  1.
       -1   -1    0    0    0  501  0.00000000000E+00  0.00000000000E+00 -0.11548830640E+04  0.11548830640E+04  0.50400001928E-02 0. -1.
    10030    2    1    2    0    0  0.00000000000E+00  0.00000000000E+00  0.11976548079E+04  0.35074209359E+04  0.32966080420E+04 0.  0.
        2    1    3    3  502    0 -0.12905106099E+04  0.59391675441E+03  0.14881962694E+04  0.20573971133E+04  0.25500000920E-02 0.  1.
       -2    1    3    3    0  502  0.12905106099E+04 -0.59391675441E+03 -0.29054146147E+03  0.14500238227E+04  0.25500000920E-02 0. -1.
</event>
<event>
 5   0  0.2727168E-07  0.3286058E+04  0.7818609E-02  0.8166452E-01
       -2   -1    0    0    0  501  0.00000000000E+00  0.00000000000E+00  0.12405520145E+04  0.12405520145E+04  0.25500000920E-02 0.  1.
        2   -1    0    0  501    0  0.00000000000E+00  0.00000000000E+00 -0.21760825819E+04  0.21760825819E+04  0.25500000920E-02 0. -1.
    10030    2    1    2    0    0  0.00000000000E+00  0.00000000000E+00 -0.93553056735E+03  0.34166345964E+04  0.32860575958E+04 0.  0.
        2    1    3    3  502    0 -0.33246449008E+03 -0.12369737432E+04 -0.15376876412E+04  0.20012795808E+04  0.25500000920E-02 0.  1.
       -2    1    3    3    0  502  0.33246449008E+03  0.12369737432E+04  0.60215707385E+03  0.14153550156E+04  0.25500000920E-02 0. -1.
</event>
<event>
 5   0  0.2703956E-07  0.3300128E+04  0.7818609E-02  0.8162863E-01
        2   -1    0    0  501    0  0.00000000000E+00  0.00000000000E+00  0.23752985258E+04  0.23752985258E+04  0.25500000920E-02 0.  1.
       -2   -1    0    0    0  501  0.00000000000E+00  0.00000000000E+00 -0.11462608400E+04  0.11462608400E+04  0.25500000920E-02 0. -1.
    10030    2    1    2    0    0  0.00000000000E+00  0.00000000000E+00  0.12290376858E+04  0.35215593658E+04  0.33001282904E+04 0.  0.
        5    1    3    3  502    0 -0.14790626436E+04 -0.20334063548E+03 -0.13527649740E+03  0.14990982417E+04  0.46999998093E+01 0. -1.
       -5    1    3    3    0  502  0.14790626436E+04  0.20334063548E+03  0.13643141832E+04  0.20224611240E+04  0.46999998093E+01 0.  1.
</event>
<event>
 5   0  0.8805125E-08  0.3296721E+04  0.7818609E-02  0.8163730E-01
        1   -1    0    0  501    0  0.00000000000E+00  0.00000000000E+00  0.17862614537E+04  0.17862614537E+04  0.50400001928E-02 0. -1.
       -1   -1    0    0    0  501  0.00000000000E+00  0.00000000000E+00 -0.15211052005E+04  0.15211052005E+04  0.50400001928E-02 0.  1.
    10030    2    1    2    0    0  0.00000000000E+00  0.00000000000E+00  0.26515625321E+03  0.33073666541E+04  0.32967205442E+04 0.  0.
        4    1    3    3  502    0 -0.93110868373E+03 -0.94548800656E+03  0.11135799500E+04  0.17323316280E+04  0.12699999809E+01 0. -1.
       -4    1    3    3    0  502  0.93110868373E+03  0.94548800656E+03 -0.84842369677E+03  0.15750350262E+04  0.12699999809E+01 0.  1.
</event>
<event>
 5   0  0.2703956E-07  0.3302654E+04  0.7818609E-02  0.8162220E-01
       -2   -1    0    0    0  501  0.00000000000E+00  0.00000000000E+00  0.14347462436E+04  0.14347462436E+04  0.25500000920E-02 0.  1.
        2   -1    0    0  501    0  0.00000000000E+00  0.00000000000E+00 -0.19006016201E+04  0.19006016201E+04  0.25500000920E-02 0. -1.
    10030    2    1    2    0    0  0.00000000000E+00  0.00000000000E+00 -0.46585537648E+03  0.33353478636E+04  0.33026541054E+04 0.  0.
        5    1    3    3  502    0  0.13183130099E+04  0.52714633408E+03  0.61864345553E+03  0.15487331160E+04  0.46999998093E+01 0.  1.
       -5    1    3    3    0  502 -0.13183130099E+04 -0.52714633408E+03 -0.10844988320E+04  0.17866147476E+04  0.46999998093E+01 0. -1.
</event>
<event>
 5   0  0.9283910E-08  0.3297268E+04  0.7818609E-02  0.8163591E-01
       -1   -1    0    0    0  501  0.00000000000E+00  0.00000000000E+00  0.15560624672E+04  0.15560624672E+04  0.50400001928E-02 0. -1.
        1   -1    0    0  501    0  0.00000000000E+00  0.00000000000E+00 -0.17467131142E+04  0.17467131142E+04  0.50400001928E-02 0.  1.
    10030    2    1    2    0    0  0.00000000000E+00  0.00000000000E+00 -0.19065064702E+03  0.33027755814E+04  0.32972683955E+04 0.  0.
        3    1    3    3  502    0  0.27316581252E+03 -0.15214005916E+04  0.47896934138E+03  0.16182369917E+04  0.10100000352E+00 0. -1.
       -3    1    3    3    0  502 -0.27316581252E+03  0.15214005916E+04 -0.66961998840E+03  0.16845385897E+04  0.10100000352E+00 0.  1.
</event>
<event>
 5   0  0.2727168E-07  0.3307063E+04  0.7818609E-02  0.8161100E-01
       -2   -1    0    0    0  501  0.00000000000E+00  0.00000000000E+00  0.13848887149E+04  0.13848887149E+04  0.25500000920E-02 0. -1.
        2   -1    0    0  501    0  0.00000000000E+00  0.00000000000E+00 -0.19742865650E+04  0.19742865650E+04  0.25500000920E-02 0.  1.
    10030    2    1    2    0    0  0.00000000000E+00  0.00000000000E+00 -0.58939785014E+03  0.33591752799E+04  0.33070634611E+04 0.  0.
        2    1    3    3  502    0 -0.98056198103E+03  0.11281139059E+04  0.42356778053E+03  0.15535612148E+04  0.25500000920E-02 0. -1.
       -2    1    3    3    0  502  0.98056198103E+03 -0.11281139059E+04 -0.10129656307E+04  0.18056140652E+04  0.25500000920E-02 0.  1.
</event>
<event>
 5   0  0.2875829E-07  0.3298352E+04  0.7818609E-02  0.8163315E-01
       -2   -1    0    0    0  501  0.00000000000E+00  0.00000000000E+00  0.13213443983E+04  0.13213443983E+04  0.25500000920E-02 0.  1.
        2   -1    0    0  501    0  0.00000000000E+00  0.00000000000E+00 -0.20583444098E+04  0.20583444098E+04  0.25500000920E-02 0. -1.
    10030    2    1    2    0    0  0.00000000000E+00  0.00000000000E+00 -0.73700001148E+03  0.33796888081E+04  0.32983522285E+04 0.  0.
        3    1    3    3  502    0  0.97166962183E+02  0.24846417887E+03 -0.20360864624E+04  0.20534906767E+04  0.10100000352E+00 0. -1.
       -3    1    3    3    0  502 -0.97166962183E+02 -0.24846417887E+03  0.12990864509E+04  0.13261981314E+04  0.10100000352E+00 0.  1.
</event>
<event>
 5   0  0.2824402E-07  0.3303447E+04  0.7818609E-02  0.8162019E-01
       -2   -1    0    0    0  501  0.00000000000E+00  0.00000000000E+00  0.13358326153E+04  0.13358326153E+04  0.25500000920E-02 0.  1.
        2   -1    0    0  501    0  0.00000000000E+00  0.00000000000E+00 -0.20423141312E+04  0.20423141312E+04  0.25500000920E-02 0. -1.
    10030    2    1    2    0    0  0.00000000000E+00  0.00000000000E+00 -0.70648151590E+03  0.33781467464E+04  0.33034465802E+04 0.  0.
        1    1    3    3  502    0  0.36661504216E+03 -0.11171497516E+04  0.83306046397E+03  0.14409787970E+04  0.50400001928E-02 0.  1.
       -1    1    3    3    0  502 -0.36661504216E+03  0.11171497516E+04 -0.15395419799E+04  0.19371679495E+04  0.50400001928E-02 0. -1.
</event>
<event>
 5   0  0.9181760E-08  0.3306626E+04  0.7818609E-02  0.8161211E-01
       -1   -1    0    0    0  501  0.00000000000E+00  0.00000000000E+00  0.28359887414E+04  0.28359887414E+04  0.50400001928E-02 0. -1.
        1   -1    0    0  501    0  0.00000000000E+00  0.00000000000E+00 -0.96384167174E+03  0.96384167175E+03  0.50400001928E-02 0.  1.
    10030    2    1    2    0    0  0.00000000000E+00  0.00000000000E+00  0.18721470696E+04  0.37998304131E+04  0.33066261534E+04 0.  0.
        1    1    3    3  502    0 -0.85657426016E+03  0.12118625285E+04  0.98596430011E+02  0.14872967112E+04  0.50400001928E-02 0. -1.
       -1    1    3    3    0  502  0.85657426016E+03 -0.12118625285E+04  0.17735506396E+04  0.23125337019E+04  0.50400001928E-02 0.  1.
</event>
<event>
 5   0  0.2875829E-07  0.3313125E+04  0.7818609E-02  0.8159564E-01
       -2   -1    0    0    0  501  0.00000000000E+00  0.00000000000E+00  0.15705716793E+04  0.15705716793E+04  0.25500000920E-02 0. -1.
        2   -1    0    0  501    0  0.00000000000E+00  0.00000000000E+00 -0.17472618193E+04  0.17472618193E+04  0.25500000920E-02 0.  1.
    10030    2    1    2    0    0  0.00000000000E+00  0.00000000000E+00 -0.17669014003E+03  0.33178334986E+04  0.33131253702E+04 0.  0.
        3    1    3    3  502    0 -0.43840760449E+03  0.12852609346E+04 -0.10384308707E+04  0.17095132585E+04  0.10100000352E+00 0.  1.
       -3    1    3    3    0  502  0.43840760449E+03 -0.12852609346E+04  0.86174073064E+03  0.16083202401E+04  0.10100000352E+00 0. -1.
</event>
<event>
 5   0  0.8805125E-08  0.3375083E+04  0.7818609E-02  0.8144049E-01
       -1   -1    0    0    0  501  0.00000000000E+00  0.00000000000E+00  0.14163742941E+04  0.14163742941E+04  0.50400001928E-02 0. -1.
        1   -1    0    0  501    0  0.00000000000E+00  0.00000000000E+00 -0.20106244534E+04  0.20106244534E+04  0.50400001928E-02 0.  1.
    10030    2    1    2    0    0  0.00000000000E+00  0.00000000000E+00 -0.59425015930E+03  0.34269987474E+04  0.33750832824E+04 0.  0.
        4    1    3    3  502    0 -0.10003400956E+03  0.16465451143E+04 -0.65851771596E+03  0.17761657613E+04  0.12699999809E+01 0.  1.
       -4    1    3    3    0  502  0.10003400956E+03 -0.16465451143E+04  0.64267556668E+02  0.16508329862E+04  0.12699999809E+01 0. -1.
</event>
<event>
 5   0  0.2703956E-07  0.3292807E+04  0.7818609E-02  0.8164728E-01
       -2   -1    0    0    0  501  0.00000000000E+00  0.00000000000E+00  0.25434929432E+04  0.25434929432E+04  0.25500000920E-02 0. -1.
        2   -1    0    0  501    0  0.00000000000E+00  0.00000000000E+00 -0.10657172304E+04  0.10657172304E+04  0.25500000920E-02 0.  1.
    10030    2    1    2    0    0  0.00000000000E+00  0.00000000000E+00  0.14777757129E+04  0.36092101736E+04  0.32928068604E+04 0.  0.
        5    1    3    3  502    0 -0.10398185360E+04 -0.10210301302E+04  0.15785931257E+04  0.21484188281E+04  0.46999998093E+01 0. -1.
       -5    1    3    3    0  502  0.10398185360E+04  0.10210301302E+04 -0.10081741282E+03  0.14607913455E+04  0.46999998093E+01 0.  1.
</event>
<event>
 5   0  0.8805125E-08  0.3301314E+04  0.7818609E-02  0.8162561E-01
       -1   -1    0    0    0  501  0.00000000000E+00  0.00000000000E+00  0.11694987211E+04  0.11694987211E+04  0.50400001928E-02 0. -1.
        1   -1    0    0  501    0  0.00000000000E+00  0.00000000000E+00 -0.23297740607E+04  0.23297740607E+04  0.50400001928E-02 0.  1.
    10030    2    1    2    0    0  0.00000000000E+00  0.00000000000E+00 -0.11602753396E+04  0.34992727818E+04  0.33013135473E+04 0.  0.
        4    1    3    3  502    0 -0.35011970690E+03 -0.81799754262E+03 -0.20538160962E+04  0.22382729858E+04  0.12699999809E+01 0.  1.
       -4    1    3    3    0  502  0.35011970690E+03  0.81799754262E+03  0.89354075662E+03  0.12609997960E+04  0.12699999809E+01 0. -1.
</event>
<event>
 5   0  0.9810351E-08  0.3305402E+04  0.7818609E-02  0.8161522E-01
       -1   -1    0    0    0  501  0.00000000000E+00  0.00000000000E+00  0.84424993807E+03  0.84424993808E+03  0.50400001928E-02 0. -1.
        1   -1    0    0  501    0  0.00000000000E+00  0.00000000000E+00 -0.32353229487E+04  0.32353229487E+04  0.50400001928E-02 0.  1.
    10030    2    1    2    0    0  0.00000000000E+00  0.00000000000E+00 -0.23910730106E+04  0.40795728868E+04  0.33054023653E+04 0.  0.
        5    1    3    3  502    0  0.86148673604E+03  0.87653306303E+03  0.16821630086E+03  0.12404791094E+04  0.46999998093E+01 0. -1.
       -5    1    3    3    0  502 -0.86148673604E+03 -0.87653306303E+03 -0.25592893115E+04  0.28390937774E+04  0.46999998093E+01 0.  1.
</event>
<event>
 5   0  0.2824402E-07  0.3300783E+04  0.7818609E-02  0.8162696E-01
       -2   -1    0    0    0  501  0.00000000000E+00  0.00000000000E+00  0.11667413293E+04  0.11667413293E+04  0.25500000920E-02 0. -1.
        2   -1    0    0  501    0  0.00000000000E+00  0.00000000000E+00 -0.23345291088E+04  0.23345291088E+04  0.25500000920E-02 0.  1.
    10030    2    1    2    0    0  0.00000000000E+00  0.00000000000E+00 -0.11677877795E+04  0.35012704381E+04  0.33007826925E+04 0.  0.
        1    1    3    3  502    0 -0.14414145359E+04 -0.58748442583E+03 -0.11658308503E+04  0.19447301577E+04  0.50400001928E-02 0.  1.
       -1    1    3    3    0  502  0.14414145359E+04  0.58748442583E+03 -0.19569292548E+01  0.15565402804E+04  0.50400001928E-02 0. -1.
</event>
<event>
 5   0  0.2713815E-07  0.3299734E+04  0.7818609E-02  0.8162963E-01
        2   -1    0    0  501    0  0.00000000000E+00  0.00000000000E+00  0.28559445573E+04  0.28559445573E+04  0.25500000920E-02 0. -1.
       -2   -1    0    0    0  501  0.00000000000E+00  0.00000000000E+00 -0.95312139307E+03  0.95312139307E+03  0.25500000920E-02 0.  1.
    10030    2    1    2    0    0  0.00000000000E+00  0.00000000000E+00  0.19028231642E+04  0.38090659504E+04  0.32997344469E+04 0.  0.
        4    1    3    3  502    0  0.80200181931E+03  0.14404883577E+04  0.10230059533E+04  0.19402980235E+04  0.12699999809E+01 0.  1.
       -4    1    3    3    0  502 -0.80200181931E+03 -0.14404883577E+04  0.87981721096E+03  0.18687679268E+04  0.12699999809E+01 0. -1.
</event>
<event>
 5   0  0.2875829E-07  0.3301780E+04  0.7818609E-02  0.8162443E-01
       -2   -1    0    0    0  501  0.00000000000E+00  0.00000000000E+00  0.12131522510E+04  0.12131522510E+04  0.25500000920E-02 0. -1.
        2   -1    0    0  501    0  0.00000000000E+00  0.00000000000E+00 -0.22465747718E+04  0.22465747718E+04  0.25500000920E-02 0.  1.
    10030    2    1    2    0    0  0.00000000000E+00  0.00000000000E+00 -0.10334225207E+04  0.34597270228E+04  0.33017796665E+04 0.  0.
        3    1    3    3  502    0  0.25782888724E+03  0.18447515150E+03 -0.22143787913E+04  0.22369578133E+04  0.10100000352E+00 0.  1.
       -3    1    3    3    0  502 -0.25782888724E+03 -0.18447515150E+03  0.11809562706E+04  0.12227692096E+04  0.10100000352E+00 0. -1.
</event>
<event>
 5   0  0.8805125E-08  0.3302736E+04  0.7818609E-02  0.8162199E-01
       -1   -1    0    0    0  501  0.00000000000E+00  0.00000000000E+00  0.15679125201E+04  0.15679125201E+04  0.50400001928E-02 0.  1.
        1   -1    0    0  501    0  0.00000000000E+00  0.00000000000E+00 -0.17392660497E+04  0.17392660497E+04  0.50400001928E-02 0. -1.
    10030    2    1    2    0    0  0.00000000000E+00  0.00000000000E+00 -0.17135352959E+03  0.33071785698E+04  0.33027364503E+04 0.  0.
        4    1    3    3  502    0  0.10377800494E+04  0.12666516081E+04 -0.29955635238E+03  0.16646709430E+04  0.12699999809E+01 0. -1.
       -4    1    3    3    0  502 -0.10377800494E+04 -0.12666516081E+04  0.12820282279E+03  0.16425076268E+04  0.12699999809E+01 0.  1.
</event>
<event>
 5   0  0.9454010E-08  0.3271535E+04  0.7818609E-02  0.8170176E-01
        1   -1    0    0  501    0  0.00000000000E+00  0.00000000000E+00  0.19618007620E+04  0.19618007620E+04  0.50400001928E-02 0. -1.
       -1   -1    0    0    0  501  0.00000000000E+00  0.00000000000E+00 -0.13639176976E+04  0.13639176976E+04  0.50400001928E-02 0.  1.
    10030    2    1    2    0    0  0.00000000000E+00  0.00000000000E+00  0.59788306438E+03  0.33257184596E+04  0.32715346726E+04 0.  0.
        2    1    3    3  502    0 -0.94065367750E+03  0.12037312783E+04  0.89337965078E+03  0.17697247051E+04  0.25500000920E-02 0. -1.
       -2    1    3    3    0  502  0.94065367750E+03 -0.12037312783E+04 -0.29549658640E+03  0.15559937545E+04  0.25500000920E-02 0.  1.
</event>
<event>
 5   0  0.2703956E-07  0.3333333E+04  0.7818609E-02  0.8154465E-01
        2   -1    0    0  501    0  0.00000000000E+00  0.00000000000E+00  0.19992794664E+04  0.19992794664E+04  0.25500000920E-02 0. -1.
       -2   -1    0    0    0  501  0.00000000000E+00  0.00000000000E+00 -0.13893890913E+04  0.13893890913E+04  0.25500000920E-02 0.  1.
    10030    2    1    2    0    0  0.00000000000E+00  0.00000000000E+00  0.60989037507E+03  0.33886685577E+04  0.33333329153E+04 0.  0.
        5    1    3    3  502    0  0.15483806101E+04 -0.55280237114E+03  0.27128442786E+02  0.16443330008E+04  0.46999998093E+01 0.  1.
       -5    1    3    3    0  502 -0.15483806101E+04  0.55280237114E+03  0.58276193229E+03  0.17443355569E+04  0.46999998093E+01 0. -1.
</event>
<event>
 5   0  0.9181760E-08  0.3312577E+04  0.7818609E-02  0.8159703E-01
       -1   -1    0    0    0  501  0.00000000000E+00  0.00000000000E+00  0.15114533849E+04  0.15114533849E+04  0.50400001928E-02 0. -1.
        1   -1    0    0  501    0  0.00000000000E+00  0.00000000000E+00 -0.18150022725E+04  0.18150022725E+04  0.50400001928E-02 0.  1.
    10030    2    1    2    0    0  0.00000000000E+00  0.00000000000E+00 -0.30354888766E+03  0.33264556574E+04  0.33125768389E+04 0.  0.
        1    1    3    3  502    0  0.11611364861E+04  0.29809002667E+02 -0.13374690280E+04  0.17714259558E+04  0.50400001928E-02 0.  1.
       -1    1    3    3    0  502 -0.11611364861E+04 -0.29809002667E+02  0.10339201404E+04  0.15550297016E+04  0.50400001928E-02 0. -1.
</event>
<event>
 5   0  0.2875829E-07  0.3302560E+04  0.7818609E-02  0.8162244E-01
       -2   -1    0    0    0  501  0.00000000000E+00  0.00000000000E+00  0.29050607558E+04  0.29050607558E+04  0.25500000920E-02 0. -1.
        2   -1    0    0  501    0  0.00000000000E+00  0.00000000000E+00 -0.93861216384E+03  0.93861216385E+03  0.25500000920E-02 0.  1.
    10030    2    1    2    0    0  0.00000000000E+00  0.00000000000E+00  0.19664485919E+04  0.38436729196E+04  0.33025598327E+04 0.  0.
        3    1    3    3  502    0  0.38489401176E+03 -0.10766006967E+04  0.23698696469E+04  0.26312534302E+04  0.10100000352E+00 0. -1.
       -3    1    3    3    0  502 -0.38489401176E+03  0.10766006967E+04 -0.40342105499E+03  0.12124194894E+04  0.10100000352E+00 0.  1.
</event>
<event>
 5   0  0.9454010E-08  0.3297776E+04  0.7818609E-02  0.8163461E-01
        1   -1    0    0  501    0  0.00000000000E+00  0.00000000000E+00  0.17246357985E+04  0.17246357985E+04  0.50400001928E-02 0.  1.
       -1   -1    0    0    0  501  0.00000000000E+00  0.00000000000E+00 -0.15764672707E+04  0.15764672707E+04  0.50400001928E-02 0. -1.
    10030    2    1    2    0    0  0.00000000000E+00  0.00000000000E+00  0.14816852772E+03  0.33011030692E+04  0.32977761539E+04 0.  0.
        2    1    3    3  502    0 -0.10674955731E+04 -0.56075788365E+03  0.11998679902E+04  0.17010818312E+04  0.25500000920E-02 0.  1.
       -2    1    3    3    0  502  0.10674955731E+04  0.56075788365E+03 -0.10516994624E+04  0.16000212380E+04  0.25500000920E-02 0. -1.
</event>
<event>
 5   0  0.8805125E-08  0.3298464E+04  0.7818609E-02  0.8163286E-01
        1   -1    0    0  501    0  0.00000000000E+00  0.00000000000E+00  0.23000767540E+04  0.23000767540E+04  0.50400001928E-02 0. -1.
       -1   -1    0    0    0  501  0.00000000000E+00  0.00000000000E+00 -0.11825548296E+04  0.11825548296E+04  0.50400001928E-02 0.  1.
    10030    2    1    2    0    0  0.00000000000E+00  0.00000000000E+00  0.11175219244E+04  0.34826315835E+04  0.32984644147E+04 0.  0.
        4    1    3    3  502    0  0.49187808309E+03  0.13652092987E+04 -0.26872264492E+03  0.14757892637E+04  0.12699999809E+01 0. -1.
       -4    1    3    3    0  502 -0.49187808309E+03 -0.13652092987E+04  0.13862445693E+04  0.20068423199E+04  0.12699999809E+01 0.  1.
</event>
<event>
 5   0  0.2713815E-07  0.3251830E+04  0.7818609E-02  0.8175262E-01
        2   -1    0    0  501    0  0.00000000000E+00  0.00000000000E+00  0.16318167420E+04  0.16318167420E+04  0.25500000920E-02 0.  1.
       -2   -1    0    0    0  501  0.00000000000E+00  0.00000000000E+00 -0.16200346817E+04  0.16200346817E+04  0.25500000920E-02 0. -1.
    10030    2    1    2    0    0  0.00000000000E+00  0.00000000000E+00  0.11782060259E+02  0.32518514237E+04  0.32518300793E+04 0.  0.
        4    1    3    3  502    0 -0.14178003421E+04  0.54265602029E+03 -0.57631957320E+03  0.16238162549E+04  0.12699999809E+01 0. -1.
       -4    1    3    3    0  502  0.14178003421E+04 -0.54265602029E+03  0.58810163346E+03  0.16280351687E+04  0.12699999809E+01 0.  1.
</event>
<event>
 5   0  0.9810351E-08  0.3302006E+04  0.7818609E-02  0.8162385E-01
       -1   -1    0    0    0  501  0.00000000000E+00  0.00000000000E+00  0.15839243507E+04  0.15839243507E+04  0.50400001928E-02 0.  1.
        1   -1    0    0  501    0  0.00000000000E+00  0.00000000000E+00 -0.17209219864E+04  0.17209219864E+04  0.50400001928E-02 0. -1.
    10030    2    1    2    0    0  0.00000000000E+00  0.00000000000E+00 -0.13699763573E+03  0.33048463372E+04  0.33020055966E+04 0.  0.
        5    1    3    3  502    0 -0.13605048631E+04  0.73062239086E+03 -0.65295803909E+03  0.16766510822E+04  0.46999998093E+01 0. -1.
       -5    1    3    3    0  502  0.13605048631E+04 -0.73062239086E+03  0.51596040336E+03  0.16281952550E+04  0.46999998093E+01 0.  1.
</event>
<event>
 5   0  0.2727168E-07  0.3294122E+04  0.7818609E-02  0.8164393E-01
       -2   -1    0    0    0  501  0.00000000000E+00  0.00000000000E+00  0.17515636832E+04  0.17515636832E+04  0.25500000920E-02 0. -1.
        2   -1    0    0  501    0  0.00000000000E+00  0.00000000000E+00 -0.15487928160E+04  0.15487928160E+04  0.25500000920E-02 0.  1.
    10030    2    1    2    0    0  0.00000000000E+00  0.00000000000E+00  0.20277086717E+03  0.33003564992E+04  0.32941215820E+04 0.  0.
        2    1    3    3  502    0  0.57773123517E+03  0.32396733848E+03 -0.14094744772E+04  0.15573524066E+04  0.25500000920E-02 0.  1.
       -2    1    3    3    0  502 -0.57773123517E+03 -0.32396733848E+03  0.16122453443E+04  0.17430040926E+04  0.25500000920E-02 0. -1.
</event>
<event>
 5   0  0.8805125E-08  0.3292976E+04  0.7818609E-02  0.8164685E-01
       -1   -1    0    0    0  501  0.00000000000E+00  0.00000000000E+00  0.11683291810E+04  0.11683291810E+04  0.50400001928E-02 0.  1.
        1   -1    0    0  501    0  0.00000000000E+00  0.00000000000E+00 -0.23203415968E+04  0.23203415968E+04  0.50400001928E-02 0. -1.
    10030    2    1    2    0    0  0.00000000000E+00  0.00000000000E+00 -0.11520124158E+04  0.34886707778E+04  0.32929760384E+04 0.  0.
        4    1    3    3  502    0 -0.59538162899E+03  0.13864675372E+04  0.12205122184E+03  0.15138261556E+04  0.12699999809E+01 0. -1.
       -4    1    3    3    0  502  0.59538162899E+03 -0.13864675372E+04 -0.12740636376E+04  0.19748446221E+04  0.12699999809E+01 0.  1.
</event>
<event>
 5   0  0.9181760E-08  0.3302955E+04  0.7818609E-02  0.8162144E-01
       -1   -1    0    0    0  501  0.00000000000E+00  0.00000000000E+00  0.11515726234E+04  0.11515726234E+04  0.50400001928E-02 0.  1.
        1   -1    0    0  501    0  0.00000000000E+00  0.00000000000E+00 -0.23683935209E+04  0.23683935210E+04  0.50400001928E-02 0. -1.
    10030    2    1    2    0    0  0.00000000000E+00  0.00000000000E+00 -0.12168208975E+04  0.35199661444E+04  0.33029545200E+04 0.  0.
        1    1    3    3  502    0  0.14138193527E+04  0.51684638259E+03  0.11545309837E+03  0.15097499009E+04  0.50400001928E-02 0.  1.
       -1    1    3    3    0  502 -0.14138193527E+04 -0.51684638259E+03 -0.13322739959E+04  0.20102162435E+04  0.50400001928E-02 0. -1.
</event>
<event>
 5   0  0.2727168E-07  0.3300912E+04  0.7818609E-02  0.8162663E-01
       -2   -1    0    0    0  501  0.00000000000E+00  0.00000000000E+00  0.91357285951E+03  0.91357285951E+03  0.25500000920E-02 0. -1.
        2   -1    0    0  501    0  0.00000000000E+00  0.00000000000E+00 -0.29817057619E+04  0.29817057619E+04  0.25500000920E-02 0.  1.
    10030    2    1    2    0    0  0.00000000000E+00  0.00000000000E+00 -0.20681329024E+04  0.38952786214E+04  0.33009122734E+04 0.  0.
        2    1    3    3  502    0  0.77523099279E+03 -0.14068899807E+04 -0.58675794024E+03  0.17101483533E+04  0.25500000920E-02 0.  1.
       -2    1    3    3    0  502 -0.77523099279E+03  0.14068899807E+04 -0.14813749621E+04  0.21851302681E+04  0.25500000920E-02 0. -1.
</event>
<event>
 5   0  0.2824402E-07  0.3311291E+04  0.7818609E-02  0.8160028E-01
       -2   -1    0    0    0  501  0.00000000000E+00  0.00000000000E+00  0.21695969808E+04  0.21695969808E+04  0.25500000920E-02 0. -1.
        2   -1    0    0  501    0  0.00000000000E+00  0.00000000000E+00 -0.12634425904E+04  0.12634425904E+04  0.25500000920E-02 0.  1.
    10030    2    1    2    0    0  0.00000000000E+00  0.00000000000E+00  0.90615439038E+03  0.34330395712E+04  0.33112905216E+04 0.  0.
        1    1    3    3  502    0  0.10725702506E+03  0.11883635569E+04 -0.73692692547E+03  0.14024169516E+04  0.50400001928E-02 0.  1.
       -1    1    3    3    0  502 -0.10725702506E+03 -0.11883635569E+04  0.16430813158E+04  0.20306226196E+04  0.50400001928E-02 0. -1.
</event>
<event>
 5   0  0.9454010E-08  0.3296439E+04  0.7818609E-02  0.8163802E-01
       -1   -1    0    0    0  501  0.00000000000E+00  0.00000000000E+00  0.15240109048E+04  0.15240109048E+04  0.50400001928E-02 0.  1.
        1   -1    0    0  501    0  0.00000000000E+00  0.00000000000E+00 -0.17825517344E+04  0.17825517344E+04  0.50400001928E-02 0. -1.
    10030    2    1    2    0    0  0.00000000000E+00  0.00000000000E+00 -0.25854082960E+03  0.33065626393E+04  0.32964394620E+04 0.  0.
        2    1    3    3  502    0  0.10968797694E+04  0.78135587502E+03 -0.10824338213E+04  0.17278093673E+04  0.25500000920E-02 0. -1.
       -2    1    3    3    0  502 -0.10968797694E+04 -0.78135587502E+03  0.82389299173E+03  0.15787532720E+04  0.25500000920E-02 0.  1.
</event>
<event>
 5   0  0.9181760E-08  0.3304650E+04  0.7818609E-02  0.8161713E-01
       -1   -1    0    0    0  501  0.00000000000E+00  0.00000000000E+00  0.19436678241E+04  0.19436678241E+04  0.50400001928E-02 0.  1.
        1   -1    0    0  501    0  0.00000000000E+00  0.00000000000E+00 -0.14046522087E+04  0.14046522087E+04  0.50400001928E-02 0. -1.
    10030    2    1    2    0    0  0.00000000000E+00  0.00000000000E+00  0.53901561537E+03  0.33483200328E+04  0.33046496348E+04 0.  0.
        1    1    3    3  502    0 -0.55385711998E+03  0.10078805500E+04  0.14716078483E+04  0.18676751783E+04  0.50400001928E-02 0.  1.
       -1    1    3    3    0  502  0.55385711998E+03 -0.10078805500E+04 -0.93259223295E+03  0.14806448546E+04  0.50400001928E-02 0. -1.
</event>
<event>
 5   0  0.9181760E-08  0.3294202E+04  0.7818609E-02  0.8164372E-01
        1   -1    0    0  501    0  0.00000000000E+00  0.00000000000E+00  0.10582123493E+04  0.10582123493E+04  0.50400001928E-02 0. -1.
       -1   -1    0    0    0  501  0.00000000000E+00  0.00000000000E+00 -0.25637031003E+04  0.25637031003E+04  0.50400001928E-02 0.  1.
    10030    2    1    2    0    0  0.00000000000E+00  0.00000000000E+00 -0.15054907511E+04  0.36219154496E+04  0.32942023500E+04 0.  0.
        1    1    3    3  502    0 -0.27222900088E+03  0.14507780920E+04 -0.15562526297E+04  0.21449447425E+04  0.50400001928E-02 0.  1.
       -1    1    3    3    0  502  0.27222900088E+03 -0.14507780920E+04  0.50761878583E+02  0.14769707071E+04  0.50400001928E-02 0. -1.
</event>
<event>
 5   0  0.2713815E-07  0.3291978E+04  0.7818609E-02  0.8164940E-01
        2   -1    0    0  501    0  0.00000000000E+00  0.00000000000E+00  0.26317347327E+04  0.26317347327E+04  0.25500000920E-02 0.  1.
       -2   -1    0    0    0  501  0.00000000000E+00  0.00000000000E+00 -0.10294651748E+04  0.10294651748E+04  0.25500000920E-02 0. -1.
    10030    2    1    2    0    0  0.00000000000E+00  0.00000000000E+00  0.16022695579E+04  0.36611999075E+04  0.32919776771E+04 0.  0.
        4    1    3    3  502    0 -0.34657743546E+03 -0.15780477929E+04  0.11509379447E+04  0.19836860943E+04  0.12699999809E+01 0.  1.
       -4    1    3    3    0  502  0.34657743546E+03  0.15780477929E+04  0.45133161325E+03  0.16775138132E+04  0.12699999809E+01 0. -1.
</event>
<event>
 5   0  0.9283910E-08  0.3300259E+04  0.7818609E-02  0.8162829E-01
       -1   -1    0    0    0  501  0.00000000000E+00  0.00000000000E+00  0.14205529244E+04  0.14205529244E+04  0.50400001928E-02 0.  1.
        1   -1    0    0  501    0  0.00000000000E+00  0.00000000000E+00 -0.19168084215E+04  0.19168084215E+04  0.50400001928E-02 0. -1.
    10030    2    1    2    0    0  0.00000000000E+00  0.00000000000E+00 -0.49625549710E+03  0.33373613460E+04  0.33002592679E+04 0.  0.
        3    1    3    3  502    0 -0.21755397122E+03  0.16343091031E+04 -0.31695036606E+03  0.16789143872E+04  0.10100000352E+00 0.  1.
       -3    1    3    3    0  502  0.21755397122E+03 -0.16343091031E+04 -0.17930513104E+03  0.16584469588E+04  0.10100000352E+00 0. -1.
</event>
<event>
 5   0  0.9181760E-08  0.3289546E+04  0.7818609E-02  0.8165560E-01
        1   -1    0    0  501    0  0.00000000000E+00  0.00000000000E+00  0.30000558050E+04  0.30000558050E+04  0.50400001928E-02 0. -1.
       -1   -1    0    0    0  501  0.00000000000E+00  0.00000000000E+00 -0.90174265983E+03  0.90174265985E+03  0.50400001928E-02 0.  1.
    10030    2    1    2    0    0  0.00000000000E+00  0.00000000000E+00  0.20983131452E+04  0.39017984649E+04  0.32895460485E+04 0.  0.
        1    1    3    3  502    0 -0.11752222660E+04 -0.44162630249E+03  0.23095162958E+04  0.26286967657E+04  0.50400001928E-02 0. -1.
       -1    1    3    3    0  502  0.11752222660E+04  0.44162630249E+03 -0.21120315061E+03  0.12731016992E+04  0.50400001928E-02 0.  1.
</event>
<event>
 5   0  0.9181760E-08  0.3305581E+04  0.7818609E-02  0.8161477E-01
       -1   -1    0    0    0  501  0.00000000000E+00  0.00000000000E+00  0.14491489414E+04  0.14491489414E+04  0.50400001928E-02 0. -1.
        1   -1    0    0  501    0  0.00000000000E+00  0.00000000000E+00 -0.18850484346E+04  0.18850484346E+04  0.50400001928E-02 0.  1.
    10030    2    1    2    0    0  0.00000000000E+00  0.00000000000E+00 -0.43589949323E+03  0.33341973760E+04  0.33055807015E+04 0.  0.
        1    1    3    3  502    0 -0.10543277305E+04 -0.12675428233E+04 -0.10099696377E+03  0.16518087537E+04  0.50400001928E-02 0. -1.
       -1    1    3    3    0  502  0.10543277305E+04  0.12675428233E+04 -0.33490252946E+03  0.16823886223E+04  0.50400001928E-02 0.  1.
</event>
<event>
 5   0  0.2713815E-07  0.3299579E+04  0.7818609E-02  0.8163003E-01
       -2   -1    0    0    0  501  0.00000000000E+00  0.00000000000E+00  0.13116420770E+04  0.13116420770E+04  0.25500000920E-02 0. -1.
        2   -1    0    0  501    0  0.00000000000E+00  0.00000000000E+00 -0.20751123763E+04  0.20751123763E+04  0.25500000920E-02 0.  1.
    10030    2    1    2    0    0  0.00000000000E+00  0.00000000000E+00 -0.76347029927E+03  0.33867544534E+04  0.32995785836E+04 0.  0.
        4    1    3    3  502    0  0.44082669482E+02 -0.99058607367E+03 -0.17351313492E+04  0.19984710313E+04  0.12699999809E+01 0.  1.
       -4    1    3    3    0  502 -0.44082669482E+02  0.99058607367E+03  0.97166104993E+03  0.13882834221E+04  0.12699999809E+01 0. -1.
</event>
<event>
 5   0  0.2875829E-07  0.3296892E+04  0.7818609E-02  0.8163687E-01
       -2   -1    0    0    0  501  0.00000000000E+00  0.00000000000E+00  0.11818935839E+04  0.11818935839E+04  0.25500000920E-02 0.  1.
        2   -1    0    0  501    0  0.00000000000E+00  0.00000000000E+00 -0.22991696124E+04  0.22991696124E+04  0.25500000920E-02 0. -1.
    10030    2    1    2    0    0  0.00000000000E+00  0.00000000000E+00 -0.11172760285E+04  0.34810631963E+04  0.32968917563E+04 0.  0.
        3    1    3    3  502    0 -0.53481922591E+03 -0.83359417969E+03 -0.19499995042E+04  0.21871005778E+04  0.10100000352E+00 0. -1.
       -3    1    3    3    0  502  0.53481922591E+03  0.83359417969E+03  0.83272347574E+03  0.12939626185E+04  0.10100000352E+00 0.  1.
</event>
<event>
 5   0  0.2703956E-07  0.3301054E+04  0.7818609E-02  0.8162627E-01
        2   -1    0    0  501    0  0.00000000000E+00  0.00000000000E+00  0.21816601390E+04  0.21816601390E+04  0.25500000920E-02 0. -1.
       -2   -1    0    0    0  501  0.00000000000E+00  0.00000000000E+00 -0.12487003433E+04  0.12487003433E+04  0.25500000920E-02 0.  1.
    10030    2    1    2    0    0  0.00000000000E+00  0.00000000000E+00  0.93295979570E+03  0.34303604824E+04  0.33010542344E+04 0.  0.
        5    1    3    3  502    0  0.43340566170E+03 -0.75340281591E+03 -0.99160779561E+03  0.13186221524E+04  0.46999998093E+01 0.  1.
       -5    1    3    3    0  502 -0.43340566170E+03  0.75340281591E+03  0.19245675913E+04  0.21117383299E+04  0.46999998093E+01 0. -1.
</event>
<event>
 5   0  0.2875829E-07  0.3301214E+04  0.7818609E-02  0.8162587E-01
        2   -1    0    0  501    0  0.00000000000E+00  0.00000000000E+00  0.17441053816E+04  0.17441053816E+04  0.25500000920E-02 0. -1.
       -2   -1    0    0    0  501  0.00000000000E+00  0.00000000000E+00 -0.15621206506E+04  0.15621206506E+04  0.25500000920E-02 0.  1.
    10030    2    1    2    0    0  0.00000000000E+00  0.00000000000E+00  0.18198473104E+03  0.33062260322E+04  0.33012137364E+04 0.  0.
        3    1    3    3  502    0 -0.89558934782E+03 -0.12071261993E+04 -0.59214964660E+03  0.16155108031E+04  0.10100000352E+00 0.  1.
       -3    1    3    3    0  502  0.89558934782E+03  0.12071261993E+04  0.77413437764E+03  0.16907152291E+04  0.10100000352E+00 0. -1.
</event>
<event>
 5   0  0.9810351E-08  0.3297561E+04  0.7818609E-02  0.8163516E-01
       -1   -1    0    0    0  501  0.00000000000E+00  0.00000000000E+00  0.10186807238E+04  0.10186807238E+04  0.50400001928E-02 0.  1.
        1   -1    0    0  501    0  0.00000000000E+00  0.00000000000E+00 -0.26686249513E+04  0.26686249513E+04  0.50400001928E-02 0. -1.
    10030    2    1    2    0    0  0.00000000000E+00  0.00000000000E+00 -0.16499442275E+04  0.36873056751E+04  0.32975607936E+04 0.  0.
        5    1    3    3  502    0  0.45412111509E+03  0.10647567184E+04  0.48790221985E+03  0.12561861019E+04  0.46999998093E+01 0.  1.
       -5    1    3    3    0  502 -0.45412111509E+03 -0.10647567184E+04 -0.21378464474E+04  0.24311195732E+04  0.46999998093E+01 0. -1.
</event>
<event>
 5   0  0.2703956E-07  0.3302266E+04  0.7818609E-02  0.8162319E-01
        2   -1    0    0  501    0  0.00000000000E+00  0.00000000000E+00  0.14310936058E+04  0.14310936058E+04  0.25500000920E-02 0.  1.
       -2   -1    0    0    0  501  0.00000000000E+00  0.00000000000E+00 -0.19050049936E+04  0.19050049936E+04  0.25500000920E-02 0. -1.
    10030    2    1    2    0    0  0.00000000000E+00  0.00000000000E+00 -0.47391138784E+03  0.33360985994E+04  0.33022661706E+04 0.  0.
        5    1    3    3  502    0 -0.57345489027E+03 -0.40814308273E+03  0.12719283410E+04  0.14537039182E+04  0.46999998093E+01 0.  1.
       -5    1    3    3    0  502  0.57345489027E+03  0.40814308273E+03 -0.17458397288E+04  0.18823946812E+04  0.46999998093E+01 0. -1.
</event>
<event>
 5   0  0.2727168E-07  0.3300474E+04  0.7818609E-02  0.8162775E-01
        2   -1    0    0  501    0  0.00000000000E+00  0.00000000000E+00  0.13556418208E+04  0.13556418208E+04  0.25500000920E-02 0. -1.
       -2   -1    0    0    0  501  0.00000000000E+00  0.00000000000E+00 -0.20088510984E+04  0.20088510984E+04  0.25500000920E-02 0.  1.
    10030    2    1    2    0    0  0.00000000000E+00  0.00000000000E+00 -0.65320927761E+03  0.33644929192E+04  0.33004742452E+04 0.  0.
        2    1    3    3  502    0  0.12364919579E+04  0.10915580275E+04 -0.38122824629E+03  0.16928515190E+04  0.25500000920E-02 0. -1.
       -2    1    3    3    0  502 -0.12364919579E+04 -0.10915580275E+04 -0.27198103132E+03  0.16716414002E+04  0.25500000920E-02 0.  1.
</event>
<event>
 5   0  0.2703956E-07  0.3300290E+04  0.7818609E-02  0.8162821E-01
       -2   -1    0    0    0  501  0.00000000000E+00  0.00000000000E+00  0.11174702293E+04  0.11174702293E+04  0.25500000920E-02 0. -1.
        2   -1    0    0  501    0  0.00000000000E+00  0.00000000000E+00 -0.24367353415E+04  0.24367353415E+04  0.25500000920E-02 0.  1.
    10030    2    1    2    0    0  0.00000000000E+00  0.00000000000E+00 -0.13192651122E+04  0.35542055709E+04  0.33002904120E+04 0.  0.
        5    1    3    3  502    0  0.15521820404E+04 -0.30619570322E+03 -0.15458205021E+03  0.15896359946E+04  0.46999998093E+01 0. -1.
       -5    1    3    3    0  502 -0.15521820404E+04  0.30619570322E+03 -0.11646830620E+04  0.19645695763E+04  0.46999998093E+01 0.  1.
</event>
<event>
 5   0  0.9181760E-08  0.3324803E+04  0.7818609E-02  0.8156613E-01
       -1   -1    0    0    0  501  0.00000000000E+00  0.00000000000E+00  0.96663442201E+03  0.96663442202E+03  0.50400001928E-02 0. -1.
        1   -1    0    0  501    0  0.00000000000E+00  0.00000000000E+00 -0.28589694232E+04  0.28589694232E+04  0.50400001928E-02 0.  1.
    10030    2    1    2    0    0  0.00000000000E+00  0.00000000000E+00 -0.18923350012E+04  0.38256038452E+04  0.33248027045E+04 0.  0.
        1    1    3    3  502    0  0.36933340541E+02  0.12620484734E+04 -0.21904659023E+04  0.25282941462E+04  0.50400001928E-02 0.  1.
       -1    1    3    3    0  502 -0.36933340541E+02 -0.12620484734E+04  0.29813090108E+03  0.12973096990E+04  0.50400001928E-02 0. -1.
</event>
<event>
 5   0  0.2727168E-07  0.3300063E+04  0.7818609E-02  0.8162879E-01
       -2   -1    0    0    0  501  0.00000000000E+00  0.00000000000E+00  0.11854780420E+04  0.11854780420E+04  0.25500000920E-02 0. -1.
        2   -1    0    0  501    0  0.00000000000E+00  0.00000000000E+00 -0.22966298175E+04  0.22966298175E+04  0.25500000920E-02 0.  1.
    10030    2    1    2    0    0  0.00000000000E+00  0.00000000000E+00 -0.11111517754E+04  0.34821078595E+04  0.33000631626E+04 0.  0.
        2    1    3    3  502    0 -0.20720460121E+03 -0.93684877859E+03 -0.19720072475E+04  0.21930417152E+04  0.25500000920E-02 0.  1.
       -2    1    3    3    0  502  0.20720460121E+03  0.93684877859E+03  0.86085547201E+03  0.12890661443E+04  0.25500000920E-02 0. -1.
</event>
<event>
 5   0  0.9810351E-08  0.3299443E+04  0.7818609E-02  0.8163037E-01
        1   -1    0    0  501    0  0.00000000000E+00  0.00000000000E+00  0.19619263796E+04  0.19619263797E+04  0.50400001928E-02 0. -1.
       -1   -1    0    0    0  501  0.00000000000E+00  0.00000000000E+00 -0.13871986395E+04  0.13871986395E+04  0.50400001928E-02 0.  1.
    10030    2    1    2    0    0  0.00000000000E+00  0.00000000000E+00  0.57472774015E+03  0.33491250192E+04  0.32994433498E+04 0.  0.
        5    1    3    3  502    0 -0.39370456670E+03 -0.25519273400E+03  0.18927707213E+04  0.19500588993E+04  0.46999998093E+01 0. -1.
       -5    1    3    3    0  502  0.39370456670E+03  0.25519273400E+03 -0.13180429812E+04  0.13990661198E+04  0.46999998093E+01 0.  1.
</event>
<event>
 5   0  0.9283910E-08  0.3307579E+04  0.7818609E-02  0.8160970E-01
        1   -1    0    0  501    0  0.00000000000E+00  0.00000000000E+00  0.18768062153E+04  0.18768062153E+04  0.50400001928E-02 0. -1.
       -1   -1    0    0    0  501  0.00000000000E+00  0.00000000000E+00 -0.14572735303E+04  0.14572735303E+04  0.50400001928E-02 0.  1.
    10030    2    1    2    0    0  0.00000000000E+00  0.00000000000E+00  0.41953268508E+03  0.33340797456E+04  0.33075791867E+04 0.  0.
        3    1    3    3  502    0  0.47728055067E+03  0.13400666037E+04  0.10599961611E+04  0.17740256758E+04  0.10100000352E+00 0. -1.
       -3    1    3    3    0  502 -0.47728055067E+03 -0.13400666037E+04 -0.64046347604E+03  0.15600540698E+04  0.10100000352E+00 0.  1.
</event>
<event>
 5   0  0.2713815E-07  0.3297096E+04  0.7818609E-02  0.8163635E-01
       -2   -1    0    0    0  501  0.00000000000E+00  0.00000000000E+00  0.12266372510E+04  0.12266372510E+04  0.25500000920E-02 0. -1.
        2   -1    0    0  501    0  0.00000000000E+00  0.00000000000E+00 -0.22155781521E+04  0.22155781521E+04  0.25500000920E-02 0.  1.
    10030    2    1    2    0    0  0.00000000000E+00  0.00000000000E+00 -0.98894090107E+03  0.34422154031E+04  0.32970961126E+04 0.  0.
        4    1    3    3  502    0 -0.13310218259E+04  0.42690243264E+03  0.41797908708E+03  0.14589629598E+04  0.12699999809E+01 0. -1.
       -4    1    3    3    0  502  0.13310218259E+04 -0.42690243264E+03 -0.14069199882E+04  0.19832524433E+04  0.12699999809E+01 0.  1.
</event>
<event>
 5   0  0.9810351E-08  0.3310223E+04  0.7818609E-02  0.8160299E-01
        1   -1    0    0  501    0  0.00000000000E+00  0.00000000000E+00  0.79019075514E+03  0.79019075516E+03  0.50400001928E-02 0. -1.
       -1   -1    0    0    0  501  0.00000000000E+00  0.00000000000E+00 -0.34667504426E+04  0.34667504426E+04  0.50400001928E-02 0.  1.
    10030    2    1    2    0    0  0.00000000000E+00  0.00000000000E+00 -0.26765596875E+04  0.42569411978E+04  0.33102230439E+04 0.  0.
        5    1    3    3  502    0  0.15162910612E+02 -0.39973294259E+03 -0.34036410415E+04  0.34270702894E+04  0.46999998093E+01 0.  1.
       -5    1    3    3    0  502 -0.15162910612E+02  0.39973294259E+03  0.72708135400E+03  0.82987090838E+03  0.46999998093E+01 0. -1.
</event>
<event>
 5   0  0.9181760E-08  0.3297348E+04  0.7818609E-02  0.8163570E-01
        1   -1    0    0  501    0  0.00000000000E+00  0.00000000000E+00  0.22993079585E+04  0.22993079585E+04  0.50400001928E-02 0.  1.
       -1   -1    0    0    0  501  0.00000000000E+00  0.00000000000E+00 -0.11821496312E+04  0.11821496313E+04  0.50400001928E-02 0. -1.
    10030    2    1    2    0    0  0.00000000000E+00  0.00000000000E+00  0.11171583272E+04  0.34814575898E+04  0.32973480588E+04 0.  0.
        1    1    3    3  502    0 -0.40093208414E+03  0.91358528925E+02 -0.11271354716E+04  0.11998030207E+04  0.50400001928E-02 0. -1.
       -1    1    3    3    0  502  0.40093208414E+03 -0.91358528925E+02  0.22442937989E+04  0.22816545691E+04  0.50400001928E-02 0.  1.
</event>
<event>
 5   0  0.9810351E-08  0.3300582E+04  0.7818609E-02  0.8162747E-01
       -1   -1    0    0    0  501  0.00000000000E+00  0.00000000000E+00  0.22605333570E+04  0.22605333570E+04  0.50400001928E-02 0. -1.
        1   -1    0    0  501    0  0.00000000000E+00  0.00000000000E+00 -0.12047864350E+04  0.12047864351E+04  0.50400001928E-02 0.  1.
    10030    2    1    2    0    0  0.00000000000E+00  0.00000000000E+00  0.10557469220E+04  0.34653197921E+04  0.33005817212E+04 0.  0.
        5    1    3    3  502    0 -0.75344865041E+03  0.14682116914E+04  0.51699306291E+03  0.17293450658E+04  0.46999998093E+01 0.  1.
       -5    1    3    3    0  502  0.75344865041E+03 -0.14682116914E+04  0.53875385909E+03  0.17359747263E+04  0.46999998093E+01 0. -1.
</event>
<event>
 5   0  0.2703956E-07  0.3309839E+04  0.7818609E-02  0.8160396E-01
        2   -1    0    0  501    0  0.00000000000E+00  0.00000000000E+00  0.15920711114E+04  0.15920711114E+04  0.25500000920E-02 0.  1.
       -2   -1    0    0    0  501  0.00000000000E+00  0.00000000000E+00 -0.17202488049E+04  0.17202488049E+04  0.25500000920E-02 0. -1.
    10030    2    1    2    0    0  0.00000000000E+00  0.00000000000E+00 -0.12817769357E+03  0.33123199163E+04  0.33098389246E+04 0.  0.
        5    1    3    3  502    0  0.13910742226E+04  0.61875867256E+03  0.58507801352E+03  0.16310389816E+04  0.46999998093E+01 0.  1.
       -5    1    3    3    0  502 -0.13910742226E+04 -0.61875867256E+03 -0.71325570709E+03  0.16812809347E+04  0.46999998093E+01 0. -1.
</event>
<event>
 5   0  0.9181760E-08  0.3298191E+04  0.7818609E-02  0.8163356E-01
        1   -1    0    0  501    0  0.00000000000E+00  0.00000000000E+00  0.10217887880E+04  0.10217887880E+04  0.50400001928E-02 0.  1.
       -1   -1    0    0    0  501  0.00000000000E+00  0.00000000000E+00 -0.26615238895E+04  0.26615238895E+04  0.50400001928E-02 0. -1.
    10030    2    1    2    0    0  0.00000000000E+00  0.00000000000E+00 -0.16397351015E+04  0.36833126776E+04  0.32981905763E+04 0.  0.
        1    1    3    3  502    0  0.71171971224E+02  0.74440857763E+03  0.82155519030E+03  0.11109286704E+04  0.50400001928E-02 0.  1.
       -1    1    3    3    0  502 -0.71171971224E+02 -0.74440857763E+03 -0.24612902918E+04  0.25723840072E+04  0.50400001928E-02 0. -1.
</event>
<event>
 5   0  0.8805125E-08  0.3300074E+04  0.7818609E-02  0.8162877E-01
        3   -1    0    0  501    0  0.00000000000E+00  0.00000000000E+00  0.18536071256E+04  0.18536071283E+04  0.10100000352E+00 0. -1.
       -3   -1    0    0    0  501  0.00000000000E+00  0.00000000000E+00 -0.14688238870E+04  0.14688238905E+04  0.10100000352E+00 0.  1.
    10030    2    1    2    0    0  0.00000000000E+00  0.00000000000E+00  0.38478323856E+03  0.33224310188E+04  0.33000742013E+04 0.  0.
        3    1    3    3  502    0  0.46969268243E+03 -0.93916172976E+03 -0.10890179390E+04  0.15128106465E+04  0.10100000352E+00 0.  1.
       -3    1    3    3    0  502 -0.46969268243E+03  0.93916172976E+03  0.14738011776E+04  0.18096203723E+04  0.10100000352E+00 0. -1.
</event>
<event>
 5   0  0.2703956E-07  0.3294121E+04  0.7818609E-02  0.8164393E-01
       -2   -1    0    0    0  501  0.00000000000E+00  0.00000000000E+00  0.14418089365E+04  0.14418089366E+04  0.25500000920E-02 0.  1.
        2   -1    0    0  501    0  0.00000000000E+00  0.00000000000E+00 -0.18815308072E+04  0.18815308072E+04  0.25500000920E-02 0. -1.
    10030    2    1    2    0    0  0.00000000000E+00  0.00000000000E+00 -0.43972187068E+03  0.33233397438E+04  0.32941207824E+04 0.  0.
        5    1    3    3  502    0  0.12992049897E+04 -0.77844756197E+03 -0.87280457515E+03  0.17480629646E+04  0.46999998093E+01 0. -1.
       -5    1    3    3    0  502 -0.12992049897E+04  0.77844756197E+03  0.43308270447E+03  0.15752767791E+04  0.46999998093E+01 0.  1.
</event>
<event>
 5   0  0.9810351E-08  0.3301142E+04  0.7818609E-02  0.8162605E-01
        1   -1    0    0  501    0  0.00000000000E+00  0.00000000000E+00  0.15800208625E+04  0.15800208625E+04  0.50400001928E-02 0.  1.
       -1   -1    0    0    0  501  0.00000000000E+00  0.00000000000E+00 -0.17242708725E+04  0.17242708725E+04  0.50400001928E-02 0. -1.
    10030    2    1    2    0    0  0.00000000000E+00  0.00000000000E+00 -0.14425001008E+03  0.33042917350E+04  0.33011415911E+04 0.  0.
        5    1    3    3  502    0 -0.70680721114E+02 -0.27163401712E+03 -0.17002013563E+04  0.17232201094E+04  0.46999998093E+01 0. -1.
       -5    1    3    3    0  502  0.70680721114E+02  0.27163401712E+03  0.15559513462E+04  0.15810716256E+04  0.46999998093E+01 0.  1.
</event>
<event>
 5   0  0.2713815E-07  0.3300364E+04  0.7818609E-02  0.8162803E-01
       -2   -1    0    0    0  501  0.00000000000E+00  0.00000000000E+00  0.17828890848E+04  0.17828890848E+04  0.25500000920E-02 0.  1.
        2   -1    0    0  501    0  0.00000000000E+00  0.00000000000E+00 -0.15273529192E+04  0.15273529192E+04  0.25500000920E-02 0. -1.
    10030    2    1    2    0    0  0.00000000000E+00  0.00000000000E+00  0.25553616553E+03  0.33102420040E+04  0.33003641304E+04 0.  0.
        4    1    3    3  502    0 -0.26867747155E+03 -0.72035167613E+03 -0.13367407923E+04  0.15420673395E+04  0.12699999809E+01 0. -1.
       -4    1    3    3    0  502  0.26867747155E+03  0.72035167613E+03  0.15922769578E+04  0.17681746645E+04  0.12699999809E+01 0.  1.
</event>
<event>
 5   0  0.8805125E-08  0.3305106E+04  0.7818609E-02  0.8161597E-01
        1   -1    0    0  501    0  0.00000000000E+00  0.00000000000E+00  0.18681011022E+04  0.18681011022E+04  0.50400001928E-02 0. -1.
       -1   -1    0    0    0  501  0.00000000000E+00  0.00000000000E+00 -0.14618754308E+04  0.14618754308E+04  0.50400001928E-02 0.  1.
    10030    2    1    2    0    0  0.00000000000E+00  0.00000000000E+00  0.40622567137E+03  0.33299765330E+04  0.33051058098E+04 0.  0.
        4    1    3    3  502    0 -0.44652809860E+03 -0.14213240707E+04 -0.51737671919E+03  0.15770953488E+04  0.12699999809E+01 0.  1.
       -4    1    3    3    0  502  0.44652809860E+03  0.14213240707E+04  0.92360239056E+03  0.17528811841E+04  0.12699999809E+01 0. -1.
</event>
<event>
 5   0  0.9454010E-08  0.3300579E+04  0.7818609E-02  0.8162748E-01
       -1   -1    0    0    0  501  0.00000000000E+00  0.00000000000E+00  0.32927891091E+04  0.32927891091E+04  0.50400001928E-02 0.  1.
        1   -1    0    0  501    0  0.00000000000E+00  0.00000000000E+00 -0.82709696495E+03  0.82709696497E+03  0.50400001928E-02 0. -1.
    10030    2    1    2    0    0  0.00000000000E+00  0.00000000000E+00  0.24656921441E+04  0.41198860741E+04  0.33005792694E+04 0.  0.
        2    1    3    3  502    0 -0.18496419448E+03  0.77909383440E+03  0.30340471429E+04  0.31379357899E+04  0.25500000920E-02 0.  1.
       -2    1    3    3    0  502  0.18496419448E+03 -0.77909383440E+03 -0.56835499875E+03  0.98195028420E+03  0.25500000920E-02 0. -1.
</event>
<event>
 5   0  0.9283910E-08  0.3301559E+04  0.7818609E-02  0.8162499E-01
        1   -1    0    0  501    0  0.00000000000E+00  0.00000000000E+00  0.14397204985E+04  0.14397204985E+04  0.50400001928E-02 0. -1.
       -1   -1    0    0    0  501  0.00000000000E+00  0.00000000000E+00 -0.18927793163E+04  0.18927793164E+04  0.50400001928E-02 0.  1.
    10030    2    1    2    0    0  0.00000000000E+00  0.00000000000E+00 -0.45305881784E+03  0.33324998149E+04  0.33015591353E+04 0.  0.
        3    1    3    3  502    0  0.15753146553E+04  0.42983705416E+03 -0.47107456174E+03  0.16994962222E+04  0.10100000352E+00 0.  1.
       -3    1    3    3    0  502 -0.15753146553E+04 -0.42983705416E+03  0.18015743905E+02  0.16330035927E+04  0.10100000352E+00 0. -1.
</event>
<event>
 5   0  0.2875829E-07  0.3307617E+04  0.7818609E-02  0.8160960E-01
        2   -1    0    0  501    0  0.00000000000E+00  0.00000000000E+00  0.14506034219E+04  0.14506034219E+04  0.25500000920E-02 0.  1.
       -2   -1    0    0    0  501  0.00000000000E+00  0.00000000000E+00 -0.18854794212E+04  0.18854794212E+04  0.25500000920E-02 0. -1.
    10030    2    1    2    0    0  0.00000000000E+00  0.00000000000E+00 -0.43487599927E+03  0.33360828432E+04  0.33076172091E+04 0.  0.
        3    1    3    3  502    0 -0.34995167917E+03  0.89278723583E+03  0.11415806339E+04  0.14908861727E+04  0.10100000352E+00 0.  1.
       -3    1    3    3    0  502  0.34995167917E+03 -0.89278723583E+03 -0.15764566331E+04  0.18451966704E+04  0.10100000352E+00 0. -1.
</event>
<event>
 5   0  0.9454010E-08  0.3302139E+04  0.7818609E-02  0.8162351E-01
        1   -1    0    0  501    0  0.00000000000E+00  0.00000000000E+00  0.19868146250E+04  0.19868146250E+04  0.50400001928E-02 0.  1.
       -1   -1    0    0    0  501  0.00000000000E+00  0.00000000000E+00 -0.13720608145E+04  0.13720608145E+04  0.50400001928E-02 0. -1.
    10030    2    1    2    0    0  0.00000000000E+00  0.00000000000E+00  0.61475381052E+03  0.33588754395E+04  0.33021389993E+04 0.  0.
        2    1    3    3  502    0 -0.68530609319E+03  0.42346485178E+03  0.17733413691E+04  0.19477439599E+04  0.25500000920E-02 0.  1.
       -2    1    3    3    0  502  0.68530609319E+03 -0.42346485178E+03 -0.11585875585E+04  0.14111314797E+04  0.25500000920E-02 0. -1.
</event>
<event>
 5   0  0.8805125E-08  0.3291136E+04  0.7818609E-02  0.8165154E-01
        1   -1    0    0  501    0  0.00000000000E+00  0.00000000000E+00  0.14970793644E+04  0.14970793645E+04  0.50400001928E-02 0.  1.
       -1   -1    0    0    0  501  0.00000000000E+00  0.00000000000E+00 -0.18087850372E+04  0.18087850373E+04  0.50400001928E-02 0. -1.
    10030    2    1    2    0    0  0.00000000000E+00  0.00000000000E+00 -0.31170567280E+03  0.33058644017E+04  0.32911364323E+04 0.  0.
        4    1    3    3  502    0 -0.12910270195E+04 -0.21267367334E+03  0.84656709801E+03  0.15584153235E+04  0.12699999809E+01 0.  1.
       -4    1    3    3    0  502  0.12910270195E+04  0.21267367334E+03 -0.11582727708E+04  0.17474490782E+04  0.12699999809E+01 0. -1.
</event>
<event>
 5   0  0.2703956E-07  0.3288115E+04  0.7818609E-02  0.8165926E-01
       -2   -1    0    0    0  501  0.00000000000E+00  0.00000000000E+00  0.15534379010E+04  0.15534379010E+04  0.25500000920E-02 0.  1.
        2   -1    0    0  501    0  0.00000000000E+00  0.00000000000E+00 -0.17399633506E+04  0.17399633506E+04  0.25500000920E-02 0. -1.
    10030    2    1    2    0    0  0.00000000000E+00  0.00000000000E+00 -0.18652544962E+03  0.32934012516E+04  0.32881149707E+04 0.  0.
        5    1    3    3  502    0 -0.42660754854E+03  0.14216971703E+04  0.61475850112E+03  0.16066010547E+04  0.46999998093E+01 0.  1.
       -5    1    3    3    0  502  0.42660754854E+03 -0.14216971703E+04 -0.80128395074E+03  0.16868001969E+04  0.46999998093E+01 0. -1.
</event>
<event>
 5   0  0.2713815E-07  0.3304095E+04  0.7818609E-02  0.8161854E-01
        2   -1    0    0  501    0  0.00000000000E+00  0.00000000000E+00  0.12083351738E+04  0.12083351738E+04  0.25500000920E-02 0. -1.
       -2   -1    0    0    0  501  0.00000000000E+00  0.00000000000E+00 -0.22586946737E+04  0.22586946737E+04  0.25500000920E-02 0.  1.
    10030    2    1    2    0    0  0.00000000000E+00  0.00000000000E+00 -0.10503594998E+04  0.34670298475E+04  0.33040945635E+04 0.  0.
        4    1    3    3  502    0 -0.11119051397E+04 -0.97132187264E+03 -0.13029886554E+04  0.19691572484E+04  0.12699999809E+01 0.  1.
       -4    1    3    3    0  502  0.11119051397E+04  0.97132187264E+03  0.25262915555E+03  0.14978725991E+04  0.12699999809E+01 0. -1.
</event>
<event>
 5   0  0.9454010E-08  0.3294658E+04  0.7818609E-02  0.8164256E-01
        1   -1    0    0  501    0  0.00000000000E+00  0.00000000000E+00  0.26096466526E+04  0.26096466526E+04  0.50400001928E-02 0. -1.
       -1   -1    0    0    0  501  0.00000000000E+00  0.00000000000E+00 -0.10398698783E+04  0.10398698783E+04  0.50400001928E-02 0.  1.
    10030    2    1    2    0    0  0.00000000000E+00  0.00000000000E+00  0.15697767742E+04  0.36495165309E+04  0.32946580685E+04 0.  0.
        2    1    3    3  502    0 -0.86634557775E+03 -0.12671279953E+04  0.12255270581E+03  0.15398659625E+04  0.25500000920E-02 0. -1.
       -2    1    3    3    0  502  0.86634557775E+03  0.12671279953E+04  0.14472240684E+04  0.21096505684E+04  0.25500000920E-02 0.  1.
</event>
<event>
 5   0  0.9283910E-08  0.3304687E+04  0.7818609E-02  0.8161704E-01
        1   -1    0    0  501    0  0.00000000000E+00  0.00000000000E+00  0.19140963697E+04  0.19140963697E+04  0.50400001928E-02 0.  1.
       -1   -1    0    0    0  501  0.00000000000E+00  0.00000000000E+00 -0.14263852443E+04  0.14263852443E+04  0.50400001928E-02 0. -1.
    10030    2    1    2    0    0  0.00000000000E+00  0.00000000000E+00  0.48771112542E+03  0.33404816140E+04  0.33046868643E+04 0.  0.
        3    1    3    3  502    0  0.87457270075E+03  0.49040994494E+03  0.15714200675E+04  0.18640655465E+04  0.10100000352E+00 0.  1.
       -3    1    3    3    0  502 -0.87457270075E+03 -0.49040994494E+03 -0.10837089421E+04  0.14764160675E+04  0.10100000352E+00 0. -1.
</event>
<event>
 5   0  0.9283910E-08  0.3306559E+04  0.7818609E-02  0.8161228E-01
       -1   -1    0    0    0  501  0.00000000000E+00  0.00000000000E+00  0.17415411439E+04  0.17415411439E+04  0.50400001928E-02 0.  1.
        1   -1    0    0  501    0  0.00000000000E+00  0.00000000000E+00 -0.15694910197E+04  0.15694910197E+04  0.50400001928E-02 0. -1.
    10030    2    1    2    0    0  0.00000000000E+00  0.00000000000E+00  0.17205012420E+03  0.33110321635E+04  0.33065590487E+04 0.  0.
        3    1    3    3  502    0 -0.82891716653E+03  0.40986640127E+03  0.14583676733E+04  0.17268266898E+04  0.10100000352E+00 0.  1.
       -3    1    3    3    0  502  0.82891716653E+03 -0.40986640127E+03 -0.12863175491E+04  0.15842054738E+04  0.10100000352E+00 0. -1.
</event>
<event>
 5   0  0.2727168E-07  0.3305261E+04  0.7818609E-02  0.8161558E-01
       -2   -1    0    0    0  501  0.00000000000E+00  0.00000000000E+00  0.18070408397E+04  0.18070408397E+04  0.25500000920E-02 0.  1.
        2   -1    0    0  501    0  0.00000000000E+00  0.00000000000E+00 -0.15114142364E+04  0.15114142364E+04  0.25500000920E-02 0. -1.
    10030    2    1    2    0    0  0.00000000000E+00  0.00000000000E+00  0.29562660335E+03  0.33184550761E+04  0.33052608071E+04 0.  0.
        2    1    3    3  502    0  0.40121960806E+03 -0.57020991480E+03 -0.13565239940E+04  0.15252127285E+04  0.25500000920E-02 0. -1.
       -2    1    3    3    0  502 -0.40121960806E+03  0.57020991480E+03  0.16521505973E+04  0.17932423476E+04  0.25500000920E-02 0.  1.
</event>
<event>
 5   0  0.9181760E-08  0.3300525E+04  0.7818609E-02  0.8162762E-01
        1   -1    0    0  501    0  0.00000000000E+00  0.00000000000E+00  0.17484121659E+04  0.17484121659E+04  0.50400001928E-02 0.  1.
       -1   -1    0    0    0  501  0.00000000000E+00  0.00000000000E+00 -0.15576226752E+04  0.15576226752E+04  0.50400001928E-02 0. -1.
    10030    2    1    2    0    0  0.00000000000E+00  0.00000000000E+00  0.19078949071E+03  0.33060348412E+04  0.33005250706E+04 0.  0.
        1    1    3    3  502    0  0.10397386521E+04  0.96683119632E+03  0.93795731602E+03  0.17016412529E+04  0.50400001928E-02 0.  1.
       -1    1    3    3    0  502 -0.10397386521E+04 -0.96683119632E+03 -0.74716782531E+03  0.16043935883E+04  0.50400001928E-02 0. -1.
</event>
<event>
 5   0  0.2703956E-07  0.3298450E+04  0.7818609E-02  0.8163290E-01
       -2   -1    0    0    0  501  0.00000000000E+00  0.00000000000E+00  0.13232594668E+04  0.13232594668E+04  0.25500000920E-02 0. -1.
        2   -1    0    0  501    0  0.00000000000E+00  0.00000000000E+00 -0.20554870909E+04  0.20554870909E+04  0.25500000920E-02 0.  1.
    10030    2    1    2    0    0  0.00000000000E+00  0.00000000000E+00 -0.73222762407E+03  0.33787465577E+04  0.32984497885E+04 0.  0.
        5    1    3    3  502    0  0.41983168806E+02  0.78429847996E+03 -0.18516009055E+04  0.20113017415E+04  0.46999998093E+01 0.  1.
       -5    1    3    3    0  502 -0.41983168806E+02 -0.78429847996E+03  0.11193732814E+04  0.13674448162E+04  0.46999998093E+01 0. -1.
</event>
<event>
 5   0  0.9283910E-08  0.3299933E+04  0.7818609E-02  0.8162913E-01
       -1   -1    0    0    0  501  0.00000000000E+00  0.00000000000E+00  0.20771893223E+04  0.20771893223E+04  0.50400001928E-02 0. -1.
        1   -1    0    0  501    0  0.00000000000E+00  0.00000000000E+00 -0.13106118248E+04  0.13106118248E+04  0.50400001928E-02 0.  1.
    10030    2    1    2    0    0  0.00000000000E+00  0.00000000000E+00  0.76657749747E+03  0.33878011471E+04  0.32999326588E+04 0.  0.
        3    1    3    3  502    0  0.36594076518E+01  0.92247543110E+03 -0.10211339370E+04  0.13761136725E+04  0.10100000352E+00 0.  1.
       -3    1    3    3    0  502 -0.36594076518E+01 -0.92247543110E+03  0.17877114345E+04  0.20116874746E+04  0.10100000352E+00 0. -1.
</event>
<event>
 5   0  0.2727168E-07  0.3301314E+04  0.7818609E-02  0.8162561E-01
       -2   -1    0    0    0  501  0.00000000000E+00  0.00000000000E+00  0.18292665785E+04  0.18292665785E+04  0.25500000920E-02 0. -1.
        2   -1    0    0  501    0  0.00000000000E+00  0.00000000000E+00 -0.14894869565E+04  0.14894869565E+04  0.25500000920E-02 0.  1.
    10030    2    1    2    0    0  0.00000000000E+00  0.00000000000E+00  0.33977962206E+03  0.33187535350E+04  0.33013141072E+04 0.  0.
        2    1    3    3  502    0  0.97424701267E+03  0.19156716179E+03  0.14954963987E+04  0.17950946208E+04  0.25500000920E-02 0. -1.
       -2    1    3    3    0  502 -0.97424701267E+03 -0.19156716179E+03 -0.11557167766E+04  0.15236589142E+04  0.25500000920E-02 0.  1.
</event>
<event>
 5   0  0.2703956E-07  0.3298350E+04  0.7818609E-02  0.8163315E-01
       -2   -1    0    0    0  501  0.00000000000E+00  0.00000000000E+00  0.10071272712E+04  0.10071272712E+04  0.25500000920E-02 0.  1.
        2   -1    0    0  501    0  0.00000000000E+00  0.00000000000E+00 -0.27005313497E+04  0.27005313497E+04  0.25500000920E-02 0. -1.
    10030    2    1    2    0    0  0.00000000000E+00  0.00000000000E+00 -0.16934040785E+04  0.37076586209E+04  0.32983503568E+04 0.  0.
        5    1    3    3  502    0 -0.10255806778E+04  0.12562358326E+04 -0.50982507716E+03  0.16999670270E+04  0.46999998093E+01 0. -1.
       -5    1    3    3    0  502  0.10255806778E+04 -0.12562358326E+04 -0.11835790013E+04  0.20076915939E+04  0.46999998093E+01 0.  1.
</event>
<event>
 5   0  0.9181760E-08  0.3295128E+04  0.7818609E-02  0.8164136E-01
        1   -1    0    0  501    0  0.00000000000E+00  0.00000000000E+00  0.19687791519E+04  0.19687791519E+04  0.50400001928E-02 0.  1.
       -1   -1    0    0    0  501  0.00000000000E+00  0.00000000000E+00 -0.13787566682E+04  0.13787566682E+04  0.50400001928E-02 0. -1.
    10030    2    1    2    0    0  0.00000000000E+00  0.00000000000E+00  0.59002248368E+03  0.33475358200E+04  0.32951281516E+04 0.  0.
        1    1    3    3  502    0  0.10640403724E+04 -0.98068669237E+03 -0.50526051938E+03  0.15327153993E+04  0.50400001928E-02 0. -1.
       -1    1    3    3    0  502 -0.10640403724E+04  0.98068669237E+03  0.10952830031E+04  0.18148204208E+04  0.50400001928E-02 0.  1.
</event>
<event>
 5   0  0.8805125E-08  0.3295870E+04  0.7818609E-02  0.8163947E-01
        1   -1    0    0  501    0  0.00000000000E+00  0.00000000000E+00  0.18079993228E+04  0.18079993228E+04  0.50400001928E-02 0.  1.
       -1   -1    0    0    0  501  0.00000000000E+00  0.00000000000E+00 -0.15020409826E+04  0.15020409826E+04  0.50400001928E-02 0. -1.
    10030    2    1    2    0    0  0.00000000000E+00  0.00000000000E+00  0.30595834016E+03  0.33100403054E+04  0.32958695844E+04 0.  0.
        4    1    3    3  502    0  0.16845612647E+03 -0.39835085647E+03 -0.14440233968E+04  0.15074037464E+04  0.12699999809E+01 0. -1.
       -4    1    3    3    0  502 -0.16845612647E+03  0.39835085647E+03  0.17499817369E+04  0.18026365590E+04  0.12699999809E+01 0.  1.
</event>
<event>
 5   0  0.2875829E-07  0.3305062E+04  0.7818609E-02  0.8161609E-01
       -2   -1    0    0    0  501  0.00000000000E+00  0.00000000000E+00  0.92584446289E+03  0.92584446290E+03  0.25500000920E-02 0. -1.
        2   -1    0    0  501    0  0.00000000000E+00  0.00000000000E+00 -0.29495871802E+04  0.29495871802E+04  0.25500000920E-02 0.  1.
    10030    2    1    2    0    0  0.00000000000E+00  0.00000000000E+00 -0.20237427173E+04  0.38754316431E+04  0.33050621529E+04 0.  0.
        3    1    3    3  502    0 -0.10179586338E+04  0.25645110195E+03  0.48464429110E+03  0.11562383175E+04  0.10100000352E+00 0. -1.
       -3    1    3    3    0  502  0.10179586338E+04 -0.25645110195E+03 -0.25083870084E+04  0.27191933256E+04  0.10100000352E+00 0.  1.
</event>
<event>
 5   0  0.9810351E-08  0.3304068E+04  0.7818609E-02  0.8161861E-01
       -1   -1    0    0    0  501  0.00000000000E+00  0.00000000000E+00  0.16483153263E+04  0.16483153263E+04  0.50400001928E-02 0. -1.
        1   -1    0    0  501    0  0.00000000000E+00  0.00000000000E+00 -0.16557609048E+04  0.16557609048E+04  0.50400001928E-02 0.  1.
    10030    2    1    2    0    0  0.00000000000E+00  0.00000000000E+00 -0.74455785049E+01  0.33040762312E+04  0.33040678421E+04 0.  0.
        5    1    3    3  502    0  0.12819837256E+04  0.20558988692E+03 -0.10252167005E+04  0.16543400035E+04  0.46999998093E+01 0.  1.
       -5    1    3    3    0  502 -0.12819837256E+04 -0.20558988692E+03  0.10177711220E+04  0.16497362277E+04  0.46999998093E+01 0. -1.
</event>
<event>
 5   0  0.2824402E-07  0.3393427E+04  0.7818609E-02  0.8139522E-01
       -2   -1    0    0    0  501  0.00000000000E+00  0.00000000000E+00  0.10910372530E+04  0.10910372530E+04  0.25500000920E-02 0. -1.
        2   -1    0    0  501    0  0.00000000000E+00  0.00000000000E+00 -0.26386229339E+04  0.26386229339E+04  0.25500000920E-02 0.  1.
    10030    2    1    2    0    0  0.00000000000E+00  0.00000000000E+00 -0.15475856809E+04  0.37296601869E+04  0.33934265382E+04 0.  0.
        1    1    3    3  502    0  0.65810721932E+03 -0.15003550627E+03  0.93711749059E+03  0.11549047391E+04  0.50400001928E-02 0. -1.
       -1    1    3    3    0  502 -0.65810721932E+03  0.15003550627E+03 -0.24847031715E+04  0.25747554478E+04  0.50400001928E-02 0.  1.
</event>
<event>
 5   0  0.9181760E-08  0.3301020E+04  0.7818609E-02  0.8162636E-01
        1   -1    0    0  501    0  0.00000000000E+00  0.00000000000E+00  0.14551880729E+04  0.14551880729E+04  0.50400001928E-02 0. -1.
       -1   -1    0    0    0  501  0.00000000000E+00  0.00000000000E+00 -0.18720487974E+04  0.18720487974E+04  0.50400001928E-02 0.  1.
    10030    2    1    2    0    0  0.00000000000E+00  0.00000000000E+00 -0.41686072453E+03  0.33272368703E+04  0.33010198920E+04 0.  0.
        1    1    3    3  502    0 -0.10632589951E+04 -0.12581537128E+04 -0.10410652489E+03  0.16505479769E+04  0.50400001928E-02 0. -1.
       -1    1    3    3    0  502  0.10632589951E+04  0.12581537128E+04 -0.31275419963E+03  0.16766888933E+04  0.50400001928E-02 0.  1.
</event>
<event>
 5   0  0.2727168E-07  0.3302290E+04  0.7818609E-02  0.8162313E-01
       -2   -1    0    0    0  501  0.00000000000E+00  0.00000000000E+00  0.14803671753E+04  0.14803671753E+04  0.25500000920E-02 0. -1.
        2   -1    0    0  501    0  0.00000000000E+00  0.00000000000E+00 -0.18416243327E+04  0.18416243327E+04  0.25500000920E-02 0.  1.
    10030    2    1    2    0    0  0.00000000000E+00  0.00000000000E+00 -0.36125715738E+03  0.33219915080E+04  0.33022902424E+04 0.  0.
        2    1    3    3  502    0  0.96503548937E+03  0.78364021371E+03 -0.12738015093E+04  0.17798752106E+04  0.25500000920E-02 0.  1.
       -2    1    3    3    0  502 -0.96503548937E+03 -0.78364021371E+03  0.91254435193E+03  0.15421162973E+04  0.25500000920E-02 0. -1.
</event>
<event>
 5   0  0.9283910E-08  0.3303016E+04  0.7818609E-02  0.8162128E-01
        1   -1    0    0  501    0  0.00000000000E+00  0.00000000000E+00  0.20271670375E+04  0.20271670375E+04  0.50400001928E-02 0. -1.
       -1   -1    0    0    0  501  0.00000000000E+00  0.00000000000E+00 -0.13454631215E+04  0.13454631215E+04  0.50400001928E-02 0.  1.
    10030    2    1    2    0    0  0.00000000000E+00  0.00000000000E+00  0.68170391602E+03  0.33726301590E+04  0.33030158886E+04 0.  0.
        3    1    3    3  502    0 -0.15532484674E+04  0.56006172526E+03  0.37664124982E+03  0.16935491073E+04  0.10100000352E+00 0. -1.
       -3    1    3    3    0  502  0.15532484674E+04 -0.56006172526E+03  0.30506266619E+03  0.16790810517E+04  0.10100000352E+00 0.  1.
</event>
<event>
 5   0  0.2713815E-07  0.3301753E+04  0.7818609E-02  0.8162449E-01
        2   -1    0    0  501    0  0.00000000000E+00  0.00000000000E+00  0.19160803181E+04  0.19160803181E+04  0.25500000920E-02 0.  1.
       -2   -1    0    0    0  501  0.00000000000E+00  0.00000000000E+00 -0.14223795431E+04  0.14223795431E+04  0.25500000920E-02 0. -1.
    10030    2    1    2    0    0  0.00000000000E+00  0.00000000000E+00  0.49370077498E+03  0.33384598612E+04  0.33017531388E+04 0.  0.
        4    1    3    3  502    0 -0.24397531498E+03  0.69441599094E+03 -0.12472972188E+04  0.14482712066E+04  0.12699999809E+01 0. -1.
       -4    1    3    3    0  502  0.24397531498E+03 -0.69441599094E+03  0.17409979938E+04  0.18901886546E+04  0.12699999809E+01 0.  1.
</event>
<event>
 5   0  0.2824402E-07  0.3300306E+04  0.7818609E-02  0.8162818E-01
       -2   -1    0    0    0  501  0.00000000000E+00  0.00000000000E+00  0.11706779252E+04  0.11706779252E+04  0.25500000920E-02 0.  1.
        2   -1    0    0  501    0  0.00000000000E+00  0.00000000000E+00 -0.23260062239E+04  0.23260062239E+04  0.25500000920E-02 0. -1.
    10030    2    1    2    0    0  0.00000000000E+00  0.00000000000E+00 -0.11553282987E+04  0.34966841491E+04  0.33003055253E+04 0.  0.
        1    1    3    3  502    0 -0.27239314099E+03 -0.15843749106E+04 -0.18327520067E+03  0.16180332752E+04  0.50400001928E-02 0. -1.
       -1    1    3    3    0  502  0.27239314099E+03  0.15843749106E+04 -0.97205309799E+03  0.18786508739E+04  0.50400001928E-02 0.  1.
</event>
<event>
 5   0  0.9283910E-08  0.3300579E+04  0.7818609E-02  0.8162748E-01
        1   -1    0    0  501    0  0.00000000000E+00  0.00000000000E+00  0.11819181051E+04  0.11819181051E+04  0.50400001928E-02 0. -1.
       -1   -1    0    0    0  501  0.00000000000E+00  0.00000000000E+00 -0.23042674347E+04  0.23042674347E+04  0.50400001928E-02 0.  1.
    10030    2    1    2    0    0  0.00000000000E+00  0.00000000000E+00 -0.11223493296E+04  0.34861855398E+04  0.33005789796E+04 0.  0.
        3    1    3    3  502    0 -0.23306467945E+03 -0.10529698755E+04  0.75822704468E+03  0.13183220263E+04  0.10100000352E+00 0. -1.
       -3    1    3    3    0  502  0.23306467945E+03  0.10529698755E+04 -0.18805763743E+04  0.21678635135E+04  0.10100000352E+00 0.  1.
</event>
<event>
 5   0  0.9810351E-08  0.3246826E+04  0.7818609E-02  0.8176559E-01
        1   -1    0    0  501    0  0.00000000000E+00  0.00000000000E+00  0.15792464549E+04  0.15792464549E+04  0.50400001928E-02 0. -1.
       -1   -1    0    0    0  501  0.00000000000E+00  0.00000000000E+00 -0.16688145351E+04  0.16688145351E+04  0.50400001928E-02 0.  1.
    10030    2    1    2    0    0  0.00000000000E+00  0.00000000000E+00 -0.89568080226E+02  0.32480609900E+04  0.32468257967E+04 0.  0.
        5    1    3    3  502    0  0.45300568258E+03  0.15312905039E+04 -0.33709820246E+03  0.16320913099E+04  0.46999998093E+01 0.  1.
       -5    1    3    3    0  502 -0.45300568258E+03 -0.15312905039E+04  0.24753012224E+03  0.16159696801E+04  0.46999998093E+01 0. -1.
</event>
<event>
 5   0  0.9283910E-08  0.3280906E+04  0.7818609E-02  0.8167771E-01
       -1   -1    0    0    0  501  0.00000000000E+00  0.00000000000E+00  0.11279992473E+04  0.11279992473E+04  0.50400001928E-02 0. -1.
        1   -1    0    0  501    0  0.00000000000E+00  0.00000000000E+00 -0.23857155143E+04  0.23857155143E+04  0.50400001928E-02 0.  1.
    10030    2    1    2    0    0  0.00000000000E+00  0.00000000000E+00 -0.12577162669E+04  0.35137147616E+04  0.32809055484E+04 0.  0.
        3    1    3    3  502    0 -0.40744610597E+03  0.10403906287E+04 -0.19151952949E+04  0.22172952030E+04  0.10100000352E+00 0.  1.
       -3    1    3    3    0  502  0.40744610597E+03 -0.10403906287E+04  0.65747902797E+03  0.12964195586E+04  0.10100000352E+00 0. -1.
</event>
<event>
 5   0  0.8805125E-08  0.3308294E+04  0.7818609E-02  0.8160788E-01
        3   -1    0    0  501    0  0.00000000000E+00  0.00000000000E+00  0.14195438595E+04  0.14195438631E+04  0.10100000352E+00 0. -1.
       -3   -1    0    0    0  501  0.00000000000E+00  0.00000000000E+00 -0.19275222152E+04  0.19275222178E+04  0.10100000352E+00 0.  1.
    10030    2    1    2    0    0  0.00000000000E+00  0.00000000000E+00 -0.50797835567E+03  0.33470660810E+04  0.33082940227E+04 0.  0.
        1    1    3    3  502    0  0.13509130530E+04  0.44482042594E+03  0.60052234994E+03  0.15438453229E+04  0.50400001928E-02 0. -1.
       -1    1    3    3    0  502 -0.13509130530E+04 -0.44482042594E+03 -0.11085007056E+04  0.18032207581E+04  0.50400001928E-02 0.  1.
</event>
<event>
 5   0  0.2727168E-07  0.3307837E+04  0.7818609E-02  0.8160904E-01
        2   -1    0    0  501    0  0.00000000000E+00  0.00000000000E+00  0.26747780914E+04  0.26747780914E+04  0.25500000920E-02 0.  1.
       -2   -1    0    0    0  501  0.00000000000E+00  0.00000000000E+00 -0.10226815414E+04  0.10226815414E+04  0.25500000920E-02 0. -1.
    10030    2    1    2    0    0  0.00000000000E+00  0.00000000000E+00  0.16520965500E+04  0.36974596328E+04  0.33078368650E+04 0.  0.
        2    1    3    3  502    0  0.13308635148E+04  0.74006111840E+03  0.15474831160E+04  0.21710808710E+04  0.25500000920E-02 0.  1.
       -2    1    3    3    0  502 -0.13308635148E+04 -0.74006111840E+03  0.10461343406E+03  0.15263787618E+04  0.25500000920E-02 0. -1.
</event>
<event>
 5   0  0.9283910E-08  0.3299478E+04  0.7818609E-02  0.8163028E-01
       -1   -1    0    0    0  501  0.00000000000E+00  0.00000000000E+00  0.17467055222E+04  0.17467055222E+04  0.50400001928E-02 0.  1.
        1   -1    0    0  501    0  0.00000000000E+00  0.00000000000E+00 -0.15581555396E+04  0.15581555396E+04  0.50400001928E-02 0. -1.
    10030    2    1    2    0    0  0.00000000000E+00  0.00000000000E+00  0.18854998261E+03  0.33048610618E+04  0.32994780711E+04 0.  0.
        3    1    3    3  502    0 -0.56002631059E+03 -0.12126127305E+04  0.10641417500E+04  0.17077636771E+04  0.10100000352E+00 0.  1.
       -3    1    3    3    0  502  0.56002631059E+03  0.12126127305E+04 -0.87559176739E+03  0.15970973846E+04  0.10100000352E+00 0. -1.
</event>
<event>
 5   0  0.2824402E-07  0.3298481E+04  0.7818609E-02  0.8163282E-01
        2   -1    0    0  501    0  0.00000000000E+00  0.00000000000E+00  0.15247120752E+04  0.15247120752E+04  0.25500000920E-02 0. -1.
       -2   -1    0    0    0  501  0.00000000000E+00  0.00000000000E+00 -0.17839397536E+04  0.17839397536E+04  0.25500000920E-02 0.  1.
    10030    2    1    2    0    0  0.00000000000E+00  0.00000000000E+00 -0.25922767837E+03  0.33086518288E+04  0.32984811557E+04 0.  0.
        1    1    3    3  502    0  0.34113555989E+03 -0.96139417426E+03  0.11702763593E+04  0.15524815573E+04  0.50400001928E-02 0. -1.
       -1    1    3    3    0  502 -0.34113555989E+03  0.96139417426E+03 -0.14295040377E+04  0.17561702715E+04  0.50400001928E-02 0.  1.
</event>
<event>
 5   0  0.2713815E-07  0.3305138E+04  0.7818609E-02  0.8161589E-01
        2   -1    0    0  501    0  0.00000000000E+00  0.00000000000E+00  0.29625657822E+04  0.29625657822E+04  0.25500000920E-02 0. -1.
       -2   -1    0    0    0  501  0.00000000000E+00  0.00000000000E+00 -0.92183104804E+03  0.92183104805E+03  0.25500000920E-02 0.  1.
    10030    2    1    2    0    0  0.00000000000E+00  0.00000000000E+00  0.20407347342E+04  0.38843968303E+04  0.33051384963E+04 0.  0.
        4    1    3    3  502    0  0.70889908225E+03 -0.73774975804E+03  0.25455681063E+04  0.27434888757E+04  0.12699999809E+01 0. -1.
       -4    1    3    3    0  502 -0.70889908225E+03  0.73774975804E+03 -0.50483337213E+03  0.11409079546E+04  0.12699999809E+01 0.  1.
</event>
<event>
 5   0  0.9810351E-08  0.3295216E+04  0.7818609E-02  0.8164114E-01
       -1   -1    0    0    0  501  0.00000000000E+00  0.00000000000E+00  0.92707400636E+03  0.92707400638E+03  0.50400001928E-02 0.  1.
        1   -1    0    0  501    0  0.00000000000E+00  0.00000000000E+00 -0.29281505187E+04  0.29281505187E+04  0.50400001928E-02 0. -1.
    10030    2    1    2    0    0  0.00000000000E+00  0.00000000000E+00 -0.20010765123E+04  0.38552245251E+04  0.32952160673E+04 0.  0.
        5    1    3    3  502    0 -0.12072726055E+03 -0.13635266802E+04 -0.20733282894E+04  0.24844501131E+04  0.46999998093E+01 0. -1.
       -5    1    3    3    0  502  0.12072726055E+03  0.13635266802E+04  0.72251777064E+02  0.13707744119E+04  0.46999998093E+01 0.  1.
</event>
<event>
 5   0  0.2875829E-07  0.3290341E+04  0.7818609E-02  0.8165358E-01
       -2   -1    0    0    0  501  0.00000000000E+00  0.00000000000E+00  0.17521046536E+04  0.17521046536E+04  0.25500000920E-02 0. -1.
        2   -1    0    0  501    0  0.00000000000E+00  0.00000000000E+00 -0.15447625680E+04  0.15447625680E+04  0.25500000920E-02 0.  1.
    10030    2    1    2    0    0  0.00000000000E+00  0.00000000000E+00  0.20734208566E+03  0.32968672216E+04  0.32903408237E+04 0.  0.
        3    1    3    3  502    0  0.98474282736E+03 -0.63937129497E+03 -0.10510346667E+04  0.15758134311E+04  0.10100000352E+00 0.  1.
       -3    1    3    3    0  502 -0.98474282736E+03  0.63937129497E+03  0.12583767523E+04  0.17210537905E+04  0.10100000352E+00 0. -1.
</event>
<event>
 5   0  0.2875829E-07  0.3299275E+04  0.7818609E-02  0.8163080E-01
        2   -1    0    0  501    0  0.00000000000E+00  0.00000000000E+00  0.24577650117E+04  0.24577650117E+04  0.25500000920E-02 0. -1.
       -2   -1    0    0    0  501  0.00000000000E+00  0.00000000000E+00 -0.11072270184E+04  0.11072270184E+04  0.25500000920E-02 0.  1.
    10030    2    1    2    0    0  0.00000000000E+00  0.00000000000E+00  0.13505379933E+04  0.35649920302E+04  0.32992749664E+04 0.  0.
        3    1    3    3  502    0 -0.65130501066E+03  0.37242798825E+03 -0.91220389820E+03  0.11811082869E+04  0.10100000352E+00 0.  1.
       -3    1    3    3    0  502  0.65130501066E+03 -0.37242798825E+03  0.22627418915E+04  0.23838837432E+04  0.10100000352E+00 0. -1.
</event>
<event>
 5   0  0.9454010E-08  0.3303409E+04  0.7818609E-02  0.8162028E-01
        1   -1    0    0  501    0  0.00000000000E+00  0.00000000000E+00  0.24796005908E+04  0.24796005908E+04  0.50400001928E-02 0.  1.
       -1   -1    0    0    0  501  0.00000000000E+00  0.00000000000E+00 -0.11002290093E+04  0.11002290093E+04  0.50400001928E-02 0. -1.
    10030    2    1    2    0    0  0.00000000000E+00  0.00000000000E+00  0.13793715815E+04  0.35798296001E+04  0.33034094518E+04 0.  0.
        2    1    3    3  502    0  0.63921868721E+03  0.15212030720E+04  0.76982799165E+03  0.18207950058E+04  0.25500000920E-02 0. -1.
       -2    1    3    3    0  502 -0.63921868721E+03 -0.15212030720E+04  0.60954358990E+03  0.17590345944E+04  0.25500000920E-02 0.  1.
</event>
<event>
 5   0  0.9810351E-08  0.3315590E+04  0.7818609E-02  0.8158940E-01
        1   -1    0    0  501    0  0.00000000000E+00  0.00000000000E+00  0.13551338928E+04  0.13551338928E+04  0.50400001928E-02 0.  1.
       -1   -1    0    0    0  501  0.00000000000E+00  0.00000000000E+00 -0.20280532627E+04  0.20280532627E+04  0.50400001928E-02 0. -1.
    10030    2    1    2    0    0  0.00000000000E+00  0.00000000000E+00 -0.67291936989E+03  0.33831871554E+04  0.33155896686E+04 0.  0.
        5    1    3    3  502    0  0.79288618113E+03  0.24928258833E+03  0.11271660247E+04  0.14004769339E+04  0.46999998093E+01 0.  1.
       -5    1    3    3    0  502 -0.79288618113E+03 -0.24928258833E+03 -0.18000853946E+04  0.19827102216E+04  0.46999998093E+01 0. -1.
</event>
<event>
 5   0  0.9181760E-08  0.3297168E+04  0.7818609E-02  0.8163616E-01
        1   -1    0    0  501    0  0.00000000000E+00  0.00000000000E+00  0.13384297876E+04  0.13384297876E+04  0.50400001928E-02 0.  1.
       -1   -1    0    0    0  501  0.00000000000E+00  0.00000000000E+00 -0.20306108089E+04  0.20306108089E+04  0.50400001928E-02 0. -1.
    10030    2    1    2    0    0  0.00000000000E+00  0.00000000000E+00 -0.69218102127E+03  0.33690405965E+04  0.32971684784E+04 0.  0.
        1    1    3    3  502    0  0.48503657190E+03 -0.15554007718E+04 -0.89015447930E+02  0.16317033391E+04  0.50400001928E-02 0.  1.
       -1    1    3    3    0  502 -0.48503657190E+03  0.15554007718E+04 -0.60316557334E+03  0.17373372574E+04  0.50400001928E-02 0. -1.
</event>
<event>
 5   0  0.2703956E-07  0.3281139E+04  0.7818609E-02  0.8167711E-01
        2   -1    0    0  501    0  0.00000000000E+00  0.00000000000E+00  0.20382600394E+04  0.20382600394E+04  0.25500000920E-02 0. -1.
       -2   -1    0    0    0  501  0.00000000000E+00  0.00000000000E+00 -0.13204733541E+04  0.13204733541E+04  0.25500000920E-02 0.  1.
    10030    2    1    2    0    0  0.00000000000E+00  0.00000000000E+00  0.71778668523E+03  0.33587333935E+04  0.32811388698E+04 0.  0.
        5    1    3    3  502    0  0.21584809112E+03 -0.14307247287E+04 -0.43262098518E+03  0.15102141088E+04  0.46999998093E+01 0.  1.
       -5    1    3    3    0  502 -0.21584809112E+03  0.14307247287E+04  0.11504076704E+04  0.18485192847E+04  0.46999998093E+01 0. -1.
</event>
<event>
 5   0  0.2875829E-07  0.3298789E+04  0.7818609E-02  0.8163204E-01
       -2   -1    0    0    0  501  0.00000000000E+00  0.00000000000E+00  0.22666667075E+04  0.22666667075E+04  0.25500000920E-02 0. -1.
        2   -1    0    0  501    0  0.00000000000E+00  0.00000000000E+00 -0.12002215563E+04  0.12002215563E+04  0.25500000920E-02 0.  1.
    10030    2    1    2    0    0  0.00000000000E+00  0.00000000000E+00  0.10664451512E+04  0.34668882638E+04  0.32987890161E+04 0.  0.
        3    1    3    3  502    0  0.96309541665E+03 -0.84107936214E+03 -0.56176000886E+03  0.13966179122E+04  0.10100000352E+00 0.  1.
       -3    1    3    3    0  502 -0.96309541665E+03  0.84107936214E+03  0.16282051601E+04  0.20702703515E+04  0.10100000352E+00 0. -1.
</event>
<event>
 5   0  0.2713815E-07  0.3297568E+04  0.7818609E-02  0.8163515E-01
        2   -1    0    0  501    0  0.00000000000E+00  0.00000000000E+00  0.16491315321E+04  0.16491315321E+04  0.25500000920E-02 0.  1.
       -2   -1    0    0    0  501  0.00000000000E+00  0.00000000000E+00 -0.16484364164E+04  0.16484364164E+04  0.25500000920E-02 0. -1.
    10030    2    1    2    0    0  0.00000000000E+00  0.00000000000E+00  0.69511569495E+00  0.32975679485E+04  0.32975678752E+04 0.  0.
        4    1    3    3  502    0  0.21907488471E+03  0.80484859665E+03  0.14225683147E+04  0.16490837734E+04  0.12699999809E+01 0.  1.
       -4    1    3    3    0  502 -0.21907488471E+03 -0.80484859665E+03 -0.14218731990E+04  0.16484841751E+04  0.12699999809E+01 0. -1.
</event>
<event>
 5   0  0.2875829E-07  0.3311876E+04  0.7818609E-02  0.8159880E-01
       -2   -1    0    0    0  501  0.00000000000E+00  0.00000000000E+00  0.15188047814E+04  0.15188047814E+04  0.25500000920E-02 0.  1.
        2   -1    0    0  501    0  0.00000000000E+00  0.00000000000E+00 -0.18054527124E+04  0.18054527124E+04  0.25500000920E-02 0. -1.
    10030    2    1    2    0    0  0.00000000000E+00  0.00000000000E+00 -0.28664793102E+03  0.33242574938E+04  0.33118757296E+04 0.  0.
        3    1    3    3  502    0 -0.47900227279E+02 -0.12032179850E+02  0.15180653577E+04  0.15188685413E+04  0.10100000352E+00 0.  1.
       -3    1    3    3    0  502  0.47900227279E+02  0.12032179850E+02 -0.18047132887E+04  0.18053889525E+04  0.10100000352E+00 0. -1.
</event>
<event>
 5   0  0.9810351E-08  0.3312687E+04  0.7818609E-02  0.8159675E-01
        1   -1    0    0  501    0  0.00000000000E+00  0.00000000000E+00  0.22498903562E+04  0.22498903562E+04  0.50400001928E-02 0.  1.
       -1   -1    0    0    0  501  0.00000000000E+00  0.00000000000E+00 -0.12193813405E+04  0.12193813405E+04  0.50400001928E-02 0. -1.
    10030    2    1    2    0    0  0.00000000000E+00  0.00000000000E+00  0.10305090158E+04  0.34692716967E+04  0.33126873191E+04 0.  0.
        5    1    3    3  502    0 -0.12211515938E+04 -0.28599013060E+03  0.16482662819E+04  0.20711845393E+04  0.46999998093E+01 0. -1.
       -5    1    3    3    0  502  0.12211515938E+04  0.28599013060E+03 -0.61775726610E+03  0.13980871574E+04  0.46999998093E+01 0.  1.
</event>
<event>
 5   0  0.8805125E-08  0.3304300E+04  0.7818609E-02  0.8161802E-01
       -1   -1    0    0    0  501  0.00000000000E+00  0.00000000000E+00  0.13648332027E+04  0.13648332027E+04  0.50400001928E-02 0. -1.
        1   -1    0    0  501    0  0.00000000000E+00  0.00000000000E+00 -0.19999511080E+04  0.19999511080E+04  0.50400001928E-02 0.  1.
    10030    2    1    2    0    0  0.00000000000E+00  0.00000000000E+00 -0.63511790534E+03  0.33647843107E+04  0.33043000323E+04 0.  0.
        4    1    3    3  502    0 -0.93470997048E+03  0.12414642287E+04 -0.88879241439E+03  0.17902149951E+04  0.12699999809E+01 0. -1.
       -4    1    3    3    0  502  0.93470997048E+03 -0.12414642287E+04  0.25367450905E+03  0.15745693155E+04  0.12699999809E+01 0.  1.
</event>
<event>
 5   0  0.9810351E-08  0.3300712E+04  0.7818609E-02  0.8162714E-01
       -1   -1    0    0    0  501  0.00000000000E+00  0.00000000000E+00  0.18650558499E+04  0.18650558499E+04  0.50400001928E-02 0. -1.
        1   -1    0    0  501    0  0.00000000000E+00  0.00000000000E+00 -0.14603717996E+04  0.14603717996E+04  0.50400001928E-02 0.  1.
    10030    2    1    2    0    0  0.00000000000E+00  0.00000000000E+00  0.40468405025E+03  0.33254276495E+04  0.33007120249E+04 0.  0.
        5    1    3    3  502    0 -0.48378996778E+03 -0.30962610941E+03  0.17610961447E+04  0.18524045945E+04  0.46999998093E+01 0. -1.
       -5    1    3    3    0  502  0.48378996778E+03  0.30962610941E+03 -0.13564120945E+04  0.14730230550E+04  0.46999998093E+01 0.  1.
</event>
<event>
 5   0  0.8805125E-08  0.3300045E+04  0.7818609E-02  0.8162884E-01
       -1   -1    0    0    0  501  0.00000000000E+00  0.00000000000E+00  0.22812531391E+04  0.22812531391E+04  0.50400001928E-02 0. -1.
        1   -1    0    0  501    0  0.00000000000E+00  0.00000000000E+00 -0.11934556321E+04  0.11934556321E+04  0.50400001928E-02 0.  1.
    10030    2    1    2    0    0  0.00000000000E+00  0.00000000000E+00  0.10877975070E+04  0.34747087712E+04  0.33000450949E+04 0.  0.
        4    1    3    3  502    0  0.22067646528E+03 -0.74704582215E+03  0.20754641950E+04  0.22168285455E+04  0.12699999809E+01 0. -1.
       -4    1    3    3    0  502 -0.22067646528E+03  0.74704582215E+03 -0.98766668794E+03  0.12578802257E+04  0.12699999809E+01 0.  1.
</event>
<event>
 5   0  0.2875829E-07  0.3296866E+04  0.7818609E-02  0.8163693E-01
        2   -1    0    0  501    0  0.00000000000E+00  0.00000000000E+00  0.13792340141E+04  0.13792340141E+04  0.25500000920E-02 0. -1.
       -2   -1    0    0    0  501  0.00000000000E+00  0.00000000000E+00 -0.19701739708E+04  0.19701739708E+04  0.25500000920E-02 0.  1.
    10030    2    1    2    0    0  0.00000000000E+00  0.00000000000E+00 -0.59093995674E+03  0.33494079849E+04  0.32968657565E+04 0.  0.
        3    1    3    3  502    0  0.72844564734E+03 -0.11216658408E+04 -0.12744472766E+04  0.18474260988E+04  0.10100000352E+00 0.  1.
       -3    1    3    3    0  502 -0.72844564734E+03  0.11216658408E+04  0.68350731987E+03  0.15019818861E+04  0.10100000352E+00 0. -1.
</event>
<event>
 5   0  0.9283910E-08  0.3269214E+04  0.7818609E-02  0.8170773E-01
        1   -1    0    0  501    0  0.00000000000E+00  0.00000000000E+00  0.10866281377E+04  0.10866281377E+04  0.50400001928E-02 0.  1.
       -1   -1    0    0    0  501  0.00000000000E+00  0.00000000000E+00 -0.24589278662E+04  0.24589278662E+04  0.50400001928E-02 0. -1.
    10030    2    1    2    0    0  0.00000000000E+00  0.00000000000E+00 -0.13722997285E+04  0.35455560039E+04  0.32692141001E+04 0.  0.
        3    1    3    3  502    0 -0.92257581714E+03 -0.13168315961E+04 -0.10055773191E+04  0.18964117026E+04  0.10100000352E+00 0. -1.
       -3    1    3    3    0  502  0.92257581714E+03  0.13168315961E+04 -0.36672240936E+03  0.16491443013E+04  0.10100000352E+00 0.  1.
</event>
<event>
 5   0  0.8805125E-08  0.3260226E+04  0.7818609E-02  0.8173090E-01
        4   -1    0    0  501    0  0.00000000000E+00  0.00000000000E+00  0.20078644412E+04  0.20078648428E+04  0.12699999809E+01 0.  1.
       -4   -1    0    0    0  501  0.00000000000E+00  0.00000000000E+00 -0.13234297160E+04  0.13234303253E+04  0.12699999809E+01 0. -1.
    10030    2    1    2    0    0  0.00000000000E+00  0.00000000000E+00  0.68443472520E+03  0.33312951681E+04  0.32602264652E+04 0.  0.
        5    1    3    3  502    0  0.21962984596E+03 -0.49236222328E+03 -0.12296894223E+04  0.13426898352E+04  0.46999998093E+01 0. -1.
       -5    1    3    3    0  502 -0.21962984596E+03  0.49236222328E+03  0.19141241475E+04  0.19886053330E+04  0.46999998093E+01 0.  1.
</event>
<event>
 5   0  0.2875829E-07  0.3298554E+04  0.7818609E-02  0.8163263E-01
       -2   -1    0    0    0  501  0.00000000000E+00  0.00000000000E+00  0.12166870853E+04  0.12166870853E+04  0.25500000920E-02 0.  1.
        2   -1    0    0  501    0  0.00000000000E+00  0.00000000000E+00 -0.22356735278E+04  0.22356735278E+04  0.25500000920E-02 0. -1.
    10030    2    1    2    0    0  0.00000000000E+00  0.00000000000E+00 -0.10189864426E+04  0.34523606131E+04  0.32985542943E+04 0.  0.
        3    1    3    3  502    0  0.16410067631E+04  0.15951278895E+03 -0.55349609347E+03  0.17391680373E+04  0.10100000352E+00 0.  1.
       -3    1    3    3    0  502 -0.16410067631E+04 -0.15951278895E+03 -0.46549034910E+03  0.17131925758E+04  0.10100000352E+00 0. -1.
</event>
<event>
 5   0  0.9283910E-08  0.3301880E+04  0.7818609E-02  0.8162417E-01
       -1   -1    0    0    0  501  0.00000000000E+00  0.00000000000E+00  0.23963906181E+04  0.23963906181E+04  0.50400001928E-02 0.  1.
        1   -1    0    0  501    0  0.00000000000E+00  0.00000000000E+00 -0.11373786619E+04  0.11373786620E+04  0.50400001928E-02 0. -1.
    10030    2    1    2    0    0  0.00000000000E+00  0.00000000000E+00  0.12590119561E+04  0.35337692800E+04  0.33018804065E+04 0.  0.
        3    1    3    3  502    0 -0.96630660570E+03  0.12779419592E+04  0.20313080434E+03  0.16149756163E+04  0.10100000352E+00 0. -1.
       -3    1    3    3    0  502  0.96630660570E+03 -0.12779419592E+04  0.10558811518E+04  0.19187936638E+04  0.10100000352E+00 0.  1.
</event>
<event>
 5   0  0.2713815E-07  0.3309359E+04  0.7818609E-02  0.8160518E-01
        2   -1    0    0  501    0  0.00000000000E+00  0.00000000000E+00  0.26806771968E+04  0.26806771968E+04  0.25500000920E-02 0. -1.
       -2   -1    0    0    0  501  0.00000000000E+00  0.00000000000E+00 -0.10213706576E+04  0.10213706576E+04  0.25500000920E-02 0.  1.
    10030    2    1    2    0    0  0.00000000000E+00  0.00000000000E+00  0.16593065392E+04  0.37020478544E+04  0.33093594736E+04 0.  0.
        4    1    3    3  502    0 -0.26700982898E+03  0.33734643936E+03 -0.95770716679E+03  0.10499054715E+04  0.12699999809E+01 0.  1.
       -4    1    3    3    0  502  0.26700982898E+03 -0.33734643936E+03  0.26170137060E+04  0.26521423829E+04  0.12699999809E+01 0. -1.
</event>
<event>
 5   0  0.9454010E-08  0.3318909E+04  0.7818609E-02  0.8158101E-01
        1   -1    0    0  501    0  0.00000000000E+00  0.00000000000E+00  0.20369891842E+04  0.20369891842E+04  0.50400001928E-02 0. -1.
       -1   -1    0    0    0  501  0.00000000000E+00  0.00000000000E+00 -0.13518916917E+04  0.13518916917E+04  0.50400001928E-02 0.  1.
    10030    2    1    2    0    0  0.00000000000E+00  0.00000000000E+00  0.68509749249E+03  0.33888808759E+04  0.33189087087E+04 0.  0.
        2    1    3    3  502    0 -0.15475792761E+04 -0.51233477719E+03  0.65941400324E+03  0.17584980431E+04  0.25500000920E-02 0. -1.
       -2    1    3    3    0  502  0.15475792761E+04  0.51233477719E+03  0.25683489243E+02  0.16303828328E+04  0.25500000920E-02 0.  1.
</event>
<event>
 5   0  0.9454010E-08  0.3300889E+04  0.7818609E-02  0.8162669E-01
        1   -1    0    0  501    0  0.00000000000E+00  0.00000000000E+00  0.13739229559E+04  0.13739229559E+04  0.50400001928E-02 0.  1.
       -1   -1    0    0    0  501  0.00000000000E+00  0.00000000000E+00 -0.19826200401E+04  0.19826200401E+04  0.50400001928E-02 0. -1.
    10030    2    1    2    0    0  0.00000000000E+00  0.00000000000E+00 -0.60869708419E+03  0.33565429961E+04  0.33008890839E+04 0.  0.
        2    1    3    3  502    0  0.14603167096E+04  0.23306474700E+03 -0.10495920571E+04  0.18134187478E+04  0.25500000920E-02 0. -1.
       -2    1    3    3    0  502 -0.14603167096E+04 -0.23306474700E+03  0.44089497290E+03  0.15431242483E+04  0.25500000920E-02 0.  1.
</event>
<event>
 5   0  0.8805125E-08  0.3280865E+04  0.7818609E-02  0.8167781E-01
        1   -1    0    0  501    0  0.00000000000E+00  0.00000000000E+00  0.19132218659E+04  0.19132218659E+04  0.50400001928E-02 0.  1.
       -1   -1    0    0    0  501  0.00000000000E+00  0.00000000000E+00 -0.14065380471E+04  0.14065380471E+04  0.50400001928E-02 0. -1.
    10030    2    1    2    0    0  0.00000000000E+00  0.00000000000E+00  0.50668381878E+03  0.33197599130E+04  0.32808653413E+04 0.  0.
        4    1    3    3  502    0  0.20672749548E+03  0.93493109127E+03 -0.10944342278E+04  0.14541734060E+04  0.12699999809E+01 0. -1.
       -4    1    3    3    0  502 -0.20672749548E+03 -0.93493109127E+03  0.16011180466E+04  0.18655865070E+04  0.12699999809E+01 0.  1.
</event>
<event>
 5   0  0.9283910E-08  0.3300367E+04  0.7818609E-02  0.8162802E-01
        1   -1    0    0  501    0  0.00000000000E+00  0.00000000000E+00  0.14771448349E+04  0.14771448349E+04  0.50400001928E-02 0.  1.
       -1   -1    0    0    0  501  0.00000000000E+00  0.00000000000E+00 -0.18434928211E+04  0.18434928211E+04  0.50400001928E-02 0. -1.
    10030    2    1    2    0    0  0.00000000000E+00  0.00000000000E+00 -0.36634798622E+03  0.33206376561E+04  0.33003671911E+04 0.  0.
        3    1    3    3  502    0 -0.55709484372E+03 -0.79974313996E+03  0.11566058868E+04  0.15125081628E+04  0.10100000352E+00 0.  1.
       -3    1    3    3    0  502  0.55709484372E+03  0.79974313996E+03 -0.15229538731E+04  0.18081294933E+04  0.10100000352E+00 0. -1.
</event>
<event>
 5   0  0.9810351E-08  0.3298218E+04  0.7818609E-02  0.8163349E-01
        1   -1    0    0  501    0  0.00000000000E+00  0.00000000000E+00  0.17469457619E+04  0.17469457619E+04  0.50400001928E-02 0. -1.
       -1   -1    0    0    0  501  0.00000000000E+00  0.00000000000E+00 -0.15567515439E+04  0.15567515439E+04  0.50400001928E-02 0.  1.
    10030    2    1    2    0    0  0.00000000000E+00  0.00000000000E+00  0.19019421805E+03  0.33036973058E+04  0.32982180109E+04 0.  0.
        5    1    3    3  502    0  0.12652333796E+04  0.93869339335E+03  0.58332621133E+03  0.16799560561E+04  0.46999998093E+01 0.  1.
       -5    1    3    3    0  502 -0.12652333796E+04 -0.93869339335E+03 -0.39313199328E+03  0.16237412497E+04  0.46999998093E+01 0. -1.
</event>
<event>
 5   0  0.2875829E-07  0.3300791E+04  0.7818609E-02  0.8162694E-01
       -2   -1    0    0    0  501  0.00000000000E+00  0.00000000000E+00  0.14660746869E+04  0.14660746869E+04  0.25500000920E-02 0.  1.
        2   -1    0    0  501    0  0.00000000000E+00  0.00000000000E+00 -0.18578897403E+04  0.18578897403E+04  0.25500000920E-02 0. -1.
    10030    2    1    2    0    0  0.00000000000E+00  0.00000000000E+00 -0.39181505337E+03  0.33239644272E+04  0.33007908866E+04 0.  0.
        3    1    3    3  502    0 -0.11265868335E+04  0.22511593045E+03 -0.13891016018E+04  0.18026309511E+04  0.10100000352E+00 0. -1.
       -3    1    3    3    0  502  0.11265868335E+04 -0.22511593045E+03  0.99728654843E+03  0.15213334761E+04  0.10100000352E+00 0.  1.
</event>
<event>
 5   0  0.9181760E-08  0.3282957E+04  0.7818609E-02  0.8167246E-01
       -1   -1    0    0    0  501  0.00000000000E+00  0.00000000000E+00  0.16904621298E+04  0.16904621298E+04  0.50400001928E-02 0.  1.
        1   -1    0    0  501    0  0.00000000000E+00  0.00000000000E+00 -0.15939144408E+04  0.15939144408E+04  0.50400001928E-02 0. -1.
    10030    2    1    2    0    0  0.00000000000E+00  0.00000000000E+00  0.96547689000E+02  0.32843765707E+04  0.32829572038E+04 0.  0.
        1    1    3    3  502    0  0.27303160577E+03 -0.16027792924E+04 -0.17766507415E+03  0.16355465742E+04  0.50400001928E-02 0. -1.
       -1    1    3    3    0  502 -0.27303160577E+03  0.16027792924E+04  0.27421276315E+03  0.16488299965E+04  0.50400001928E-02 0.  1.
</event>
<event>
 5   0  0.2824402E-07  0.3305899E+04  0.7818609E-02  0.8161396E-01
       -2   -1    0    0    0  501  0.00000000000E+00  0.00000000000E+00  0.11414270949E+04  0.11414270949E+04  0.25500000920E-02 0. -1.
        2   -1    0    0  501    0  0.00000000000E+00  0.00000000000E+00 -0.23937073744E+04  0.23937073744E+04  0.25500000920E-02 0.  1.
    10030    2    1    2    0    0  0.00000000000E+00  0.00000000000E+00 -0.12522802795E+04  0.35351344692E+04  0.33058992449E+04 0.  0.
        1    1    3    3  502    0 -0.90066772363E+03  0.13284327656E+04 -0.20336948509E+03  0.16178056461E+04  0.50400001928E-02 0. -1.
       -1    1    3    3    0  502  0.90066772363E+03 -0.13284327656E+04 -0.10489107944E+04  0.19173288231E+04  0.50400001928E-02 0.  1.
</event>
<event>
 5   0  0.9283910E-08  0.3257177E+04  0.7818609E-02  0.8173878E-01
        1   -1    0    0  501    0  0.00000000000E+00  0.00000000000E+00  0.22404712272E+04  0.22404712272E+04  0.50400001928E-02 0.  1.
       -1   -1    0    0    0  501  0.00000000000E+00  0.00000000000E+00 -0.11838137640E+04  0.11838137641E+04  0.50400001928E-02 0. -1.
    10030    2    1    2    0    0  0.00000000000E+00  0.00000000000E+00  0.10566574631E+04  0.34242849912E+04  0.32571771071E+04 0.  0.
        3    1    3    3  502    0 -0.12436704752E+04 -0.20942722020E+02 -0.57686476559E+03  0.13711045972E+04  0.10100000352E+00 0. -1.
       -3    1    3    3    0  502  0.12436704752E+04  0.20942722020E+02  0.16335222287E+04  0.20531803940E+04  0.10100000352E+00 0.  1.
</event>
<event>
 5   0  0.9454010E-08  0.3295467E+04  0.7818609E-02  0.8164050E-01
        1   -1    0    0  501    0  0.00000000000E+00  0.00000000000E+00  0.10622090835E+04  0.10622090835E+04  0.50400001928E-02 0.  1.
       -1   -1    0    0    0  501  0.00000000000E+00  0.00000000000E+00 -0.25560185552E+04  0.25560185552E+04  0.50400001928E-02 0. -1.
    10030    2    1    2    0    0  0.00000000000E+00  0.00000000000E+00 -0.14938094717E+04  0.36182276388E+04  0.32954672671E+04 0.  0.
        2    1    3    3  502    0  0.29033828666E+03 -0.16111524317E+04 -0.54174063204E+03  0.17244104474E+04  0.25500000920E-02 0.  1.
       -2    1    3    3    0  502 -0.29033828666E+03  0.16111524317E+04 -0.95206883964E+03  0.18938171913E+04  0.25500000920E-02 0. -1.
</event>
<event>
 5   0  0.9810351E-08  0.3300681E+04  0.7818609E-02  0.8162722E-01
       -1   -1    0    0    0  501  0.00000000000E+00  0.00000000000E+00  0.13706639840E+04  0.13706639841E+04  0.50400001928E-02 0.  1.
        1   -1    0    0  501    0  0.00000000000E+00  0.00000000000E+00 -0.19870839731E+04  0.19870839731E+04  0.50400001928E-02 0. -1.
    10030    2    1    2    0    0  0.00000000000E+00  0.00000000000E+00 -0.61641998901E+03  0.33577479571E+04  0.33006814055E+04 0.  0.
        5    1    3    3  502    0  0.14374907253E+04  0.73431418088E+01  0.51646526881E+03  0.15274789593E+04  0.46999998093E+01 0.  1.
       -5    1    3    3    0  502 -0.14374907253E+04 -0.73431418088E+01 -0.11328852578E+04  0.18302689979E+04  0.46999998093E+01 0. -1.
</event>
<event>
 5   0  0.2703956E-07  0.3296056E+04  0.7818609E-02  0.8163900E-01
       -2   -1    0    0    0  501  0.00000000000E+00  0.00000000000E+00  0.11624351356E+04  0.11624351356E+04  0.25500000920E-02 0. -1.
        2   -1    0    0  501    0  0.00000000000E+00  0.00000000000E+00 -0.23364707759E+04  0.23364707759E+04  0.25500000920E-02 0.  1.
    10030    2    1    2    0    0  0.00000000000E+00  0.00000000000E+00 -0.11740356403E+04  0.34989059116E+04  0.32960556569E+04 0.  0.
        5    1    3    3  502    0 -0.13646451403E+04 -0.64937769928E+03 -0.12847561933E+04  0.19835746322E+04  0.46999998093E+01 0.  1.
       -5    1    3    3    0  502  0.13646451403E+04  0.64937769928E+03  0.11072055298E+03  0.15153312794E+04  0.46999998093E+01 0. -1.
</event>
<event>
 5   0  0.2703956E-07  0.3304677E+04  0.7818609E-02  0.8161706E-01
       -2   -1    0    0    0  501  0.00000000000E+00  0.00000000000E+00  0.10807380844E+04  0.10807380844E+04  0.25500000920E-02 0.  1.
        2   -1    0    0  501    0  0.00000000000E+00  0.00000000000E+00 -0.25262569450E+04  0.25262569450E+04  0.25500000920E-02 0. -1.
    10030    2    1    2    0    0  0.00000000000E+00  0.00000000000E+00 -0.14455188605E+04  0.36069950294E+04  0.33046767415E+04 0.  0.
        5    1    3    3  502    0 -0.14342454123E+04  0.69336233144E+03 -0.12015068276E+04  0.19953576051E+04  0.46999998093E+01 0. -1.
       -5    1    3    3    0  502  0.14342454123E+04 -0.69336233144E+03 -0.24401203292E+03  0.16116374243E+04  0.46999998093E+01 0.  1.
</event>
<event>
 5   0  0.2703956E-07  0.3299577E+04  0.7818609E-02  0.8163003E-01
        2   -1    0    0  501    0  0.00000000000E+00  0.00000000000E+00  0.15810087916E+04  0.15810087916E+04  0.25500000920E-02 0. -1.
       -2   -1    0    0    0  501  0.00000000000E+00  0.00000000000E+00 -0.17215599987E+04  0.17215599987E+04  0.25500000920E-02 0.  1.
    10030    2    1    2    0    0  0.00000000000E+00  0.00000000000E+00 -0.14055120708E+03  0.33025687902E+04  0.32995766353E+04 0.  0.
        5    1    3    3  502    0 -0.10034601388E+04  0.78222025726E+03 -0.11214558722E+04  0.16960206792E+04  0.46999998093E+01 0. -1.
       -5    1    3    3    0  502  0.10034601388E+04 -0.78222025726E+03  0.98090466515E+03  0.16065481110E+04  0.46999998093E+01 0.  1.
</event>
<event>
 5   0  0.8805125E-08  0.3297465E+04  0.7818609E-02  0.8163541E-01
        1   -1    0    0  501    0  0.00000000000E+00  0.00000000000E+00  0.14251306433E+04  0.14251306433E+04  0.50400001928E-02 0.  1.
       -1   -1    0    0    0  501  0.00000000000E+00  0.00000000000E+00 -0.19074172840E+04  0.19074172840E+04  0.50400001928E-02 0. -1.
    10030    2    1    2    0    0  0.00000000000E+00  0.00000000000E+00 -0.48228664064E+03  0.33325479273E+04  0.32974649784E+04 0.  0.
        4    1    3    3  502    0  0.78567991127E+03  0.73013919243E+03  0.10243454827E+04  0.14831323084E+04  0.12699999809E+01 0.  1.
       -4    1    3    3    0  502 -0.78567991127E+03 -0.73013919243E+03 -0.15066321234E+04  0.18494156189E+04  0.12699999809E+01 0. -1.
</event>
<event>
 5   0  0.2727168E-07  0.3330032E+04  0.7818609E-02  0.8155296E-01
        2   -1    0    0  501    0  0.00000000000E+00  0.00000000000E+00  0.28751140922E+04  0.28751140922E+04  0.25500000920E-02 0.  1.
       -2   -1    0    0    0  501  0.00000000000E+00  0.00000000000E+00 -0.96423226846E+03  0.96423226847E+03  0.25500000920E-02 0. -1.
    10030    2    1    2    0    0  0.00000000000E+00  0.00000000000E+00  0.19108818237E+04  0.38393463606E+04  0.33300317015E+04 0.  0.
        2    1    3    3  502    0  0.17462622681E+03  0.13337389537E+04  0.20868115431E+04  0.24827678772E+04  0.25500000920E-02 0.  1.
       -2    1    3    3    0  502 -0.17462622681E+03 -0.13337389537E+04 -0.17592971934E+03  0.13565784835E+04  0.25500000920E-02 0. -1.
</event>
<event>
 5   0  0.2875829E-07  0.3300769E+04  0.7818609E-02  0.8162700E-01
       -2   -1    0    0    0  501  0.00000000000E+00  0.00000000000E+00  0.96952823555E+03  0.96952823555E+03  0.25500000920E-02 0. -1.
        2   -1    0    0  501    0  0.00000000000E+00  0.00000000000E+00 -0.28093750707E+04  0.28093750707E+04  0.25500000920E-02 0.  1.
    10030    2    1    2    0    0  0.00000000000E+00  0.00000000000E+00 -0.18398468351E+04  0.37789033062E+04  0.33007686713E+04 0.  0.
        3    1    3    3  502    0  0.16548316403E+03 -0.67754074057E+03 -0.26323618560E+04  0.27231920762E+04  0.10100000352E+00 0.  1.
       -3    1    3    3    0  502 -0.16548316403E+03  0.67754074057E+03  0.79251502088E+03  0.10557112300E+04  0.10100000352E+00 0. -1.
</event>
<event>
 5   0  0.9283910E-08  0.3301813E+04  0.7818609E-02  0.8162434E-01
        1   -1    0    0  501    0  0.00000000000E+00  0.00000000000E+00  0.27291163693E+04  0.27291163693E+04  0.50400001928E-02 0. -1.
       -1   -1    0    0    0  501  0.00000000000E+00  0.00000000000E+00 -0.99867187119E+03  0.99867187121E+03  0.50400001928E-02 0.  1.
    10030    2    1    2    0    0  0.00000000000E+00  0.00000000000E+00  0.17304444981E+04  0.37277882405E+04  0.33018126847E+04 0.  0.
        3    1    3    3  502    0 -0.36305940157E+03  0.15217837397E+04  0.27009885739E+03  0.15876370122E+04  0.10100000352E+00 0.  1.
       -3    1    3    3    0  502  0.36305940157E+03 -0.15217837397E+04  0.14603456407E+04  0.21401512283E+04  0.10100000352E+00 0. -1.
</event>
<event>
 5   0  0.2875829E-07  0.3303390E+04  0.7818609E-02  0.8162033E-01
       -2   -1    0    0    0  501  0.00000000000E+00  0.00000000000E+00  0.20960098890E+04  0.20960098890E+04  0.25500000920E-02 0. -1.
        2   -1    0    0  501    0  0.00000000000E+00  0.00000000000E+00 -0.13015667641E+04  0.13015667641E+04  0.25500000920E-02 0.  1.
    10030    2    1    2    0    0  0.00000000000E+00  0.00000000000E+00  0.79444312495E+03  0.33975766531E+04  0.33033902638E+04 0.  0.
        3    1    3    3  502    0 -0.12744387426E+04 -0.69660829120E+03 -0.41174063917E+03  0.15096316054E+04  0.10100000352E+00 0.  1.
       -3    1    3    3    0  502  0.12744387426E+04  0.69660829120E+03  0.12061837641E+04  0.18879450477E+04  0.10100000352E+00 0. -1.
</event>
<event>
 5   0  0.9181760E-08  0.3300017E+04  0.7818609E-02  0.8162891E-01
       -1   -1    0    0    0  501  0.00000000000E+00  0.00000000000E+00  0.17136446715E+04  0.17136446715E+04  0.50400001928E-02 0. -1.
        1   -1    0    0  501    0  0.00000000000E+00  0.00000000000E+00 -0.15887358692E+04  0.15887358692E+04  0.50400001928E-02 0.  1.
    10030    2    1    2    0    0  0.00000000000E+00  0.00000000000E+00  0.12490880231E+03  0.33023805406E+04  0.33000174282E+04 0.  0.
        1    1    3    3  502    0 -0.84235546295E+03  0.72692319957E+03 -0.11568386717E+04  0.16050718913E+04  0.50400001928E-02 0.  1.
       -1    1    3    3    0  502  0.84235546295E+03 -0.72692319957E+03  0.12817474740E+04  0.16973086493E+04  0.50400001928E-02 0. -1.
</event>
<event>
 5   0  0.2703956E-07  0.3286468E+04  0.7818609E-02  0.8166347E-01
        2   -1    0    0  501    0  0.00000000000E+00  0.00000000000E+00  0.18768015222E+04  0.18768015222E+04  0.25500000920E-02 0. -1.
       -2   -1    0    0    0  501  0.00000000000E+00  0.00000000000E+00 -0.14387337361E+04  0.14387337361E+04  0.25500000920E-02 0.  1.
    10030    2    1    2    0    0  0.00000000000E+00  0.00000000000E+00  0.43806778614E+03  0.33155352583E+04  0.32864678096E+04 0.  0.
        5    1    3    3  502    0 -0.31372361201E+03 -0.31046689184E+03 -0.13778059636E+04  0.14467838674E+04  0.46999998093E+01 0.  1.
       -5    1    3    3    0  502  0.31372361201E+03  0.31046689184E+03  0.18158737498E+04  0.18687513909E+04  0.46999998093E+01 0. -1.
</event>
<event>
 5   0  0.9283910E-08  0.3292726E+04  0.7818609E-02  0.8164749E-01
       -1   -1    0    0    0  501  0.00000000000E+00  0.00000000000E+00  0.18189011505E+04  0.18189011505E+04  0.50400001928E-02 0. -1.
        1   -1    0    0  501    0  0.00000000000E+00  0.00000000000E+00 -0.14901914330E+04  0.14901914330E+04  0.50400001928E-02 0.  1.
    10030    2    1    2    0    0  0.00000000000E+00  0.00000000000E+00  0.32870971756E+03  0.33090925835E+04  0.32927258689E+04 0.  0.
        3    1    3    3  502    0 -0.13703879105E+04  0.13214553722E+02 -0.75252493215E+03  0.15634677590E+04  0.10100000352E+00 0.  1.
       -3    1    3    3    0  502  0.13703879105E+04 -0.13214553722E+02  0.10812346497E+04  0.17456248245E+04  0.10100000352E+00 0. -1.
</event>
<event>
 5   0  0.2727168E-07  0.3303880E+04  0.7818609E-02  0.8161909E-01
        2   -1    0    0  501    0  0.00000000000E+00  0.00000000000E+00  0.12814618951E+04  0.12814618951E+04  0.25500000920E-02 0. -1.
       -2   -1    0    0    0  501  0.00000000000E+00  0.00000000000E+00 -0.21295257833E+04  0.21295257833E+04  0.25500000920E-02 0.  1.
    10030    2    1    2    0    0  0.00000000000E+00  0.00000000000E+00 -0.84806388818E+03  0.34109876784E+04  0.33038802314E+04 0.  0.
        2    1    3    3  502    0  0.16523428743E+03  0.16066165339E+04 -0.78224863021E+03  0.17945562060E+04  0.25500000920E-02 0.  1.
       -2    1    3    3    0  502 -0.16523428743E+03 -0.16066165339E+04 -0.65815257964E+02  0.16164314724E+04  0.25500000920E-02 0. -1.
</event>
<event>
 5   0  0.9810351E-08  0.3309312E+04  0.7818609E-02  0.8160530E-01
       -1   -1    0    0    0  501  0.00000000000E+00  0.00000000000E+00  0.15146731268E+04  0.15146731268E+04  0.50400001928E-02 0.  1.
        1   -1    0    0  501    0  0.00000000000E+00  0.00000000000E+00 -0.18075760806E+04  0.18075760806E+04  0.50400001928E-02 0. -1.
    10030    2    1    2    0    0  0.00000000000E+00  0.00000000000E+00 -0.29290295380E+03  0.33222492074E+04  0.33093122632E+04 0.  0.
        5    1    3    3  502    0 -0.40419256505E+03 -0.15322354321E+04  0.33159043507E+03  0.16189784914E+04  0.46999998093E+01 0.  1.
       -5    1    3    3    0  502  0.40419256505E+03  0.15322354321E+04 -0.62449338887E+03  0.17032707159E+04  0.46999998093E+01 0. -1.
</event>
<event>
 5   0  0.9454010E-08  0.3297228E+04  0.7818609E-02  0.8163601E-01
        1   -1    0    0  501    0  0.00000000000E+00  0.00000000000E+00  0.21853846872E+04  0.21853846872E+04  0.50400001928E-02 0.  1.
       -1   -1    0    0    0  501  0.00000000000E+00  0.00000000000E+00 -0.12436840151E+04  0.12436840151E+04  0.50400001928E-02 0. -1.
    10030    2    1    2    0    0  0.00000000000E+00  0.00000000000E+00  0.94170067211E+03  0.34290687022E+04  0.32972279279E+04 0.  0.
        2    1    3    3  502    0 -0.15884881554E+04  0.40543962405E+03  0.65173632766E+03  0.17642097804E+04  0.25500000920E-02 0.  1.
       -2    1    3    3    0  502  0.15884881554E+04 -0.40543962405E+03  0.28996434445E+03  0.16648589218E+04  0.25500000920E-02 0. -1.
</event>
<event>
 5   0  0.8805125E-08  0.3312025E+04  0.7818609E-02  0.8159842E-01
       -3   -1    0    0    0  501  0.00000000000E+00  0.00000000000E+00  0.19282250032E+04  0.19282250058E+04  0.10100000352E+00 0.  1.
        3   -1    0    0  501    0  0.00000000000E+00  0.00000000000E+00 -0.14222290405E+04  0.14222290441E+04  0.10100000352E+00 0. -1.
    10030    2    1    2    0    0  0.00000000000E+00  0.00000000000E+00  0.50599596265E+03  0.33504540499E+04  0.33120251247E+04 0.  0.
        2    1    3    3  502    0 -0.13944095931E+03 -0.10174604645E+04 -0.10611936633E+04  0.14767537266E+04  0.25500000920E-02 0. -1.
       -2    1    3    3    0  502  0.13944095931E+03  0.10174604645E+04  0.15671896259E+04  0.18737003233E+04  0.25500000920E-02 0.  1.
</event>
<event>
 5   0  0.2703956E-07  0.3302110E+04  0.7818609E-02  0.8162359E-01
       -2   -1    0    0    0  501  0.00000000000E+00  0.00000000000E+00  0.11259224664E+04  0.11259224664E+04  0.25500000920E-02 0.  1.
        2   -1    0    0  501    0  0.00000000000E+00  0.00000000000E+00 -0.24211099088E+04  0.24211099088E+04  0.25500000920E-02 0. -1.
    10030    2    1    2    0    0  0.00000000000E+00  0.00000000000E+00 -0.12951874424E+04  0.35470323752E+04  0.33021096529E+04 0.  0.
        5    1    3    3  502    0  0.17023107267E+03 -0.13446849118E+04  0.36509650369E+03  0.14037356151E+04  0.46999998093E+01 0.  1.
       -5    1    3    3    0  502 -0.17023107267E+03  0.13446849118E+04 -0.16602839461E+04  0.21432967601E+04  0.46999998093E+01 0. -1.
</event>
<event>
 5   0  0.9810351E-08  0.3306912E+04  0.7818609E-02  0.8161139E-01
        1   -1    0    0  501    0  0.00000000000E+00  0.00000000000E+00  0.13473315034E+04  0.13473315035E+04  0.50400001928E-02 0. -1.
       -1   -1    0    0    0  501  0.00000000000E+00  0.00000000000E+00 -0.20291348705E+04  0.20291348705E+04  0.50400001928E-02 0.  1.
    10030    2    1    2    0    0  0.00000000000E+00  0.00000000000E+00 -0.68180336709E+03  0.33764663740E+04  0.33069123580E+04 0.  0.
        5    1    3    3  502    0 -0.11766421956E+04  0.84553320141E+03  0.47239573713E+03  0.15240056016E+04  0.46999998093E+01 0. -1.
       -5    1    3    3    0  502  0.11766421956E+04 -0.84553320141E+03 -0.11541991042E+04  0.18524607724E+04  0.46999998093E+01 0.  1.
</event>
<event>
 5   0  0.2824402E-07  0.3300199E+04  0.7818609E-02  0.8162845E-01
        2   -1    0    0  501    0  0.00000000000E+00  0.00000000000E+00  0.15992234364E+04  0.15992234364E+04  0.25500000920E-02 0.  1.
       -2   -1    0    0    0  501  0.00000000000E+00  0.00000000000E+00 -0.17025943475E+04  0.17025943475E+04  0.25500000920E-02 0. -1.
    10030    2    1    2    0    0  0.00000000000E+00  0.00000000000E+00 -0.10337091108E+03  0.33018177839E+04  0.33001992565E+04 0.  0.
        1    1    3    3  502    0 -0.77326818012E+03  0.53956743827E+03  0.13031396960E+04  0.16084930109E+04  0.50400001928E-02 0.  1.
       -1    1    3    3    0  502  0.77326818012E+03 -0.53956743827E+03 -0.14065106071E+04  0.16933247730E+04  0.50400001928E-02 0. -1.
</event>
<event>
 5   0  0.2703956E-07  0.3300125E+04  0.7818609E-02  0.8162864E-01
       -2   -1    0    0    0  501  0.00000000000E+00  0.00000000000E+00  0.13322635546E+04  0.13322635546E+04  0.25500000920E-02 0.  1.
        2   -1    0    0  501    0  0.00000000000E+00  0.00000000000E+00 -0.20436688014E+04  0.20436688014E+04  0.25500000920E-02 0. -1.
    10030    2    1    2    0    0  0.00000000000E+00  0.00000000000E+00 -0.71140524679E+03  0.33759323560E+04  0.33001245200E+04 0.  0.
        5    1    3    3  502    0  0.11916932463E+04 -0.10167920690E+04 -0.88595752172E+03  0.17997060108E+04  0.46999998093E+01 0.  1.
       -5    1    3    3    0  502 -0.11916932463E+04  0.10167920690E+04  0.17455227493E+03  0.15762263453E+04  0.46999998093E+01 0. -1.
</event>
<event>
 5   0  0.2703956E-07  0.3301653E+04  0.7818609E-02  0.8162475E-01
       -2   -1    0    0    0  501  0.00000000000E+00  0.00000000000E+00  0.98407327447E+03  0.98407327447E+03  0.25500000920E-02 0.  1.
        2   -1    0    0  501    0  0.00000000000E+00  0.00000000000E+00 -0.27693340341E+04  0.27693340341E+04  0.25500000920E-02 0. -1.
    10030    2    1    2    0    0  0.00000000000E+00  0.00000000000E+00 -0.17852607597E+04  0.37534073086E+04  0.33016526838E+04 0.  0.
        5    1    3    3  502    0  0.13836941559E+04  0.65826761058E+02 -0.19134115068E+04  0.23622252991E+04  0.46999998093E+01 0. -1.
       -5    1    3    3    0  502 -0.13836941559E+04 -0.65826761058E+02  0.12815074711E+03  0.13911820095E+04  0.46999998093E+01 0.  1.
</event>
<event>
 5   0  0.9810351E-08  0.3300724E+04  0.7818609E-02  0.8162711E-01
       -1   -1    0    0    0  501  0.00000000000E+00  0.00000000000E+00  0.12640062953E+04  0.12640062953E+04  0.50400001928E-02 0.  1.
        1   -1    0    0  501    0  0.00000000000E+00  0.00000000000E+00 -0.21548114571E+04  0.21548114571E+04  0.50400001928E-02 0. -1.
    10030    2    1    2    0    0  0.00000000000E+00  0.00000000000E+00 -0.89080516186E+03  0.34188177524E+04  0.33007243126E+04 0.  0.
        5    1    3    3  502    0  0.23982392613E+03  0.11115719075E+04  0.79345270241E+03  0.13866134653E+04  0.46999998093E+01 0. -1.
       -5    1    3    3    0  502 -0.23982392613E+03 -0.11115719075E+04 -0.16842578643E+04  0.20322042871E+04  0.46999998093E+01 0.  1.
</event>
<event>
 5   0  0.8805125E-08  0.3206585E+04  0.7818609E-02  0.8187080E-01
       -3   -1    0    0    0  501  0.00000000000E+00  0.00000000000E+00  0.20854369303E+04  0.20854369328E+04  0.10100000352E+00 0.  1.
        3   -1    0    0  501    0  0.00000000000E+00  0.00000000000E+00 -0.12326180429E+04  0.12326180470E+04  0.10100000352E+00 0. -1.
    10030    2    1    2    0    0  0.00000000000E+00  0.00000000000E+00  0.85281888743E+03  0.33180549798E+04  0.32065852233E+04 0.  0.
        2    1    3    3  502    0 -0.15505350439E+04  0.15353807985E+03  0.81745440212E+03  0.17595353261E+04  0.25500000920E-02 0.  1.
       -2    1    3    3    0  502  0.15505350439E+04 -0.15353807985E+03  0.35364485312E+02  0.15585196537E+04  0.25500000920E-02 0. -1.
</event>
<event>
 5   0  0.2703956E-07  0.3301319E+04  0.7818609E-02  0.8162560E-01
       -2   -1    0    0    0  501  0.00000000000E+00  0.00000000000E+00  0.19663491190E+04  0.19663491190E+04  0.25500000920E-02 0.  1.
        2   -1    0    0  501    0  0.00000000000E+00  0.00000000000E+00 -0.13856522428E+04  0.13856522428E+04  0.25500000920E-02 0. -1.
    10030    2    1    2    0    0  0.00000000000E+00  0.00000000000E+00  0.58069687625E+03  0.33520013618E+04  0.33013185649E+04 0.  0.
        5    1    3    3  502    0  0.12762547786E+04 -0.98730084510E+03 -0.62936906462E+02  0.16147979325E+04  0.46999998093E+01 0. -1.
       -5    1    3    3    0  502 -0.12762547786E+04  0.98730084510E+03  0.64363378272E+03  0.17372034293E+04  0.46999998093E+01 0.  1.
</event>
<event>
 5   0  0.8805125E-08  0.3305428E+04  0.7818609E-02  0.8161516E-01
        1   -1    0    0  501    0  0.00000000000E+00  0.00000000000E+00  0.22144651039E+04  0.22144651039E+04  0.50400001928E-02 0.  1.
       -1   -1    0    0    0  501  0.00000000000E+00  0.00000000000E+00 -0.12334641283E+04  0.12334641283E+04  0.50400001928E-02 0. -1.
    10030    2    1    2    0    0  0.00000000000E+00  0.00000000000E+00  0.98100097557E+03  0.34479292322E+04  0.33054278204E+04 0.  0.
        4    1    3    3  502    0  0.33358231940E+02 -0.16391024170E+04  0.70853858252E+03  0.17860005714E+04  0.12699999809E+01 0. -1.
       -4    1    3    3    0  502 -0.33358231940E+02  0.16391024170E+04  0.27246239306E+03  0.16619286608E+04  0.12699999809E+01 0.  1.
</event>
<event>
 5   0  0.2824402E-07  0.3295840E+04  0.7818609E-02  0.8163955E-01
       -2   -1    0    0    0  501  0.00000000000E+00  0.00000000000E+00  0.12050289822E+04  0.12050289822E+04  0.25500000920E-02 0. -1.
        2   -1    0    0  501    0  0.00000000000E+00  0.00000000000E+00 -0.22535893763E+04  0.22535893763E+04  0.25500000920E-02 0.  1.
    10030    2    1    2    0    0  0.00000000000E+00  0.00000000000E+00 -0.10485603941E+04  0.34586183586E+04  0.32958401130E+04 0.  0.
        1    1    3    3  502    0 -0.49357756311E+03  0.39154197646E+03  0.10736593356E+04  0.12448567384E+04  0.50400001928E-02 0. -1.
       -1    1    3    3    0  502  0.49357756311E+03 -0.39154197646E+03 -0.21222197297E+04  0.22137616202E+04  0.50400001928E-02 0.  1.
</event>
<event>
 5   0  0.9810351E-08  0.3297844E+04  0.7818609E-02  0.8163444E-01
        1   -1    0    0  501    0  0.00000000000E+00  0.00000000000E+00  0.20291987595E+04  0.20291987595E+04  0.50400001928E-02 0.  1.
       -1   -1    0    0    0  501  0.00000000000E+00  0.00000000000E+00 -0.13399102717E+04  0.13399102717E+04  0.50400001928E-02 0. -1.
    10030    2    1    2    0    0  0.00000000000E+00  0.00000000000E+00  0.68928848778E+03  0.33691090312E+04  0.32978443027E+04 0.  0.
        5    1    3    3  502    0  0.15093896150E+04 -0.21978274350E+03 -0.29527868590E+03  0.15536322141E+04  0.46999998093E+01 0. -1.
       -5    1    3    3    0  502 -0.15093896150E+04  0.21978274350E+03  0.98456717368E+03  0.18154768172E+04  0.46999998093E+01 0.  1.
</event>
<event>
 5   0  0.9181760E-08  0.3291781E+04  0.7818609E-02  0.8164990E-01
       -1   -1    0    0    0  501  0.00000000000E+00  0.00000000000E+00  0.11811245663E+04  0.11811245663E+04  0.50400001928E-02 0.  1.
        1   -1    0    0  501    0  0.00000000000E+00  0.00000000000E+00 -0.22935388851E+04  0.22935388851E+04  0.50400001928E-02 0. -1.
    10030    2    1    2    0    0  0.00000000000E+00  0.00000000000E+00 -0.11124143188E+04  0.34746634514E+04  0.32917807466E+04 0.  0.
        1    1    3    3  502    0 -0.36856957393E+03 -0.15787677254E+04 -0.25652540488E+03  0.16413885417E+04  0.50400001928E-02 0. -1.
       -1    1    3    3    0  502  0.36856957393E+03  0.15787677254E+04 -0.85588891389E+03  0.18332749097E+04  0.50400001928E-02 0.  1.
</event>
<event>
 5   0  0.9181760E-08  0.3315828E+04  0.7818609E-02  0.8158880E-01
       -1   -1    0    0    0  501  0.00000000000E+00  0.00000000000E+00  0.15490351929E+04  0.15490351929E+04  0.50400001928E-02 0. -1.
        1   -1    0    0  501    0  0.00000000000E+00  0.00000000000E+00 -0.17744460949E+04  0.17744460949E+04  0.50400001928E-02 0.  1.
    10030    2    1    2    0    0  0.00000000000E+00  0.00000000000E+00 -0.22541090202E+03  0.33234812879E+04  0.33158283725E+04 0.  0.
        1    1    3    3  502    0  0.38382312476E+03 -0.99196083328E+03  0.11619895541E+04  0.15752860723E+04  0.50400001928E-02 0. -1.
       -1    1    3    3    0  502 -0.38382312476E+03  0.99196083328E+03 -0.13874004561E+04  0.17481952155E+04  0.50400001928E-02 0.  1.
</event>
<event>
 5   0  0.8805125E-08  0.3309104E+04  0.7818609E-02  0.8160583E-01
        1   -1    0    0  501    0  0.00000000000E+00  0.00000000000E+00  0.17825909843E+04  0.17825909843E+04  0.50400001928E-02 0.  1.
       -1   -1    0    0    0  501  0.00000000000E+00  0.00000000000E+00 -0.15357092859E+04  0.15357092859E+04  0.50400001928E-02 0. -1.
    10030    2    1    2    0    0  0.00000000000E+00  0.00000000000E+00  0.24688169843E+03  0.33183002702E+04  0.33091035206E+04 0.  0.
        4    1    3    3  502    0  0.41462759034E+02 -0.36872183246E+03  0.17403317780E+04  0.17794468973E+04  0.12699999809E+01 0.  1.
       -4    1    3    3    0  502 -0.41462759034E+02  0.36872183246E+03 -0.14934500795E+04  0.15388533728E+04  0.12699999809E+01 0. -1.
</event>
<event>
 5   0  0.2713815E-07  0.3282464E+04  0.7818609E-02  0.8167372E-01
        2   -1    0    0  501    0  0.00000000000E+00  0.00000000000E+00  0.18828945621E+04  0.18828945621E+04  0.25500000920E-02 0. -1.
       -2   -1    0    0    0  501  0.00000000000E+00  0.00000000000E+00 -0.14305856363E+04  0.14305856363E+04  0.25500000920E-02 0.  1.
    10030    2    1    2    0    0  0.00000000000E+00  0.00000000000E+00  0.45230892578E+03  0.33134801984E+04  0.32824636572E+04 0.  0.
        4    1    3    3  502    0  0.30927643439E+03  0.16096177284E+04  0.14098208613E+03  0.16451135845E+04  0.12699999809E+01 0. -1.
       -4    1    3    3    0  502 -0.30927643439E+03 -0.16096177284E+04  0.31132683965E+03  0.16683666139E+04  0.12699999809E+01 0.  1.
</event>
<event>
 5   0  0.2875829E-07  0.3288918E+04  0.7818609E-02  0.8165721E-01
        2   -1    0    0  501    0  0.00000000000E+00  0.00000000000E+00  0.17585619948E+04  0.17585619948E+04  0.25500000920E-02 0. -1.
       -2   -1    0    0    0  501  0.00000000000E+00  0.00000000000E+00 -0.15377597689E+04  0.15377597689E+04  0.25500000920E-02 0.  1.
    10030    2    1    2    0    0  0.00000000000E+00  0.00000000000E+00  0.22080222584E+03  0.32963217637E+04  0.32889182943E+04 0.  0.
        3    1    3    3  502    0  0.13131965247E+04  0.77753808487E+02  0.10993924053E+04  0.17144078973E+04  0.10100000352E+00 0. -1.
       -3    1    3    3    0  502 -0.13131965247E+04 -0.77753808487E+02 -0.87859017950E+03  0.15819138664E+04  0.10100000352E+00 0.  1.
</event>
<event>
 5   0  0.9181760E-08  0.3298417E+04  0.7818609E-02  0.8163298E-01
       -1   -1    0    0    0  501  0.00000000000E+00  0.00000000000E+00  0.15424425148E+04  0.15424425148E+04  0.50400001928E-02 0. -1.
        1   -1    0    0  501    0  0.00000000000E+00  0.00000000000E+00 -0.17633649499E+04  0.17633649499E+04  0.50400001928E-02 0.  1.
    10030    2    1    2    0    0  0.00000000000E+00  0.00000000000E+00 -0.22092243515E+03  0.33058074647E+04  0.32984172373E+04 0.  0.
        1    1    3    3  502    0 -0.96745797723E+03  0.80296956069E+03 -0.11801641519E+04  0.17243904658E+04  0.50400001928E-02 0.  1.
       -1    1    3    3    0  502  0.96745797723E+03 -0.80296956069E+03  0.95924171679E+03  0.15814169989E+04  0.50400001928E-02 0. -1.
</event>
<event>
 5   0  0.2703956E-07  0.3298479E+04  0.7818609E-02  0.8163282E-01
       -2   -1    0    0    0  501  0.00000000000E+00  0.00000000000E+00  0.14070235672E+04  0.14070235672E+04  0.25500000920E-02 0.  1.
        2   -1    0    0  501    0  0.00000000000E+00  0.00000000000E+00 -0.19331526844E+04  0.19331526844E+04  0.25500000920E-02 0. -1.
    10030    2    1    2    0    0  0.00000000000E+00  0.00000000000E+00 -0.52612911722E+03  0.33401762517E+04  0.32984792775E+04 0.  0.
        5    1    3    3  502    0 -0.63634755672E+03  0.12442667209E+04  0.62369437173E+03  0.15304099598E+04  0.46999998093E+01 0.  1.
       -5    1    3    3    0  502  0.63634755672E+03 -0.12442667209E+04 -0.11498234889E+04  0.18097662919E+04  0.46999998093E+01 0. -1.
</event>
<event>
 5   0  0.2875829E-07  0.3293009E+04  0.7818609E-02  0.8164677E-01
       -2   -1    0    0    0  501  0.00000000000E+00  0.00000000000E+00  0.91072053269E+03  0.91072053270E+03  0.25500000920E-02 0. -1.
        2   -1    0    0  501    0  0.00000000000E+00  0.00000000000E+00 -0.29767388584E+04  0.29767388584E+04  0.25500000920E-02 0.  1.
    10030    2    1    2    0    0  0.00000000000E+00  0.00000000000E+00 -0.20660183258E+04  0.38874593911E+04  0.32930090792E+04 0.  0.
        3    1    3    3  502    0 -0.95868767126E+03  0.41408345950E+03 -0.25357638051E+04  0.27423794865E+04  0.10100000352E+00 0.  1.
       -3    1    3    3    0  502  0.95868767126E+03 -0.41408345950E+03  0.46974547935E+03  0.11450799047E+04  0.10100000352E+00 0. -1.
</event>
<event>
 5   0  0.2713815E-07  0.3296910E+04  0.7818609E-02  0.8163682E-01
        2   -1    0    0  501    0  0.00000000000E+00  0.00000000000E+00  0.23760804579E+04  0.23760804579E+04  0.25500000920E-02 0. -1.
       -2   -1    0    0    0  501  0.00000000000E+00  0.00000000000E+00 -0.11436494797E+04  0.11436494797E+04  0.25500000920E-02 0.  1.
    10030    2    1    2    0    0  0.00000000000E+00  0.00000000000E+00  0.12324309782E+04  0.35197299376E+04  0.32969095707E+04 0.  0.
        4    1    3    3  502    0 -0.25204514316E+03  0.73096370350E+03  0.21704833574E+04  0.23040907768E+04  0.12699999809E+01 0. -1.
       -4    1    3    3    0  502  0.25204514316E+03 -0.73096370350E+03 -0.93805237925E+03  0.12156391607E+04  0.12699999809E+01 0.  1.
</event>
<event>
 5   0  0.2727168E-07  0.3300628E+04  0.7818609E-02  0.8162736E-01
        2   -1    0    0  501    0  0.00000000000E+00  0.00000000000E+00  0.13310300832E+04  0.13310300832E+04  0.25500000920E-02 0.  1.
       -2   -1    0    0    0  501  0.00000000000E+00  0.00000000000E+00 -0.20461867063E+04  0.20461867063E+04  0.25500000920E-02 0. -1.
    10030    2    1    2    0    0  0.00000000000E+00  0.00000000000E+00 -0.71515662313E+03  0.33772167895E+04  0.33006278566E+04 0.  0.
        2    1    3    3  502    0 -0.13094930608E+04  0.43037409883E+03  0.57097167315E+03  0.14919794210E+04  0.25500000920E-02 0.  1.
       -2    1    3    3    0  502  0.13094930608E+04 -0.43037409883E+03 -0.12861282963E+04  0.18852373685E+04  0.25500000920E-02 0. -1.
</event>
<event>
 5   0  0.2727168E-07  0.3298206E+04  0.7818609E-02  0.8163352E-01
       -2   -1    0    0    0  501  0.00000000000E+00  0.00000000000E+00  0.14190577824E+04  0.14190577824E+04  0.25500000920E-02 0. -1.
        2   -1    0    0  501    0  0.00000000000E+00  0.00000000000E+00 -0.19164408012E+04  0.19164408012E+04  0.25500000920E-02 0.  1.
    10030    2    1    2    0    0  0.00000000000E+00  0.00000000000E+00 -0.49738301886E+03  0.33354985836E+04  0.32982057143E+04 0.  0.
        2    1    3    3  502    0  0.71140985744E+03  0.14297237668E+04 -0.66483691142E+03  0.17298040794E+04  0.25500000920E-02 0.  1.
       -2    1    3    3    0  502 -0.71140985744E+03 -0.14297237668E+04  0.16745389256E+03  0.16056945041E+04  0.25500000920E-02 0. -1.
</event>
<event>
 5   0  0.2727168E-07  0.3301896E+04  0.7818609E-02  0.8162413E-01
       -2   -1    0    0    0  501  0.00000000000E+00  0.00000000000E+00  0.11116104576E+04  0.11116104576E+04  0.25500000920E-02 0.  1.
        2   -1    0    0  501    0  0.00000000000E+00  0.00000000000E+00 -0.24519643923E+04  0.24519643923E+04  0.25500000920E-02 0. -1.
    10030    2    1    2    0    0  0.00000000000E+00  0.00000000000E+00 -0.13403539347E+04  0.35635748498E+04  0.33018959766E+04 0.  0.
        2    1    3    3  502    0 -0.22572604666E+03  0.16200057324E+04 -0.91212773026E+03  0.18727914506E+04  0.25500000920E-02 0. -1.
       -2    1    3    3    0  502  0.22572604666E+03 -0.16200057324E+04 -0.42822620443E+03  0.16907833993E+04  0.25500000920E-02 0.  1.
</event>
<event>
 5   0  0.2875829E-07  0.3299047E+04  0.7818609E-02  0.8163138E-01
        2   -1    0    0  501    0  0.00000000000E+00  0.00000000000E+00  0.17593913209E+04  0.17593913209E+04  0.25500000920E-02 0.  1.
       -2   -1    0    0    0  501  0.00000000000E+00  0.00000000000E+00 -0.15465160863E+04  0.15465160863E+04  0.25500000920E-02 0. -1.
    10030    2    1    2    0    0  0.00000000000E+00  0.00000000000E+00  0.21287523463E+03  0.33059074072E+04  0.32990465167E+04 0.  0.
        3    1    3    3  502    0 -0.32368192147E+03 -0.12916702560E+04 -0.86910889817E+03  0.15901359450E+04  0.10100000352E+00 0. -1.
       -3    1    3    3    0  502  0.32368192147E+03  0.12916702560E+04  0.10819841328E+04  0.17157714622E+04  0.10100000352E+00 0.  1.
</event>
<event>
 5   0  0.2713815E-07  0.3306570E+04  0.7818609E-02  0.8161226E-01
        2   -1    0    0  501    0  0.00000000000E+00  0.00000000000E+00  0.29369724005E+04  0.29369724005E+04  0.25500000920E-02 0.  1.
       -2   -1    0    0    0  501  0.00000000000E+00  0.00000000000E+00 -0.93066984182E+03  0.93066984183E+03  0.25500000920E-02 0. -1.
    10030    2    1    2    0    0  0.00000000000E+00  0.00000000000E+00  0.20063025587E+04  0.38676422423E+04  0.33065702106E+04 0.  0.
        4    1    3    3  502    0 -0.63922267021E+02 -0.21176764789E+03 -0.91328177258E+03  0.93968973706E+03  0.12699999809E+01 0. -1.
       -4    1    3    3    0  502  0.63922267021E+02  0.21176764789E+03  0.29195843313E+04  0.29279525053E+04  0.12699999809E+01 0.  1.
</event>
<event>
 5   0  0.2824402E-07  0.3313821E+04  0.7818609E-02  0.8159388E-01
        2   -1    0    0  501    0  0.00000000000E+00  0.00000000000E+00  0.18167507020E+04  0.18167507020E+04  0.25500000920E-02 0.  1.
       -2   -1    0    0    0  501  0.00000000000E+00  0.00000000000E+00 -0.15111328684E+04  0.15111328684E+04  0.25500000920E-02 0. -1.
    10030    2    1    2    0    0  0.00000000000E+00  0.00000000000E+00  0.30561783354E+03  0.33278835704E+04  0.33138205742E+04 0.  0.
        1    1    3    3  502    0  0.16154495215E+04 -0.36258682658E+03  0.21793268047E+03  0.16699224583E+04  0.50400001928E-02 0. -1.
       -1    1    3    3    0  502 -0.16154495215E+04  0.36258682658E+03  0.87685153073E+02  0.16579611122E+04  0.50400001928E-02 0.  1.
</event>
<event>
 5   0  0.9181760E-08  0.3291327E+04  0.7818609E-02  0.8165106E-01
       -1   -1    0    0    0  501  0.00000000000E+00  0.00000000000E+00  0.14446676366E+04  0.14446676366E+04  0.50400001928E-02 0. -1.
        1   -1    0    0  501    0  0.00000000000E+00  0.00000000000E+00 -0.18746233564E+04  0.18746233564E+04  0.50400001928E-02 0.  1.
    10030    2    1    2    0    0  0.00000000000E+00  0.00000000000E+00 -0.42995571981E+03  0.33192909930E+04  0.32913265981E+04 0.  0.
        1    1    3    3  502    0 -0.33196560108E+03  0.47241175037E+03 -0.17691207538E+04  0.18609573514E+04  0.50400001928E-02 0.  1.
       -1    1    3    3    0  502  0.33196560108E+03 -0.47241175037E+03  0.13391650340E+04  0.14583336417E+04  0.50400001928E-02 0. -1.
</event>
<event>
 5   0  0.9283910E-08  0.3332378E+04  0.7818609E-02  0.8154705E-01
        1   -1    0    0  501    0  0.00000000000E+00  0.00000000000E+00  0.29292815159E+04  0.29292815160E+04  0.50400001928E-02 0.  1.
       -1   -1    0    0    0  501  0.00000000000E+00  0.00000000000E+00 -0.94773625817E+03  0.94773625818E+03  0.50400001928E-02 0. -1.
    10030    2    1    2    0    0  0.00000000000E+00  0.00000000000E+00  0.19815452578E+04  0.38770177741E+04  0.33323783117E+04 0.  0.
        3    1    3    3  502    0  0.43587743531E+03 -0.12807114732E+04 -0.14080248017E+03  0.13601604188E+04  0.10100000352E+00 0. -1.
       -3    1    3    3    0  502 -0.43587743531E+03  0.12807114732E+04  0.21223477379E+04  0.25168573554E+04  0.10100000352E+00 0.  1.
</event>
<event>
 5   0  0.9181760E-08  0.3241987E+04  0.7818609E-02  0.8177816E-01
       -1   -1    0    0    0  501  0.00000000000E+00  0.00000000000E+00  0.15629932916E+04  0.15629932916E+04  0.50400001928E-02 0.  1.
        1   -1    0    0  501    0  0.00000000000E+00  0.00000000000E+00 -0.16811455471E+04  0.16811455471E+04  0.50400001928E-02 0. -1.
    10030    2    1    2    0    0  0.00000000000E+00  0.00000000000E+00 -0.11815225549E+03  0.32441388386E+04  0.32419865590E+04 0.  0.
        1    1    3    3  502    0  0.14184927251E+04  0.46067750913E+03  0.57638390995E+03  0.15989258239E+04  0.50400001928E-02 0.  1.
       -1    1    3    3    0  502 -0.14184927251E+04 -0.46067750913E+03 -0.69453616544E+03  0.16452130147E+04  0.50400001928E-02 0. -1.
</event>
<event>
 5   0  0.2713815E-07  0.3300223E+04  0.7818609E-02  0.8162839E-01
        2   -1    0    0  501    0  0.00000000000E+00  0.00000000000E+00  0.17274900847E+04  0.17274900847E+04  0.25500000920E-02 0.  1.
       -2   -1    0    0    0  501  0.00000000000E+00  0.00000000000E+00 -0.15761984605E+04  0.15761984605E+04  0.25500000920E-02 0. -1.
    10030    2    1    2    0    0  0.00000000000E+00  0.00000000000E+00  0.15129162418E+03  0.33036885452E+04  0.33002225452E+04 0.  0.
        4    1    3    3  502    0 -0.24599458052E+03  0.16017168157E+04  0.38718883668E+03  0.16661113106E+04  0.12699999809E+01 0. -1.
       -4    1    3    3    0  502  0.24599458052E+03 -0.16017168157E+04 -0.23589721250E+03  0.16375772345E+04  0.12699999809E+01 0.  1.
</event>
<event>
 5   0  0.2727168E-07  0.3300009E+04  0.7818609E-02  0.8162893E-01
       -2   -1    0    0    0  501  0.00000000000E+00  0.00000000000E+00  0.93970188032E+03  0.93970188033E+03  0.25500000920E-02 0. -1.
        2   -1    0    0  501    0  0.00000000000E+00  0.00000000000E+00 -0.28972110063E+04  0.28972110063E+04  0.25500000920E-02 0.  1.
    10030    2    1    2    0    0  0.00000000000E+00  0.00000000000E+00 -0.19575091260E+04  0.38369128867E+04  0.33000088669E+04 0.  0.
        2    1    3    3  502    0  0.10793300993E+04  0.11611554283E+04 -0.15106544590E+04  0.21898201494E+04  0.25500000920E-02 0.  1.
       -2    1    3    3    0  502 -0.10793300993E+04 -0.11611554283E+04 -0.44685466698E+03  0.16470927373E+04  0.25500000920E-02 0. -1.
</event>
<event>
 5   0  0.2727168E-07  0.3300140E+04  0.7818609E-02  0.8162860E-01
       -2   -1    0    0    0  501  0.00000000000E+00  0.00000000000E+00  0.11095595326E+04  0.11095595326E+04  0.25500000920E-02 0.  1.
        2   -1    0    0  501    0  0.00000000000E+00  0.00000000000E+00 -0.24538847560E+04  0.24538847560E+04  0.25500000920E-02 0. -1.
    10030    2    1    2    0    0  0.00000000000E+00  0.00000000000E+00 -0.13443252234E+04  0.35634442886E+04  0.33001401321E+04 0.  0.
        2    1    3    3  502    0  0.78935803055E+01  0.86323282586E+03  0.84627033570E+03  0.12088865544E+04  0.25500000920E-02 0.  1.
       -2    1    3    3    0  502 -0.78935803055E+01 -0.86323282586E+03 -0.21905955591E+04  0.23545577342E+04  0.25500000920E-02 0. -1.
</event>
<event>
 5   0  0.2824402E-07  0.3305540E+04  0.7818609E-02  0.8161487E-01
       -2   -1    0    0    0  501  0.00000000000E+00  0.00000000000E+00  0.12348860951E+04  0.12348860951E+04  0.25500000920E-02 0. -1.
        2   -1    0    0  501    0  0.00000000000E+00  0.00000000000E+00 -0.22120654975E+04  0.22120654975E+04  0.25500000920E-02 0.  1.
    10030    2    1    2    0    0  0.00000000000E+00  0.00000000000E+00 -0.97717940233E+03  0.34469515926E+04  0.33055401522E+04 0.  0.
        1    1    3    3  502    0  0.38652677116E+03 -0.17084270915E+03 -0.21547744380E+04  0.21958240036E+04  0.50400001928E-02 0.  1.
       -1    1    3    3    0  502 -0.38652677116E+03  0.17084270915E+03  0.11775950356E+04  0.12511275890E+04  0.50400001928E-02 0. -1.
</event>
<event>
 5   0  0.2703956E-07  0.3301870E+04  0.7818609E-02  0.8162420E-01
        2   -1    0    0  501    0  0.00000000000E+00  0.00000000000E+00  0.22435444201E+04  0.22435444201E+04  0.25500000920E-02 0. -1.
       -2   -1    0    0    0  501  0.00000000000E+00  0.00000000000E+00 -0.12148576807E+04  0.12148576807E+04  0.25500000920E-02 0.  1.
    10030    2    1    2    0    0  0.00000000000E+00  0.00000000000E+00  0.10286867394E+04  0.34584021008E+04  0.33018704825E+04 0.  0.
        5    1    3    3  502    0 -0.39872303606E+03 -0.15976118082E+04  0.38943583459E+03  0.16920478446E+04  0.46999998093E+01 0.  1.
       -5    1    3    3    0  502  0.39872303606E+03  0.15976118082E+04  0.63925090482E+03  0.17663542562E+04  0.46999998093E+01 0. -1.
</event>
<event>
 5   0  0.9454010E-08  0.3301480E+04  0.7818609E-02  0.8162519E-01
       -1   -1    0    0    0  501  0.00000000000E+00  0.00000000000E+00  0.99986377560E+03  0.99986377561E+03  0.50400001928E-02 0.  1.
        1   -1    0    0  501    0  0.00000000000E+00  0.00000000000E+00 -0.27253141284E+04  0.27253141284E+04  0.50400001928E-02 0. -1.
    10030    2    1    2    0    0  0.00000000000E+00  0.00000000000E+00 -0.17254503528E+04  0.37251779040E+04  0.33014801978E+04 0.  0.
        2    1    3    3  502    0  0.82333939275E+03 -0.14142735073E+04 -0.61840580692E+03  0.17494236340E+04  0.25500000920E-02 0.  1.
       -2    1    3    3    0  502 -0.82333939275E+03  0.14142735073E+04 -0.11070445459E+04  0.19757542701E+04  0.25500000920E-02 0. -1.
</event>
<event>
 5   0  0.9283910E-08  0.3299957E+04  0.7818609E-02  0.8162906E-01
        1   -1    0    0  501    0  0.00000000000E+00  0.00000000000E+00  0.22823450907E+04  0.22823450907E+04  0.50400001928E-02 0.  1.
       -1   -1    0    0    0  501  0.00000000000E+00  0.00000000000E+00 -0.11928209594E+04  0.11928209594E+04  0.50400001928E-02 0. -1.
    10030    2    1    2    0    0  0.00000000000E+00  0.00000000000E+00  0.10895241314E+04  0.34751660501E+04  0.32999570063E+04 0.  0.
        3    1    3    3  502    0  0.79423336551E+03 -0.10408978387E+04 -0.51261707766E+03  0.14060765370E+04  0.10100000352E+00 0. -1.
       -3    1    3    3    0  502 -0.79423336551E+03  0.10408978387E+04  0.16021412090E+04  0.20690895131E+04  0.10100000352E+00 0.  1.
</event>
<event>
 5   0  0.9181760E-08  0.3296964E+04  0.7818609E-02  0.8163668E-01
       -1   -1    0    0    0  501  0.00000000000E+00  0.00000000000E+00  0.16745166940E+04  0.16745166940E+04  0.50400001928E-02 0. -1.
        1   -1    0    0  501    0  0.00000000000E+00  0.00000000000E+00 -0.16228521183E+04  0.16228521183E+04  0.50400001928E-02 0.  1.
    10030    2    1    2    0    0  0.00000000000E+00  0.00000000000E+00  0.51664575731E+02  0.32973688123E+04  0.32969640362E+04 0.  0.
        1    1    3    3  502    0 -0.55048662989E+02  0.13102409288E+04 -0.97315535963E+03  0.16330318432E+04  0.50400001928E-02 0.  1.
       -1    1    3    3    0  502  0.55048662989E+02 -0.13102409288E+04  0.10248199354E+04  0.16643369691E+04  0.50400001928E-02 0. -1.
</event>
<event>
 5   0  0.9454010E-08  0.3294897E+04  0.7818609E-02  0.8164195E-01
       -1   -1    0    0    0  501  0.00000000000E+00  0.00000000000E+00  0.11922872431E+04  0.11922872431E+04  0.50400001928E-02 0.  1.
        1   -1    0    0  501    0  0.00000000000E+00  0.00000000000E+00 -0.22763696696E+04  0.22763696696E+04  0.50400001928E-02 0. -1.
    10030    2    1    2    0    0  0.00000000000E+00  0.00000000000E+00 -0.10840824266E+04  0.34686569127E+04  0.32948969742E+04 0.  0.
        2    1    3    3  502    0 -0.53953466379E+03 -0.50558011509E+03  0.10077985443E+04  0.12499467237E+04  0.25500000920E-02 0.  1.
       -2    1    3    3    0  502  0.53953466379E+03  0.50558011509E+03 -0.20918809709E+04  0.22187101890E+04  0.25500000920E-02 0. -1.
</event>
<event>
 5   0  0.2875829E-07  0.3296402E+04  0.7818609E-02  0.8163812E-01
       -2   -1    0    0    0  501  0.00000000000E+00  0.00000000000E+00  0.15130433915E+04  0.15130433915E+04  0.25500000920E-02 0. -1.
        2   -1    0    0  501    0  0.00000000000E+00  0.00000000000E+00 -0.17954315004E+04  0.17954315004E+04  0.25500000920E-02 0.  1.
    10030    2    1    2    0    0  0.00000000000E+00  0.00000000000E+00 -0.28238810886E+03  0.33084748919E+04  0.32964015329E+04 0.  0.
        3    1    3    3  502    0  0.87622714463E+03  0.11082566612E+03 -0.15378760751E+04  0.17734483837E+04  0.10100000352E+00 0.  1.
       -3    1    3    3    0  502 -0.87622714463E+03 -0.11082566612E+03  0.12554879662E+04  0.15350265082E+04  0.10100000352E+00 0. -1.
</event>
<event>
 5   0  0.9454010E-08  0.3298918E+04  0.7818609E-02  0.8163171E-01
        1   -1    0    0  501    0  0.00000000000E+00  0.00000000000E+00  0.17122925349E+04  0.17122925349E+04  0.50400001928E-02 0. -1.
       -1   -1    0    0    0  501  0.00000000000E+00  0.00000000000E+00 -0.15889308231E+04  0.15889308231E+04  0.50400001928E-02 0.  1.
    10030    2    1    2    0    0  0.00000000000E+00  0.00000000000E+00  0.12336171177E+03  0.33012233580E+04  0.32989176327E+04 0.  0.
        2    1    3    3  502    0  0.51139401027E+03  0.14642782846E+04 -0.50003103833E+03  0.16296213571E+04  0.25500000920E-02 0.  1.
       -2    1    3    3    0  502 -0.51139401027E+03 -0.14642782846E+04  0.62339275010E+03  0.16716020009E+04  0.25500000920E-02 0. -1.
</event>
<event>
 5   0  0.2703956E-07  0.3299945E+04  0.7818609E-02  0.8162909E-01
       -2   -1    0    0    0  501  0.00000000000E+00  0.00000000000E+00  0.11663705176E+04  0.11663705176E+04  0.25500000920E-02 0.  1.
        2   -1    0    0  501    0  0.00000000000E+00  0.00000000000E+00 -0.23340867841E+04  0.23340867841E+04  0.25500000920E-02 0. -1.
    10030    2    1    2    0    0  0.00000000000E+00  0.00000000000E+00 -0.11677162666E+04  0.35004573017E+04  0.32999454604E+04 0.  0.
        5    1    3    3  502    0 -0.93246107673E+03 -0.60684822930E+03 -0.18763521047E+04  0.21813912404E+04  0.46999998093E+01 0. -1.
       -5    1    3    3    0  502  0.93246107673E+03  0.60684822930E+03  0.70863583808E+03  0.13190660613E+04  0.46999998093E+01 0.  1.
</event>
<event>
 5   0  0.2824402E-07  0.3305913E+04  0.7818609E-02  0.8161393E-01
       -2   -1    0    0    0  501  0.00000000000E+00  0.00000000000E+00  0.14592225227E+04  0.14592225227E+04  0.25500000920E-02 0.  1.
        2   -1    0    0  501    0  0.00000000000E+00  0.00000000000E+00 -0.18724111411E+04  0.18724111411E+04  0.25500000920E-02 0. -1.
    10030    2    1    2    0    0  0.00000000000E+00  0.00000000000E+00 -0.41318861842E+03  0.33316336638E+04  0.33059125874E+04 0.  0.
        1    1    3    3  502    0  0.14253122522E+04 -0.63067854796E+03  0.34813732678E+03  0.15970191124E+04  0.50400001928E-02 0.  1.
       -1    1    3    3    0  502 -0.14253122522E+04  0.63067854796E+03 -0.76132594520E+03  0.17346145514E+04  0.50400001928E-02 0. -1.
</event>
<event>
 5   0  0.9810351E-08  0.3288780E+04  0.7818609E-02  0.8165756E-01
        1   -1    0    0  501    0  0.00000000000E+00  0.00000000000E+00  0.23145146385E+04  0.23145146385E+04  0.50400001928E-02 0. -1.
       -1   -1    0    0    0  501  0.00000000000E+00  0.00000000000E+00 -0.11682877287E+04  0.11682877287E+04  0.50400001928E-02 0.  1.
    10030    2    1    2    0    0  0.00000000000E+00  0.00000000000E+00  0.11462269099E+04  0.34828023672E+04  0.32887803515E+04 0.  0.
        5    1    3    3  502    0  0.94805983168E+02  0.63575021944E+03  0.21759544250E+04  0.22689130142E+04  0.46999998093E+01 0. -1.
       -5    1    3    3    0  502 -0.94805983168E+02 -0.63575021944E+03 -0.10297275152E+04  0.12138893531E+04  0.46999998093E+01 0.  1.
</event>
<event>
 5   0  0.9283910E-08  0.3291637E+04  0.7818609E-02  0.8165027E-01
       -1   -1    0    0    0  501  0.00000000000E+00  0.00000000000E+00  0.13946861042E+04  0.13946861042E+04  0.50400001928E-02 0.  1.
        1   -1    0    0  501    0  0.00000000000E+00  0.00000000000E+00 -0.19421706883E+04  0.19421706883E+04  0.50400001928E-02 0. -1.
    10030    2    1    2    0    0  0.00000000000E+00  0.00000000000E+00 -0.54748458412E+03  0.33368567925E+04  0.32916369611E+04 0.  0.
        3    1    3    3  502    0 -0.10914423820E+04  0.24974296657E+03 -0.14965892963E+04  0.18690632827E+04  0.10100000352E+00 0. -1.
       -3    1    3    3    0  502  0.10914423820E+04 -0.24974296657E+03  0.94910471223E+03  0.14677935098E+04  0.10100000352E+00 0.  1.
</event>
<event>
 5   0  0.9181760E-08  0.3300310E+04  0.7818609E-02  0.8162817E-01
       -1   -1    0    0    0  501  0.00000000000E+00  0.00000000000E+00  0.13097545738E+04  0.13097545738E+04  0.50400001928E-02 0. -1.
        1   -1    0    0  501    0  0.00000000000E+00  0.00000000000E+00 -0.20790242013E+04  0.20790242013E+04  0.50400001928E-02 0.  1.
    10030    2    1    2    0    0  0.00000000000E+00  0.00000000000E+00 -0.76926962746E+03  0.33887787751E+04  0.33003099592E+04 0.  0.
        1    1    3    3  502    0  0.59827482852E+03 -0.49522202794E+03  0.11103590072E+04  0.13550183586E+04  0.50400001928E-02 0. -1.
       -1    1    3    3    0  502 -0.59827482852E+03  0.49522202794E+03 -0.18796286346E+04  0.20337604165E+04  0.50400001928E-02 0.  1.
</event>
<event>
 5   0  0.9810351E-08  0.3296544E+04  0.7818609E-02  0.8163775E-01
       -1   -1    0    0    0  501  0.00000000000E+00  0.00000000000E+00  0.26107936903E+04  0.26107936903E+04  0.50400001928E-02 0.  1.
        1   -1    0    0  501    0  0.00000000000E+00  0.00000000000E+00 -0.10406036222E+04  0.10406036222E+04  0.50400001928E-02 0. -1.
    10030    2    1    2    0    0  0.00000000000E+00  0.00000000000E+00  0.15701900681E+04  0.36513973125E+04  0.32965444762E+04 0.  0.
        5    1    3    3  502    0  0.14175650447E+04  0.70665298964E+03  0.28001649715E+03  0.16085025435E+04  0.46999998093E+01 0. -1.
       -5    1    3    3    0  502 -0.14175650447E+04 -0.70665298964E+03  0.12901735710E+04  0.20428947690E+04  0.46999998093E+01 0.  1.
</event>
<event>
 5   0  0.2727168E-07  0.3297677E+04  0.7818609E-02  0.8163487E-01
       -2   -1    0    0    0  501  0.00000000000E+00  0.00000000000E+00  0.14527035974E+04  0.14527035974E+04  0.25500000920E-02 0. -1.
        2   -1    0    0  501    0  0.00000000000E+00  0.00000000000E+00 -0.18714546853E+04  0.18714546853E+04  0.25500000920E-02 0.  1.
    10030    2    1    2    0    0  0.00000000000E+00  0.00000000000E+00 -0.41875108788E+03  0.33241582827E+04  0.32976773364E+04 0.  0.
        2    1    3    3  502    0  0.28812330765E+02  0.10014601946E+04 -0.15294395738E+04  0.18283703350E+04  0.25500000920E-02 0.  1.
       -2    1    3    3    0  502 -0.28812330765E+02 -0.10014601946E+04  0.11106884859E+04  0.14957879477E+04  0.25500000920E-02 0. -1.
</event>
<event>
 5   0  0.9454010E-08  0.3305076E+04  0.7818609E-02  0.8161605E-01
        1   -1    0    0  501    0  0.00000000000E+00  0.00000000000E+00  0.18792625788E+04  0.18792625788E+04  0.50400001928E-02 0. -1.
       -1   -1    0    0    0  501  0.00000000000E+00  0.00000000000E+00 -0.14531664744E+04  0.14531664744E+04  0.50400001928E-02 0.  1.
    10030    2    1    2    0    0  0.00000000000E+00  0.00000000000E+00  0.42609610436E+03  0.33324290532E+04  0.33050757184E+04 0.  0.
        2    1    3    3  502    0 -0.70341325827E+03 -0.96707845002E+03  0.13630357171E+04  0.18132559958E+04  0.25500000920E-02 0. -1.
       -2    1    3    3    0  502  0.70341325827E+03  0.96707845002E+03 -0.93693961269E+03  0.15191730574E+04  0.25500000920E-02 0.  1.
</event>
<event>
 5   0  0.2703956E-07  0.3305426E+04  0.7818609E-02  0.8161516E-01
       -2   -1    0    0    0  501  0.00000000000E+00  0.00000000000E+00  0.18644298348E+04  0.18644298348E+04  0.25500000920E-02 0. -1.
        2   -1    0    0  501    0  0.00000000000E+00  0.00000000000E+00 -0.14650380378E+04  0.14650380378E+04  0.25500000920E-02 0.  1.
    10030    2    1    2    0    0  0.00000000000E+00  0.00000000000E+00  0.39939179694E+03  0.33294678726E+04  0.33054262217E+04 0.  0.
        5    1    3    3  502    0 -0.10672542960E+04 -0.11803704324E+04  0.64918418182E+03  0.17186530429E+04  0.46999998093E+01 0. -1.
       -5    1    3    3    0  502  0.10672542960E+04  0.11803704324E+04 -0.24979238488E+03  0.16108148297E+04  0.46999998093E+01 0.  1.
</event>
<event>
 5   0  0.9181760E-08  0.3314189E+04  0.7818609E-02  0.8159294E-01
        1   -1    0    0  501    0  0.00000000000E+00  0.00000000000E+00  0.15187360549E+04  0.15187360549E+04  0.50400001928E-02 0.  1.
       -1   -1    0    0    0  501  0.00000000000E+00  0.00000000000E+00 -0.18080579835E+04  0.18080579835E+04  0.50400001928E-02 0. -1.
    10030    2    1    2    0    0  0.00000000000E+00  0.00000000000E+00 -0.28932192858E+03  0.33267940384E+04  0.33141894025E+04 0.  0.
        1    1    3    3  502    0  0.32671419495E+02 -0.10839007940E+04  0.11131227109E+04  0.15540111076E+04  0.50400001928E-02 0.  1.
       -1    1    3    3    0  502 -0.32671419495E+02  0.10839007940E+04 -0.14024446395E+04  0.17727829308E+04  0.50400001928E-02 0. -1.
</event>
<event>
 5   0  0.2875829E-07  0.3295245E+04  0.7818609E-02  0.8164106E-01
       -2   -1    0    0    0  501  0.00000000000E+00  0.00000000000E+00  0.16979193815E+04  0.16979193815E+04  0.25500000920E-02 0. -1.
        2   -1    0    0  501    0  0.00000000000E+00  0.00000000000E+00 -0.15988152033E+04  0.15988152033E+04  0.25500000920E-02 0.  1.
    10030    2    1    2    0    0  0.00000000000E+00  0.00000000000E+00  0.99104178226E+02  0.32967345848E+04  0.32952446471E+04 0.  0.
        3    1    3    3  502    0 -0.69286077285E+03  0.14235828062E+04 -0.40674102288E+03  0.16346505212E+04  0.10100000352E+00 0.  1.
       -3    1    3    3    0  502  0.69286077285E+03 -0.14235828062E+04  0.50584520111E+03  0.16620840636E+04  0.10100000352E+00 0. -1.
</event>
<event>
 5   0  0.2703956E-07  0.3298434E+04  0.7818609E-02  0.8163294E-01
        2   -1    0    0  501    0  0.00000000000E+00  0.00000000000E+00  0.17567245772E+04  0.17567245772E+04  0.25500000920E-02 0. -1.
       -2   -1    0    0    0  501  0.00000000000E+00  0.00000000000E+00 -0.15482890066E+04  0.15482890066E+04  0.25500000920E-02 0.  1.
    10030    2    1    2    0    0  0.00000000000E+00  0.00000000000E+00  0.20843557063E+03  0.33050135837E+04  0.32984343864E+04 0.  0.
        5    1    3    3  502    0 -0.16075939067E+04  0.96836413204E+02 -0.25168050074E+03  0.16300615400E+04  0.46999998093E+01 0.  1.
       -5    1    3    3    0  502  0.16075939067E+04 -0.96836413204E+02  0.46011607136E+03  0.16749520437E+04  0.46999998093E+01 0. -1.
</event>
<event>
 5   0  0.2703956E-07  0.3300644E+04  0.7818609E-02  0.8162731E-01
        2   -1    0    0  501    0  0.00000000000E+00  0.00000000000E+00  0.16536157803E+04  0.16536157803E+04  0.25500000920E-02 0.  1.
       -2   -1    0    0    0  501  0.00000000000E+00  0.00000000000E+00 -0.16470349948E+04  0.16470349948E+04  0.25500000920E-02 0. -1.
    10030    2    1    2    0    0  0.00000000000E+00  0.00000000000E+00  0.65807854551E+01  0.33006507751E+04  0.33006442148E+04 0.  0.
        5    1    3    3  502    0 -0.31628582081E+03  0.79324480462E+03  0.14154783601E+04  0.16531409856E+04  0.46999998093E+01 0.  1.
       -5    1    3    3    0  502  0.31628582081E+03 -0.79324480462E+03 -0.14088975747E+04  0.16475097895E+04  0.46999998093E+01 0. -1.
</event>
<event>
 5   0  0.2875829E-07  0.3303013E+04  0.7818609E-02  0.8162129E-01
       -2   -1    0    0    0  501  0.00000000000E+00  0.00000000000E+00  0.16101745638E+04  0.16101745638E+04  0.25500000920E-02 0. -1.
        2   -1    0    0  501    0  0.00000000000E+00  0.00000000000E+00 -0.16938997612E+04  0.16938997612E+04  0.25500000920E-02 0.  1.
    10030    2    1    2    0    0  0.00000000000E+00  0.00000000000E+00 -0.83725197430E+02  0.33040743250E+04  0.33030133570E+04 0.  0.
        3    1    3    3  502    0 -0.50957283478E+03  0.90871758759E+02 -0.16106622922E+04  0.16917905249E+04  0.10100000352E+00 0.  1.
       -3    1    3    3    0  502  0.50957283478E+03 -0.90871758759E+02  0.15269370948E+04  0.16122838001E+04  0.10100000352E+00 0. -1.
</event>
<event>
 5   0  0.9181760E-08  0.3293451E+04  0.7818609E-02  0.8164564E-01
       -1   -1    0    0    0  501  0.00000000000E+00  0.00000000000E+00  0.21237759068E+04  0.21237759068E+04  0.50400001928E-02 0.  1.
        1   -1    0    0  501    0  0.00000000000E+00  0.00000000000E+00 -0.12768317264E+04  0.12768317264E+04  0.50400001928E-02 0. -1.
    10030    2    1    2    0    0  0.00000000000E+00  0.00000000000E+00  0.84694418042E+03  0.34006076332E+04  0.32934507481E+04 0.  0.
        1    1    3    3  502    0  0.75297737938E+03  0.13899973335E+04 -0.52656988121E+02  0.15817206704E+04  0.50400001928E-02 0. -1.
       -1    1    3    3    0  502 -0.75297737938E+03 -0.13899973335E+04  0.89960116854E+03  0.18188869628E+04  0.50400001928E-02 0.  1.
</event>
<event>
 5   0  0.8805125E-08  0.3301972E+04  0.7818609E-02  0.8162394E-01
        1   -1    0    0  501    0  0.00000000000E+00  0.00000000000E+00  0.29461015911E+04  0.29461015911E+04  0.50400001928E-02 0. -1.
       -1   -1    0    0    0  501  0.00000000000E+00  0.00000000000E+00 -0.92520706727E+03  0.92520706728E+03  0.50400001928E-02 0.  1.
    10030    2    1    2    0    0  0.00000000000E+00  0.00000000000E+00  0.20208945238E+04  0.38713086584E+04  0.33019715401E+04 0.  0.
        4    1    3    3  502    0 -0.92686972195E+03 -0.22518337477E+02  0.26120642267E+04  0.27717279257E+04  0.12699999809E+01 0. -1.
       -4    1    3    3    0  502  0.92686972195E+03  0.22518337477E+02 -0.59116970291E+03  0.10995807326E+04  0.12699999809E+01 0.  1.
</event>
<event>
 5   0  0.9810351E-08  0.3301207E+04  0.7818609E-02  0.8162588E-01
       -1   -1    0    0    0  501  0.00000000000E+00  0.00000000000E+00  0.10704258578E+04  0.10704258578E+04  0.50400001928E-02 0. -1.
        1   -1    0    0  501    0  0.00000000000E+00  0.00000000000E+00 -0.25452418863E+04  0.25452418863E+04  0.50400001928E-02 0.  1.
    10030    2    1    2    0    0  0.00000000000E+00  0.00000000000E+00 -0.14748160286E+04  0.36156677441E+04  0.33012074939E+04 0.  0.
        5    1    3    3  502    0 -0.84876313402E+03 -0.67815680625E+03  0.62361029933E+03  0.12526800896E+04  0.46999998093E+01 0. -1.
       -5    1    3    3    0  502  0.84876313402E+03  0.67815680625E+03 -0.20984263279E+04  0.23629876545E+04  0.46999998093E+01 0.  1.
</event>
<event>
 5   0  0.2727168E-07  0.3297336E+04  0.7818609E-02  0.8163573E-01
        2   -1    0    0  501    0  0.00000000000E+00  0.00000000000E+00  0.19992322014E+04  0.19992322014E+04  0.25500000920E-02 0. -1.
       -2   -1    0    0    0  501  0.00000000000E+00  0.00000000000E+00 -0.13595753813E+04  0.13595753813E+04  0.25500000920E-02 0.  1.
    10030    2    1    2    0    0  0.00000000000E+00  0.00000000000E+00  0.63965682011E+03  0.33588075826E+04  0.32973364296E+04 0.  0.
        2    1    3    3  502    0  0.11599507083E+04 -0.58601753173E+02  0.15117652938E+04  0.19063982047E+04  0.25500000920E-02 0. -1.
       -2    1    3    3    0  502 -0.11599507083E+04  0.58601753173E+02 -0.87210847372E+03  0.14524093780E+04  0.25500000920E-02 0.  1.
</event>
<event>
 5   0  0.9283910E-08  0.3292488E+04  0.7818609E-02  0.8164810E-01
       -1   -1    0    0    0  501  0.00000000000E+00  0.00000000000E+00  0.14662226376E+04  0.14662226377E+04  0.50400001928E-02 0.  1.
        1   -1    0    0  501    0  0.00000000000E+00  0.00000000000E+00 -0.18483676988E+04  0.18483676988E+04  0.50400001928E-02 0. -1.
    10030    2    1    2    0    0  0.00000000000E+00  0.00000000000E+00 -0.38214506114E+03  0.33145903365E+04  0.32924875476E+04 0.  0.
        3    1    3    3  502    0 -0.74328629481E+02  0.13414583753E+04  0.76667265803E+03  0.15468750087E+04  0.10100000352E+00 0.  1.
       -3    1    3    3    0  502  0.74328629481E+02 -0.13414583753E+04 -0.11488177192E+04  0.17677153277E+04  0.10100000352E+00 0. -1.
</event>
<event>
 5   0  0.8805125E-08  0.3289745E+04  0.7818609E-02  0.8165510E-01
        1   -1    0    0  501    0  0.00000000000E+00  0.00000000000E+00  0.12166832126E+04  0.12166832126E+04  0.50400001928E-02 0. -1.
       -1   -1    0    0    0  501  0.00000000000E+00  0.00000000000E+00 -0.22237548104E+04  0.22237548104E+04  0.50400001928E-02 0.  1.
    10030    2    1    2    0    0  0.00000000000E+00  0.00000000000E+00 -0.10070715978E+04  0.34404380230E+04  0.32897447601E+04 0.  0.
        4    1    3    3  502    0 -0.88484233493E+03 -0.10798634368E+04 -0.14131790045E+04  0.19864862223E+04  0.12699999809E+01 0. -1.
       -4    1    3    3    0  502  0.88484233493E+03  0.10798634368E+04  0.40610740668E+03  0.14539518006E+04  0.12699999809E+01 0.  1.
</event>
<event>
 5   0  0.2713815E-07  0.3299781E+04  0.7818609E-02  0.8162951E-01
        2   -1    0    0  501    0  0.00000000000E+00  0.00000000000E+00  0.26688308889E+04  0.26688308889E+04  0.25500000920E-02 0.  1.
       -2   -1    0    0    0  501  0.00000000000E+00  0.00000000000E+00 -0.10199744918E+04  0.10199744918E+04  0.25500000920E-02 0. -1.
    10030    2    1    2    0    0  0.00000000000E+00  0.00000000000E+00  0.16488563971E+04  0.36888053807E+04  0.32997814653E+04 0.  0.
        4    1    3    3  502    0  0.11730877927E+04 -0.72494659752E+03  0.18370051100E+04  0.22970136974E+04  0.12699999809E+01 0.  1.
       -4    1    3    3    0  502 -0.11730877927E+04  0.72494659752E+03 -0.18814871298E+03  0.13917916833E+04  0.12699999809E+01 0. -1.
</event>
<event>
 5   0  0.8805125E-08  0.3298323E+04  0.7818609E-02  0.8163322E-01
        1   -1    0    0  501    0  0.00000000000E+00  0.00000000000E+00  0.22942533549E+04  0.22942533549E+04  0.50400001928E-02 0. -1.
       -1   -1    0    0    0  501  0.00000000000E+00  0.00000000000E+00 -0.11854547845E+04  0.11854547845E+04  0.50400001928E-02 0.  1.
    10030    2    1    2    0    0  0.00000000000E+00  0.00000000000E+00  0.11087985703E+04  0.34797081394E+04  0.32983229778E+04 0.  0.
        4    1    3    3  502    0 -0.96543737900E+03  0.71341470204E+03  0.17473825012E+04  0.21199945962E+04  0.12699999809E+01 0. -1.
       -4    1    3    3    0  502  0.96543737900E+03 -0.71341470204E+03 -0.63858393083E+03  0.13597135432E+04  0.12699999809E+01 0.  1.
</event>
<event>
 5   0  0.8805125E-08  0.3294529E+04  0.7818609E-02  0.8164289E-01
       -1   -1    0    0    0  501  0.00000000000E+00  0.00000000000E+00  0.14074290139E+04  0.14074290139E+04  0.50400001928E-02 0.  1.
        1   -1    0    0  501    0  0.00000000000E+00  0.00000000000E+00 -0.19279694875E+04  0.19279694875E+04  0.50400001928E-02 0. -1.
    10030    2    1    2    0    0  0.00000000000E+00  0.00000000000E+00 -0.52054047361E+03  0.33353985014E+04  0.32945289161E+04 0.  0.
        4    1    3    3  502    0  0.89488058616E+02  0.16379211858E+04 -0.41275291984E+03  0.16914965295E+04  0.12699999809E+01 0. -1.
       -4    1    3    3    0  502 -0.89488058616E+02 -0.16379211858E+04 -0.10778755377E+03  0.16439019719E+04  0.12699999809E+01 0.  1.
</event>
<event>
 5   0  0.9181760E-08  0.3297669E+04  0.7818609E-02  0.8163489E-01
        1   -1    0    0  501    0  0.00000000000E+00  0.00000000000E+00  0.13304333997E+04  0.13304333997E+04  0.50400001928E-02 0. -1.
       -1   -1    0    0    0  501  0.00000000000E+00  0.00000000000E+00 -0.20434360325E+04  0.20434360325E+04  0.50400001928E-02 0.  1.
    10030    2    1    2    0    0  0.00000000000E+00  0.00000000000E+00 -0.71300263281E+03  0.33738694322E+04  0.32976692059E+04 0.  0.
        1    1    3    3  502    0 -0.15782676884E+04  0.46185890574E+03 -0.47932960923E+03  0.17128921214E+04  0.50400001928E-02 0. -1.
       -1    1    3    3    0  502  0.15782676884E+04 -0.46185890574E+03 -0.23367302358E+03  0.16609773109E+04  0.50400001928E-02 0.  1.
</event>
<event>
 5   0  0.2824402E-07  0.3298990E+04  0.7818609E-02  0.8163152E-01
       -2   -1    0    0    0  501  0.00000000000E+00  0.00000000000E+00  0.15274290374E+04  0.15274290374E+04  0.25500000920E-02 0.  1.
        2   -1    0    0  501    0  0.00000000000E+00  0.00000000000E+00 -0.17813162776E+04  0.17813162776E+04  0.25500000920E-02 0. -1.
    10030    2    1    2    0    0  0.00000000000E+00  0.00000000000E+00 -0.25388724024E+03  0.33087453150E+04  0.32989902741E+04 0.  0.
        1    1    3    3  502    0 -0.13444585692E+04  0.35765909200E+03 -0.10157612060E+04  0.17225735683E+04  0.50400001928E-02 0. -1.
       -1    1    3    3    0  502  0.13444585692E+04 -0.35765909200E+03  0.76187396576E+03  0.15861717468E+04  0.50400001928E-02 0.  1.
</event>
<event>
 5   0  0.9283910E-08  0.3290037E+04  0.7818609E-02  0.8165435E-01
       -1   -1    0    0    0  501  0.00000000000E+00  0.00000000000E+00  0.16124021290E+04  0.16124021290E+04  0.50400001928E-02 0. -1.
        1   -1    0    0  501    0  0.00000000000E+00  0.00000000000E+00 -0.16782949373E+04  0.16782949373E+04  0.50400001928E-02 0.  1.
    10030    2    1    2    0    0  0.00000000000E+00  0.00000000000E+00 -0.65892808322E+02  0.32906970664E+04  0.32900372825E+04 0.  0.
        3    1    3    3  502    0 -0.11521503110E+04 -0.10548077350E+04  0.48292502127E+03  0.16350187410E+04  0.10100000352E+00 0. -1.
       -3    1    3    3    0  502  0.11521503110E+04  0.10548077350E+04 -0.54881782960E+03  0.16556783254E+04  0.10100000352E+00 0.  1.
</event>
<event>
 5   0  0.2727168E-07  0.3303943E+04  0.7818609E-02  0.8161893E-01
       -2   -1    0    0    0  501  0.00000000000E+00  0.00000000000E+00  0.13184765347E+04  0.13184765347E+04  0.25500000920E-02 0.  1.
        2   -1    0    0  501    0  0.00000000000E+00  0.00000000000E+00 -0.20698202620E+04  0.20698202620E+04  0.25500000920E-02 0. -1.
    10030    2    1    2    0    0  0.00000000000E+00  0.00000000000E+00 -0.75134372739E+03  0.33882967967E+04  0.33039427637E+04 0.  0.
        2    1    3    3  502    0  0.88096798286E+03  0.12544707207E+04  0.25584901866E+03  0.15541107092E+04  0.25500000920E-02 0.  1.
       -2    1    3    3    0  502 -0.88096798286E+03 -0.12544707207E+04 -0.10071927461E+04  0.18341860875E+04  0.25500000920E-02 0. -1.
</event>
<event>
 5   0  0.2875829E-07  0.3308788E+04  0.7818609E-02  0.8160663E-01
       -2   -1    0    0    0  501  0.00000000000E+00  0.00000000000E+00  0.11140882167E+04  0.11140882167E+04  0.25500000920E-02 0.  1.
        2   -1    0    0  501    0  0.00000000000E+00  0.00000000000E+00 -0.24567355577E+04  0.24567355577E+04  0.25500000920E-02 0. -1.
    10030    2    1    2    0    0  0.00000000000E+00  0.00000000000E+00 -0.13426473410E+04  0.35708237744E+04  0.33087883803E+04 0.  0.
        3    1    3    3  502    0  0.10049293817E+03 -0.54759788655E+01  0.11107815384E+04  0.11153315441E+04  0.10100000352E+00 0.  1.
       -3    1    3    3    0  502 -0.10049293817E+03  0.54759788655E+01 -0.24534288794E+04  0.24554922304E+04  0.10100000352E+00 0. -1.
</event>
<event>
 5   0  0.9810351E-08  0.3300790E+04  0.7818609E-02  0.8162694E-01
        1   -1    0    0  501    0  0.00000000000E+00  0.00000000000E+00  0.25233341274E+04  0.25233341274E+04  0.50400001928E-02 0.  1.
       -1   -1    0    0    0  501  0.00000000000E+00  0.00000000000E+00 -0.10794464585E+04  0.10794464585E+04  0.50400001928E-02 0. -1.
    10030    2    1    2    0    0  0.00000000000E+00  0.00000000000E+00  0.14438876689E+04  0.36027805860E+04  0.33007902615E+04 0.  0.
        5    1    3    3  502    0 -0.96574166834E+03  0.31878140865E+03 -0.69678509593E+03  0.12328057902E+04  0.46999998093E+01 0. -1.
       -5    1    3    3    0  502  0.96574166834E+03 -0.31878140865E+03  0.21406727648E+04  0.23699747958E+04  0.46999998093E+01 0.  1.
</event>
<event>
 5   0  0.2713815E-07  0.3346104E+04  0.7818609E-02  0.8151262E-01
       -2   -1    0    0    0  501  0.00000000000E+00  0.00000000000E+00  0.19321090479E+04  0.19321090479E+04  0.25500000920E-02 0. -1.
        2   -1    0    0  501    0  0.00000000000E+00  0.00000000000E+00 -0.14487288976E+04  0.14487288976E+04  0.25500000920E-02 0.  1.
    10030    2    1    2    0    0  0.00000000000E+00  0.00000000000E+00  0.48338015030E+03  0.33808379455E+04  0.33461035316E+04 0.  0.
        4    1    3    3  502    0  0.22595344159E+03  0.15794790682E+04 -0.26681500871E+03  0.16177147297E+04  0.12699999809E+01 0. -1.
       -4    1    3    3    0  502 -0.22595344159E+03 -0.15794790682E+04  0.75019515900E+03  0.17631232158E+04  0.12699999809E+01 0.  1.
</event>
<event>
 5   0  0.2713815E-07  0.3314809E+04  0.7818609E-02  0.8159137E-01
       -2   -1    0    0    0  501  0.00000000000E+00  0.00000000000E+00  0.16808212890E+04  0.16808212890E+04  0.25500000920E-02 0. -1.
        2   -1    0    0  501    0  0.00000000000E+00  0.00000000000E+00 -0.16343137952E+04  0.16343137952E+04  0.25500000920E-02 0.  1.
    10030    2    1    2    0    0  0.00000000000E+00  0.00000000000E+00  0.46507493848E+02  0.33151350842E+04  0.33148088451E+04 0.  0.
        4    1    3    3  502    0 -0.85793009656E+03  0.14100756937E+04  0.17370223976E+03  0.16596781597E+04  0.12699999809E+01 0. -1.
       -4    1    3    3    0  502  0.85793009656E+03 -0.14100756937E+04 -0.12719474591E+03  0.16554569245E+04  0.12699999809E+01 0.  1.
</event>
<event>
 5   0  0.2727168E-07  0.3299991E+04  0.7818609E-02  0.8162898E-01
       -2   -1    0    0    0  501  0.00000000000E+00  0.00000000000E+00  0.14443236304E+04  0.14443236304E+04  0.25500000920E-02 0. -1.
        2   -1    0    0  501    0  0.00000000000E+00  0.00000000000E+00 -0.18849556395E+04  0.18849556395E+04  0.25500000920E-02 0.  1.
    10030    2    1    2    0    0  0.00000000000E+00  0.00000000000E+00 -0.44063200914E+03  0.33292792699E+04  0.32999914984E+04 0.  0.
        2    1    3    3  502    0 -0.71090289166E+03 -0.49250039398E+03  0.11973407088E+04  0.14770119608E+04  0.25500000920E-02 0. -1.
       -2    1    3    3    0  502  0.71090289166E+03  0.49250039398E+03 -0.16379727180E+04  0.18522673091E+04  0.25500000920E-02 0.  1.
</event>
<event>
 5   0  0.9810351E-08  0.3305519E+04  0.7818609E-02  0.8161493E-01
        1   -1    0    0  501    0  0.00000000000E+00  0.00000000000E+00  0.17475893720E+04  0.17475893720E+04  0.50400001928E-02 0. -1.
       -1   -1    0    0    0  501  0.00000000000E+00  0.00000000000E+00 -0.15630751229E+04  0.15630751229E+04  0.50400001928E-02 0.  1.
    10030    2    1    2    0    0  0.00000000000E+00  0.00000000000E+00  0.18451424903E+03  0.33106644949E+04  0.33055187021E+04 0.  0.
        5    1    3    3  502    0 -0.11410654319E+04 -0.48849093747E+03 -0.10007426395E+04  0.15944157665E+04  0.46999998093E+01 0.  1.
       -5    1    3    3    0  502  0.11410654319E+04  0.48849093747E+03  0.11852568885E+04  0.17162487284E+04  0.46999998093E+01 0. -1.
</event>
<event>
 5   0  0.2875829E-07  0.3312245E+04  0.7818609E-02  0.8159787E-01
        2   -1    0    0  501    0  0.00000000000E+00  0.00000000000E+00  0.15116989644E+04  0.15116989644E+04  0.25500000920E-02 0.  1.
       -2   -1    0    0    0  501  0.00000000000E+00  0.00000000000E+00 -0.18143441212E+04  0.18143441212E+04  0.25500000920E-02 0. -1.
    10030    2    1    2    0    0  0.00000000000E+00  0.00000000000E+00 -0.30264515688E+03  0.33260430856E+04  0.33122452379E+04 0.  0.
        3    1    3    3  502    0  0.15076681084E+04  0.67586799796E+03 -0.37353340437E+02  0.16526511907E+04  0.10100000352E+00 0.  1.
       -3    1    3    3    0  502 -0.15076681084E+04 -0.67586799796E+03 -0.26529181645E+03  0.16733918949E+04  0.10100000352E+00 0. -1.
</event>
<event>
 5   0  0.9283910E-08  0.3294674E+04  0.7818609E-02  0.8164252E-01
        1   -1    0    0  501    0  0.00000000000E+00  0.00000000000E+00  0.15403792535E+04  0.15403792535E+04  0.50400001928E-02 0. -1.
       -1   -1    0    0    0  501  0.00000000000E+00  0.00000000000E+00 -0.17617218624E+04  0.17617218624E+04  0.50400001928E-02 0.  1.
    10030    2    1    2    0    0  0.00000000000E+00  0.00000000000E+00 -0.22134260894E+03  0.33021011159E+04  0.32946743738E+04 0.  0.
        3    1    3    3  502    0  0.75950848779E+03  0.60126953292E+03  0.12247516444E+04  0.15615360370E+04  0.10100000352E+00 0. -1.
       -3    1    3    3    0  502 -0.75950848779E+03 -0.60126953292E+03 -0.14460942533E+04  0.17405650789E+04  0.10100000352E+00 0.  1.
</event>
<event>
 5   0  0.2713815E-07  0.3300865E+04  0.7818609E-02  0.8162675E-01
        2   -1    0    0  501    0  0.00000000000E+00  0.00000000000E+00  0.23028984953E+04  0.23028984953E+04  0.25500000920E-02 0. -1.
       -2   -1    0    0    0  501  0.00000000000E+00  0.00000000000E+00 -0.11828258405E+04  0.11828258406E+04  0.25500000920E-02 0.  1.
    10030    2    1    2    0    0  0.00000000000E+00  0.00000000000E+00  0.11200726547E+04  0.34857243358E+04  0.33008652492E+04 0.  0.
        4    1    3    3  502    0 -0.13845067000E+04 -0.86202369333E+03  0.29292264457E+03  0.16570301563E+04  0.12699999809E+01 0. -1.
       -4    1    3    3    0  502  0.13845067000E+04  0.86202369333E+03  0.82715001017E+03  0.18286941796E+04  0.12699999809E+01 0.  1.
</event>
<event>
 5   0  0.8805125E-08  0.3304308E+04  0.7818609E-02  0.8161800E-01
        1   -1    0    0  501    0  0.00000000000E+00  0.00000000000E+00  0.15617800838E+04  0.15617800838E+04  0.50400001928E-02 0. -1.
       -1   -1    0    0    0  501  0.00000000000E+00  0.00000000000E+00 -0.17477576998E+04  0.17477576998E+04  0.50400001928E-02 0.  1.
    10030    2    1    2    0    0  0.00000000000E+00  0.00000000000E+00 -0.18597761600E+03  0.33095377836E+04  0.33043081980E+04 0.  0.
        4    1    3    3  502    0  0.12761741821E+03  0.12709460272E+04 -0.11425124510E+04  0.17137462831E+04  0.12699999809E+01 0.  1.
       -4    1    3    3    0  502 -0.12761741821E+03 -0.12709460272E+04  0.95653483498E+03  0.15957915004E+04  0.12699999809E+01 0. -1.
</event>
<event>
 5   0  0.9283910E-08  0.3300022E+04  0.7818609E-02  0.8162890E-01
        1   -1    0    0  501    0  0.00000000000E+00  0.00000000000E+00  0.18350966793E+04  0.18350966793E+04  0.50400001928E-02 0. -1.
       -1   -1    0    0    0  501  0.00000000000E+00  0.00000000000E+00 -0.14835927563E+04  0.14835927563E+04  0.50400001928E-02 0.  1.
    10030    2    1    2    0    0  0.00000000000E+00  0.00000000000E+00  0.35150392301E+03  0.33186894356E+04  0.33000219033E+04 0.  0.
        3    1    3    3  502    0 -0.81446680029E+03 -0.10112297274E+04 -0.84814020314E+03  0.15508976577E+04  0.10100000352E+00 0.  1.
       -3    1    3    3    0  502  0.81446680029E+03  0.10112297274E+04  0.11996441261E+04  0.17677917779E+04  0.10100000352E+00 0. -1.
</event>
<event>
 5   0  0.2727168E-07  0.3303809E+04  0.7818609E-02  0.8161927E-01
        2   -1    0    0  501    0  0.00000000000E+00  0.00000000000E+00  0.24994510763E+04  0.24994510763E+04  0.25500000920E-02 0. -1.
       -2   -1    0    0    0  501  0.00000000000E+00  0.00000000000E+00 -0.10917548543E+04  0.10917548543E+04  0.25500000920E-02 0.  1.
    10030    2    1    2    0    0  0.00000000000E+00  0.00000000000E+00  0.14076962220E+04  0.35912059305E+04  0.33038086176E+04 0.  0.
        2    1    3    3  502    0  0.39216029722E+03 -0.38662837112E+03 -0.98903728305E+03  0.11320185261E+04  0.25500000920E-02 0.  1.
       -2    1    3    3    0  502 -0.39216029722E+03  0.38662837112E+03  0.23967335050E+04  0.24591874045E+04  0.25500000920E-02 0. -1.
</event>
<event>
 5   0  0.9283910E-08  0.3282932E+04  0.7818609E-02  0.8167252E-01
        1   -1    0    0  501    0  0.00000000000E+00  0.00000000000E+00  0.20352579647E+04  0.20352579647E+04  0.50400001928E-02 0.  1.
       -1   -1    0    0    0  501  0.00000000000E+00  0.00000000000E+00 -0.13238669404E+04  0.13238669404E+04  0.50400001928E-02 0. -1.
    10030    2    1    2    0    0  0.00000000000E+00  0.00000000000E+00  0.71139102435E+03  0.33591249051E+04  0.32829320643E+04 0.  0.
        3    1    3    3  502    0 -0.91926220056E+03  0.11752863876E+04  0.10557300908E+04  0.18278148487E+04  0.10100000352E+00 0.  1.
       -3    1    3    3    0  502  0.91926220056E+03 -0.11752863876E+04 -0.34433906646E+03  0.15313100565E+04  0.10100000352E+00 0. -1.
</event>
<event>
 5   0  0.2713815E-07  0.3297467E+04  0.7818609E-02  0.8163540E-01
        2   -1    0    0  501    0  0.00000000000E+00  0.00000000000E+00  0.20974954539E+04  0.20974954539E+04  0.25500000920E-02 0. -1.
       -2   -1    0    0    0  501  0.00000000000E+00  0.00000000000E+00 -0.12959846196E+04  0.12959846196E+04  0.25500000920E-02 0.  1.
    10030    2    1    2    0    0  0.00000000000E+00  0.00000000000E+00  0.80151083430E+03  0.33934800736E+04  0.32974668144E+04 0.  0.
        4    1    3    3  502    0 -0.24163761482E+02  0.10017219992E+04  0.17481876671E+04  0.20149919562E+04  0.12699999809E+01 0. -1.
       -4    1    3    3    0  502  0.24163761482E+02 -0.10017219992E+04 -0.94667683283E+03  0.13784881174E+04  0.12699999809E+01 0.  1.
</event>
<event>
 5   0  0.2824402E-07  0.3304694E+04  0.7818609E-02  0.8161702E-01
       -2   -1    0    0    0  501  0.00000000000E+00  0.00000000000E+00  0.14792178903E+04  0.14792178903E+04  0.25500000920E-02 0. -1.
        2   -1    0    0  501    0  0.00000000000E+00  0.00000000000E+00 -0.18457388930E+04  0.18457388930E+04  0.25500000920E-02 0.  1.
    10030    2    1    2    0    0  0.00000000000E+00  0.00000000000E+00 -0.36652100265E+03  0.33249567833E+04  0.33046936266E+04 0.  0.
        1    1    3    3  502    0  0.13360981539E+04  0.38453500078E+02  0.79409321708E+03  0.15547414531E+04  0.50400001928E-02 0. -1.
       -1    1    3    3    0  502 -0.13360981539E+04 -0.38453500078E+02 -0.11606142197E+04  0.17702153303E+04  0.50400001928E-02 0.  1.
</event>
<event>
 5   0  0.2875829E-07  0.3291596E+04  0.7818609E-02  0.8165037E-01
       -2   -1    0    0    0  501  0.00000000000E+00  0.00000000000E+00  0.26270280151E+04  0.26270280151E+04  0.25500000920E-02 0. -1.
        2   -1    0    0  501    0  0.00000000000E+00  0.00000000000E+00 -0.10310706372E+04  0.10310706372E+04  0.25500000920E-02 0.  1.
    10030    2    1    2    0    0  0.00000000000E+00  0.00000000000E+00  0.15959573779E+04  0.36580986523E+04  0.32915962386E+04 0.  0.
        3    1    3    3  502    0  0.11271662439E+04 -0.98294716915E+03  0.34489959526E+02  0.14959540254E+04  0.10100000352E+00 0. -1.
       -3    1    3    3    0  502 -0.11271662439E+04  0.98294716915E+03  0.15614674184E+04  0.21621446269E+04  0.10100000352E+00 0.  1.
</event>
<event>
 5   0  0.2875829E-07  0.3308512E+04  0.7818609E-02  0.8160733E-01
       -2   -1    0    0    0  501  0.00000000000E+00  0.00000000000E+00  0.12595680103E+04  0.12595680103E+04  0.25500000920E-02 0. -1.
        2   -1    0    0  501    0  0.00000000000E+00  0.00000000000E+00 -0.21726207500E+04  0.21726207500E+04  0.25500000920E-02 0.  1.
    10030    2    1    2    0    0  0.00000000000E+00  0.00000000000E+00 -0.91305273973E+03  0.34321887603E+04  0.33085124120E+04 0.  0.
        3    1    3    3  502    0  0.31747310185E+02  0.16483108278E+04 -0.31494336876E+03  0.16784295674E+04  0.10100000352E+00 0.  1.
       -3    1    3    3    0  502 -0.31747310185E+02 -0.16483108278E+04 -0.59810937097E+03  0.17537591929E+04  0.10100000352E+00 0. -1.
</event>
<event>
 5   0  0.2703956E-07  0.3326186E+04  0.7818609E-02  0.8156264E-01
       -2   -1    0    0    0  501  0.00000000000E+00  0.00000000000E+00  0.19946185313E+04  0.19946185313E+04  0.25500000920E-02 0.  1.
        2   -1    0    0  501    0  0.00000000000E+00  0.00000000000E+00 -0.13866705258E+04  0.13866705258E+04  0.25500000920E-02 0. -1.
    10030    2    1    2    0    0  0.00000000000E+00  0.00000000000E+00  0.60794800549E+03  0.33812890572E+04  0.33261862411E+04 0.  0.
        5    1    3    3  502    0  0.76203853483E+03 -0.12536876318E+03 -0.11933273462E+04  0.14214331854E+04  0.46999998093E+01 0. -1.
       -5    1    3    3    0  502 -0.76203853483E+03  0.12536876318E+03  0.18012753517E+04  0.19598558718E+04  0.46999998093E+01 0.  1.
</event>
<event>
 5   0  0.9283910E-08  0.3339261E+04  0.7818609E-02  0.8152977E-01
        1   -1    0    0  501    0  0.00000000000E+00  0.00000000000E+00  0.19615910531E+04  0.19615910531E+04  0.50400001928E-02 0.  1.
       -1   -1    0    0    0  501  0.00000000000E+00  0.00000000000E+00 -0.14211253830E+04  0.14211253830E+04  0.50400001928E-02 0. -1.
    10030    2    1    2    0    0  0.00000000000E+00  0.00000000000E+00  0.54046567011E+03  0.33827164361E+04  0.33392614971E+04 0.  0.
        3    1    3    3  502    0 -0.62757276889E+03  0.14333001903E+04  0.86045530973E+03  0.17856596445E+04  0.10100000352E+00 0.  1.
       -3    1    3    3    0  502  0.62757276889E+03 -0.14333001903E+04 -0.31998963961E+03  0.15970567915E+04  0.10100000352E+00 0. -1.
</event>
<event>
 5   0  0.8805125E-08  0.3298445E+04  0.7818609E-02  0.8163291E-01
       -1   -1    0    0    0  501  0.00000000000E+00  0.00000000000E+00  0.19917995347E+04  0.19917995347E+04  0.50400001928E-02 0.  1.
        1   -1    0    0  501    0  0.00000000000E+00  0.00000000000E+00 -0.13655667488E+04  0.13655667488E+04  0.50400001928E-02 0. -1.
    10030    2    1    2    0    0  0.00000000000E+00  0.00000000000E+00  0.62623278588E+03  0.33573662835E+04  0.32984452185E+04 0.  0.
        4    1    3    3  502    0  0.14026995550E+04  0.61078900329E+03 -0.31376208942E+03  0.15617546254E+04  0.12699999809E+01 0. -1.
       -4    1    3    3    0  502 -0.14026995550E+04 -0.61078900329E+03  0.93999487530E+03  0.17956116581E+04  0.12699999809E+01 0.  1.
</event>
<event>
 5   0  0.2713815E-07  0.3322611E+04  0.7818609E-02  0.8157166E-01
        2   -1    0    0  501    0  0.00000000000E+00  0.00000000000E+00  0.18004855415E+04  0.18004855415E+04  0.25500000920E-02 0. -1.
       -2   -1    0    0    0  501  0.00000000000E+00  0.00000000000E+00 -0.15328841447E+04  0.15328841447E+04  0.25500000920E-02 0.  1.
    10030    2    1    2    0    0  0.00000000000E+00  0.00000000000E+00  0.26760139679E+03  0.33333696862E+04  0.33226108646E+04 0.  0.
        4    1    3    3  502    0 -0.32612568205E+03  0.15834661222E+04 -0.24981319728E+03  0.16358884947E+04  0.12699999809E+01 0.  1.
       -4    1    3    3    0  502  0.32612568205E+03 -0.15834661222E+04  0.51741459407E+03  0.16974811915E+04  0.12699999809E+01 0. -1.
</event>
<event>
 5   0  0.9283910E-08  0.3298199E+04  0.7818609E-02  0.8163354E-01
        1   -1    0    0  501    0  0.00000000000E+00  0.00000000000E+00  0.25203331981E+04  0.25203331981E+04  0.50400001928E-02 0.  1.
       -1   -1    0    0    0  501  0.00000000000E+00  0.00000000000E+00 -0.10790356157E+04  0.10790356157E+04  0.50400001928E-02 0. -1.
    10030    2    1    2    0    0  0.00000000000E+00  0.00000000000E+00  0.14412975824E+04  0.35993688139E+04  0.32981990748E+04 0.  0.
        3    1    3    3  502    0  0.91230353487E+03  0.53471639294E+03 -0.66033054463E+03  0.12466979582E+04  0.10100000352E+00 0. -1.
       -3    1    3    3    0  502 -0.91230353487E+03 -0.53471639294E+03  0.21016281270E+04  0.23526708557E+04  0.10100000352E+00 0.  1.
</event>
<event>
 5   0  0.8805125E-08  0.3314088E+04  0.7818609E-02  0.8159320E-01
       -1   -1    0    0    0  501  0.00000000000E+00  0.00000000000E+00  0.21464441694E+04  0.21464441694E+04  0.50400001928E-02 0.  1.
        1   -1    0    0  501    0  0.00000000000E+00  0.00000000000E+00 -0.12792295121E+04  0.12792295121E+04  0.50400001928E-02 0. -1.
    10030    2    1    2    0    0  0.00000000000E+00  0.00000000000E+00  0.86721465730E+03  0.34256736815E+04  0.33140879454E+04 0.  0.
        4    1    3    3  502    0  0.91088722329E+03 -0.12578587718E+04  0.10308762811E+04  0.18640364114E+04  0.12699999809E+01 0.  1.
       -4    1    3    3    0  502 -0.91088722329E+03  0.12578587718E+04 -0.16366162381E+03  0.15616372701E+04  0.12699999809E+01 0. -1.
</event>
<event>
 5   0  0.9810351E-08  0.3298645E+04  0.7818609E-02  0.8163240E-01
       -1   -1    0    0    0  501  0.00000000000E+00  0.00000000000E+00  0.16677119846E+04  0.16677119846E+04  0.50400001928E-02 0. -1.
        1   -1    0    0  501    0  0.00000000000E+00  0.00000000000E+00 -0.16311356717E+04  0.16311356717E+04  0.50400001928E-02 0.  1.
    10030    2    1    2    0    0  0.00000000000E+00  0.00000000000E+00  0.36576312895E+02  0.32988476564E+04  0.32986448783E+04 0.  0.
        5    1    3    3  502    0 -0.46630743033E+03  0.15333942286E+04  0.40754458314E+03  0.16537397489E+04  0.46999998093E+01 0. -1.
       -5    1    3    3    0  502  0.46630743033E+03 -0.15333942286E+04 -0.37096827025E+03  0.16451079075E+04  0.46999998093E+01 0.  1.
</event>
<event>
 5   0  0.9283910E-08  0.3299089E+04  0.7818609E-02  0.8163127E-01
       -1   -1    0    0    0  501  0.00000000000E+00  0.00000000000E+00  0.11206110706E+04  0.11206110706E+04  0.50400001928E-02 0.  1.
        1   -1    0    0  501    0  0.00000000000E+00  0.00000000000E+00 -0.24281374067E+04  0.24281374067E+04  0.50400001928E-02 0. -1.
    10030    2    1    2    0    0  0.00000000000E+00  0.00000000000E+00 -0.13075263361E+04  0.35487484773E+04  0.32990893646E+04 0.  0.
        3    1    3    3  502    0 -0.57250155773E+03  0.27478560843E+03  0.98385554865E+03  0.11709982558E+04  0.10100000352E+00 0.  1.
       -3    1    3    3    0  502  0.57250155773E+03 -0.27478560843E+03 -0.22913818848E+04  0.23777502216E+04  0.10100000352E+00 0. -1.
</event>
<event>
 5   0  0.9810351E-08  0.3310799E+04  0.7818609E-02  0.8160153E-01
       -1   -1    0    0    0  501  0.00000000000E+00  0.00000000000E+00  0.21910555503E+04  0.21910555503E+04  0.50400001928E-02 0.  1.
        1   -1    0    0  501    0  0.00000000000E+00  0.00000000000E+00 -0.12506976853E+04  0.12506976853E+04  0.50400001928E-02 0. -1.
    10030    2    1    2    0    0  0.00000000000E+00  0.00000000000E+00  0.94035786496E+03  0.34417532356E+04  0.33107993628E+04 0.  0.
        5    1    3    3  502    0 -0.89601256771E+03 -0.67021906377E+03  0.17383890610E+04  0.20673777430E+04  0.46999998093E+01 0.  1.
       -5    1    3    3    0  502  0.89601256771E+03  0.67021906377E+03 -0.79803119600E+03  0.13743754926E+04  0.46999998093E+01 0. -1.
</event>
<event>
 5   0  0.9454010E-08  0.3296042E+04  0.7818609E-02  0.8163903E-01
       -1   -1    0    0    0  501  0.00000000000E+00  0.00000000000E+00  0.11697109150E+04  0.11697109150E+04  0.50400001928E-02 0.  1.
        1   -1    0    0  501    0  0.00000000000E+00  0.00000000000E+00 -0.23219178786E+04  0.23219178786E+04  0.50400001928E-02 0. -1.
    10030    2    1    2    0    0  0.00000000000E+00  0.00000000000E+00 -0.11522069636E+04  0.34916287936E+04  0.32960416783E+04 0.  0.
        2    1    3    3  502    0  0.14820687050E+03  0.61153407441E+03 -0.21896537436E+04  0.22782718708E+04  0.25500000920E-02 0. -1.
       -2    1    3    3    0  502 -0.14820687050E+03 -0.61153407441E+03  0.10374467800E+04  0.12133569227E+04  0.25500000920E-02 0.  1.
</event>
<event>
 5   0  0.9454010E-08  0.3294987E+04  0.7818609E-02  0.8164172E-01
        1   -1    0    0  501    0  0.00000000000E+00  0.00000000000E+00  0.26113166145E+04  0.26113166145E+04  0.50400001928E-02 0.  1.
       -1   -1    0    0    0  501  0.00000000000E+00  0.00000000000E+00 -0.10394123181E+04  0.10394123181E+04  0.50400001928E-02 0. -1.
    10030    2    1    2    0    0  0.00000000000E+00  0.00000000000E+00  0.15719042964E+04  0.36507289325E+04  0.32949868925E+04 0.  0.
        2    1    3    3  502    0 -0.14169046405E+04  0.52091978845E+03  0.54982218570E+02  0.15106287534E+04  0.25500000920E-02 0. -1.
       -2    1    3    3    0  502  0.14169046405E+04 -0.52091978845E+03  0.15169220778E+04  0.21401001791E+04  0.25500000920E-02 0.  1.
</event>
<event>
 5   0  0.2703956E-07  0.3295110E+04  0.7818609E-02  0.8164141E-01
       -2   -1    0    0    0  501  0.00000000000E+00  0.00000000000E+00  0.27391466190E+04  0.27391466190E+04  0.25500000920E-02 0. -1.
        2   -1    0    0  501    0  0.00000000000E+00  0.00000000000E+00 -0.99097898626E+03  0.99097898626E+03  0.25500000920E-02 0.  1.
    10030    2    1    2    0    0  0.00000000000E+00  0.00000000000E+00  0.17481676327E+04  0.37301256053E+04  0.32951095519E+04 0.  0.
        5    1    3    3  502    0  0.45461148834E+03  0.15440043907E+04  0.47579098101E+03  0.16783981385E+04  0.46999998093E+01 0.  1.
       -5    1    3    3    0  502 -0.45461148834E+03 -0.15440043907E+04  0.12723766517E+04  0.20517274667E+04  0.46999998093E+01 0. -1.
</event>
<event>
 5   0  0.9283910E-08  0.3302594E+04  0.7818609E-02  0.8162236E-01
       -1   -1    0    0    0  501  0.00000000000E+00  0.00000000000E+00  0.25385678226E+04  0.25385678226E+04  0.50400001928E-02 0. -1.
        1   -1    0    0  501    0  0.00000000000E+00  0.00000000000E+00 -0.10741420183E+04  0.10741420183E+04  0.50400001928E-02 0.  1.
    10030    2    1    2    0    0  0.00000000000E+00  0.00000000000E+00  0.14644258043E+04  0.36127098408E+04  0.33025943526E+04 0.  0.
        3    1    3    3  502    0  0.58968506880E+02 -0.76109094516E+03  0.23339633768E+04  0.24556306250E+04  0.10100000352E+00 0. -1.
       -3    1    3    3    0  502 -0.58968506880E+02  0.76109094516E+03 -0.86953757254E+03  0.11570792159E+04  0.10100000352E+00 0.  1.
</event>
<event>
 5   0  0.2703956E-07  0.3297119E+04  0.7818609E-02  0.8163629E-01
        2   -1    0    0  501    0  0.00000000000E+00  0.00000000000E+00  0.15243068760E+04  0.15243068760E+04  0.25500000920E-02 0. -1.
       -2   -1    0    0    0  501  0.00000000000E+00  0.00000000000E+00 -0.17829409168E+04  0.17829409168E+04  0.25500000920E-02 0.  1.
    10030    2    1    2    0    0  0.00000000000E+00  0.00000000000E+00 -0.25863404083E+03  0.33072477928E+04  0.32971194088E+04 0.  0.
        5    1    3    3  502    0  0.57131758708E+03 -0.15302363387E+03  0.14142105076E+04  0.15329166538E+04  0.46999998093E+01 0. -1.
       -5    1    3    3    0  502 -0.57131758708E+03  0.15302363387E+03 -0.16728445484E+04  0.17743311390E+04  0.46999998093E+01 0.  1.
</event>
<event>
 5   0  0.9283910E-08  0.3297611E+04  0.7818609E-02  0.8163504E-01
       -1   -1    0    0    0  501  0.00000000000E+00  0.00000000000E+00  0.16943242087E+04  0.16943242087E+04  0.50400001928E-02 0. -1.
        1   -1    0    0  501    0  0.00000000000E+00  0.00000000000E+00 -0.16045092064E+04  0.16045092064E+04  0.50400001928E-02 0.  1.
    10030    2    1    2    0    0  0.00000000000E+00  0.00000000000E+00  0.89815002286E+02  0.32988334151E+04  0.32976105236E+04 0.  0.
        3    1    3    3  502    0  0.59820836210E+03 -0.11344531993E+04 -0.99168209189E+03  0.16211942164E+04  0.10100000352E+00 0.  1.
       -3    1    3    3    0  502 -0.59820836210E+03  0.11344531993E+04  0.10814970942E+04  0.16776391986E+04  0.10100000352E+00 0. -1.
</event>
<event>
 5   0  0.2713815E-07  0.3303688E+04  0.7818609E-02  0.8161958E-01
        2   -1    0    0  501    0  0.00000000000E+00  0.00000000000E+00  0.17373862167E+04  0.17373862167E+04  0.25500000920E-02 0.  1.
       -2   -1    0    0    0  501  0.00000000000E+00  0.00000000000E+00 -0.15705131221E+04  0.15705131221E+04  0.25500000920E-02 0. -1.
    10030    2    1    2    0    0  0.00000000000E+00  0.00000000000E+00  0.16687309453E+03  0.33078993388E+04  0.33036875467E+04 0.  0.
        4    1    3    3  502    0 -0.12484006955E+04 -0.10785233969E+04  0.45010017488E+00  0.16497632647E+04  0.12699999809E+01 0. -1.
       -4    1    3    3    0  502  0.12484006955E+04  0.10785233969E+04  0.16642299435E+03  0.16581360741E+04  0.12699999809E+01 0.  1.
</event>
<event>
 5   0  0.8805125E-08  0.3300097E+04  0.7818609E-02  0.8162871E-01
       -1   -1    0    0    0  501  0.00000000000E+00  0.00000000000E+00  0.11249377335E+04  0.11249377335E+04  0.50400001928E-02 0.  1.
        1   -1    0    0  501    0  0.00000000000E+00  0.00000000000E+00 -0.24202765701E+04  0.24202765701E+04  0.50400001928E-02 0. -1.
    10030    2    1    2    0    0  0.00000000000E+00  0.00000000000E+00 -0.12953388366E+04  0.35452143035E+04  0.33000972344E+04 0.  0.
        4    1    3    3  502    0  0.57177843761E+03  0.53005609639E+03  0.91456859740E+03  0.12018017221E+04  0.12699999809E+01 0.  1.
       -4    1    3    3    0  502 -0.57177843761E+03 -0.53005609639E+03 -0.22099074340E+04  0.23434125814E+04  0.12699999809E+01 0. -1.
</event>
<event>
 5   0  0.2713815E-07  0.3303617E+04  0.7818609E-02  0.8161976E-01
        2   -1    0    0  501    0  0.00000000000E+00  0.00000000000E+00  0.19409641859E+04  0.19409641859E+04  0.25500000920E-02 0.  1.
       -2   -1    0    0    0  501  0.00000000000E+00  0.00000000000E+00 -0.14057301242E+04  0.14057301242E+04  0.25500000920E-02 0. -1.
    10030    2    1    2    0    0  0.00000000000E+00  0.00000000000E+00  0.53523406167E+03  0.33466943101E+04  0.33036173060E+04 0.  0.
        4    1    3    3  502    0  0.84628999139E+03  0.83912327560E+03 -0.89103411100E+03  0.14880450333E+04  0.12699999809E+01 0. -1.
       -4    1    3    3    0  502 -0.84628999139E+03 -0.83912327560E+03  0.14262681727E+04  0.18586492769E+04  0.12699999809E+01 0.  1.
</event>
<event>
 5   0  0.2727168E-07  0.3306662E+04  0.7818609E-02  0.8161202E-01
        2   -1    0    0  501    0  0.00000000000E+00  0.00000000000E+00  0.18237899581E+04  0.18237899581E+04  0.25500000920E-02 0.  1.
       -2   -1    0    0    0  501  0.00000000000E+00  0.00000000000E+00 -0.14988034295E+04  0.14988034295E+04  0.25500000920E-02 0. -1.
    10030    2    1    2    0    0  0.00000000000E+00  0.00000000000E+00  0.32498652864E+03  0.33225933876E+04  0.33066615454E+04 0.  0.
        2    1    3    3  502    0  0.12460571715E+04  0.84246167877E+03 -0.52718279571E+03  0.15938387167E+04  0.25500000920E-02 0. -1.
       -2    1    3    3    0  502 -0.12460571715E+04 -0.84246167877E+03  0.85216932435E+03  0.17287546709E+04  0.25500000920E-02 0.  1.
</event>
<event>
 5   0  0.9181760E-08  0.3304994E+04  0.7818609E-02  0.8161626E-01
       -1   -1    0    0    0  501  0.00000000000E+00  0.00000000000E+00  0.10125249388E+04  0.10125249388E+04  0.50400001928E-02 0.  1.
        1   -1    0    0  501    0  0.00000000000E+00  0.00000000000E+00 -0.26969662478E+04  0.26969662478E+04  0.50400001928E-02 0. -1.
    10030    2    1    2    0    0  0.00000000000E+00  0.00000000000E+00 -0.16844413090E+04  0.37094911866E+04  0.33049935461E+04 0.  0.
        1    1    3    3  502    0  0.14978287880E+04  0.66457872971E+03 -0.60257105421E+03  0.17459232060E+04  0.50400001928E-02 0. -1.
       -1    1    3    3    0  502 -0.14978287880E+04 -0.66457872971E+03 -0.10818702548E+04  0.19635679805E+04  0.50400001928E-02 0.  1.
</event>
<event>
 5   0  0.9181760E-08  0.3320461E+04  0.7818609E-02  0.8157708E-01
        1   -1    0    0  501    0  0.00000000000E+00  0.00000000000E+00  0.13354868748E+04  0.13354868748E+04  0.50400001928E-02 0.  1.
       -1   -1    0    0    0  501  0.00000000000E+00  0.00000000000E+00 -0.20639405836E+04  0.20639405836E+04  0.50400001928E-02 0. -1.
    10030    2    1    2    0    0  0.00000000000E+00  0.00000000000E+00 -0.72845370878E+03  0.33994274584E+04  0.33204611485E+04 0.  0.
        1    1    3    3  502    0  0.12859642410E+04  0.86880846476E+03  0.23957300104E+03  0.15703271635E+04  0.50400001928E-02 0. -1.
       -1    1    3    3    0  502 -0.12859642410E+04 -0.86880846476E+03 -0.96802670982E+03  0.18291002948E+04  0.50400001928E-02 0.  1.
</event>
<event>
 5   0  0.2703956E-07  0.3305304E+04  0.7818609E-02  0.8161547E-01
        2   -1    0    0  501    0  0.00000000000E+00  0.00000000000E+00  0.27109742812E+04  0.27109742812E+04  0.25500000920E-02 0. -1.
       -2   -1    0    0    0  501  0.00000000000E+00  0.00000000000E+00 -0.10074821570E+04  0.10074821570E+04  0.25500000920E-02 0.  1.
    10030    2    1    2    0    0  0.00000000000E+00  0.00000000000E+00  0.17034921242E+04  0.37184564382E+04  0.33053037478E+04 0.  0.
        5    1    3    3  502    0 -0.10584544924E+03 -0.15648258359E+04  0.14377743933E+04  0.21276983930E+04  0.46999998093E+01 0. -1.
       -5    1    3    3    0  502  0.10584544924E+03  0.15648258359E+04  0.26571773088E+03  0.15907580451E+04  0.46999998093E+01 0.  1.
</event>
<event>
 5   0  0.2875829E-07  0.3292876E+04  0.7818609E-02  0.8164710E-01
        2   -1    0    0  501    0  0.00000000000E+00  0.00000000000E+00  0.22501850888E+04  0.22501850888E+04  0.25500000920E-02 0. -1.
       -2   -1    0    0    0  501  0.00000000000E+00  0.00000000000E+00 -0.12046821921E+04  0.12046821921E+04  0.25500000920E-02 0.  1.
    10030    2    1    2    0    0  0.00000000000E+00  0.00000000000E+00  0.10455028967E+04  0.34548672809E+04  0.32928758892E+04 0.  0.
        3    1    3    3  502    0 -0.13617960489E+04 -0.91541286655E+03  0.38086287414E+03  0.16844956914E+04  0.10100000352E+00 0.  1.
       -3    1    3    3    0  502  0.13617960489E+04  0.91541286655E+03  0.66464002256E+03  0.17703715895E+04  0.10100000352E+00 0. -1.
</event>
<event>
 5   0  0.2703956E-07  0.3302718E+04  0.7818609E-02  0.8162204E-01
        2   -1    0    0  501    0  0.00000000000E+00  0.00000000000E+00  0.10024579972E+04  0.10024579972E+04  0.25500000920E-02 0.  1.
       -2   -1    0    0    0  501  0.00000000000E+00  0.00000000000E+00 -0.27203004083E+04  0.27203004083E+04  0.25500000920E-02 0. -1.
    10030    2    1    2    0    0  0.00000000000E+00  0.00000000000E+00 -0.17178424111E+04  0.37227584055E+04  0.33027182132E+04 0.  0.
        5    1    3    3  502    0  0.15186941624E+04  0.59768281950E+03 -0.57531027628E+03  0.17305088025E+04  0.46999998093E+01 0.  1.
       -5    1    3    3    0  502 -0.15186941624E+04 -0.59768281950E+03 -0.11425321348E+04  0.19922496030E+04  0.46999998093E+01 0. -1.
</event>
<event>
 5   0  0.9454010E-08  0.3299667E+04  0.7818609E-02  0.8162980E-01
        1   -1    0    0  501    0  0.00000000000E+00  0.00000000000E+00  0.12830217529E+04  0.12830217529E+04  0.50400001928E-02 0. -1.
       -1   -1    0    0    0  501  0.00000000000E+00  0.00000000000E+00 -0.21215157341E+04  0.21215157341E+04  0.50400001928E-02 0.  1.
    10030    2    1    2    0    0  0.00000000000E+00  0.00000000000E+00 -0.83849398128E+03  0.34045374870E+04  0.32996671565E+04 0.  0.
        2    1    3    3  502    0  0.76123823787E+03 -0.12657808602E+04 -0.11776356030E+04  0.18890501461E+04  0.25500000920E-02 0. -1.
       -2    1    3    3    0  502 -0.76123823787E+03  0.12657808602E+04  0.33914162173E+03  0.15154873409E+04  0.25500000920E-02 0.  1.
</event>
<event>
 5   0  0.2713815E-07  0.3305838E+04  0.7818609E-02  0.8161411E-01
       -2   -1    0    0    0  501  0.00000000000E+00  0.00000000000E+00  0.16056179738E+04  0.16056179738E+04  0.25500000920E-02 0. -1.
        2   -1    0    0  501    0  0.00000000000E+00  0.00000000000E+00 -0.17016138350E+04  0.17016138350E+04  0.25500000920E-02 0.  1.
    10030    2    1    2    0    0  0.00000000000E+00  0.00000000000E+00 -0.95995861214E+02  0.33072318088E+04  0.33058383251E+04 0.  0.
        4    1    3    3  502    0 -0.22976973127E+03  0.16282958982E+04  0.11940007554E+03  0.16487570022E+04  0.12699999809E+01 0. -1.
       -4    1    3    3    0  502  0.22976973127E+03 -0.16282958982E+04 -0.21539593676E+03  0.16584748065E+04  0.12699999809E+01 0.  1.
</event>
<event>
 5   0  0.9283910E-08  0.3301070E+04  0.7818609E-02  0.8162623E-01
        1   -1    0    0  501    0  0.00000000000E+00  0.00000000000E+00  0.24327385378E+04  0.24327385378E+04  0.50400001928E-02 0. -1.
       -1   -1    0    0    0  501  0.00000000000E+00  0.00000000000E+00 -0.11198352870E+04  0.11198352870E+04  0.50400001928E-02 0.  1.
    10030    2    1    2    0    0  0.00000000000E+00  0.00000000000E+00  0.13129032508E+04  0.35525738248E+04  0.33010704075E+04 0.  0.
        3    1    3    3  502    0  0.26054342462E+03  0.14333557322E+04 -0.17846180410E+03  0.14677329992E+04  0.10100000352E+00 0.  1.
       -3    1    3    3    0  502 -0.26054342462E+03 -0.14333557322E+04  0.14913650549E+04  0.20848408257E+04  0.10100000352E+00 0. -1.
</event>
<event>
 5   0  0.2875829E-07  0.3291169E+04  0.7818609E-02  0.8165146E-01
       -2   -1    0    0    0  501  0.00000000000E+00  0.00000000000E+00  0.10804570076E+04  0.10804570076E+04  0.25500000920E-02 0.  1.
        2   -1    0    0  501    0  0.00000000000E+00  0.00000000000E+00 -0.25062984837E+04  0.25062984837E+04  0.25500000920E-02 0. -1.
    10030    2    1    2    0    0  0.00000000000E+00  0.00000000000E+00 -0.14258414762E+04  0.35867554913E+04  0.32911686434E+04 0.  0.
        3    1    3    3  502    0  0.10475705120E+04 -0.11484823134E+04 -0.13013508126E+04  0.20272961179E+04  0.10100000352E+00 0. -1.
       -3    1    3    3    0  502 -0.10475705120E+04  0.11484823134E+04 -0.12449066358E+03  0.15594593734E+04  0.10100000352E+00 0.  1.
</event>
<event>
 5   0  0.9181760E-08  0.3285953E+04  0.7818609E-02  0.8166479E-01
        1   -1    0    0  501    0  0.00000000000E+00  0.00000000000E+00  0.18167810895E+04  0.18167810895E+04  0.50400001928E-02 0.  1.
       -1   -1    0    0    0  501  0.00000000000E+00  0.00000000000E+00 -0.14857994676E+04  0.14857994676E+04  0.50400001928E-02 0. -1.
    10030    2    1    2    0    0  0.00000000000E+00  0.00000000000E+00  0.33098162194E+03  0.33025805571E+04  0.32859533628E+04 0.  0.
        1    1    3    3  502    0 -0.14873414819E+04 -0.20127815259E+03  0.83720999066E+03  0.17186093643E+04  0.50400001928E-02 0.  1.
       -1    1    3    3    0  502  0.14873414819E+04  0.20127815259E+03 -0.50622836872E+03  0.15839711929E+04  0.50400001928E-02 0. -1.
</event>
<event>
 5   0  0.2703956E-07  0.3302959E+04  0.7818609E-02  0.8162143E-01
        2   -1    0    0  501    0  0.00000000000E+00  0.00000000000E+00  0.16093569357E+04  0.16093569357E+04  0.25500000920E-02 0.  1.
       -2   -1    0    0    0  501  0.00000000000E+00  0.00000000000E+00 -0.16947050140E+04  0.16947050140E+04  0.25500000920E-02 0. -1.
    10030    2    1    2    0    0  0.00000000000E+00  0.00000000000E+00 -0.85348078322E+02  0.33040619498E+04  0.33029594417E+04 0.  0.
        5    1    3    3  502    0  0.12976095620E+04 -0.94974324751E+03  0.33369663774E+03  0.16423088466E+04  0.46999998093E+01 0. -1.
       -5    1    3    3    0  502 -0.12976095620E+04  0.94974324751E+03 -0.41904471606E+03  0.16617531031E+04  0.46999998093E+01 0.  1.
</event>
<event>
 5   0  0.8805125E-08  0.3299387E+04  0.7818609E-02  0.8163051E-01
        1   -1    0    0  501    0  0.00000000000E+00  0.00000000000E+00  0.25784858440E+04  0.25784858440E+04  0.50400001928E-02 0.  1.
       -1   -1    0    0    0  501  0.00000000000E+00  0.00000000000E+00 -0.10554600082E+04  0.10554600082E+04  0.50400001928E-02 0. -1.
    10030    2    1    2    0    0  0.00000000000E+00  0.00000000000E+00  0.15230258358E+04  0.36339458522E+04  0.32993870279E+04 0.  0.
        4    1    3    3  502    0 -0.74802701703E+03 -0.39678696541E+03  0.23208805627E+04  0.24705206968E+04  0.12699999809E+01 0.  1.
       -4    1    3    3    0  502  0.74802701703E+03  0.39678696541E+03 -0.79785472686E+03  0.11634251554E+04  0.12699999809E+01 0. -1.
</event>
<event>
 5   0  0.2727168E-07  0.3300408E+04  0.7818609E-02  0.8162792E-01
       -2   -1    0    0    0  501  0.00000000000E+00  0.00000000000E+00  0.14574403365E+04  0.14574403365E+04  0.25500000920E-02 0. -1.
        2   -1    0    0  501    0  0.00000000000E+00  0.00000000000E+00 -0.18684630549E+04  0.18684630549E+04  0.25500000920E-02 0.  1.
    10030    2    1    2    0    0  0.00000000000E+00  0.00000000000E+00 -0.41102271840E+03  0.33259033915E+04  0.33004081103E+04 0.  0.
        2    1    3    3  502    0  0.54197400874E+02  0.15892736507E+04  0.23885455815E+03  0.16080359433E+04  0.25500000920E-02 0. -1.
       -2    1    3    3    0  502 -0.54197400874E+02 -0.15892736507E+04 -0.64987727655E+03  0.17178674482E+04  0.25500000920E-02 0.  1.
</event>
<event>
 5   0  0.2875829E-07  0.3299526E+04  0.7818609E-02  0.8163016E-01
       -2   -1    0    0    0  501  0.00000000000E+00  0.00000000000E+00  0.23686616770E+04  0.23686616770E+04  0.25500000920E-02 0. -1.
        2   -1    0    0  501    0  0.00000000000E+00  0.00000000000E+00 -0.11490530727E+04  0.11490530727E+04  0.25500000920E-02 0.  1.
    10030    2    1    2    0    0  0.00000000000E+00  0.00000000000E+00  0.12196086043E+04  0.35177147498E+04  0.32995260134E+04 0.  0.
        3    1    3    3  502    0  0.28898540449E+03 -0.14908156689E+04  0.12971662991E+04  0.19971690816E+04  0.10100000352E+00 0. -1.
       -3    1    3    3    0  502 -0.28898540449E+03  0.14908156689E+04 -0.77557694867E+02  0.15205456682E+04  0.10100000352E+00 0.  1.
</event>
<event>
 5   0  0.9810351E-08  0.3309994E+04  0.7818609E-02  0.8160357E-01
        1   -1    0    0  501    0  0.00000000000E+00  0.00000000000E+00  0.15594706659E+04  0.15594706659E+04  0.50400001928E-02 0. -1.
       -1   -1    0    0    0  501  0.00000000000E+00  0.00000000000E+00 -0.17563750345E+04  0.17563750345E+04  0.50400001928E-02 0.  1.
    10030    2    1    2    0    0  0.00000000000E+00  0.00000000000E+00 -0.19690436854E+03  0.33158457004E+04  0.33099941660E+04 0.  0.
        5    1    3    3  502    0  0.49137887541E+03  0.12148778287E+04  0.91408285169E+03  0.15977956338E+04  0.46999998093E+01 0. -1.
       -5    1    3    3    0  502 -0.49137887541E+03 -0.12148778287E+04 -0.11109872202E+04  0.17180500666E+04  0.46999998093E+01 0.  1.
</event>
<event>
 5   0  0.9454010E-08  0.3264744E+04  0.7818609E-02  0.8171925E-01
        1   -1    0    0  501    0  0.00000000000E+00  0.00000000000E+00  0.95415292255E+03  0.95415292256E+03  0.50400001928E-02 0. -1.
       -1   -1    0    0    0  501  0.00000000000E+00  0.00000000000E+00 -0.27926751146E+04  0.27926751146E+04  0.50400001928E-02 0.  1.
    10030    2    1    2    0    0  0.00000000000E+00  0.00000000000E+00 -0.18385221920E+04  0.37468280371E+04  0.32647444753E+04 0.  0.
        2    1    3    3  502    0  0.21934504310E+03  0.90282804657E+03  0.62110186594E+03  0.11175769582E+04  0.25500000920E-02 0. -1.
       -2    1    3    3    0  502 -0.21934504310E+03 -0.90282804657E+03 -0.24596240580E+04  0.26292510789E+04  0.25500000920E-02 0.  1.
</event>
<event>
 5   0  0.2713815E-07  0.3299750E+04  0.7818609E-02  0.8162959E-01
       -2   -1    0    0    0  501  0.00000000000E+00  0.00000000000E+00  0.15162299787E+04  0.15162299787E+04  0.25500000920E-02 0. -1.
        2   -1    0    0  501    0  0.00000000000E+00  0.00000000000E+00 -0.17953003583E+04  0.17953003583E+04  0.25500000920E-02 0.  1.
    10030    2    1    2    0    0  0.00000000000E+00  0.00000000000E+00 -0.27907037957E+03  0.33115303371E+04  0.32997504294E+04 0.  0.
        4    1    3    3  502    0  0.12609578519E+04 -0.10563109390E+04 -0.26758028157E+03  0.16665558268E+04  0.12699999809E+01 0.  1.
       -4    1    3    3    0  502 -0.12609578519E+04  0.10563109390E+04 -0.11490098003E+02  0.16449745102E+04  0.12699999809E+01 0. -1.
</event>
<event>
 5   0  0.2727168E-07  0.3294070E+04  0.7818609E-02  0.8164406E-01
        2   -1    0    0  501    0  0.00000000000E+00  0.00000000000E+00  0.18616977929E+04  0.18616977929E+04  0.25500000920E-02 0.  1.
       -2   -1    0    0    0  501  0.00000000000E+00  0.00000000000E+00 -0.14571237150E+04  0.14571237150E+04  0.25500000920E-02 0. -1.
    10030    2    1    2    0    0  0.00000000000E+00  0.00000000000E+00  0.40457407794E+03  0.33188215079E+04  0.32940698257E+04 0.  0.
        2    1    3    3  502    0  0.10698247023E+04 -0.46001892012E+03  0.13757626632E+04  0.18024608750E+04  0.25500000920E-02 0.  1.
       -2    1    3    3    0  502 -0.10698247023E+04  0.46001892012E+03 -0.97118858529E+03  0.15163606328E+04  0.25500000920E-02 0. -1.
</event>
<event>
 5   0  0.9454010E-08  0.3295520E+04  0.7818609E-02  0.8164036E-01
       -1   -1    0    0    0  501  0.00000000000E+00  0.00000000000E+00  0.12918794349E+04  0.12918794349E+04  0.50400001928E-02 0. -1.
        1   -1    0    0  501    0  0.00000000000E+00  0.00000000000E+00 -0.21016771467E+04  0.21016771467E+04  0.50400001928E-02 0.  1.
    10030    2    1    2    0    0  0.00000000000E+00  0.00000000000E+00 -0.80979771181E+03  0.33935565817E+04  0.32955202835E+04 0.  0.
        2    1    3    3  502    0 -0.25194580374E+03 -0.41585789770E+03  0.12163250609E+04  0.13099088262E+04  0.25500000920E-02 0. -1.
       -2    1    3    3    0  502  0.25194580374E+03  0.41585789770E+03 -0.20261227727E+04  0.20836477555E+04  0.25500000920E-02 0.  1.
</event>
<event>
 5   0  0.2727168E-07  0.3299647E+04  0.7818609E-02  0.8162985E-01
        2   -1    0    0  501    0  0.00000000000E+00  0.00000000000E+00  0.21621116546E+04  0.21621116546E+04  0.25500000920E-02 0. -1.
       -2   -1    0    0    0  501  0.00000000000E+00  0.00000000000E+00 -0.12589162818E+04  0.12589162818E+04  0.25500000920E-02 0.  1.
    10030    2    1    2    0    0  0.00000000000E+00  0.00000000000E+00  0.90319537279E+03  0.34210279364E+04  0.32996469903E+04 0.  0.
        2    1    3    3  502    0  0.33004888888E+03  0.64582835277E+03  0.19879631421E+04  0.21161342076E+04  0.25500000920E-02 0. -1.
       -2    1    3    3    0  502 -0.33004888888E+03 -0.64582835277E+03 -0.10847677693E+04  0.13048937288E+04  0.25500000920E-02 0.  1.
</event>
<event>
 5   0  0.2703956E-07  0.3300354E+04  0.7818609E-02  0.8162805E-01
       -2   -1    0    0    0  501  0.00000000000E+00  0.00000000000E+00  0.28740821793E+04  0.28740821793E+04  0.25500000920E-02 0. -1.
        2   -1    0    0  501    0  0.00000000000E+00  0.00000000000E+00 -0.94746203810E+03  0.94746203811E+03  0.25500000920E-02 0.  1.
    10030    2    1    2    0    0  0.00000000000E+00  0.00000000000E+00  0.19266201412E+04  0.38215442174E+04  0.33003537746E+04 0.  0.
        5    1    3    3  502    0 -0.32293180763E+03  0.54801070577E+03 -0.79979538449E+03  0.10219077420E+04  0.46999998093E+01 0.  1.
       -5    1    3    3    0  502  0.32293180763E+03 -0.54801070577E+03  0.27264155257E+04  0.27996364755E+04  0.46999998093E+01 0. -1.
</event>
<event>
 5   0  0.2713815E-07  0.3298151E+04  0.7818609E-02  0.8163366E-01
       -2   -1    0    0    0  501  0.00000000000E+00  0.00000000000E+00  0.95269614462E+03  0.95269614462E+03  0.25500000920E-02 0. -1.
        2   -1    0    0  501    0  0.00000000000E+00  0.00000000000E+00 -0.28544772362E+04  0.28544772362E+04  0.25500000920E-02 0.  1.
    10030    2    1    2    0    0  0.00000000000E+00  0.00000000000E+00 -0.19017810916E+04  0.38071733808E+04  0.32981506684E+04 0.  0.
        4    1    3    3  502    0  0.73359523671E+03  0.60272728272E+03 -0.25073212282E+04  0.26810638752E+04  0.12699999809E+01 0.  1.
       -4    1    3    3    0  502 -0.73359523671E+03 -0.60272728272E+03  0.60554013662E+03  0.11261095056E+04  0.12699999809E+01 0. -1.
</event>
<event>
 5   0  0.2727168E-07  0.3292246E+04  0.7818609E-02  0.8164871E-01
       -2   -1    0    0    0  501  0.00000000000E+00  0.00000000000E+00  0.19110891575E+04  0.19110891575E+04  0.25500000920E-02 0.  1.
        2   -1    0    0  501    0  0.00000000000E+00  0.00000000000E+00 -0.14178935705E+04  0.14178935705E+04  0.25500000920E-02 0. -1.
    10030    2    1    2    0    0  0.00000000000E+00  0.00000000000E+00  0.49319558700E+03  0.33289827279E+04  0.32922460594E+04 0.  0.
        2    1    3    3  502    0  0.91742263801E+03 -0.12518093939E+04  0.80138204653E+03  0.17466837836E+04  0.25500000920E-02 0.  1.
       -2    1    3    3    0  502 -0.91742263801E+03  0.12518093939E+04 -0.30818645953E+03  0.15822989443E+04  0.25500000920E-02 0. -1.
</event>
<event>
 5   0  0.8805125E-08  0.3298523E+04  0.7818609E-02  0.8163271E-01
       -4   -1    0    0    0  501  0.00000000000E+00  0.00000000000E+00  0.15297067135E+04  0.15297072407E+04  0.12699999809E+01 0. -1.
        4   -1    0    0  501    0  0.00000000000E+00  0.00000000000E+00 -0.17781588765E+04  0.17781593301E+04  0.12699999809E+01 0.  1.
    10030    2    1    2    0    0  0.00000000000E+00  0.00000000000E+00 -0.24845216303E+03  0.33078665708E+04  0.32985228168E+04 0.  0.
        4    1    3    3  502    0 -0.10454422943E+04  0.91223327715E+03 -0.10183471567E+04  0.17210902612E+04  0.12699999809E+01 0.  1.
       -4    1    3    3    0  502  0.10454422943E+04 -0.91223327715E+03  0.76989499362E+03  0.15867763096E+04  0.12699999809E+01 0. -1.
</event>
<event>
 5   0  0.9181760E-08  0.3291696E+04  0.7818609E-02  0.8165011E-01
        1   -1    0    0  501    0  0.00000000000E+00  0.00000000000E+00  0.17607670833E+04  0.17607670833E+04  0.50400001928E-02 0.  1.
       -1   -1    0    0    0  501  0.00000000000E+00  0.00000000000E+00 -0.15384295593E+04  0.15384295593E+04  0.50400001928E-02 0. -1.
    10030    2    1    2    0    0  0.00000000000E+00  0.00000000000E+00  0.22233752396E+03  0.32991966426E+04  0.32916962970E+04 0.  0.
        1    1    3    3  502    0  0.81764686629E+03 -0.42841094819E+03 -0.12545562500E+04  0.15575601828E+04  0.50400001928E-02 0. -1.
       -1    1    3    3    0  502 -0.81764686629E+03  0.42841094819E+03  0.14768937740E+04  0.17416364598E+04  0.50400001928E-02 0.  1.
</event>
<event>
 5   0  0.2875829E-07  0.3306975E+04  0.7818609E-02  0.8161123E-01
       -2   -1    0    0    0  501  0.00000000000E+00  0.00000000000E+00  0.20100576297E+04  0.20100576297E+04  0.25500000920E-02 0. -1.
        2   -1    0    0  501    0  0.00000000000E+00  0.00000000000E+00 -0.13601703679E+04  0.13601703679E+04  0.25500000920E-02 0.  1.
    10030    2    1    2    0    0  0.00000000000E+00  0.00000000000E+00  0.64988726178E+03  0.33702279977E+04  0.33069749475E+04 0.  0.
        3    1    3    3  502    0  0.12478030266E+04  0.68140069884E+03 -0.53542034281E+03  0.15192084318E+04  0.10100000352E+00 0.  1.
       -3    1    3    3    0  502 -0.12478030266E+04 -0.68140069884E+03  0.11853076046E+04  0.18510195659E+04  0.10100000352E+00 0. -1.
</event>
<event>
 5   0  0.9181760E-08  0.3302782E+04  0.7818609E-02  0.8162188E-01
       -1   -1    0    0    0  501  0.00000000000E+00  0.00000000000E+00  0.15766844275E+04  0.15766844276E+04  0.50400001928E-02 0.  1.
        1   -1    0    0  501    0  0.00000000000E+00  0.00000000000E+00 -0.17296371128E+04  0.17296371128E+04  0.50400001928E-02 0. -1.
    10030    2    1    2    0    0  0.00000000000E+00  0.00000000000E+00 -0.15295268522E+03  0.33063215403E+04  0.33027817978E+04 0.  0.
        1    1    3    3  502    0  0.12454060116E+04 -0.46415820404E+02  0.10081521352E+04  0.16029851184E+04  0.50400001928E-02 0.  1.
       -1    1    3    3    0  502 -0.12454060116E+04  0.46415820404E+02 -0.11611048205E+04  0.17033364219E+04  0.50400001928E-02 0. -1.
</event>
<event>
 5   0  0.2727168E-07  0.3312945E+04  0.7818609E-02  0.8159609E-01
        2   -1    0    0  501    0  0.00000000000E+00  0.00000000000E+00  0.25638459221E+04  0.25638459221E+04  0.25500000920E-02 0. -1.
       -2   -1    0    0    0  501  0.00000000000E+00  0.00000000000E+00 -0.10702284769E+04  0.10702284769E+04  0.25500000920E-02 0.  1.
    10030    2    1    2    0    0  0.00000000000E+00  0.00000000000E+00  0.14936174452E+04  0.36340743990E+04  0.33129448629E+04 0.  0.
        2    1    3    3  502    0 -0.68259108218E+03 -0.74423659547E+03  0.21871274013E+04  0.24090132762E+04  0.25500000920E-02 0. -1.
       -2    1    3    3    0  502  0.68259108218E+03  0.74423659547E+03 -0.69350995604E+03  0.12250611228E+04  0.25500000920E-02 0.  1.
</event>
<event>
 5   0  0.2703956E-07  0.3300887E+04  0.7818609E-02  0.8162670E-01
        2   -1    0    0  501    0  0.00000000000E+00  0.00000000000E+00  0.19030704755E+04  0.19030704755E+04  0.25500000920E-02 0.  1.
       -2   -1    0    0    0  501  0.00000000000E+00  0.00000000000E+00 -0.14313520135E+04  0.14313520135E+04  0.25500000920E-02 0. -1.
    10030    2    1    2    0    0  0.00000000000E+00  0.00000000000E+00  0.47171846207E+03  0.33344224890E+04  0.33008870062E+04 0.  0.
        5    1    3    3  502    0  0.64702330216E+03 -0.63690778849E+03  0.16281401671E+04  0.18641762734E+04  0.46999998093E+01 0.  1.
       -5    1    3    3    0  502 -0.64702330216E+03  0.63690778849E+03 -0.11564217051E+04  0.14702462156E+04  0.46999998093E+01 0. -1.
</event>
<event>
 5   0  0.9283910E-08  0.3298827E+04  0.7818609E-02  0.8163194E-01
        1   -1    0    0  501    0  0.00000000000E+00  0.00000000000E+00  0.18078143181E+04  0.18078143181E+04  0.50400001928E-02 0. -1.
       -1   -1    0    0    0  501  0.00000000000E+00  0.00000000000E+00 -0.15048916395E+04  0.15048916395E+04  0.50400001928E-02 0.  1.
    10030    2    1    2    0    0  0.00000000000E+00  0.00000000000E+00  0.30292267855E+03  0.33127059576E+04  0.32988268539E+04 0.  0.
        3    1    3    3  502    0  0.85668022287E+03  0.11622005663E+04 -0.64936074721E+03  0.15831236688E+04  0.10100000352E+00 0.  1.
       -3    1    3    3    0  502 -0.85668022287E+03 -0.11622005663E+04  0.95228342576E+03  0.17295822888E+04  0.10100000352E+00 0. -1.
</event>
<event>
 5   0  0.9181760E-08  0.3289656E+04  0.7818609E-02  0.8165532E-01
       -1   -1    0    0    0  501  0.00000000000E+00  0.00000000000E+00  0.12687120979E+04  0.12687120979E+04  0.50400001928E-02 0.  1.
        1   -1    0    0  501    0  0.00000000000E+00  0.00000000000E+00 -0.21324455996E+04  0.21324455996E+04  0.50400001928E-02 0. -1.
    10030    2    1    2    0    0  0.00000000000E+00  0.00000000000E+00 -0.86373350170E+03  0.34011576976E+04  0.32896562315E+04 0.  0.
        1    1    3    3  502    0  0.13429734683E+02  0.89925671239E+03  0.99198908231E+03  0.13389866810E+04  0.50400001928E-02 0.  1.
       -1    1    3    3    0  502 -0.13429734683E+02 -0.89925671239E+03 -0.18557225840E+04  0.20621710165E+04  0.50400001928E-02 0. -1.
</event>
<event>
 5   0  0.9810351E-08  0.3308155E+04  0.7818609E-02  0.8160823E-01
        1   -1    0    0  501    0  0.00000000000E+00  0.00000000000E+00  0.23717438108E+04  0.23717438108E+04  0.50400001928E-02 0.  1.
       -1   -1    0    0    0  501  0.00000000000E+00  0.00000000000E+00 -0.11535699311E+04  0.11535699311E+04  0.50400001928E-02 0. -1.
    10030    2    1    2    0    0  0.00000000000E+00  0.00000000000E+00  0.12181738796E+04  0.35253137419E+04  0.33081549809E+04 0.  0.
        5    1    3    3  502    0 -0.53639222733E+03 -0.63517187728E+03 -0.91474234951E+03  0.12360969182E+04  0.46999998093E+01 0. -1.
       -5    1    3    3    0  502  0.53639222733E+03  0.63517187728E+03  0.21329162291E+04  0.22892168237E+04  0.46999998093E+01 0.  1.
</event>
<event>
 5   0  0.9283910E-08  0.3312570E+04  0.7818609E-02  0.8159704E-01
        1   -1    0    0  501    0  0.00000000000E+00  0.00000000000E+00  0.12122054468E+04  0.12122054468E+04  0.50400001928E-02 0.  1.
       -1   -1    0    0    0  501  0.00000000000E+00  0.00000000000E+00 -0.22630482103E+04  0.22630482103E+04  0.50400001928E-02 0. -1.
    10030    2    1    2    0    0  0.00000000000E+00  0.00000000000E+00 -0.10508427635E+04  0.34752536572E+04  0.33125696171E+04 0.  0.
        3    1    3    3  502    0  0.80268270149E+03  0.49114144927E+03  0.90451359299E+03  0.13052449167E+04  0.10100000352E+00 0.  1.
       -3    1    3    3    0  502 -0.80268270149E+03 -0.49114144927E+03 -0.19553563565E+04  0.21700087405E+04  0.10100000352E+00 0. -1.
</event>
<event>
 5   0  0.2703956E-07  0.3297893E+04  0.7818609E-02  0.8163432E-01
       -2   -1    0    0    0  501  0.00000000000E+00  0.00000000000E+00  0.11108896998E+04  0.11108896998E+04  0.25500000920E-02 0. -1.
        2   -1    0    0  501    0  0.00000000000E+00  0.00000000000E+00 -0.24476091626E+04  0.24476091626E+04  0.25500000920E-02 0.  1.
    10030    2    1    2    0    0  0.00000000000E+00  0.00000000000E+00 -0.13367194628E+04  0.35584988623E+04  0.32978925439E+04 0.  0.
        5    1    3    3  502    0  0.68951798042E+03  0.86704698875E+03 -0.19862676808E+04  0.22743102066E+04  0.46999998093E+01 0.  1.
       -5    1    3    3    0  502 -0.68951798042E+03 -0.86704698875E+03  0.64954821799E+03  0.12841886557E+04  0.46999998093E+01 0. -1.
</event>
<event>
 5   0  0.2703956E-07  0.3300670E+04  0.7818609E-02  0.8162725E-01
       -2   -1    0    0    0  501  0.00000000000E+00  0.00000000000E+00  0.19544036124E+04  0.19544036124E+04  0.25500000920E-02 0. -1.
        2   -1    0    0  501    0  0.00000000000E+00  0.00000000000E+00 -0.13935740125E+04  0.13935740125E+04  0.25500000920E-02 0.  1.
    10030    2    1    2    0    0  0.00000000000E+00  0.00000000000E+00  0.56082959997E+03  0.33479776249E+04  0.33006702859E+04 0.  0.
        5    1    3    3  502    0  0.24230287147E+03  0.67062697434E+03  0.17900787510E+04  0.19268770705E+04  0.46999998093E+01 0. -1.
       -5    1    3    3    0  502 -0.24230287147E+03 -0.67062697434E+03 -0.12292491510E+04  0.14211005543E+04  0.46999998093E+01 0.  1.
</event>
<event>
 5   0  0.9181760E-08  0.3297948E+04  0.7818609E-02  0.8163418E-01
        1   -1    0    0  501    0  0.00000000000E+00  0.00000000000E+00  0.18916019574E+04  0.18916019574E+04  0.50400001928E-02 0. -1.
       -1   -1    0    0    0  501  0.00000000000E+00  0.00000000000E+00 -0.14374668080E+04  0.14374668080E+04  0.50400001928E-02 0.  1.
    10030    2    1    2    0    0  0.00000000000E+00  0.00000000000E+00  0.45413514934E+03  0.33290687654E+04  0.32979478636E+04 0.  0.
        1    1    3    3  502    0 -0.19742494048E+03 -0.14606213588E+04  0.97345259971E+03  0.17663525483E+04  0.50400001928E-02 0. -1.
       -1    1    3    3    0  502  0.19742494048E+03  0.14606213588E+04 -0.51931745037E+03  0.15627162171E+04  0.50400001928E-02 0.  1.
</event>
<event>
 5   0  0.8805125E-08  0.3300610E+04  0.7818609E-02  0.8162740E-01
        3   -1    0    0  501    0  0.00000000000E+00  0.00000000000E+00  0.14374516405E+04  0.14374516440E+04  0.10100000352E+00 0. -1.
       -3   -1    0    0    0  501  0.00000000000E+00  0.00000000000E+00 -0.18946774719E+04  0.18946774746E+04  0.10100000352E+00 0.  1.
    10030    2    1    2    0    0  0.00000000000E+00  0.00000000000E+00 -0.45722583147E+03  0.33321291186E+04  0.33006103984E+04 0.  0.
        2    1    3    3  502    0 -0.39358185013E+03 -0.15706433432E+04  0.93305238184E+02  0.16218918126E+04  0.25500000920E-02 0.  1.
       -2    1    3    3    0  502  0.39358185013E+03  0.15706433432E+04 -0.55053106965E+03  0.17102373060E+04  0.25500000920E-02 0. -1.
</event>
<event>
 5   0  0.2875829E-07  0.3261396E+04  0.7818609E-02  0.8172788E-01
        2   -1    0    0  501    0  0.00000000000E+00  0.00000000000E+00  0.18784293809E+04  0.18784293809E+04  0.25500000920E-02 0.  1.
       -2   -1    0    0    0  501  0.00000000000E+00  0.00000000000E+00 -0.14156377140E+04  0.14156377140E+04  0.25500000920E-02 0. -1.
    10030    2    1    2    0    0  0.00000000000E+00  0.00000000000E+00  0.46279166692E+03  0.32940670949E+04  0.32613956980E+04 0.  0.
        3    1    3    3  502    0  0.79803947889E+03  0.23953048995E+03  0.16471990225E+04  0.18459432536E+04  0.10100000352E+00 0.  1.
       -3    1    3    3    0  502 -0.79803947889E+03 -0.23953048995E+03 -0.11844073556E+04  0.14481238413E+04  0.10100000352E+00 0. -1.
</event>
<event>
 5   0  0.2703956E-07  0.3301765E+04  0.7818609E-02  0.8162446E-01
       -2   -1    0    0    0  501  0.00000000000E+00  0.00000000000E+00  0.16068641633E+04  0.16068641633E+04  0.25500000920E-02 0. -1.
        2   -1    0    0  501    0  0.00000000000E+00  0.00000000000E+00 -0.16961067788E+04  0.16961067788E+04  0.25500000920E-02 0.  1.
    10030    2    1    2    0    0  0.00000000000E+00  0.00000000000E+00 -0.89242615554E+02  0.33029709421E+04  0.33017651037E+04 0.  0.
        5    1    3    3  502    0 -0.81294509817E+03  0.20515700980E+02  0.13925976778E+04  0.16126534063E+04  0.46999998093E+01 0. -1.
       -5    1    3    3    0  502  0.81294509817E+03 -0.20515700980E+02 -0.14818402934E+04  0.16903175358E+04  0.46999998093E+01 0.  1.
</event>
<event>
 5   0  0.2713815E-07  0.3306750E+04  0.7818609E-02  0.8161180E-01
       -2   -1    0    0    0  501  0.00000000000E+00  0.00000000000E+00  0.10519301637E+04  0.10519301637E+04  0.25500000920E-02 0. -1.
        2   -1    0    0  501    0  0.00000000000E+00  0.00000000000E+00 -0.25986985762E+04  0.25986985762E+04  0.25500000920E-02 0.  1.
    10030    2    1    2    0    0  0.00000000000E+00  0.00000000000E+00 -0.15467684125E+04  0.36506287399E+04  0.33067503194E+04 0.  0.
        4    1    3    3  502    0  0.46831134420E+02 -0.83525647263E+03  0.80103551831E+03  0.11582340198E+04  0.12699999809E+01 0. -1.
       -4    1    3    3    0  502 -0.46831134420E+02  0.83525647263E+03 -0.23478039308E+04  0.24923947201E+04  0.12699999809E+01 0.  1.
</event>
<event>
 5   0  0.9283910E-08  0.3298896E+04  0.7818609E-02  0.8163176E-01
       -1   -1    0    0    0  501  0.00000000000E+00  0.00000000000E+00  0.13711600458E+04  0.13711600458E+04  0.50400001928E-02 0. -1.
        1   -1    0    0  501    0  0.00000000000E+00  0.00000000000E+00 -0.19842167419E+04  0.19842167419E+04  0.50400001928E-02 0.  1.
    10030    2    1    2    0    0  0.00000000000E+00  0.00000000000E+00 -0.61305669607E+03  0.33553767878E+04  0.32988960085E+04 0.  0.
        3    1    3    3  502    0  0.19538952202E+03 -0.15255175362E+03 -0.19651624447E+04  0.19807353551E+04  0.10100000352E+00 0.  1.
       -3    1    3    3    0  502 -0.19538952202E+03  0.15255175362E+03  0.13521057486E+04  0.13746414327E+04  0.10100000352E+00 0. -1.
</event>
<event>
 5   0  0.8805125E-08  0.3299008E+04  0.7818609E-02  0.8163148E-01
        1   -1    0    0  501    0  0.00000000000E+00  0.00000000000E+00  0.14730341225E+04  0.14730341225E+04  0.50400001928E-02 0.  1.
       -1   -1    0    0    0  501  0.00000000000E+00  0.00000000000E+00 -0.18471147159E+04  0.18471147159E+04  0.50400001928E-02 0. -1.
    10030    2    1    2    0    0  0.00000000000E+00  0.00000000000E+00 -0.37408059344E+03  0.33201488384E+04  0.32990077324E+04 0.  0.
        4    1    3    3  502    0  0.12113266975E+03 -0.15816621012E+04  0.26811143116E+03  0.16087925530E+04  0.12699999809E+01 0. -1.
       -4    1    3    3    0  502 -0.12113266975E+03  0.15816621012E+04 -0.64219202460E+03  0.17113562854E+04  0.12699999809E+01 0.  1.
</event>
<event>
 5   0  0.8805125E-08  0.3300770E+04  0.7818609E-02  0.8162700E-01
       -1   -1    0    0    0  501  0.00000000000E+00  0.00000000000E+00  0.13978038927E+04  0.13978038927E+04  0.50400001928E-02 0.  1.
        1   -1    0    0  501    0  0.00000000000E+00  0.00000000000E+00 -0.19486067874E+04  0.19486067874E+04  0.50400001928E-02 0. -1.
    10030    2    1    2    0    0  0.00000000000E+00  0.00000000000E+00 -0.55080289469E+03  0.33464106801E+04  0.33007696998E+04 0.  0.
        4    1    3    3  502    0 -0.14732305675E+04  0.71074753158E+03 -0.49797796237E+03  0.17098403500E+04  0.12699999809E+01 0. -1.
       -4    1    3    3    0  502  0.14732305675E+04 -0.71074753158E+03 -0.52824932316E+02  0.16365703300E+04  0.12699999809E+01 0.  1.
</event>
<event>
 5   0  0.8805125E-08  0.3298777E+04  0.7818609E-02  0.8163207E-01
        1   -1    0    0  501    0  0.00000000000E+00  0.00000000000E+00  0.13570224010E+04  0.13570224010E+04  0.50400001928E-02 0.  1.
       -1   -1    0    0    0  501  0.00000000000E+00  0.00000000000E+00 -0.20047441004E+04  0.20047441004E+04  0.50400001928E-02 0. -1.
    10030    2    1    2    0    0  0.00000000000E+00  0.00000000000E+00 -0.64772169937E+03  0.33617665014E+04  0.32987771386E+04 0.  0.
        4    1    3    3  502    0 -0.90801983395E+03  0.97851903285E+03 -0.13111115092E+04  0.18710998153E+04  0.12699999809E+01 0. -1.
       -4    1    3    3    0  502  0.90801983395E+03 -0.97851903285E+03  0.66338980979E+03  0.14906666861E+04  0.12699999809E+01 0.  1.
</event>
<event>
 5   0  0.9181760E-08  0.3271613E+04  0.7818609E-02  0.8170156E-01
       -1   -1    0    0    0  501  0.00000000000E+00  0.00000000000E+00  0.17605267599E+04  0.17605267599E+04  0.50400001928E-02 0. -1.
        1   -1    0    0  501    0  0.00000000000E+00  0.00000000000E+00 -0.15199219805E+04  0.15199219805E+04  0.50400001928E-02 0.  1.
    10030    2    1    2    0    0  0.00000000000E+00  0.00000000000E+00  0.24060477947E+03  0.32804487404E+04  0.32716132532E+04 0.  0.
        1    1    3    3  502    0  0.13507208441E+04 -0.96217435168E+02 -0.79986804165E+03  0.15727343951E+04  0.50400001928E-02 0.  1.
       -1    1    3    3    0  502 -0.13507208441E+04  0.96217435168E+02  0.10404728211E+04  0.17077143453E+04  0.50400001928E-02 0. -1.
</event>
<event>
 5   0  0.9810351E-08  0.3299088E+04  0.7818609E-02  0.8163128E-01
       -1   -1    0    0    0  501  0.00000000000E+00  0.00000000000E+00  0.11346382550E+04  0.11346382550E+04  0.50400001928E-02 0.  1.
        1   -1    0    0  501    0  0.00000000000E+00  0.00000000000E+00 -0.23981166507E+04  0.23981166507E+04  0.50400001928E-02 0. -1.
    10030    2    1    2    0    0  0.00000000000E+00  0.00000000000E+00 -0.12634783957E+04  0.35327549057E+04  0.32990876871E+04 0.  0.
        5    1    3    3  502    0 -0.18575435818E+03  0.11486463700E+04 -0.18837744484E+04  0.22141638213E+04  0.46999998093E+01 0. -1.
       -5    1    3    3    0  502  0.18575435818E+03 -0.11486463700E+04  0.62029605270E+03  0.13185910844E+04  0.46999998093E+01 0.  1.
</event>
<event>
 5   0  0.2713815E-07  0.3294512E+04  0.7818609E-02  0.8164293E-01
       -2   -1    0    0    0  501  0.00000000000E+00  0.00000000000E+00  0.20109476738E+04  0.20109476738E+04  0.25500000920E-02 0.  1.
        2   -1    0    0  501    0  0.00000000000E+00  0.00000000000E+00 -0.13493400599E+04  0.13493400599E+04  0.25500000920E-02 0. -1.
    10030    2    1    2    0    0  0.00000000000E+00  0.00000000000E+00  0.66160761383E+03  0.33602877337E+04  0.32945119545E+04 0.  0.
        4    1    3    3  502    0  0.80978412682E+03 -0.13614704413E+04  0.79159623660E+03  0.17708693654E+04  0.12699999809E+01 0.  1.
       -4    1    3    3    0  502 -0.80978412682E+03  0.13614704413E+04 -0.12998862277E+03  0.15894183683E+04  0.12699999809E+01 0. -1.
</event>
<event>
 5   0  0.8805125E-08  0.3297991E+04  0.7818609E-02  0.8163407E-01
       -3   -1    0    0    0  501  0.00000000000E+00  0.00000000000E+00  0.20251959723E+04  0.20251959748E+04  0.10100000352E+00 0.  1.
        3   -1    0    0  501    0  0.00000000000E+00  0.00000000000E+00 -0.13426780241E+04  0.13426780279E+04  0.10100000352E+00 0. -1.
    10030    2    1    2    0    0  0.00000000000E+00  0.00000000000E+00  0.68251794823E+03  0.33678740027E+04  0.32979909867E+04 0.  0.
        2    1    3    3  502    0 -0.50981010469E+03 -0.53648218068E+03  0.18460734293E+04  0.19888958192E+04  0.25500000920E-02 0.  1.
       -2    1    3    3    0  502  0.50981010469E+03  0.53648218068E+03 -0.11635554811E+04  0.13789781835E+04  0.25500000920E-02 0. -1.
</event>
<event>
 5   0  0.2713815E-07  0.3287360E+04  0.7818609E-02  0.8166119E-01
       -2   -1    0    0    0  501  0.00000000000E+00  0.00000000000E+00  0.14149723828E+04  0.14149723828E+04  0.25500000920E-02 0. -1.
        2   -1    0    0  501    0  0.00000000000E+00  0.00000000000E+00 -0.19093542788E+04  0.19093542788E+04  0.25500000920E-02 0.  1.
    10030    2    1    2    0    0  0.00000000000E+00  0.00000000000E+00 -0.49438189596E+03  0.33243266616E+04  0.32873597756E+04 0.  0.
        4    1    3    3  502    0  0.14180417429E+04 -0.49066501694E+03  0.43123881412E+03  0.15612696984E+04  0.12699999809E+01 0. -1.
       -4    1    3    3    0  502 -0.14180417429E+04  0.49066501694E+03 -0.92562071008E+03  0.17630569632E+04  0.12699999809E+01 0.  1.
</event>
<event>
 5   0  0.9181760E-08  0.3300837E+04  0.7818609E-02  0.8162683E-01
        1   -1    0    0  501    0  0.00000000000E+00  0.00000000000E+00  0.13931483127E+04  0.13931483127E+04  0.50400001928E-02 0. -1.
       -1   -1    0    0    0  501  0.00000000000E+00  0.00000000000E+00 -0.19551978164E+04  0.19551978164E+04  0.50400001928E-02 0.  1.
    10030    2    1    2    0    0  0.00000000000E+00  0.00000000000E+00 -0.56204950367E+03  0.33483461291E+04  0.33008365842E+04 0.  0.
        1    1    3    3  502    0 -0.30260310920E+03 -0.13633783722E+04 -0.11731784014E+04  0.18239289430E+04  0.50400001928E-02 0.  1.
       -1    1    3    3    0  502  0.30260310920E+03  0.13633783722E+04  0.61112889777E+03  0.15244171861E+04  0.50400001928E-02 0. -1.
</event>
<event>
 5   0  0.2824402E-07  0.3297402E+04  0.7818609E-02  0.8163557E-01
        2   -1    0    0  501    0  0.00000000000E+00  0.00000000000E+00  0.32231691805E+04  0.32231691805E+04  0.25500000920E-02 0. -1.
       -2   -1    0    0    0  501  0.00000000000E+00  0.00000000000E+00 -0.84333629976E+03  0.84333629976E+03  0.25500000920E-02 0.  1.
    10030    2    1    2    0    0  0.00000000000E+00  0.00000000000E+00  0.23798328808E+04  0.40665054803E+04  0.32974023535E+04 0.  0.
        1    1    3    3  502    0 -0.12829906734E+04 -0.10162517446E+04  0.14346554677E+04  0.21764808723E+04  0.50400001928E-02 0.  1.
       -1    1    3    3    0  502  0.12829906734E+04  0.10162517446E+04  0.94517741300E+03  0.18900246079E+04  0.50400001928E-02 0. -1.
</event>
<event>
 5   0  0.9283910E-08  0.3302292E+04  0.7818609E-02  0.8162312E-01
       -1   -1    0    0    0  501  0.00000000000E+00  0.00000000000E+00  0.15971960061E+04  0.15971960061E+04  0.50400001928E-02 0.  1.
        1   -1    0    0  501    0  0.00000000000E+00  0.00000000000E+00 -0.17069182134E+04  0.17069182134E+04  0.50400001928E-02 0. -1.
    10030    2    1    2    0    0  0.00000000000E+00  0.00000000000E+00 -0.10972220732E+03  0.33041142195E+04  0.33022919030E+04 0.  0.
        3    1    3    3  502    0 -0.13437182136E+04  0.24365126467E+03 -0.98345641931E+03  0.16828936732E+04  0.10100000352E+00 0. -1.
       -3    1    3    3    0  502  0.13437182136E+04 -0.24365126467E+03  0.87373421199E+03  0.16212205463E+04  0.10100000352E+00 0.  1.
</event>
<event>
 5   0  0.2727168E-07  0.3295606E+04  0.7818609E-02  0.8164014E-01
       -2   -1    0    0    0  501  0.00000000000E+00  0.00000000000E+00  0.15103078190E+04  0.15103078190E+04  0.25500000920E-02 0.  1.
        2   -1    0    0  501    0  0.00000000000E+00  0.00000000000E+00 -0.17978158311E+04  0.17978158311E+04  0.25500000920E-02 0. -1.
    10030    2    1    2    0    0  0.00000000000E+00  0.00000000000E+00 -0.28750801216E+03  0.33081236501E+04  0.32956063520E+04 0.  0.
        2    1    3    3  502    0  0.81929930632E+03 -0.12561434387E+04 -0.82906784518E+03  0.17136222407E+04  0.25500000920E-02 0.  1.
       -2    1    3    3    0  502 -0.81929930632E+03  0.12561434387E+04  0.54155983302E+03  0.15945014094E+04  0.25500000920E-02 0. -1.
</event>
<event>
 5   0  0.9181760E-08  0.3298566E+04  0.7818609E-02  0.8163260E-01
        1   -1    0    0  501    0  0.00000000000E+00  0.00000000000E+00  0.17262744599E+04  0.17262744599E+04  0.50400001928E-02 0.  1.
       -1   -1    0    0    0  501  0.00000000000E+00  0.00000000000E+00 -0.15757249964E+04  0.15757249964E+04  0.50400001928E-02 0. -1.
    10030    2    1    2    0    0  0.00000000000E+00  0.00000000000E+00  0.15054946349E+03  0.33019994564E+04  0.32985656381E+04 0.  0.
        1    1    3    3  502    0  0.20040763233E+03  0.96075877669E+03 -0.12515911170E+04  0.15905033701E+04  0.50400001928E-02 0. -1.
       -1    1    3    3    0  502 -0.20040763233E+03 -0.96075877669E+03  0.14021405804E+04  0.17114960863E+04  0.50400001928E-02 0.  1.
</event>
<event>
 5   0  0.9283910E-08  0.3298128E+04  0.7818609E-02  0.8163372E-01
       -1   -1    0    0    0  501  0.00000000000E+00  0.00000000000E+00  0.13545255072E+04  0.13545255073E+04  0.50400001928E-02 0.  1.
        1   -1    0    0  501    0  0.00000000000E+00  0.00000000000E+00 -0.20076498005E+04  0.20076498005E+04  0.50400001928E-02 0. -1.
    10030    2    1    2    0    0  0.00000000000E+00  0.00000000000E+00 -0.65312429324E+03  0.33621753077E+04  0.32981284780E+04 0.  0.
        3    1    3    3  502    0  0.73567330176E+03  0.11779577009E+04  0.57986904823E+03  0.15050075333E+04  0.10100000352E+00 0. -1.
       -3    1    3    3    0  502 -0.73567330176E+03 -0.11779577009E+04 -0.12329933415E+04  0.18571677744E+04  0.10100000352E+00 0.  1.
</event>
<event>
 5   0  0.9181760E-08  0.3301031E+04  0.7818609E-02  0.8162633E-01
       -1   -1    0    0    0  501  0.00000000000E+00  0.00000000000E+00  0.20023921274E+04  0.20023921274E+04  0.50400001928E-02 0.  1.
        1   -1    0    0  501    0  0.00000000000E+00  0.00000000000E+00 -0.13604738781E+04  0.13604738781E+04  0.50400001928E-02 0. -1.
    10030    2    1    2    0    0  0.00000000000E+00  0.00000000000E+00  0.64191824931E+03  0.33628660055E+04  0.33010314649E+04 0.  0.
        1    1    3    3  502    0  0.13758878690E+04  0.89682957226E+03  0.48783062012E+03  0.17132861477E+04  0.50400001928E-02 0. -1.
       -1    1    3    3    0  502 -0.13758878690E+04 -0.89682957226E+03  0.15408762919E+03  0.16495798578E+04  0.50400001928E-02 0.  1.
</event>
<event>
 5   0  0.2703956E-07  0.3296365E+04  0.7818609E-02  0.8163821E-01
        2   -1    0    0  501    0  0.00000000000E+00  0.00000000000E+00  0.20429419281E+04  0.20429419281E+04  0.25500000920E-02 0. -1.
       -2   -1    0    0    0  501  0.00000000000E+00  0.00000000000E+00 -0.13297026304E+04  0.13297026304E+04  0.25500000920E-02 0.  1.
    10030    2    1    2    0    0  0.00000000000E+00  0.00000000000E+00  0.71323929768E+03  0.33726445585E+04  0.32963648193E+04 0.  0.
        5    1    3    3  502    0 -0.11701287523E+04 -0.11225446049E+04  0.65870695255E+03  0.17502070239E+04  0.46999998093E+01 0.  1.
       -5    1    3    3    0  502  0.11701287523E+04  0.11225446049E+04  0.54532345127E+02  0.16224375346E+04  0.46999998093E+01 0. -1.
</event>
<event>
 5   0  0.2875829E-07  0.3304626E+04  0.7818609E-02  0.8161719E-01
       -2   -1    0    0    0  501  0.00000000000E+00  0.00000000000E+00  0.24230164462E+04  0.24230164462E+04  0.25500000920E-02 0.  1.
        2   -1    0    0  501    0  0.00000000000E+00  0.00000000000E+00 -0.11267518355E+04  0.11267518355E+04  0.25500000920E-02 0. -1.
    10030    2    1    2    0    0  0.00000000000E+00  0.00000000000E+00  0.12962646107E+04  0.35497682816E+04  0.33046259868E+04 0.  0.
        3    1    3    3  502    0 -0.60400161106E+03 -0.15268821640E+04  0.84605919544E+03  0.18471608650E+04  0.10100000352E+00 0.  1.
       -3    1    3    3    0  502  0.60400161106E+03  0.15268821640E+04  0.45020541524E+03  0.17026074166E+04  0.10100000352E+00 0. -1.
</event>
<event>
 5   0  0.2824402E-07  0.3300052E+04  0.7818609E-02  0.8162882E-01
        2   -1    0    0  501    0  0.00000000000E+00  0.00000000000E+00  0.19177946105E+04  0.19177946105E+04  0.25500000920E-02 0. -1.
       -2   -1    0    0    0  501  0.00000000000E+00  0.00000000000E+00 -0.14196442017E+04  0.14196442017E+04  0.25500000920E-02 0.  1.
    10030    2    1    2    0    0  0.00000000000E+00  0.00000000000E+00  0.49815040879E+03  0.33374388122E+04  0.33000521201E+04 0.  0.
        1    1    3    3  502    0  0.15467172953E+04 -0.44885691824E+03  0.61199876430E+03  0.17228898433E+04  0.50400001928E-02 0. -1.
       -1    1    3    3    0  502 -0.15467172953E+04  0.44885691824E+03 -0.11384835551E+03  0.16145489688E+04  0.50400001928E-02 0.  1.
</event>
<event>
 5   0  0.9454010E-08  0.3302048E+04  0.7818609E-02  0.8162374E-01
        1   -1    0    0  501    0  0.00000000000E+00  0.00000000000E+00  0.11458332811E+04  0.11458332812E+04  0.50400001928E-02 0.  1.
       -1   -1    0    0    0  501  0.00000000000E+00  0.00000000000E+00 -0.23789505263E+04  0.23789505263E+04  0.50400001928E-02 0. -1.
    10030    2    1    2    0    0  0.00000000000E+00  0.00000000000E+00 -0.12331172451E+04  0.35247838075E+04  0.33020482657E+04 0.  0.
        2    1    3    3  502    0  0.13494773695E+03 -0.16006732682E+04 -0.20936330390E+03  0.16199378989E+04  0.25500000920E-02 0. -1.
       -2    1    3    3    0  502 -0.13494773695E+03  0.16006732682E+04 -0.10237539413E+04  0.19048459086E+04  0.25500000920E-02 0.  1.
</event>
<event>
 5   0  0.9181760E-08  0.3282310E+04  0.7818609E-02  0.8167411E-01
        1   -1    0    0  501    0  0.00000000000E+00  0.00000000000E+00  0.20780413183E+04  0.20780413183E+04  0.50400001928E-02 0.  1.
       -1   -1    0    0    0  501  0.00000000000E+00  0.00000000000E+00 -0.12961194280E+04  0.12961194280E+04  0.50400001928E-02 0. -1.
    10030    2    1    2    0    0  0.00000000000E+00  0.00000000000E+00  0.78192189026E+03  0.33741607463E+04  0.32823099944E+04 0.  0.
        1    1    3    3  502    0 -0.10799300870E+04 -0.13309546179E+03 -0.87200643652E+03  0.13944026033E+04  0.50400001928E-02 0. -1.
       -1    1    3    3    0  502  0.10799300870E+04  0.13309546179E+03  0.16539283268E+04  0.19797581430E+04  0.50400001928E-02 0.  1.
</event>
<event>
 5   0  0.2703956E-07  0.3288792E+04  0.7818609E-02  0.8165753E-01
       -2   -1    0    0    0  501  0.00000000000E+00  0.00000000000E+00  0.13232933167E+04  0.13232933167E+04  0.25500000920E-02 0.  1.
        2   -1    0    0  501    0  0.00000000000E+00  0.00000000000E+00 -0.20434161582E+04  0.20434161582E+04  0.25500000920E-02 0. -1.
    10030    2    1    2    0    0  0.00000000000E+00  0.00000000000E+00 -0.72012284154E+03  0.33667094749E+04  0.32887924504E+04 0.  0.
        5    1    3    3  502    0 -0.24456673194E+03 -0.11809137080E+04  0.78429895647E+03  0.14385815984E+04  0.46999998093E+01 0.  1.
       -5    1    3    3    0  502  0.24456673194E+03  0.11809137080E+04 -0.15044217980E+04  0.19281278766E+04  0.46999998093E+01 0. -1.
</event>
<event>
 5   0  0.9810351E-08  0.3303418E+04  0.7818609E-02  0.8162026E-01
        1   -1    0    0  501    0  0.00000000000E+00  0.00000000000E+00  0.12300244495E+04  0.12300244495E+04  0.50400001928E-02 0. -1.
       -1   -1    0    0    0  501  0.00000000000E+00  0.00000000000E+00 -0.22179574750E+04  0.22179574750E+04  0.50400001928E-02 0.  1.
    10030    2    1    2    0    0  0.00000000000E+00  0.00000000000E+00 -0.98793302548E+03  0.34479819245E+04  0.33034175771E+04 0.  0.
        5    1    3    3  502    0 -0.96769571002E+03 -0.67818056580E+03 -0.16984859998E+04  0.20691159099E+04  0.46999998093E+01 0.  1.
       -5    1    3    3    0  502  0.96769571002E+03  0.67818056580E+03  0.71055297432E+03  0.13788660146E+04  0.46999998093E+01 0. -1.
</event>
<event>
 5   0  0.8805125E-08  0.3296107E+04  0.7818609E-02  0.8163887E-01
       -1   -1    0    0    0  501  0.00000000000E+00  0.00000000000E+00  0.15219689884E+04  0.15219689884E+04  0.50400001928E-02 0. -1.
        1   -1    0    0  501    0  0.00000000000E+00  0.00000000000E+00 -0.17845833333E+04  0.17845833333E+04  0.50400001928E-02 0.  1.
    10030    2    1    2    0    0  0.00000000000E+00  0.00000000000E+00 -0.26261434489E+03  0.33065523217E+04  0.32961070920E+04 0.  0.
        4    1    3    3  502    0 -0.69353839116E+02 -0.10527704035E+04 -0.14013933202E+04  0.17541494601E+04  0.12699999809E+01 0.  1.
       -4    1    3    3    0  502  0.69353839116E+02  0.10527704035E+04  0.11387789753E+04  0.15524028617E+04  0.12699999809E+01 0. -1.
</event>
<event>
 5   0  0.2703956E-07  0.3383680E+04  0.7818609E-02  0.8141923E-01
        2   -1    0    0  501    0  0.00000000000E+00  0.00000000000E+00  0.20882722277E+04  0.20882722277E+04  0.25500000920E-02 0.  1.
       -2   -1    0    0    0  501  0.00000000000E+00  0.00000000000E+00 -0.13706655969E+04  0.13706655969E+04  0.25500000920E-02 0. -1.
    10030    2    1    2    0    0  0.00000000000E+00  0.00000000000E+00  0.71760663075E+03  0.34589378246E+04  0.33836801856E+04 0.  0.
        5    1    3    3  502    0  0.15307972291E+04 -0.58921286827E+03  0.78249596708E+03  0.18173700750E+04  0.46999998093E+01 0. -1.
       -5    1    3    3    0  502 -0.15307972291E+04  0.58921286827E+03 -0.64889336331E+02  0.16415677497E+04  0.46999998093E+01 0.  1.
</event>
<event>
 5   0  0.8805125E-08  0.3309089E+04  0.7818609E-02  0.8160586E-01
        3   -1    0    0  501    0  0.00000000000E+00  0.00000000000E+00  0.12939254423E+04  0.12939254463E+04  0.10100000352E+00 0.  1.
       -3   -1    0    0    0  501  0.00000000000E+00  0.00000000000E+00 -0.21156691522E+04  0.21156691546E+04  0.10100000352E+00 0. -1.
    10030    2    1    2    0    0  0.00000000000E+00  0.00000000000E+00 -0.82174370984E+03  0.34095946008E+04  0.33090893940E+04 0.  0.
        5    1    3    3  502    0 -0.33513852630E+03  0.13670687888E+04 -0.13069412162E+04  0.19207582716E+04  0.46999998093E+01 0. -1.
       -5    1    3    3    0  502  0.33513852630E+03 -0.13670687888E+04  0.48519750636E+03  0.14888363293E+04  0.46999998093E+01 0.  1.
</event>
<event>
 5   0  0.2703956E-07  0.3299211E+04  0.7818609E-02  0.8163096E-01
       -2   -1    0    0    0  501  0.00000000000E+00  0.00000000000E+00  0.91602639364E+03  0.91602639364E+03  0.25500000920E-02 0.  1.
        2   -1    0    0  501    0  0.00000000000E+00  0.00000000000E+00 -0.29706557918E+04  0.29706557918E+04  0.25500000920E-02 0. -1.
    10030    2    1    2    0    0  0.00000000000E+00  0.00000000000E+00 -0.20546293982E+04  0.38866821855E+04  0.32992114887E+04 0.  0.
        5    1    3    3  502    0  0.12665303710E+04 -0.22904822920E+03  0.18821370918E+03  0.13007723714E+04  0.46999998093E+01 0.  1.
       -5    1    3    3    0  502 -0.12665303710E+04  0.22904822920E+03 -0.22428431074E+04  0.25859098140E+04  0.46999998093E+01 0. -1.
</event>
<event>
 5   0  0.2713815E-07  0.3300835E+04  0.7818609E-02  0.8162683E-01
        2   -1    0    0  501    0  0.00000000000E+00  0.00000000000E+00  0.11379556507E+04  0.11379556507E+04  0.25500000920E-02 0. -1.
       -2   -1    0    0    0  501  0.00000000000E+00  0.00000000000E+00 -0.23936597798E+04  0.23936597798E+04  0.25500000920E-02 0.  1.
    10030    2    1    2    0    0  0.00000000000E+00  0.00000000000E+00 -0.12557041291E+04  0.35316154305E+04  0.33008354532E+04 0.  0.
        4    1    3    3  502    0  0.29778701413E+03 -0.11963750344E+04  0.54607832206E+03  0.13484040475E+04  0.12699999809E+01 0. -1.
       -4    1    3    3    0  502 -0.29778701413E+03  0.11963750344E+04 -0.18017824511E+04  0.21832113830E+04  0.12699999809E+01 0.  1.
</event>
<event>
 5   0  0.2824402E-07  0.3301308E+04  0.7818609E-02  0.8162563E-01
        2   -1    0    0  501    0  0.00000000000E+00  0.00000000000E+00  0.17239622326E+04  0.17239622326E+04  0.25500000920E-02 0.  1.
       -2   -1    0    0    0  501  0.00000000000E+00  0.00000000000E+00 -0.15804630673E+04  0.15804630673E+04  0.25500000920E-02 0. -1.
    10030    2    1    2    0    0  0.00000000000E+00  0.00000000000E+00  0.14349916533E+03  0.33044252999E+04  0.33013080063E+04 0.  0.
        1    1    3    3  502    0  0.10589666939E+04  0.75069318880E+03 -0.94887392884E+03  0.16078906851E+04  0.50400001928E-02 0. -1.
       -1    1    3    3    0  502 -0.10589666939E+04 -0.75069318880E+03  0.10923730942E+04  0.16965346148E+04  0.50400001928E-02 0.  1.
</event>
<event>
 5   0  0.2824402E-07  0.3301246E+04  0.7818609E-02  0.8162578E-01
       -2   -1    0    0    0  501  0.00000000000E+00  0.00000000000E+00  0.13295653498E+04  0.13295653498E+04  0.25500000920E-02 0. -1.
        2   -1    0    0  501    0  0.00000000000E+00  0.00000000000E+00 -0.20492080269E+04  0.20492080269E+04  0.25500000920E-02 0.  1.
    10030    2    1    2    0    0  0.00000000000E+00  0.00000000000E+00 -0.71964267713E+03  0.33787733767E+04  0.33012458176E+04 0.  0.
        1    1    3    3  502    0 -0.10504595408E+04  0.12447225530E+04 -0.85656445658E+02  0.16309924916E+04  0.50400001928E-02 0. -1.
       -1    1    3    3    0  502  0.10504595408E+04 -0.12447225530E+04 -0.63398623147E+03  0.17477808852E+04  0.50400001928E-02 0.  1.
</event>
<event>
 5   0  0.9454010E-08  0.3299149E+04  0.7818609E-02  0.8163112E-01
       -1   -1    0    0    0  501  0.00000000000E+00  0.00000000000E+00  0.11615819401E+04  0.11615819402E+04  0.50400001928E-02 0. -1.
        1   -1    0    0  501    0  0.00000000000E+00  0.00000000000E+00 -0.23425773224E+04  0.23425773224E+04  0.50400001928E-02 0.  1.
    10030    2    1    2    0    0  0.00000000000E+00  0.00000000000E+00 -0.11809953823E+04  0.35041592626E+04  0.32991486848E+04 0.  0.
        2    1    3    3  502    0  0.12204760919E+04 -0.41973000132E+03 -0.16816423569E+04  0.21198245638E+04  0.25500000920E-02 0.  1.
       -2    1    3    3    0  502 -0.12204760919E+04  0.41973000132E+03  0.50064697463E+03  0.13843346987E+04  0.25500000920E-02 0. -1.
</event>
<event>
 5   0  0.2824402E-07  0.3391784E+04  0.7818609E-02  0.8139926E-01
        2   -1    0    0  501    0  0.00000000000E+00  0.00000000000E+00  0.19834879405E+04  0.19834879405E+04  0.25500000920E-02 0.  1.
       -2   -1    0    0    0  501  0.00000000000E+00  0.00000000000E+00 -0.14499962305E+04  0.14499962305E+04  0.25500000920E-02 0. -1.
    10030    2    1    2    0    0  0.00000000000E+00  0.00000000000E+00  0.53349170992E+03  0.34334841710E+04  0.33917842131E+04 0.  0.
        1    1    3    3  502    0  0.15669351356E+04 -0.22765980466E+02  0.92297972795E+03  0.18187071197E+04  0.50400001928E-02 0.  1.
       -1    1    3    3    0  502 -0.15669351356E+04  0.22765980466E+02 -0.38948801803E+03  0.16147770513E+04  0.50400001928E-02 0. -1.
</event>
<event>
 5   0  0.9810351E-08  0.3293310E+04  0.7818609E-02  0.8164600E-01
       -1   -1    0    0    0  501  0.00000000000E+00  0.00000000000E+00  0.12709923621E+04  0.12709923622E+04  0.50400001928E-02 0. -1.
        1   -1    0    0  501    0  0.00000000000E+00  0.00000000000E+00 -0.21333509004E+04  0.21333509004E+04  0.50400001928E-02 0.  1.
    10030    2    1    2    0    0  0.00000000000E+00  0.00000000000E+00 -0.86235853827E+03  0.34043432626E+04  0.32933100068E+04 0.  0.
        5    1    3    3  502    0  0.14713597154E+04 -0.26143975548E+03 -0.11460141259E+04  0.18832473615E+04  0.46999998093E+01 0.  1.
       -5    1    3    3    0  502 -0.14713597154E+04  0.26143975548E+03  0.28365558767E+03  0.15210959011E+04  0.46999998093E+01 0. -1.
</event>
<event>
 5   0  0.9283910E-08  0.3296388E+04  0.7818609E-02  0.8163815E-01
       -1   -1    0    0    0  501  0.00000000000E+00  0.00000000000E+00  0.20161974390E+04  0.20161974390E+04  0.50400001928E-02 0. -1.
        1   -1    0    0  501    0  0.00000000000E+00  0.00000000000E+00 -0.13473597243E+04  0.13473597243E+04  0.50400001928E-02 0.  1.
    10030    2    1    2    0    0  0.00000000000E+00  0.00000000000E+00  0.66883771463E+03  0.33635571633E+04  0.32963878568E+04 0.  0.
        3    1    3    3  502    0 -0.60638235514E+03 -0.78412081716E+03 -0.10092270334E+04  0.14145968442E+04  0.10100000352E+00 0.  1.
       -3    1    3    3    0  502  0.60638235514E+03  0.78412081716E+03  0.16780647480E+04  0.19489603191E+04  0.10100000352E+00 0. -1.
</event>
<event>
 5   0  0.2713815E-07  0.3317284E+04  0.7818609E-02  0.8158511E-01
        2   -1    0    0  501    0  0.00000000000E+00  0.00000000000E+00  0.24259545202E+04  0.24259545202E+04  0.25500000920E-02 0.  1.
       -2   -1    0    0    0  501  0.00000000000E+00  0.00000000000E+00 -0.11340253450E+04  0.11340253450E+04  0.25500000920E-02 0. -1.
    10030    2    1    2    0    0  0.00000000000E+00  0.00000000000E+00  0.12919291752E+04  0.35599798652E+04  0.33172843784E+04 0.  0.
        4    1    3    3  502    0  0.48162730931E+03 -0.12878291001E+04 -0.34960466308E+03  0.14186943609E+04  0.12699999809E+01 0. -1.
       -4    1    3    3    0  502 -0.48162730931E+03  0.12878291001E+04  0.16415338383E+04  0.21412855044E+04  0.12699999809E+01 0.  1.
</event>
<event>
 5   0  0.9181760E-08  0.3298899E+04  0.7818609E-02  0.8163175E-01
        1   -1    0    0  501    0  0.00000000000E+00  0.00000000000E+00  0.12642219115E+04  0.12642219115E+04  0.50400001928E-02 0.  1.
       -1   -1    0    0    0  501  0.00000000000E+00  0.00000000000E+00 -0.21520623908E+04  0.21520623908E+04  0.50400001928E-02 0. -1.
    10030    2    1    2    0    0  0.00000000000E+00  0.00000000000E+00 -0.88784047928E+03  0.34162843023E+04  0.32988994707E+04 0.  0.
        1    1    3    3  502    0  0.10228880590E+04 -0.14958411192E+03  0.88711984366E+03  0.13622250199E+04  0.50400001928E-02 0.  1.
       -1    1    3    3    0  502 -0.10228880590E+04  0.14958411192E+03 -0.17749603229E+04  0.20540592824E+04  0.50400001928E-02 0. -1.
</event>
<event>
 5   0  0.2875829E-07  0.3298815E+04  0.7818609E-02  0.8163197E-01
       -2   -1    0    0    0  501  0.00000000000E+00  0.00000000000E+00  0.12159997319E+04  0.12159997319E+04  0.25500000920E-02 0.  1.
        2   -1    0    0  501    0  0.00000000000E+00  0.00000000000E+00 -0.22372913545E+04  0.22372913545E+04  0.25500000920E-02 0. -1.
    10030    2    1    2    0    0  0.00000000000E+00  0.00000000000E+00 -0.10212916226E+04  0.34532910864E+04  0.32988153554E+04 0.  0.
        3    1    3    3  502    0  0.83032091557E+03 -0.53142286416E+03  0.87366355467E+03  0.13172437513E+04  0.10100000352E+00 0.  1.
       -3    1    3    3    0  502 -0.83032091557E+03  0.53142286416E+03 -0.18949551773E+04  0.21360473351E+04  0.10100000352E+00 0. -1.
</event>
<event>
 5   0  0.2875829E-07  0.3296432E+04  0.7818609E-02  0.8163804E-01
       -2   -1    0    0    0  501  0.00000000000E+00  0.00000000000E+00  0.12266751515E+04  0.12266751515E+04  0.25500000920E-02 0. -1.
        2   -1    0    0  501    0  0.00000000000E+00  0.00000000000E+00 -0.22146179219E+04  0.22146179219E+04  0.25500000920E-02 0.  1.
    10030    2    1    2    0    0  0.00000000000E+00  0.00000000000E+00 -0.98794277042E+03  0.34412930734E+04  0.32964324806E+04 0.  0.
        3    1    3    3  502    0  0.34094652915E+03 -0.91607304543E+03 -0.18793856167E+04  0.21183778385E+04  0.10100000352E+00 0.  1.
       -3    1    3    3    0  502 -0.34094652915E+03  0.91607304543E+03  0.89144284625E+03  0.13229152349E+04  0.10100000352E+00 0. -1.
</event>
<event>
 5   0  0.2875829E-07  0.3298579E+04  0.7818609E-02  0.8163257E-01
       -2   -1    0    0    0  501  0.00000000000E+00  0.00000000000E+00  0.15025993067E+04  0.15025993067E+04  0.25500000920E-02 0. -1.
        2   -1    0    0  501    0  0.00000000000E+00  0.00000000000E+00 -0.18103007419E+04  0.18103007419E+04  0.25500000920E-02 0.  1.
    10030    2    1    2    0    0  0.00000000000E+00  0.00000000000E+00 -0.30770143513E+03  0.33129000486E+04  0.32985794759E+04 0.  0.
        3    1    3    3  502    0  0.58396011349E+03  0.10871073930E+04  0.94513230812E+03  0.15543767202E+04  0.10100000352E+00 0.  1.
       -3    1    3    3    0  502 -0.58396011349E+03 -0.10871073930E+04 -0.12528337433E+04  0.17585233284E+04  0.10100000352E+00 0. -1.
</event>
<event>
 5   0  0.9454010E-08  0.3302864E+04  0.7818609E-02  0.8162167E-01
        1   -1    0    0  501    0  0.00000000000E+00  0.00000000000E+00  0.27220108786E+04  0.27220108786E+04  0.50400001928E-02 0.  1.
       -1   -1    0    0    0  501  0.00000000000E+00  0.00000000000E+00 -0.10019163737E+04  0.10019163737E+04  0.50400001928E-02 0. -1.
    10030    2    1    2    0    0  0.00000000000E+00  0.00000000000E+00  0.17200945049E+04  0.37239272522E+04  0.33028637686E+04 0.  0.
        2    1    3    3  502    0  0.11510782551E+04 -0.70035171459E+03 -0.21654009032E+03  0.13646843167E+04  0.25500000920E-02 0. -1.
       -2    1    3    3    0  502 -0.11510782551E+04  0.70035171459E+03  0.19366345952E+04  0.23592429356E+04  0.25500000920E-02 0.  1.
</event>
<event>
 5   0  0.2703956E-07  0.3300907E+04  0.7818609E-02  0.8162665E-01
        2   -1    0    0  501    0  0.00000000000E+00  0.00000000000E+00  0.26759874741E+04  0.26759874741E+04  0.25500000920E-02 0. -1.
       -2   -1    0    0    0  501  0.00000000000E+00  0.00000000000E+00 -0.10179409013E+04  0.10179409013E+04  0.25500000920E-02 0.  1.
    10030    2    1    2    0    0  0.00000000000E+00  0.00000000000E+00  0.16580465729E+04  0.36939283754E+04  0.33009072093E+04 0.  0.
        5    1    3    3  502    0 -0.83454955878E+03  0.31368248682E+03  0.23833171271E+04  0.25446202638E+04  0.46999998093E+01 0. -1.
       -5    1    3    3    0  502  0.83454955878E+03 -0.31368248682E+03 -0.72527055421E+03  0.11493081116E+04  0.46999998093E+01 0.  1.
</event>
<event>
 5   0  0.2703956E-07  0.3312508E+04  0.7818609E-02  0.8159720E-01
        2   -1    0    0  501    0  0.00000000000E+00  0.00000000000E+00  0.19509393654E+04  0.19509393654E+04  0.25500000920E-02 0. -1.
       -2   -1    0    0    0  501  0.00000000000E+00  0.00000000000E+00 -0.14060804424E+04  0.14060804424E+04  0.25500000920E-02 0.  1.
    10030    2    1    2    0    0  0.00000000000E+00  0.00000000000E+00  0.54485892301E+03  0.33570198079E+04  0.33125082256E+04 0.  0.
        5    1    3    3  502    0 -0.15159059199E+04  0.56815782852E+03 -0.82102064306E+02  0.16209678946E+04  0.46999998093E+01 0.  1.
       -5    1    3    3    0  502  0.15159059199E+04 -0.56815782852E+03  0.62696098731E+03  0.17360519133E+04  0.46999998093E+01 0. -1.
</event>
<event>
 5   0  0.2713815E-07  0.3296614E+04  0.7818609E-02  0.8163757E-01
        2   -1    0    0  501    0  0.00000000000E+00  0.00000000000E+00  0.26253213407E+04  0.26253213407E+04  0.25500000920E-02 0. -1.
       -2   -1    0    0    0  501  0.00000000000E+00  0.00000000000E+00 -0.10348891158E+04  0.10348891158E+04  0.25500000920E-02 0.  1.
    10030    2    1    2    0    0  0.00000000000E+00  0.00000000000E+00  0.15904322249E+04  0.36602104566E+04  0.32966143124E+04 0.  0.
        4    1    3    3  502    0 -0.47794443358E+03  0.13893071989E+04 -0.34396649179E+02  0.14696224402E+04  0.12699999809E+01 0.  1.
       -4    1    3    3    0  502  0.47794443358E+03 -0.13893071989E+04  0.16248288741E+04  0.21905880163E+04  0.12699999809E+01 0. -1.
</event>
<event>
 5   0  0.2713815E-07  0.3301997E+04  0.7818609E-02  0.8162388E-01
       -2   -1    0    0    0  501  0.00000000000E+00  0.00000000000E+00  0.10118095533E+04  0.10118095533E+04  0.25500000920E-02 0. -1.
        2   -1    0    0  501    0  0.00000000000E+00  0.00000000000E+00 -0.26939806970E+04  0.26939806970E+04  0.25500000920E-02 0.  1.
    10030    2    1    2    0    0  0.00000000000E+00  0.00000000000E+00 -0.16821711436E+04  0.37057902503E+04  0.33019966116E+04 0.  0.
        4    1    3    3  502    0  0.47466653257E+03  0.64596881213E+03  0.77874918315E+03  0.11176027588E+04  0.12699999809E+01 0. -1.
       -4    1    3    3    0  502 -0.47466653257E+03 -0.64596881213E+03 -0.24609203268E+04  0.25881874915E+04  0.12699999809E+01 0.  1.
</event>
<event>
 5   0  0.8805125E-08  0.3302300E+04  0.7818609E-02  0.8162310E-01
       -1   -1    0    0    0  501  0.00000000000E+00  0.00000000000E+00  0.30853804184E+04  0.30853804184E+04  0.50400001928E-02 0. -1.
        1   -1    0    0  501    0  0.00000000000E+00  0.00000000000E+00 -0.88361772602E+03  0.88361772603E+03  0.50400001928E-02 0.  1.
    10030    2    1    2    0    0  0.00000000000E+00  0.00000000000E+00  0.22017626924E+04  0.39689981445E+04  0.33023003069E+04 0.  0.
        4    1    3    3  502    0  0.30853938995E+02  0.16240080707E+04  0.14572997517E+04  0.21822186779E+04  0.12699999809E+01 0. -1.
       -4    1    3    3    0  502 -0.30853938995E+02 -0.16240080707E+04  0.74446294073E+03  0.17867794666E+04  0.12699999809E+01 0.  1.
</event>
<event>
 5   0  0.2875829E-07  0.3313440E+04  0.7818609E-02  0.8159484E-01
       -2   -1    0    0    0  501  0.00000000000E+00  0.00000000000E+00  0.13668885891E+04  0.13668885891E+04  0.25500000920E-02 0. -1.
        2   -1    0    0  501    0  0.00000000000E+00  0.00000000000E+00 -0.20080059124E+04  0.20080059124E+04  0.25500000920E-02 0.  1.
    10030    2    1    2    0    0  0.00000000000E+00  0.00000000000E+00 -0.64111732329E+03  0.33748945016E+04  0.33134395233E+04 0.  0.
        3    1    3    3  502    0 -0.16594648995E+03 -0.87776081961E+03  0.11005676574E+04  0.14174806781E+04  0.10100000352E+00 0. -1.
       -3    1    3    3    0  502  0.16594648995E+03  0.87776081961E+03 -0.17416849807E+04  0.19574138235E+04  0.10100000352E+00 0.  1.
</event>
<event>
 5   0  0.8805125E-08  0.3300710E+04  0.7818609E-02  0.8162715E-01
        1   -1    0    0  501    0  0.00000000000E+00  0.00000000000E+00  0.15169860595E+04  0.15169860595E+04  0.50400001928E-02 0. -1.
       -1   -1    0    0    0  501  0.00000000000E+00  0.00000000000E+00 -0.17954498474E+04  0.17954498474E+04  0.50400001928E-02 0.  1.
    10030    2    1    2    0    0  0.00000000000E+00  0.00000000000E+00 -0.27846378783E+03  0.33124359069E+04  0.33007104624E+04 0.  0.
        4    1    3    3  502    0  0.10955703319E+04  0.12317034496E+04 -0.21890558858E+03  0.16629158155E+04  0.12699999809E+01 0.  1.
       -4    1    3    3    0  502 -0.10955703319E+04 -0.12317034496E+04 -0.59558199246E+02  0.16495200914E+04  0.12699999809E+01 0. -1.
</event>
<event>
 5   0  0.2824402E-07  0.3288080E+04  0.7818609E-02  0.8165935E-01
       -2   -1    0    0    0  501  0.00000000000E+00  0.00000000000E+00  0.19181425387E+04  0.19181425387E+04  0.25500000920E-02 0. -1.
        2   -1    0    0  501    0  0.00000000000E+00  0.00000000000E+00 -0.14091065178E+04  0.14091065178E+04  0.25500000920E-02 0.  1.
    10030    2    1    2    0    0  0.00000000000E+00  0.00000000000E+00  0.50903602083E+03  0.33272490565E+04  0.32880797760E+04 0.  0.
        1    1    3    3  502    0 -0.13746369982E+04  0.49676990314E+03  0.10161191156E+04  0.17801419243E+04  0.50400001928E-02 0. -1.
       -1    1    3    3    0  502  0.13746369982E+04 -0.49676990314E+03 -0.50708309476E+03  0.15471071322E+04  0.50400001928E-02 0.  1.
</event>
<event>
 5   0  0.2727168E-07  0.3298257E+04  0.7818609E-02  0.8163339E-01
        2   -1    0    0  501    0  0.00000000000E+00  0.00000000000E+00  0.20649062167E+04  0.20649062167E+04  0.25500000920E-02 0.  1.
       -2   -1    0    0    0  501  0.00000000000E+00  0.00000000000E+00 -0.13170697357E+04  0.13170697357E+04  0.25500000920E-02 0. -1.
    10030    2    1    2    0    0  0.00000000000E+00  0.00000000000E+00  0.74783648101E+03  0.33819759525E+04  0.32982574097E+04 0.  0.
        2    1    3    3  502    0 -0.58336576800E+03  0.13737348334E+04 -0.34543170760E+03  0.15319223467E+04  0.25500000920E-02 0. -1.
       -2    1    3    3    0  502  0.58336576800E+03 -0.13737348334E+04  0.10932681886E+04  0.18500536057E+04  0.25500000920E-02 0.  1.
</event>
<event>
 5   0  0.9181760E-08  0.3295424E+04  0.7818609E-02  0.8164061E-01
        1   -1    0    0  501    0  0.00000000000E+00  0.00000000000E+00  0.16608727703E+04  0.16608727703E+04  0.50400001928E-02 0. -1.
       -1   -1    0    0    0  501  0.00000000000E+00  0.00000000000E+00 -0.16346557823E+04  0.16346557824E+04  0.50400001928E-02 0.  1.
    10030    2    1    2    0    0  0.00000000000E+00  0.00000000000E+00  0.26216987981E+02  0.32955285527E+04  0.32954242688E+04 0.  0.
        1    1    3    3  502    0  0.84217994592E+03  0.24485245167E+03 -0.13818318779E+04  0.16366670777E+04  0.50400001928E-02 0.  1.
       -1    1    3    3    0  502 -0.84217994592E+03 -0.24485245167E+03  0.14080488659E+04  0.16588614750E+04  0.50400001928E-02 0. -1.
</event>
<event>
 5   0  0.9454010E-08  0.3305330E+04  0.7818609E-02  0.8161540E-01
        1   -1    0    0  501    0  0.00000000000E+00  0.00000000000E+00  0.13165863184E+04  0.13165863184E+04  0.50400001928E-02 0.  1.
       -1   -1    0    0    0  501  0.00000000000E+00  0.00000000000E+00 -0.20745332144E+04  0.20745332144E+04  0.50400001928E-02 0. -1.
    10030    2    1    2    0    0  0.00000000000E+00  0.00000000000E+00 -0.75794689602E+03  0.33911195328E+04  0.33053302692E+04 0.  0.
        2    1    3    3  502    0  0.10434737930E+04 -0.87928887050E+03 -0.13355439127E+04  0.19093622017E+04  0.25500000920E-02 0. -1.
       -2    1    3    3    0  502 -0.10434737930E+04  0.87928887050E+03  0.57759701671E+03  0.14817573311E+04  0.25500000920E-02 0.  1.
</event>
<event>
 5   0  0.2713815E-07  0.3374411E+04  0.7818609E-02  0.8144215E-01
        2   -1    0    0  501    0  0.00000000000E+00  0.00000000000E+00  0.16795928131E+04  0.16795928131E+04  0.25500000920E-02 0.  1.
       -2   -1    0    0    0  501  0.00000000000E+00  0.00000000000E+00 -0.16948531373E+04  0.16948531373E+04  0.25500000920E-02 0. -1.
    10030    2    1    2    0    0  0.00000000000E+00  0.00000000000E+00 -0.15260324158E+02  0.33744459504E+04  0.33744114442E+04 0.  0.
        4    1    3    3  502    0 -0.53696838539E+02  0.94017452706E+03  0.13923305968E+04  0.16808919048E+04  0.12699999809E+01 0.  1.
       -4    1    3    3    0  502  0.53696838539E+02 -0.94017452706E+03 -0.14075909210E+04  0.16935540457E+04  0.12699999809E+01 0. -1.
</event>
<event>
 5   0  0.2713815E-07  0.3299038E+04  0.7818609E-02  0.8163140E-01
        2   -1    0    0  501    0  0.00000000000E+00  0.00000000000E+00  0.13743227896E+04  0.13743227896E+04  0.25500000920E-02 0.  1.
       -2   -1    0    0    0  501  0.00000000000E+00  0.00000000000E+00 -0.19798209510E+04  0.19798209510E+04  0.25500000920E-02 0. -1.
    10030    2    1    2    0    0  0.00000000000E+00  0.00000000000E+00 -0.60549816142E+03  0.33541437406E+04  0.32990380733E+04 0.  0.
        4    1    3    3  502    0  0.90175331941E+03  0.76314587072E+03 -0.14732220763E+04  0.18883684937E+04  0.12699999809E+01 0. -1.
       -4    1    3    3    0  502 -0.90175331941E+03 -0.76314587072E+03  0.86772391485E+03  0.14657752469E+04  0.12699999809E+01 0.  1.
</event>
<event>
 5   0  0.8805125E-08  0.3295532E+04  0.7818609E-02  0.8164033E-01
       -1   -1    0    0    0  501  0.00000000000E+00  0.00000000000E+00  0.27699291430E+04  0.27699291430E+04  0.50400001928E-02 0. -1.
        1   -1    0    0  501    0  0.00000000000E+00  0.00000000000E+00 -0.98021738158E+03  0.98021738160E+03  0.50400001928E-02 0.  1.
    10030    2    1    2    0    0  0.00000000000E+00  0.00000000000E+00  0.17897117614E+04  0.37501465246E+04  0.32955319399E+04 0.  0.
        4    1    3    3  502    0 -0.34029881258E+03  0.12399790677E+04  0.20674289685E+04  0.24346694894E+04  0.12699999809E+01 0. -1.
       -4    1    3    3    0  502  0.34029881258E+03 -0.12399790677E+04 -0.27771720708E+03  0.13154770352E+04  0.12699999809E+01 0.  1.
</event>
<event>
 5   0  0.9454010E-08  0.3300329E+04  0.7818609E-02  0.8162812E-01
       -1   -1    0    0    0  501  0.00000000000E+00  0.00000000000E+00  0.11861150393E+04  0.11861150393E+04  0.50400001928E-02 0. -1.
        1   -1    0    0  501    0  0.00000000000E+00  0.00000000000E+00 -0.22957661228E+04  0.22957661228E+04  0.50400001928E-02 0.  1.
    10030    2    1    2    0    0  0.00000000000E+00  0.00000000000E+00 -0.11096510835E+04  0.34818811621E+04  0.33003289078E+04 0.  0.
        2    1    3    3  502    0  0.94897941152E+03  0.47736095555E+03 -0.18870690037E+04  0.21655172200E+04  0.25500000920E-02 0.  1.
       -2    1    3    3    0  502 -0.94897941152E+03 -0.47736095555E+03  0.77741792024E+03  0.13163639421E+04  0.25500000920E-02 0. -1.
</event>
<event>
 5   0  0.2703956E-07  0.3293947E+04  0.7818609E-02  0.8164437E-01
       -2   -1    0    0    0  501  0.00000000000E+00  0.00000000000E+00  0.17792118129E+04  0.17792118129E+04  0.25500000920E-02 0. -1.
        2   -1    0    0  501    0  0.00000000000E+00  0.00000000000E+00 -0.15245640877E+04  0.15245640877E+04  0.25500000920E-02 0.  1.
    10030    2    1    2    0    0  0.00000000000E+00  0.00000000000E+00  0.25464772521E+03  0.33037759006E+04  0.32939474400E+04 0.  0.
        5    1    3    3  502    0  0.63263941426E+03 -0.15143489609E+04 -0.10982258271E+02  0.16412276210E+04  0.46999998093E+01 0.  1.
       -5    1    3    3    0  502 -0.63263941426E+03  0.15143489609E+04  0.26562998349E+03  0.16625482796E+04  0.46999998093E+01 0. -1.
</event>
<event>
 5   0  0.8805125E-08  0.3294814E+04  0.7818609E-02  0.8164216E-01
       -4   -1    0    0    0  501  0.00000000000E+00  0.00000000000E+00  0.19215670795E+04  0.19215674992E+04  0.12699999809E+01 0.  1.
        4   -1    0    0  501    0  0.00000000000E+00  0.00000000000E+00 -0.14123620780E+04  0.14123626490E+04  0.12699999809E+01 0. -1.
    10030    2    1    2    0    0  0.00000000000E+00  0.00000000000E+00  0.50920500150E+03  0.33339301481E+04  0.32948141828E+04 0.  0.
        1    1    3    3  502    0 -0.14777381514E+03 -0.11727894088E+04  0.14156911075E+04  0.18443029604E+04  0.50400001928E-02 0.  1.
       -1    1    3    3    0  502  0.14777381514E+03  0.11727894088E+04 -0.90648610604E+03  0.14896271877E+04  0.50400001928E-02 0. -1.
</event>
<event>
 5   0  0.9810351E-08  0.3297793E+04  0.7818609E-02  0.8163457E-01
       -1   -1    0    0    0  501  0.00000000000E+00  0.00000000000E+00  0.14567283101E+04  0.14567283101E+04  0.50400001928E-02 0. -1.
        1   -1    0    0  501    0  0.00000000000E+00  0.00000000000E+00 -0.18664145295E+04  0.18664145295E+04  0.50400001928E-02 0.  1.
    10030    2    1    2    0    0  0.00000000000E+00  0.00000000000E+00 -0.40968621943E+03  0.33231428396E+04  0.32977925244E+04 0.  0.
        5    1    3    3  502    0 -0.11278805468E+04 -0.46769285966E+03 -0.13215066247E+04  0.17992367793E+04  0.46999998093E+01 0.  1.
       -5    1    3    3    0  502  0.11278805468E+04  0.46769285966E+03  0.91182040529E+03  0.15239060602E+04  0.46999998093E+01 0. -1.
</event>
<event>
 5   0  0.2727168E-07  0.3276971E+04  0.7818609E-02  0.8168780E-01
        2   -1    0    0  501    0  0.00000000000E+00  0.00000000000E+00  0.12163614178E+04  0.12163614178E+04  0.25500000920E-02 0. -1.
       -2   -1    0    0    0  501  0.00000000000E+00  0.00000000000E+00 -0.22071026467E+04  0.22071026467E+04  0.25500000920E-02 0.  1.
    10030    2    1    2    0    0  0.00000000000E+00  0.00000000000E+00 -0.99074122888E+03  0.34234640645E+04  0.32769708602E+04 0.  0.
        2    1    3    3  502    0 -0.60479154778E+03 -0.32054495220E+03 -0.20505808563E+04  0.21618056644E+04  0.25500000920E-02 0.  1.
       -2    1    3    3    0  502  0.60479154778E+03  0.32054495220E+03  0.10598396274E+04  0.12616584001E+04  0.25500000920E-02 0. -1.
</event>
<event>
 5   0  0.8805125E-08  0.3298287E+04  0.7818609E-02  0.8163331E-01
       -1   -1    0    0    0  501  0.00000000000E+00  0.00000000000E+00  0.12199343962E+04  0.12199343962E+04  0.50400001928E-02 0. -1.
        1   -1    0    0  501    0  0.00000000000E+00  0.00000000000E+00 -0.22293609087E+04  0.22293609087E+04  0.50400001928E-02 0.  1.
    10030    2    1    2    0    0  0.00000000000E+00  0.00000000000E+00 -0.10094265125E+04  0.34492953049E+04  0.32982868609E+04 0.  0.
        4    1    3    3  502    0 -0.55369826400E+03 -0.13759617169E+04 -0.12587082397E+04  0.19453021512E+04  0.12699999809E+01 0.  1.
       -4    1    3    3    0  502  0.55369826400E+03  0.13759617169E+04  0.24928172715E+03  0.15039931537E+04  0.12699999809E+01 0. -1.
</event>
<event>
 5   0  0.2875829E-07  0.3328196E+04  0.7818609E-02  0.8155758E-01
       -2   -1    0    0    0  501  0.00000000000E+00  0.00000000000E+00  0.15528323376E+04  0.15528323376E+04  0.25500000920E-02 0.  1.
        2   -1    0    0  501    0  0.00000000000E+00  0.00000000000E+00 -0.17833364526E+04  0.17833364526E+04  0.25500000920E-02 0. -1.
    10030    2    1    2    0    0  0.00000000000E+00  0.00000000000E+00 -0.23050411504E+03  0.33361687902E+04  0.33281962156E+04 0.  0.
        3    1    3    3  502    0  0.92574583576E+03  0.48935130779E+03  0.11811954281E+04  0.15785096466E+04  0.10100000352E+00 0.  1.
       -3    1    3    3    0  502 -0.92574583576E+03 -0.48935130779E+03 -0.14116995431E+04  0.17576591436E+04  0.10100000352E+00 0. -1.
</event>
<event>
 5   0  0.9454010E-08  0.3293474E+04  0.7818609E-02  0.8164558E-01
       -1   -1    0    0    0  501  0.00000000000E+00  0.00000000000E+00  0.21648806911E+04  0.21648806911E+04  0.50400001928E-02 0.  1.
        1   -1    0    0  501    0  0.00000000000E+00  0.00000000000E+00 -0.12526058952E+04  0.12526058952E+04  0.50400001928E-02 0. -1.
    10030    2    1    2    0    0  0.00000000000E+00  0.00000000000E+00  0.91227479596E+03  0.34174865863E+04  0.32934737382E+04 0.  0.
        2    1    3    3  502    0  0.10189896724E+04 -0.27625801114E+03  0.17674809232E+04  0.20587975265E+04  0.25500000920E-02 0.  1.
       -2    1    3    3    0  502 -0.10189896724E+04  0.27625801114E+03 -0.85520612728E+03  0.13586890598E+04  0.25500000920E-02 0. -1.
</event>
<event>
 5   0  0.2727168E-07  0.3302792E+04  0.7818609E-02  0.8162185E-01
       -2   -1    0    0    0  501  0.00000000000E+00  0.00000000000E+00  0.17458769594E+04  0.17458769594E+04  0.25500000920E-02 0.  1.
        2   -1    0    0  501    0  0.00000000000E+00  0.00000000000E+00 -0.15620283197E+04  0.15620283197E+04  0.25500000920E-02 0. -1.
    10030    2    1    2    0    0  0.00000000000E+00  0.00000000000E+00  0.18384863971E+03  0.33079052791E+04  0.33027923054E+04 0.  0.
        2    1    3    3  502    0  0.16361916627E+04 -0.18038925877E+03 -0.40362747368E+02  0.16466003137E+04  0.25500000920E-02 0. -1.
       -2    1    3    3    0  502 -0.16361916627E+04  0.18038925877E+03  0.22421138708E+03  0.16613049653E+04  0.25500000920E-02 0.  1.
</event>
<event>
 5   0  0.9283910E-08  0.3308264E+04  0.7818609E-02  0.8160796E-01
        1   -1    0    0  501    0  0.00000000000E+00  0.00000000000E+00  0.16323918006E+04  0.16323918006E+04  0.50400001928E-02 0. -1.
       -1   -1    0    0    0  501  0.00000000000E+00  0.00000000000E+00 -0.16761614884E+04  0.16761614884E+04  0.50400001928E-02 0.  1.
    10030    2    1    2    0    0  0.00000000000E+00  0.00000000000E+00 -0.43769687718E+02  0.33085532890E+04  0.33082637562E+04 0.  0.
        3    1    3    3  502    0  0.84667104100E+03  0.17262425052E+03  0.13887354191E+04  0.16356151925E+04  0.10100000352E+00 0. -1.
       -3    1    3    3    0  502 -0.84667104100E+03 -0.17262425052E+03 -0.14325051068E+04  0.16729380965E+04  0.10100000352E+00 0.  1.
</event>
<event>
 5   0  0.2727168E-07  0.3291410E+04  0.7818609E-02  0.8165085E-01
        2   -1    0    0  501    0  0.00000000000E+00  0.00000000000E+00  0.10685336942E+04  0.10685336942E+04  0.25500000920E-02 0.  1.
       -2   -1    0    0    0  501  0.00000000000E+00  0.00000000000E+00 -0.25346365841E+04  0.25346365841E+04  0.25500000920E-02 0. -1.
    10030    2    1    2    0    0  0.00000000000E+00  0.00000000000E+00 -0.14661028899E+04  0.36031702783E+04  0.32914097847E+04 0.  0.
        2    1    3    3  502    0 -0.12140140404E+04  0.89132523742E+03 -0.14592505846E+04  0.20970701080E+04  0.25500000920E-02 0. -1.
       -2    1    3    3    0  502  0.12140140404E+04 -0.89132523742E+03 -0.68523053648E+01  0.15061001704E+04  0.25500000920E-02 0.  1.
</event>
<event>
 5   0  0.9810351E-08  0.3303004E+04  0.7818609E-02  0.8162131E-01
       -1   -1    0    0    0  501  0.00000000000E+00  0.00000000000E+00  0.14704277216E+04  0.14704277216E+04  0.50400001928E-02 0.  1.
        1   -1    0    0  501    0  0.00000000000E+00  0.00000000000E+00 -0.18548748759E+04  0.18548748759E+04  0.50400001928E-02 0. -1.
    10030    2    1    2    0    0  0.00000000000E+00  0.00000000000E+00 -0.38444715430E+03  0.33253025975E+04  0.33030043522E+04 0.  0.
        5    1    3    3  502    0  0.46117058161E+03 -0.82572433230E+03 -0.15552238943E+04  0.18202314220E+04  0.46999998093E+01 0. -1.
       -5    1    3    3    0  502 -0.46117058161E+03  0.82572433230E+03  0.11707767400E+04  0.15050711755E+04  0.46999998093E+01 0.  1.
</event>
<event>
 5   0  0.8805125E-08  0.3294761E+04  0.7818609E-02  0.8164230E-01
       -1   -1    0    0    0  501  0.00000000000E+00  0.00000000000E+00  0.11277089043E+04  0.11277089043E+04  0.50400001928E-02 0.  1.
        1   -1    0    0  501    0  0.00000000000E+00  0.00000000000E+00 -0.24065277418E+04  0.24065277418E+04  0.50400001928E-02 0. -1.
    10030    2    1    2    0    0  0.00000000000E+00  0.00000000000E+00 -0.12788188375E+04  0.35342366461E+04  0.32947611524E+04 0.  0.
        4    1    3    3  502    0  0.45192487425E+03 -0.16380441697E+03  0.10508056144E+04  0.11555353872E+04  0.12699999809E+01 0.  1.
       -4    1    3    3    0  502 -0.45192487425E+03  0.16380441697E+03 -0.23296244519E+04  0.23787012589E+04  0.12699999809E+01 0. -1.
</event>
<event>
 5   0  0.2875829E-07  0.3308705E+04  0.7818609E-02  0.8160684E-01
        2   -1    0    0  501    0  0.00000000000E+00  0.00000000000E+00  0.15008528328E+04  0.15008528328E+04  0.25500000920E-02 0. -1.
       -2   -1    0    0    0  501  0.00000000000E+00  0.00000000000E+00 -0.18235509301E+04  0.18235509301E+04  0.25500000920E-02 0.  1.
    10030    2    1    2    0    0  0.00000000000E+00  0.00000000000E+00 -0.32269809733E+03  0.33244037629E+04  0.33087046282E+04 0.  0.
        3    1    3    3  502    0  0.68402931111E+02 -0.10053513298E+04  0.11569248736E+04  0.15342377360E+04  0.10100000352E+00 0. -1.
       -3    1    3    3    0  502 -0.68402931111E+02  0.10053513298E+04 -0.14796229710E+04  0.17901660268E+04  0.10100000352E+00 0.  1.
</event>
<event>
 5   0  0.9283910E-08  0.3303459E+04  0.7818609E-02  0.8162016E-01
        1   -1    0    0  501    0  0.00000000000E+00  0.00000000000E+00  0.11866764949E+04  0.11866764949E+04  0.50400001928E-02 0.  1.
       -1   -1    0    0    0  501  0.00000000000E+00  0.00000000000E+00 -0.22990352525E+04  0.22990352525E+04  0.50400001928E-02 0. -1.
    10030    2    1    2    0    0  0.00000000000E+00  0.00000000000E+00 -0.11123587575E+04  0.34857117474E+04  0.33034594565E+04 0.  0.
        3    1    3    3  502    0  0.12011912203E+04 -0.52295318419E+03  0.50523508203E+03  0.14041377707E+04  0.10100000352E+00 0.  1.
       -3    1    3    3    0  502 -0.12011912203E+04  0.52295318419E+03 -0.16175938396E+04  0.20815739768E+04  0.10100000352E+00 0. -1.
</event>
<event>
 5   0  0.9454010E-08  0.3299110E+04  0.7818609E-02  0.8163122E-01
        1   -1    0    0  501    0  0.00000000000E+00  0.00000000000E+00  0.10129254587E+04  0.10129254587E+04  0.50400001928E-02 0.  1.
       -1   -1    0    0    0  501  0.00000000000E+00  0.00000000000E+00 -0.26863096871E+04  0.26863096871E+04  0.50400001928E-02 0. -1.
    10030    2    1    2    0    0  0.00000000000E+00  0.00000000000E+00 -0.16733842284E+04  0.36992351458E+04  0.32991098630E+04 0.  0.
        2    1    3    3  502    0 -0.12094014667E+04 -0.80580662624E+03  0.38379314737E+02  0.14537706829E+04  0.25500000920E-02 0. -1.
       -2    1    3    3    0  502  0.12094014667E+04  0.80580662624E+03 -0.17117635431E+04  0.22454644629E+04  0.25500000920E-02 0.  1.
</event>
<event>
 5   0  0.9454010E-08  0.3305179E+04  0.7818609E-02  0.8161579E-01
        1   -1    0    0  501    0  0.00000000000E+00  0.00000000000E+00  0.17583600906E+04  0.17583600906E+04  0.50400001928E-02 0. -1.
       -1   -1    0    0    0  501  0.00000000000E+00  0.00000000000E+00 -0.15531811034E+04  0.15531811034E+04  0.50400001928E-02 0.  1.
    10030    2    1    2    0    0  0.00000000000E+00  0.00000000000E+00  0.20517898716E+03  0.33115411940E+04  0.33051787641E+04 0.  0.
        2    1    3    3  502    0 -0.19301186601E+03  0.42078820721E+03  0.16920655290E+04  0.17542525617E+04  0.25500000920E-02 0. -1.
       -2    1    3    3    0  502  0.19301186601E+03 -0.42078820721E+03 -0.14868865419E+04  0.15572886322E+04  0.25500000920E-02 0.  1.
</event>
<event>
 5   0  0.2713815E-07  0.3346930E+04  0.7818609E-02  0.8151056E-01
        2   -1    0    0  501    0  0.00000000000E+00  0.00000000000E+00  0.23036363839E+04  0.23036363839E+04  0.25500000920E-02 0.  1.
       -2   -1    0    0    0  501  0.00000000000E+00  0.00000000000E+00 -0.12156800931E+04  0.12156800931E+04  0.25500000920E-02 0. -1.
    10030    2    1    2    0    0  0.00000000000E+00  0.00000000000E+00  0.10879562909E+04  0.35193164770E+04  0.33469298729E+04 0.  0.
        4    1    3    3  502    0 -0.14981986659E+04 -0.87437588157E+02  0.13225461584E+04  0.20003436026E+04  0.12699999809E+01 0. -1.
       -4    1    3    3    0  502  0.14981986659E+04  0.87437588157E+02 -0.23458986748E+03  0.15189728744E+04  0.12699999809E+01 0.  1.
</event>
<event>
 5   0  0.9181760E-08  0.3300013E+04  0.7818609E-02  0.8162892E-01
       -1   -1    0    0    0  501  0.00000000000E+00  0.00000000000E+00  0.12933928567E+04  0.12933928567E+04  0.50400001928E-02 0.  1.
        1   -1    0    0  501    0  0.00000000000E+00  0.00000000000E+00 -0.21049457481E+04  0.21049457481E+04  0.50400001928E-02 0. -1.
    10030    2    1    2    0    0  0.00000000000E+00  0.00000000000E+00 -0.81155289147E+03  0.33983386048E+04  0.33000132087E+04 0.  0.
        1    1    3    3  502    0  0.14953904192E+04 -0.18665796565E+03 -0.10977255018E+04  0.18644127706E+04  0.50400001928E-02 0. -1.
       -1    1    3    3    0  502 -0.14953904192E+04  0.18665796565E+03  0.28617261036E+03  0.15339258342E+04  0.50400001928E-02 0.  1.
</event>
<event>
 5   0  0.9181760E-08  0.3299261E+04  0.7818609E-02  0.8163084E-01
       -1   -1    0    0    0  501  0.00000000000E+00  0.00000000000E+00  0.15117531043E+04  0.15117531043E+04  0.50400001928E-02 0.  1.
        1   -1    0    0  501    0  0.00000000000E+00  0.00000000000E+00 -0.18000824271E+04  0.18000824271E+04  0.50400001928E-02 0. -1.
    10030    2    1    2    0    0  0.00000000000E+00  0.00000000000E+00 -0.28832932281E+03  0.33118355314E+04  0.32992606427E+04 0.  0.
        1    1    3    3  502    0  0.35373831422E+03 -0.94087960677E+03 -0.14571618898E+04  0.17702276697E+04  0.50400001928E-02 0. -1.
       -1    1    3    3    0  502 -0.35373831422E+03  0.94087960677E+03  0.11688325670E+04  0.15416078617E+04  0.50400001928E-02 0.  1.
</event>
<event>
 5   0  0.2703956E-07  0.3297773E+04  0.7818609E-02  0.8163462E-01
       -2   -1    0    0    0  501  0.00000000000E+00  0.00000000000E+00  0.16389484805E+04  0.16389484805E+04  0.25500000920E-02 0. -1.
        2   -1    0    0  501    0  0.00000000000E+00  0.00000000000E+00 -0.16588852762E+04  0.16588852762E+04  0.25500000920E-02 0.  1.
    10030    2    1    2    0    0  0.00000000000E+00  0.00000000000E+00 -0.19936795671E+02  0.32978337567E+04  0.32977734930E+04 0.  0.
        5    1    3    3  502    0 -0.47719934200E+03  0.37353211793E+03  0.15235393144E+04  0.16396461776E+04  0.46999998093E+01 0. -1.
       -5    1    3    3    0  502  0.47719934200E+03 -0.37353211793E+03 -0.15434761101E+04  0.16581875791E+04  0.46999998093E+01 0.  1.
</event>
<event>
 5   0  0.2824402E-07  0.3300612E+04  0.7818609E-02  0.8162740E-01
        2   -1    0    0  501    0  0.00000000000E+00  0.00000000000E+00  0.21113959677E+04  0.21113959677E+04  0.25500000920E-02 0. -1.
       -2   -1    0    0    0  501  0.00000000000E+00  0.00000000000E+00 -0.12899096546E+04  0.12899096546E+04  0.25500000920E-02 0.  1.
    10030    2    1    2    0    0  0.00000000000E+00  0.00000000000E+00  0.82148631310E+03  0.34013056223E+04  0.33006120908E+04 0.  0.
        1    1    3    3  502    0 -0.11658020067E+04 -0.11438767182E+04  0.16696380172E+03  0.16417750078E+04  0.50400001928E-02 0. -1.
       -1    1    3    3    0  502  0.11658020067E+04  0.11438767182E+04  0.65452251138E+03  0.17595306145E+04  0.50400001928E-02 0.  1.
</event>
<event>
 5   0  0.2824402E-07  0.3277226E+04  0.7818609E-02  0.8168714E-01
       -2   -1    0    0    0  501  0.00000000000E+00  0.00000000000E+00  0.19311968434E+04  0.19311968434E+04  0.25500000920E-02 0. -1.
        2   -1    0    0  501    0  0.00000000000E+00  0.00000000000E+00 -0.13903569399E+04  0.13903569399E+04  0.25500000920E-02 0.  1.
    10030    2    1    2    0    0  0.00000000000E+00  0.00000000000E+00  0.54083990353E+03  0.33215537833E+04  0.32772262257E+04 0.  0.
        1    1    3    3  502    0 -0.13012704769E+04 -0.45364713794E+03  0.11689507690E+04  0.18070823114E+04  0.50400001928E-02 0. -1.
       -1    1    3    3    0  502  0.13012704769E+04  0.45364713794E+03 -0.62811086550E+03  0.15144714719E+04  0.50400001928E-02 0.  1.
</event>
<event>
 5   0  0.9283910E-08  0.3292274E+04  0.7818609E-02  0.8164864E-01
        1   -1    0    0  501    0  0.00000000000E+00  0.00000000000E+00  0.14798190798E+04  0.14798190798E+04  0.50400001928E-02 0.  1.
       -1   -1    0    0    0  501  0.00000000000E+00  0.00000000000E+00 -0.18311470204E+04  0.18311470204E+04  0.50400001928E-02 0. -1.
    10030    2    1    2    0    0  0.00000000000E+00  0.00000000000E+00 -0.35132794059E+03  0.33109661002E+04  0.32922735601E+04 0.  0.
        3    1    3    3  502    0 -0.56450291748E+03 -0.45798614155E+03  0.13096615407E+04  0.14978745645E+04  0.10100000352E+00 0.  1.
       -3    1    3    3    0  502  0.56450291748E+03  0.45798614155E+03 -0.16609894813E+04  0.18130915357E+04  0.10100000352E+00 0. -1.
</event>
<event>
 5   0  0.2703956E-07  0.3308605E+04  0.7818609E-02  0.8160709E-01
        2   -1    0    0  501    0  0.00000000000E+00  0.00000000000E+00  0.20635645518E+04  0.20635645518E+04  0.25500000920E-02 0.  1.
       -2   -1    0    0    0  501  0.00000000000E+00  0.00000000000E+00 -0.13262082069E+04  0.13262082070E+04  0.25500000920E-02 0. -1.
    10030    2    1    2    0    0  0.00000000000E+00  0.00000000000E+00  0.73735634488E+03  0.33897727588E+04  0.33086046873E+04 0.  0.
        5    1    3    3  502    0 -0.59068363850E+02 -0.67362744077E+03  0.19154952006E+04  0.20313559398E+04  0.46999998093E+01 0.  1.
       -5    1    3    3    0  502  0.59068363850E+02  0.67362744077E+03 -0.11781388558E+04  0.13584168190E+04  0.46999998093E+01 0. -1.
</event>
<event>
 5   0  0.2727168E-07  0.3284311E+04  0.7818609E-02  0.8166899E-01
        2   -1    0    0  501    0  0.00000000000E+00  0.00000000000E+00  0.13785856316E+04  0.13785856316E+04  0.25500000920E-02 0.  1.
       -2   -1    0    0    0  501  0.00000000000E+00  0.00000000000E+00 -0.19561170098E+04  0.19561170098E+04  0.25500000920E-02 0. -1.
    10030    2    1    2    0    0  0.00000000000E+00  0.00000000000E+00 -0.57753137823E+03  0.33347026414E+04  0.32843110714E+04 0.  0.
        2    1    3    3  502    0 -0.64087121724E+03  0.95851136177E+02  0.12432829284E+04  0.14020184726E+04  0.25500000920E-02 0.  1.
       -2    1    3    3    0  502  0.64087121724E+03 -0.95851136177E+02 -0.18208143066E+04  0.19326841689E+04  0.25500000920E-02 0. -1.
</event>
<event>
 5   0  0.9810351E-08  0.3298916E+04  0.7818609E-02  0.8163171E-01
        1   -1    0    0  501    0  0.00000000000E+00  0.00000000000E+00  0.10320331900E+04  0.10320331900E+04  0.50400001928E-02 0.  1.
       -1   -1    0    0    0  501  0.00000000000E+00  0.00000000000E+00 -0.26362629795E+04  0.26362629795E+04  0.50400001928E-02 0. -1.
    10030    2    1    2    0    0  0.00000000000E+00  0.00000000000E+00 -0.16042297895E+04  0.36682961695E+04  0.32989155142E+04 0.  0.
        5    1    3    3  502    0 -0.14852960040E+04 -0.64500006756E+03 -0.45302085388E+03  0.16814812787E+04  0.46999998093E+01 0. -1.
       -5    1    3    3    0  502  0.14852960040E+04  0.64500006756E+03 -0.11512089357E+04  0.19868148908E+04  0.46999998093E+01 0.  1.
</event>
<event>
 5   0  0.2824402E-07  0.3292863E+04  0.7818609E-02  0.8164714E-01
       -2   -1    0    0    0  501  0.00000000000E+00  0.00000000000E+00  0.12779632459E+04  0.12779632459E+04  0.25500000920E-02 0.  1.
        2   -1    0    0  501    0  0.00000000000E+00  0.00000000000E+00 -0.21211381521E+04  0.21211381521E+04  0.25500000920E-02 0. -1.
    10030    2    1    2    0    0  0.00000000000E+00  0.00000000000E+00 -0.84317490617E+03  0.33991013980E+04  0.32928629475E+04 0.  0.
        1    1    3    3  502    0  0.73764155369E+03  0.46607104286E+03 -0.18628425954E+04  0.20570658264E+04  0.50400001928E-02 0. -1.
       -1    1    3    3    0  502 -0.73764155369E+03 -0.46607104286E+03  0.10196676893E+04  0.13420355715E+04  0.50400001928E-02 0.  1.
</event>
<event>
 5   0  0.2713815E-07  0.3296998E+04  0.7818609E-02  0.8163660E-01
       -2   -1    0    0    0  501  0.00000000000E+00  0.00000000000E+00  0.12164772317E+04  0.12164772317E+04  0.25500000920E-02 0.  1.
        2   -1    0    0  501    0  0.00000000000E+00  0.00000000000E+00 -0.22339497639E+04  0.22339497639E+04  0.25500000920E-02 0. -1.
    10030    2    1    2    0    0  0.00000000000E+00  0.00000000000E+00 -0.10174725323E+04  0.34504269956E+04  0.32969980434E+04 0.  0.
        4    1    3    3  502    0 -0.11785385229E+03 -0.15020357434E+04 -0.12088574837E+04  0.19316673973E+04  0.12699999809E+01 0. -1.
       -4    1    3    3    0  502  0.11785385229E+03  0.15020357434E+04  0.19138495146E+03  0.15187595983E+04  0.12699999809E+01 0.  1.
</event>
<event>
 5   0  0.2824402E-07  0.3299703E+04  0.7818609E-02  0.8162971E-01
       -2   -1    0    0    0  501  0.00000000000E+00  0.00000000000E+00  0.18076954297E+04  0.18076954297E+04  0.25500000920E-02 0. -1.
        2   -1    0    0  501    0  0.00000000000E+00  0.00000000000E+00 -0.15057898826E+04  0.15057898826E+04  0.25500000920E-02 0.  1.
    10030    2    1    2    0    0  0.00000000000E+00  0.00000000000E+00  0.30190554710E+03  0.33134853123E+04  0.32997027072E+04 0.  0.
        1    1    3    3  502    0 -0.84471788015E+03  0.19769300715E+02  0.15739357364E+04  0.17863966034E+04  0.50400001928E-02 0. -1.
       -1    1    3    3    0  502  0.84471788015E+03 -0.19769300715E+02 -0.12720301893E+04  0.15270887089E+04  0.50400001928E-02 0.  1.
</event>
<event>
 5   0  0.2727168E-07  0.3296020E+04  0.7818609E-02  0.8163909E-01
        2   -1    0    0  501    0  0.00000000000E+00  0.00000000000E+00  0.24895695158E+04  0.24895695158E+04  0.25500000920E-02 0.  1.
       -2   -1    0    0    0  501  0.00000000000E+00  0.00000000000E+00 -0.10909260525E+04  0.10909260525E+04  0.25500000920E-02 0. -1.
    10030    2    1    2    0    0  0.00000000000E+00  0.00000000000E+00  0.13986434633E+04  0.35804955683E+04  0.32960195657E+04 0.  0.
        2    1    3    3  502    0 -0.21149902790E+03 -0.15850563002E+04  0.11322140517E+04  0.19593478437E+04  0.25500000920E-02 0.  1.
       -2    1    3    3    0  502  0.21149902790E+03  0.15850563002E+04  0.26642941159E+03  0.16211477246E+04  0.25500000920E-02 0. -1.
</event>
<event>
 5   0  0.9454010E-08  0.3301907E+04  0.7818609E-02  0.8162410E-01
        1   -1    0    0  501    0  0.00000000000E+00  0.00000000000E+00  0.27054225928E+04  0.27054225928E+04  0.50400001928E-02 0. -1.
       -1   -1    0    0    0  501  0.00000000000E+00  0.00000000000E+00 -0.10074754463E+04  0.10074754463E+04  0.50400001928E-02 0.  1.
    10030    2    1    2    0    0  0.00000000000E+00  0.00000000000E+00  0.16979471465E+04  0.37128980391E+04  0.33019066214E+04 0.  0.
        2    1    3    3  502    0  0.52402346426E+03  0.45517176961E+03  0.25333788326E+04  0.26267451800E+04  0.25500000920E-02 0. -1.
       -2    1    3    3    0  502 -0.52402346426E+03 -0.45517176961E+03 -0.83543168618E+03  0.10861528591E+04  0.25500000920E-02 0.  1.
</event>
<event>
 5   0  0.9454010E-08  0.3303513E+04  0.7818609E-02  0.8162002E-01
        1   -1    0    0  501    0  0.00000000000E+00  0.00000000000E+00  0.26310132722E+04  0.26310132722E+04  0.50400001928E-02 0.  1.
       -1   -1    0    0    0  501  0.00000000000E+00  0.00000000000E+00 -0.10369764632E+04  0.10369764632E+04  0.50400001928E-02 0. -1.
    10030    2    1    2    0    0  0.00000000000E+00  0.00000000000E+00  0.15940368091E+04  0.36679897354E+04  0.33035125776E+04 0.  0.
        2    1    3    3  502    0 -0.24406493530E+02 -0.80992658740E+03 -0.80113290405E+03  0.11394694747E+04  0.25500000920E-02 0. -1.
       -2    1    3    3    0  502  0.24406493530E+02  0.80992658740E+03  0.23951697131E+04  0.25285202607E+04  0.25500000920E-02 0.  1.
</event>
<event>
 5   0  0.2824402E-07  0.3310033E+04  0.7818609E-02  0.8160347E-01
       -2   -1    0    0    0  501  0.00000000000E+00  0.00000000000E+00  0.20911434178E+04  0.20911434178E+04  0.25500000920E-02 0.  1.
        2   -1    0    0  501    0  0.00000000000E+00  0.00000000000E+00 -0.13098477928E+04  0.13098477928E+04  0.25500000920E-02 0. -1.
    10030    2    1    2    0    0  0.00000000000E+00  0.00000000000E+00  0.78129562506E+03  0.34009912106E+04  0.33100329849E+04 0.  0.
        1    1    3    3  502    0 -0.26656382452E+03  0.15769303356E+03 -0.12798065094E+04  0.13167490524E+04  0.50400001928E-02 0. -1.
       -1    1    3    3    0  502  0.26656382452E+03 -0.15769303356E+03  0.20611021345E+04  0.20842421582E+04  0.50400001928E-02 0.  1.
</event>
<event>
 5   0  0.9283910E-08  0.3288809E+04  0.7818609E-02  0.8165749E-01
       -1   -1    0    0    0  501  0.00000000000E+00  0.00000000000E+00  0.23411338990E+04  0.23411338990E+04  0.50400001928E-02 0.  1.
        1   -1    0    0  501    0  0.00000000000E+00  0.00000000000E+00 -0.11550239094E+04  0.11550239094E+04  0.50400001928E-02 0. -1.
    10030    2    1    2    0    0  0.00000000000E+00  0.00000000000E+00  0.11861099896E+04  0.34961578084E+04  0.32888086770E+04 0.  0.
        3    1    3    3  502    0 -0.11225099765E+04 -0.77326890844E+03 -0.38477027129E+03  0.14163409279E+04  0.10100000352E+00 0. -1.
       -3    1    3    3    0  502  0.11225099765E+04  0.77326890844E+03  0.15708802609E+04  0.20798168805E+04  0.10100000352E+00 0.  1.
</event>
<event>
 5   0  0.9810351E-08  0.3302144E+04  0.7818609E-02  0.8162350E-01
       -1   -1    0    0    0  501  0.00000000000E+00  0.00000000000E+00  0.17598464293E+04  0.17598464293E+04  0.50400001928E-02 0. -1.
        1   -1    0    0  501    0  0.00000000000E+00  0.00000000000E+00 -0.15490207437E+04  0.15490207437E+04  0.50400001928E-02 0.  1.
    10030    2    1    2    0    0  0.00000000000E+00  0.00000000000E+00  0.21082568562E+03  0.33088671730E+04  0.33021439246E+04 0.  0.
        5    1    3    3  502    0  0.55199134894E+03 -0.15426185036E+04 -0.99086576160E+02  0.16414038310E+04  0.46999998093E+01 0.  1.
       -5    1    3    3    0  502 -0.55199134894E+03  0.15426185036E+04  0.30991226178E+03  0.16674633420E+04  0.46999998093E+01 0. -1.
</event>
<event>
 5   0  0.2875829E-07  0.3304540E+04  0.7818609E-02  0.8161741E-01
       -2   -1    0    0    0  501  0.00000000000E+00  0.00000000000E+00  0.14101922062E+04  0.14101922062E+04  0.25500000920E-02 0. -1.
        2   -1    0    0  501    0  0.00000000000E+00  0.00000000000E+00 -0.19359030376E+04  0.19359030376E+04  0.25500000920E-02 0.  1.
    10030    2    1    2    0    0  0.00000000000E+00  0.00000000000E+00 -0.52571083134E+03  0.33460952438E+04  0.33045395296E+04 0.  0.
        3    1    3    3  502    0  0.11686040353E+04 -0.54825561184E+03 -0.13072206154E+04  0.18371296511E+04  0.10100000352E+00 0.  1.
       -3    1    3    3    0  502 -0.11686040353E+04  0.54825561184E+03  0.78150978409E+03  0.15089655928E+04  0.10100000352E+00 0. -1.
</event>
<event>
 5   0  0.8805125E-08  0.3297553E+04  0.7818609E-02  0.8163518E-01
       -1   -1    0    0    0  501  0.00000000000E+00  0.00000000000E+00  0.11424421822E+04  0.11424421822E+04  0.50400001928E-02 0. -1.
        1   -1    0    0  501    0  0.00000000000E+00  0.00000000000E+00 -0.23795194414E+04  0.23795194414E+04  0.50400001928E-02 0.  1.
    10030    2    1    2    0    0  0.00000000000E+00  0.00000000000E+00 -0.12370772592E+04  0.35219616237E+04  0.32975526582E+04 0.  0.
        4    1    3    3  502    0  0.36937805973E+03 -0.11211265155E+04 -0.18480051532E+04  0.21928268226E+04  0.12699999809E+01 0.  1.
       -4    1    3    3    0  502 -0.36937805973E+03  0.11211265155E+04  0.61092789404E+03  0.13291348010E+04  0.12699999809E+01 0. -1.
</event>
<event>
 5   0  0.2727168E-07  0.3347070E+04  0.7818609E-02  0.8151021E-01
       -2   -1    0    0    0  501  0.00000000000E+00  0.00000000000E+00  0.14580043868E+04  0.14580043868E+04  0.25500000920E-02 0.  1.
        2   -1    0    0  501    0  0.00000000000E+00  0.00000000000E+00 -0.19209264207E+04  0.19209264207E+04  0.25500000920E-02 0. -1.
    10030    2    1    2    0    0  0.00000000000E+00  0.00000000000E+00 -0.46292203387E+03  0.33789308075E+04  0.33470698518E+04 0.  0.
        2    1    3    3  502    0 -0.24064481810E+03  0.10010252653E+04 -0.15633979982E+04  0.18719441260E+04  0.25500000920E-02 0. -1.
       -2    1    3    3    0  502  0.24064481810E+03 -0.10010252653E+04  0.11004759643E+04  0.15069866815E+04  0.25500000920E-02 0.  1.
</event>
<event>
 5   0  0.9181760E-08  0.3305614E+04  0.7818609E-02  0.8161468E-01
        1   -1    0    0  501    0  0.00000000000E+00  0.00000000000E+00  0.87018548998E+03  0.87018548999E+03  0.50400001928E-02 0. -1.
       -1   -1    0    0    0  501  0.00000000000E+00  0.00000000000E+00 -0.31392974818E+04  0.31392974818E+04  0.50400001928E-02 0.  1.
    10030    2    1    2    0    0  0.00000000000E+00  0.00000000000E+00 -0.22691119918E+04  0.40094829718E+04  0.33056140836E+04 0.  0.
        1    1    3    3  502    0 -0.44167249677E+02 -0.87762738037E+03  0.56337052439E+03  0.10438232190E+04  0.50400001928E-02 0. -1.
       -1    1    3    3    0  502  0.44167249677E+02  0.87762738037E+03 -0.28324825162E+04  0.29656597528E+04  0.50400001928E-02 0.  1.
</event>
<event>
 5   0  0.9181760E-08  0.3296922E+04  0.7818609E-02  0.8163679E-01
       -1   -1    0    0    0  501  0.00000000000E+00  0.00000000000E+00  0.22362676222E+04  0.22362676222E+04  0.50400001928E-02 0.  1.
        1   -1    0    0  501    0  0.00000000000E+00  0.00000000000E+00 -0.12151602368E+04  0.12151602368E+04  0.50400001928E-02 0. -1.
    10030    2    1    2    0    0  0.00000000000E+00  0.00000000000E+00  0.10211073854E+04  0.34514278590E+04  0.32969218937E+04 0.  0.
        1    1    3    3  502    0 -0.12710776028E+04 -0.10475808796E+04  0.44143276406E+03  0.17052644536E+04  0.50400001928E-02 0. -1.
       -1    1    3    3    0  502  0.12710776028E+04  0.10475808796E+04  0.57967462132E+03  0.17461634054E+04  0.50400001928E-02 0.  1.
</event>
<event>
 5   0  0.2703956E-07  0.3283092E+04  0.7818609E-02  0.8167211E-01
       -2   -1    0    0    0  501  0.00000000000E+00  0.00000000000E+00  0.10713005932E+04  0.10713005932E+04  0.25500000920E-02 0. -1.
        2   -1    0    0  501    0  0.00000000000E+00  0.00000000000E+00 -0.25153295977E+04  0.25153295977E+04  0.25500000920E-02 0.  1.
    10030    2    1    2    0    0  0.00000000000E+00  0.00000000000E+00 -0.14440290045E+04  0.35866301910E+04  0.32830924996E+04 0.  0.
        5    1    3    3  502    0  0.10068774888E+04  0.10607772909E+04 -0.15363157359E+04  0.21211645076E+04  0.46999998093E+01 0.  1.
       -5    1    3    3    0  502 -0.10068774888E+04 -0.10607772909E+04  0.92286731359E+02  0.14654656833E+04  0.46999998093E+01 0. -1.
</event>
<event>
 5   0  0.9283910E-08  0.3287008E+04  0.7818609E-02  0.8166209E-01
        1   -1    0    0  501    0  0.00000000000E+00  0.00000000000E+00  0.18240966775E+04  0.18240966775E+04  0.50400001928E-02 0.  1.
       -1   -1    0    0    0  501  0.00000000000E+00  0.00000000000E+00 -0.14807908167E+04  0.14807908167E+04  0.50400001928E-02 0. -1.
    10030    2    1    2    0    0  0.00000000000E+00  0.00000000000E+00  0.34330586081E+03  0.33048874942E+04  0.32870081283E+04 0.  0.
        3    1    3    3  502    0  0.63560994618E+03  0.95632205573E+03  0.13538691389E+04  0.17752502734E+04  0.10100000352E+00 0.  1.
       -3    1    3    3    0  502 -0.63560994618E+03 -0.95632205573E+03 -0.10105632781E+04  0.15296372208E+04  0.10100000352E+00 0. -1.
</event>
<event>
 5   0  0.9810351E-08  0.3286852E+04  0.7818609E-02  0.8166249E-01
       -1   -1    0    0    0  501  0.00000000000E+00  0.00000000000E+00  0.16090047775E+04  0.16090047775E+04  0.50400001928E-02 0.  1.
        1   -1    0    0  501    0  0.00000000000E+00  0.00000000000E+00 -0.16785835800E+04  0.16785835800E+04  0.50400001928E-02 0. -1.
    10030    2    1    2    0    0  0.00000000000E+00  0.00000000000E+00 -0.69578802574E+02  0.32875883575E+04  0.32868519892E+04 0.  0.
        5    1    3    3  502    0  0.25228861557E+03 -0.14106807573E+04 -0.83943041984E+03  0.16608236704E+04  0.46999998093E+01 0. -1.
       -5    1    3    3    0  502 -0.25228861557E+03  0.14106807573E+04  0.76985161726E+03  0.16267646871E+04  0.46999998093E+01 0.  1.
</event>
<event>
 5   0  0.2727168E-07  0.3308434E+04  0.7818609E-02  0.8160753E-01
        2   -1    0    0  501    0  0.00000000000E+00  0.00000000000E+00  0.19059524887E+04  0.19059524887E+04  0.25500000920E-02 0.  1.
       -2   -1    0    0    0  501  0.00000000000E+00  0.00000000000E+00 -0.14357306992E+04  0.14357306992E+04  0.25500000920E-02 0. -1.
    10030    2    1    2    0    0  0.00000000000E+00  0.00000000000E+00  0.47022178954E+03  0.33416831879E+04  0.33084343725E+04 0.  0.
        2    1    3    3  502    0 -0.77682487736E+03 -0.29685419394E+03 -0.12092443716E+04  0.14676005086E+04  0.25500000920E-02 0. -1.
       -2    1    3    3    0  502  0.77682487736E+03  0.29685419394E+03  0.16794661611E+04  0.18740826793E+04  0.25500000920E-02 0.  1.
</event>
<event>
 5   0  0.2713815E-07  0.3299124E+04  0.7818609E-02  0.8163118E-01
       -2   -1    0    0    0  501  0.00000000000E+00  0.00000000000E+00  0.26449511952E+04  0.26449511953E+04  0.25500000920E-02 0.  1.
        2   -1    0    0  501    0  0.00000000000E+00  0.00000000000E+00 -0.10287733405E+04  0.10287733405E+04  0.25500000920E-02 0. -1.
    10030    2    1    2    0    0  0.00000000000E+00  0.00000000000E+00  0.16161778547E+04  0.36737245358E+04  0.32991242939E+04 0.  0.
        4    1    3    3  502    0  0.15586558241E+04  0.22072702299E+03  0.25925082341E+03  0.15954124856E+04  0.12699999809E+01 0. -1.
       -4    1    3    3    0  502 -0.15586558241E+04 -0.22072702299E+03  0.13569270313E+04  0.20783120502E+04  0.12699999809E+01 0.  1.
</event>
<event>
 5   0  0.9283910E-08  0.3266126E+04  0.7818609E-02  0.8171568E-01
        1   -1    0    0  501    0  0.00000000000E+00  0.00000000000E+00  0.10216183222E+04  0.10216183222E+04  0.50400001928E-02 0.  1.
       -1   -1    0    0    0  501  0.00000000000E+00  0.00000000000E+00 -0.26104610039E+04  0.26104610039E+04  0.50400001928E-02 0. -1.
    10030    2    1    2    0    0  0.00000000000E+00  0.00000000000E+00 -0.15888426817E+04  0.36320793260E+04  0.32661260177E+04 0.  0.
        3    1    3    3  502    0 -0.32035192609E+03  0.30516181237E+03  0.95369995480E+03  0.10513290171E+04  0.10100000352E+00 0.  1.
       -3    1    3    3    0  502  0.32035192609E+03 -0.30516181237E+03 -0.25425426365E+04  0.25807503089E+04  0.10100000352E+00 0. -1.
</event>
<event>
 5   0  0.2727168E-07  0.3301839E+04  0.7818609E-02  0.8162428E-01
        2   -1    0    0  501    0  0.00000000000E+00  0.00000000000E+00  0.25535448635E+04  0.25535448635E+04  0.25500000920E-02 0. -1.
       -2   -1    0    0    0  501  0.00000000000E+00  0.00000000000E+00 -0.10673537803E+04  0.10673537803E+04  0.25500000920E-02 0.  1.
    10030    2    1    2    0    0  0.00000000000E+00  0.00000000000E+00  0.14861910832E+04  0.36208986438E+04  0.33018393439E+04 0.  0.
        2    1    3    3  502    0 -0.95039038211E+03  0.81195004717E+03  0.19257451070E+04  0.22958656264E+04  0.25500000920E-02 0. -1.
       -2    1    3    3    0  502  0.95039038211E+03 -0.81195004717E+03 -0.43955402375E+03  0.13250330174E+04  0.25500000920E-02 0.  1.
</event>
<event>
 5   0  0.2713815E-07  0.3299204E+04  0.7818609E-02  0.8163098E-01
       -2   -1    0    0    0  501  0.00000000000E+00  0.00000000000E+00  0.12884008129E+04  0.12884008129E+04  0.25500000920E-02 0.  1.
        2   -1    0    0  501    0  0.00000000000E+00  0.00000000000E+00 -0.21120656635E+04  0.21120656636E+04  0.25500000920E-02 0. -1.
    10030    2    1    2    0    0  0.00000000000E+00  0.00000000000E+00 -0.82366485062E+03  0.34004664765E+04  0.32992042179E+04 0.  0.
        4    1    3    3  502    0  0.15276965782E+04  0.42090567372E+03 -0.88434312565E+03  0.18146853165E+04  0.12699999809E+01 0. -1.
       -4    1    3    3    0  502 -0.15276965782E+04 -0.42090567372E+03  0.60678275035E+02  0.15857811599E+04  0.12699999809E+01 0.  1.
</event>
<event>
 5   0  0.2875829E-07  0.3293447E+04  0.7818609E-02  0.8164565E-01
        2   -1    0    0  501    0  0.00000000000E+00  0.00000000000E+00  0.17536926675E+04  0.17536926675E+04  0.25500000920E-02 0.  1.
       -2   -1    0    0    0  501  0.00000000000E+00  0.00000000000E+00 -0.15462794300E+04  0.15462794300E+04  0.25500000920E-02 0. -1.
    10030    2    1    2    0    0  0.00000000000E+00  0.00000000000E+00  0.20741323746E+03  0.32999720974E+04  0.32934473721E+04 0.  0.
        3    1    3    3  502    0  0.46056733050E+03  0.35044083141E+03  0.16484378298E+04  0.17470770822E+04  0.10100000352E+00 0.  1.
       -3    1    3    3    0  502 -0.46056733050E+03 -0.35044083141E+03 -0.14410245924E+04  0.15528950152E+04  0.10100000352E+00 0. -1.
</event>
<event>
 5   0  0.9810351E-08  0.3295239E+04  0.7818609E-02  0.8164108E-01
        1   -1    0    0  501    0  0.00000000000E+00  0.00000000000E+00  0.17441777383E+04  0.17441777383E+04  0.50400001928E-02 0.  1.
       -1   -1    0    0    0  501  0.00000000000E+00  0.00000000000E+00 -0.15564071926E+04  0.15564071926E+04  0.50400001928E-02 0. -1.
    10030    2    1    2    0    0  0.00000000000E+00  0.00000000000E+00  0.18777054567E+03  0.33005849309E+04  0.32952394614E+04 0.  0.
        5    1    3    3  502    0 -0.11346631743E+04 -0.50457327552E+03  0.11784964076E+04  0.17119960813E+04  0.46999998093E+01 0.  1.
       -5    1    3    3    0  502  0.11346631743E+04  0.50457327552E+03 -0.99072586198E+03  0.15885888496E+04  0.46999998093E+01 0. -1.
</event>
<event>
 5   0  0.2727168E-07  0.3305537E+04  0.7818609E-02  0.8161488E-01
        2   -1    0    0  501    0  0.00000000000E+00  0.00000000000E+00  0.12196992949E+04  0.12196992949E+04  0.25500000920E-02 0. -1.
       -2   -1    0    0    0  501  0.00000000000E+00  0.00000000000E+00 -0.22396040622E+04  0.22396040622E+04  0.25500000920E-02 0.  1.
    10030    2    1    2    0    0  0.00000000000E+00  0.00000000000E+00 -0.10199047673E+04  0.34593033571E+04  0.33055368675E+04 0.  0.
        2    1    3    3  502    0 -0.25766163442E+03  0.12265845610E+04 -0.16374481542E+04  0.20620707216E+04  0.25500000920E-02 0.  1.
       -2    1    3    3    0  502  0.25766163442E+03 -0.12265845610E+04  0.61754338691E+03  0.13972326355E+04  0.25500000920E-02 0. -1.
</event>
<event>
 5   0  0.8805125E-08  0.3302331E+04  0.7818609E-02  0.8162303E-01
       -3   -1    0    0    0  501  0.00000000000E+00  0.00000000000E+00  0.20695562082E+04  0.20695562106E+04  0.10100000352E+00 0.  1.
        3   -1    0    0  501    0  0.00000000000E+00  0.00000000000E+00 -0.13173582806E+04  0.13173582844E+04  0.10100000352E+00 0. -1.
    10030    2    1    2    0    0  0.00000000000E+00  0.00000000000E+00  0.75219792761E+03  0.33869144951E+04  0.33023307034E+04 0.  0.
        5    1    3    3  502    0 -0.10021877077E+04 -0.81090696350E+03 -0.68201129781E+03  0.14584621370E+04  0.46999998093E+01 0. -1.
       -5    1    3    3    0  502  0.10021877077E+04  0.81090696350E+03  0.14342092254E+04  0.19284523580E+04  0.46999998093E+01 0.  1.
</event>
<event>
 5   0  0.8805125E-08  0.3299665E+04  0.7818609E-02  0.8162981E-01
        1   -1    0    0  501    0  0.00000000000E+00  0.00000000000E+00  0.21919558350E+04  0.21919558350E+04  0.50400001928E-02 0. -1.
       -1   -1    0    0    0  501  0.00000000000E+00  0.00000000000E+00 -0.12417895371E+04  0.12417895371E+04  0.50400001928E-02 0.  1.
    10030    2    1    2    0    0  0.00000000000E+00  0.00000000000E+00  0.95016629796E+03  0.34337453721E+04  0.32996653295E+04 0.  0.
        4    1    3    3  502    0  0.14200947828E+04 -0.10256240634E+03  0.13424742499E+04  0.19568921697E+04  0.12699999809E+01 0. -1.
       -4    1    3    3    0  502 -0.14200947828E+04  0.10256240634E+03 -0.39230795195E+03  0.14768532024E+04  0.12699999809E+01 0.  1.
</event>
<event>
 5   0  0.2727168E-07  0.3285641E+04  0.7818609E-02  0.8166559E-01
       -2   -1    0    0    0  501  0.00000000000E+00  0.00000000000E+00  0.12231883171E+04  0.12231883171E+04  0.25500000920E-02 0. -1.
        2   -1    0    0  501    0  0.00000000000E+00  0.00000000000E+00 -0.22064131646E+04  0.22064131646E+04  0.25500000920E-02 0.  1.
    10030    2    1    2    0    0  0.00000000000E+00  0.00000000000E+00 -0.98322484745E+03  0.34296014817E+04  0.32856407629E+04 0.  0.
        2    1    3    3  502    0 -0.14298606930E+03 -0.66285079853E+03 -0.20535179422E+04  0.21625799721E+04  0.25500000920E-02 0.  1.
       -2    1    3    3    0  502  0.14298606930E+03  0.66285079853E+03  0.10702930947E+04  0.12670215096E+04  0.25500000920E-02 0. -1.
</event>
<event>
 5   0  0.9810351E-08  0.3287084E+04  0.7818609E-02  0.8166190E-01
        1   -1    0    0  501    0  0.00000000000E+00  0.00000000000E+00  0.24311298520E+04  0.24311298520E+04  0.50400001928E-02 0.  1.
       -1   -1    0    0    0  501  0.00000000000E+00  0.00000000000E+00 -0.11111005011E+04  0.11111005011E+04  0.50400001928E-02 0. -1.
    10030    2    1    2    0    0  0.00000000000E+00  0.00000000000E+00  0.13200293509E+04  0.35422303531E+04  0.32870835686E+04 0.  0.
        5    1    3    3  502    0  0.12967768780E+04 -0.45390434335E+03  0.16319954340E+04  0.21333285286E+04  0.46999998093E+01 0.  1.
       -5    1    3    3    0  502 -0.12967768780E+04  0.45390434335E+03 -0.31196608315E+03  0.14089018245E+04  0.46999998093E+01 0. -1.
</event>
<event>
 5   0  0.9810351E-08  0.3312846E+04  0.7818609E-02  0.8159634E-01
        1   -1    0    0  501    0  0.00000000000E+00  0.00000000000E+00  0.14425978914E+04  0.14425978914E+04  0.50400001928E-02 0. -1.
       -1   -1    0    0    0  501  0.00000000000E+00  0.00000000000E+00 -0.19019414596E+04  0.19019414596E+04  0.50400001928E-02 0.  1.
    10030    2    1    2    0    0  0.00000000000E+00  0.00000000000E+00 -0.45934356825E+03  0.33445393510E+04  0.33128457490E+04 0.  0.
        5    1    3    3  502    0 -0.10975751047E+04  0.30426708963E+03  0.98452498093E+03  0.15055102458E+04  0.46999998093E+01 0. -1.
       -5    1    3    3    0  502  0.10975751047E+04 -0.30426708963E+03 -0.14438685492E+04  0.18390291052E+04  0.46999998093E+01 0.  1.
</event>
<event>
 5   0  0.9283910E-08  0.3297582E+04  0.7818609E-02  0.8163511E-01
       -1   -1    0    0    0  501  0.00000000000E+00  0.00000000000E+00  0.10735796743E+04  0.10735796744E+04  0.50400001928E-02 0. -1.
        1   -1    0    0  501    0  0.00000000000E+00  0.00000000000E+00 -0.25321941358E+04  0.25321941358E+04  0.50400001928E-02 0.  1.
    10030    2    1    2    0    0  0.00000000000E+00  0.00000000000E+00 -0.14586144614E+04  0.36057738101E+04  0.32975822390E+04 0.  0.
        3    1    3    3  502    0  0.12673132088E+04  0.84780294310E+03 -0.14153690304E+04  0.20804139257E+04  0.10100000352E+00 0.  1.
       -3    1    3    3    0  502 -0.12673132088E+04 -0.84780294310E+03 -0.43245431001E+02  0.15253598845E+04  0.10100000352E+00 0. -1.
</event>
<event>
 5   0  0.9454010E-08  0.3298889E+04  0.7818609E-02  0.8163178E-01
       -1   -1    0    0    0  501  0.00000000000E+00  0.00000000000E+00  0.27019126436E+04  0.27019126436E+04  0.50400001928E-02 0.  1.
        1   -1    0    0  501    0  0.00000000000E+00  0.00000000000E+00 -0.10069412817E+04  0.10069412817E+04  0.50400001928E-02 0. -1.
    10030    2    1    2    0    0  0.00000000000E+00  0.00000000000E+00  0.16949713619E+04  0.37088539253E+04  0.32988891345E+04 0.  0.
        2    1    3    3  502    0 -0.66582695178E+03  0.13753860353E+04  0.14929901499E+03  0.15353509279E+04  0.25500000920E-02 0. -1.
       -2    1    3    3    0  502  0.66582695178E+03 -0.13753860353E+04  0.15456723469E+04  0.21735029974E+04  0.25500000920E-02 0.  1.
</event>
<event>
 5   0  0.2703956E-07  0.3291461E+04  0.7818609E-02  0.8165071E-01
       -2   -1    0    0    0  501  0.00000000000E+00  0.00000000000E+00  0.14280585390E+04  0.14280585390E+04  0.25500000920E-02 0. -1.
        2   -1    0    0  501    0  0.00000000000E+00  0.00000000000E+00 -0.18965815651E+04  0.18965815651E+04  0.25500000920E-02 0.  1.
    10030    2    1    2    0    0  0.00000000000E+00  0.00000000000E+00 -0.46852302605E+03  0.33246401042E+04  0.32914613770E+04 0.  0.
        5    1    3    3  502    0  0.10336570254E+04 -0.12677799926E+04 -0.51622766975E+02  0.16365817901E+04  0.46999998093E+01 0.  1.
       -5    1    3    3    0  502 -0.10336570254E+04  0.12677799926E+04 -0.41690025908E+03  0.16880583141E+04  0.46999998093E+01 0. -1.
</event>
<event>
 5   0  0.8805125E-08  0.3297197E+04  0.7818609E-02  0.8163609E-01
       -1   -1    0    0    0  501  0.00000000000E+00  0.00000000000E+00  0.15124149202E+04  0.15124149202E+04  0.50400001928E-02 0.  1.
        1   -1    0    0  501    0  0.00000000000E+00  0.00000000000E+00 -0.17970444733E+04  0.17970444733E+04  0.50400001928E-02 0. -1.
    10030    2    1    2    0    0  0.00000000000E+00  0.00000000000E+00 -0.28462955313E+03  0.33094593935E+04  0.32971969148E+04 0.  0.
        4    1    3    3  502    0  0.13128656885E+04  0.31980202769E+03  0.80564758782E+03  0.15732003374E+04  0.12699999809E+01 0.  1.
       -4    1    3    3    0  502 -0.13128656885E+04 -0.31980202769E+03 -0.10902771410E+04  0.17362590561E+04  0.12699999809E+01 0. -1.
</event>
<event>
 5   0  0.9810351E-08  0.3296695E+04  0.7818609E-02  0.8163737E-01
        1   -1    0    0  501    0  0.00000000000E+00  0.00000000000E+00  0.14659604633E+04  0.14659604633E+04  0.50400001928E-02 0. -1.
       -1   -1    0    0    0  501  0.00000000000E+00  0.00000000000E+00 -0.18534256180E+04  0.18534256180E+04  0.50400001928E-02 0.  1.
    10030    2    1    2    0    0  0.00000000000E+00  0.00000000000E+00 -0.38746515468E+03  0.33193860814E+04  0.32966945128E+04 0.  0.
        5    1    3    3  502    0  0.31417447257E+03 -0.65416023055E+03 -0.16839180349E+04  0.18336393442E+04  0.46999998093E+01 0.  1.
       -5    1    3    3    0  502 -0.31417447257E+03  0.65416023055E+03  0.12964528802E+04  0.14857467372E+04  0.46999998093E+01 0. -1.
</event>
<event>
 5   0  0.2727168E-07  0.3298482E+04  0.7818609E-02  0.8163282E-01
        2   -1    0    0  501    0  0.00000000000E+00  0.00000000000E+00  0.24087127403E+04  0.24087127403E+04  0.25500000920E-02 0. -1.
       -2   -1    0    0    0  501  0.00000000000E+00  0.00000000000E+00 -0.11292320902E+04  0.11292320902E+04  0.25500000920E-02 0.  1.
    10030    2    1    2    0    0  0.00000000000E+00  0.00000000000E+00  0.12794806501E+04  0.35379448305E+04  0.32984819068E+04 0.  0.
        2    1    3    3  502    0 -0.16038072314E+04  0.38377860710E+03  0.61546859729E+03  0.17601946622E+04  0.25500000920E-02 0. -1.
       -2    1    3    3    0  502  0.16038072314E+04 -0.38377860710E+03  0.66401205277E+03  0.17777501683E+04  0.25500000920E-02 0.  1.
</event>
<event>
 5   0  0.9454010E-08  0.3299133E+04  0.7818609E-02  0.8163116E-01
        1   -1    0    0  501    0  0.00000000000E+00  0.00000000000E+00  0.22803945428E+04  0.22803945428E+04  0.50400001928E-02 0.  1.
       -1   -1    0    0    0  501  0.00000000000E+00  0.00000000000E+00 -0.11932447665E+04  0.11932447665E+04  0.50400001928E-02 0. -1.
    10030    2    1    2    0    0  0.00000000000E+00  0.00000000000E+00  0.10871497763E+04  0.34736393093E+04  0.32991325246E+04 0.  0.
        2    1    3    3  502    0 -0.78288884364E+03  0.91812599417E+03  0.17278819144E+04  0.21074738890E+04  0.25500000920E-02 0.  1.
       -2    1    3    3    0  502  0.78288884364E+03 -0.91812599417E+03 -0.64073213816E+03  0.13661654203E+04  0.25500000920E-02 0. -1.
</event>
<event>
 5   0  0.2703956E-07  0.3295667E+04  0.7818609E-02  0.8163999E-01
        2   -1    0    0  501    0  0.00000000000E+00  0.00000000000E+00  0.14152179030E+04  0.14152179030E+04  0.25500000920E-02 0. -1.
       -2   -1    0    0    0  501  0.00000000000E+00  0.00000000000E+00 -0.19186833535E+04  0.19186833535E+04  0.25500000920E-02 0.  1.
    10030    2    1    2    0    0  0.00000000000E+00  0.00000000000E+00 -0.50346545051E+03  0.33339012565E+04  0.32956668716E+04 0.  0.
        5    1    3    3  502    0  0.13112111187E+04 -0.30185471479E+03  0.71058795082E+03  0.15216268243E+04  0.46999998093E+01 0. -1.
       -5    1    3    3    0  502 -0.13112111187E+04  0.30185471479E+03 -0.12140534013E+04  0.18122744323E+04  0.46999998093E+01 0.  1.
</event>
<event>
 5   0  0.9181760E-08  0.3337040E+04  0.7818609E-02  0.8153534E-01
       -1   -1    0    0    0  501  0.00000000000E+00  0.00000000000E+00  0.13966141106E+04  0.13966141106E+04  0.50400001928E-02 0. -1.
        1   -1    0    0  501    0  0.00000000000E+00  0.00000000000E+00 -0.19933633992E+04  0.19933633992E+04  0.50400001928E-02 0.  1.
    10030    2    1    2    0    0  0.00000000000E+00  0.00000000000E+00 -0.59674928860E+03  0.33899775099E+04  0.33370402761E+04 0.  0.
        1    1    3    3  502    0 -0.59650113077E+03  0.49266563197E+03  0.12033954920E+04  0.14306270423E+04  0.50400001928E-02 0. -1.
       -1    1    3    3    0  502  0.59650113077E+03 -0.49266563197E+03 -0.18001447806E+04  0.19593504676E+04  0.50400001928E-02 0.  1.
</event>
<event>
 5   0  0.2875829E-07  0.3322387E+04  0.7818609E-02  0.8157222E-01
       -2   -1    0    0    0  501  0.00000000000E+00  0.00000000000E+00  0.14831136904E+04  0.14831136904E+04  0.25500000920E-02 0. -1.
        2   -1    0    0  501    0  0.00000000000E+00  0.00000000000E+00 -0.18606561081E+04  0.18606561081E+04  0.25500000920E-02 0.  1.
    10030    2    1    2    0    0  0.00000000000E+00  0.00000000000E+00 -0.37754241776E+03  0.33437697985E+04  0.33223874229E+04 0.  0.
        3    1    3    3  502    0 -0.10393992933E+04  0.10272027641E+04 -0.98383522498E+03  0.17616549519E+04  0.10100000352E+00 0.  1.
       -3    1    3    3    0  502  0.10393992933E+04 -0.10272027641E+04  0.60629280722E+03  0.15821148466E+04  0.10100000352E+00 0. -1.
</event>
<event>
 5   0  0.2703956E-07  0.3296547E+04  0.7818609E-02  0.8163775E-01
       -2   -1    0    0    0  501  0.00000000000E+00  0.00000000000E+00  0.16669250558E+04  0.16669250558E+04  0.25500000920E-02 0.  1.
        2   -1    0    0  501    0  0.00000000000E+00  0.00000000000E+00 -0.16298305787E+04  0.16298305787E+04  0.25500000920E-02 0. -1.
    10030    2    1    2    0    0  0.00000000000E+00  0.00000000000E+00  0.37094477034E+02  0.32967556345E+04  0.32965469378E+04 0.  0.
        5    1    3    3  502    0  0.14307232655E+04 -0.12176715801E+03  0.82791116730E+03  0.16574846286E+04  0.46999998093E+01 0.  1.
       -5    1    3    3    0  502 -0.14307232655E+04  0.12176715801E+03 -0.79081669027E+03  0.16392710059E+04  0.46999998093E+01 0. -1.
</event>
<event>
 5   0  0.9181760E-08  0.3297106E+04  0.7818609E-02  0.8163632E-01
        1   -1    0    0  501    0  0.00000000000E+00  0.00000000000E+00  0.18077336906E+04  0.18077336906E+04  0.50400001928E-02 0.  1.
       -1   -1    0    0    0  501  0.00000000000E+00  0.00000000000E+00 -0.15033893319E+04  0.15033893319E+04  0.50400001928E-02 0. -1.
    10030    2    1    2    0    0  0.00000000000E+00  0.00000000000E+00  0.30434435878E+03  0.33111230225E+04  0.32971063346E+04 0.  0.
        1    1    3    3  502    0  0.75821919274E+03  0.11208395458E+04 -0.79339841766E+03  0.15686486798E+04  0.50400001928E-02 0. -1.
       -1    1    3    3    0  502 -0.75821919274E+03 -0.11208395458E+04  0.10977427764E+04  0.17424743427E+04  0.50400001928E-02 0.  1.
</event>
<event>
 5   0  0.2727168E-07  0.3306842E+04  0.7818609E-02  0.8161157E-01
       -2   -1    0    0    0  501  0.00000000000E+00  0.00000000000E+00  0.12491939984E+04  0.12491939984E+04  0.25500000920E-02 0.  1.
        2   -1    0    0  501    0  0.00000000000E+00  0.00000000000E+00 -0.21884524346E+04  0.21884524346E+04  0.25500000920E-02 0. -1.
    10030    2    1    2    0    0  0.00000000000E+00  0.00000000000E+00 -0.93925843615E+03  0.34376464330E+04  0.33068423894E+04 0.  0.
        2    1    3    3  502    0 -0.83796545223E+03  0.11979122872E+04 -0.12725953605E+04  0.19382153902E+04  0.25500000920E-02 0. -1.
       -2    1    3    3    0  502  0.83796545223E+03 -0.11979122872E+04  0.33333692436E+03  0.14994310428E+04  0.25500000920E-02 0.  1.
</event>
<event>
 5   0  0.2703956E-07  0.3294166E+04  0.7818609E-02  0.8164382E-01
        2   -1    0    0  501    0  0.00000000000E+00  0.00000000000E+00  0.25630545368E+04  0.25630545368E+04  0.25500000920E-02 0. -1.
       -2   -1    0    0    0  501  0.00000000000E+00  0.00000000000E+00 -0.10584565250E+04  0.10584565251E+04  0.25500000920E-02 0.  1.
    10030    2    1    2    0    0  0.00000000000E+00  0.00000000000E+00  0.15045980118E+04  0.36215110619E+04  0.32941656294E+04 0.  0.
        5    1    3    3  502    0  0.12101511819E+03 -0.12267133003E+04  0.19532782338E+04  0.23097160277E+04  0.46999998093E+01 0. -1.
       -5    1    3    3    0  502 -0.12101511819E+03  0.12267133003E+04 -0.44868022202E+03  0.13117950342E+04  0.46999998093E+01 0.  1.
</event>
<event>
 5   0  0.8805125E-08  0.3308846E+04  0.7818609E-02  0.8160648E-01
       -1   -1    0    0    0  501  0.00000000000E+00  0.00000000000E+00  0.13091100637E+04  0.13091100637E+04  0.50400001928E-02 0. -1.
        1   -1    0    0  501    0  0.00000000000E+00  0.00000000000E+00 -0.20908219458E+04  0.20908219458E+04  0.50400001928E-02 0.  1.
    10030    2    1    2    0    0  0.00000000000E+00  0.00000000000E+00 -0.78171188214E+03  0.33999320095E+04  0.33088463552E+04 0.  0.
        4    1    3    3  502    0 -0.50037558959E+03 -0.30982160621E+03  0.11979126580E+04  0.13346765553E+04  0.12699999809E+01 0. -1.
       -4    1    3    3    0  502  0.50037558959E+03  0.30982160621E+03 -0.19796245401E+04  0.20652554542E+04  0.12699999809E+01 0.  1.
</event>
<event>
 5   0  0.2703956E-07  0.3303499E+04  0.7818609E-02  0.8162006E-01
        2   -1    0    0  501    0  0.00000000000E+00  0.00000000000E+00  0.24170769917E+04  0.24170769917E+04  0.25500000920E-02 0.  1.
       -2   -1    0    0    0  501  0.00000000000E+00  0.00000000000E+00 -0.11287502222E+04  0.11287502223E+04  0.25500000920E-02 0. -1.
    10030    2    1    2    0    0  0.00000000000E+00  0.00000000000E+00  0.12883267695E+04  0.35458272140E+04  0.33034988673E+04 0.  0.
        5    1    3    3  502    0  0.66326086711E+03  0.57436801272E+03  0.21462625284E+04  0.23186803408E+04  0.46999998093E+01 0.  1.
       -5    1    3    3    0  502 -0.66326086711E+03 -0.57436801272E+03 -0.85793575895E+03  0.12271468732E+04  0.46999998093E+01 0. -1.
</event>
<event>
 5   0  0.8805125E-08  0.3304870E+04  0.7818609E-02  0.8161657E-01
       -1   -1    0    0    0  501  0.00000000000E+00  0.00000000000E+00  0.18431409270E+04  0.18431409271E+04  0.50400001928E-02 0. -1.
        1   -1    0    0  501    0  0.00000000000E+00  0.00000000000E+00 -0.14814606226E+04  0.14814606226E+04  0.50400001928E-02 0.  1.
    10030    2    1    2    0    0  0.00000000000E+00  0.00000000000E+00  0.36168030449E+03  0.33246015496E+04  0.33048695619E+04 0.  0.
        4    1    3    3  502    0 -0.15796515745E+04 -0.20415188581E+03  0.62342376909E+03  0.17104490341E+04  0.12699999809E+01 0. -1.
       -4    1    3    3    0  502  0.15796515745E+04  0.20415188581E+03 -0.26174346460E+03  0.16141525156E+04  0.12699999809E+01 0.  1.
</event>
<event>
 5   0  0.9810351E-08  0.3300082E+04  0.7818609E-02  0.8162874E-01
        1   -1    0    0  501    0  0.00000000000E+00  0.00000000000E+00  0.80456853921E+03  0.80456853922E+03  0.50400001928E-02 0. -1.
       -1   -1    0    0    0  501  0.00000000000E+00  0.00000000000E+00 -0.33839697670E+04  0.33839697670E+04  0.50400001928E-02 0.  1.
    10030    2    1    2    0    0  0.00000000000E+00  0.00000000000E+00 -0.25794012278E+04  0.41885383062E+04  0.33000821882E+04 0.  0.
        5    1    3    3  502    0 -0.35823020245E+03 -0.15675683120E+04 -0.81989243312E+03  0.18049501330E+04  0.46999998093E+01 0.  1.
       -5    1    3    3    0  502  0.35823020245E+03  0.15675683120E+04 -0.17595087947E+04  0.23835881732E+04  0.46999998093E+01 0. -1.
</event>
<event>
 5   0  0.9810351E-08  0.3302618E+04  0.7818609E-02  0.8162229E-01
        1   -1    0    0  501    0  0.00000000000E+00  0.00000000000E+00  0.19727495874E+04  0.19727495874E+04  0.50400001928E-02 0. -1.
       -1   -1    0    0    0  501  0.00000000000E+00  0.00000000000E+00 -0.13822443488E+04  0.13822443489E+04  0.50400001928E-02 0.  1.
    10030    2    1    2    0    0  0.00000000000E+00  0.00000000000E+00  0.59050523856E+03  0.33549939363E+04  0.33026183363E+04 0.  0.
        5    1    3    3  502    0  0.32249087357E+03 -0.69245173704E+03 -0.11919695744E+04  0.14157342011E+04  0.46999998093E+01 0.  1.
       -5    1    3    3    0  502 -0.32249087357E+03  0.69245173704E+03  0.17824748130E+04  0.19392597352E+04  0.46999998093E+01 0. -1.
</event>
<event>
 5   0  0.2875829E-07  0.3309411E+04  0.7818609E-02  0.8160505E-01
       -2   -1    0    0    0  501  0.00000000000E+00  0.00000000000E+00  0.17215986102E+04  0.17215986102E+04  0.25500000920E-02 0.  1.
        2   -1    0    0  501    0  0.00000000000E+00  0.00000000000E+00 -0.15904116699E+04  0.15904116699E+04  0.25500000920E-02 0. -1.
    10030    2    1    2    0    0  0.00000000000E+00  0.00000000000E+00  0.13118694036E+03  0.33120102801E+04  0.33094111383E+04 0.  0.
        3    1    3    3  502    0  0.84426055053E+03  0.13496324379E+04  0.51735348373E+03  0.16738991105E+04  0.10100000352E+00 0.  1.
       -3    1    3    3    0  502 -0.84426055053E+03 -0.13496324379E+04 -0.38616654337E+03  0.16381111696E+04  0.10100000352E+00 0. -1.
</event>
<event>
 5   0  0.9810351E-08  0.3293766E+04  0.7818609E-02  0.8164484E-01
       -1   -1    0    0    0  501  0.00000000000E+00  0.00000000000E+00  0.23577809465E+04  0.23577809465E+04  0.50400001928E-02 0. -1.
        1   -1    0    0  501    0  0.00000000000E+00  0.00000000000E+00 -0.11503286863E+04  0.11503286863E+04  0.50400001928E-02 0.  1.
    10030    2    1    2    0    0  0.00000000000E+00  0.00000000000E+00  0.12074522602E+04  0.35081096328E+04  0.32937656618E+04 0.  0.
        5    1    3    3  502    0  0.37620752596E+03 -0.15401027805E+03 -0.10960457630E+04  0.11690122639E+04  0.46999998093E+01 0.  1.
       -5    1    3    3    0  502 -0.37620752596E+03  0.15401027805E+03  0.23034980233E+04  0.23390973690E+04  0.46999998093E+01 0. -1.
</event>
<event>
 5   0  0.9810351E-08  0.3305671E+04  0.7818609E-02  0.8161454E-01
        1   -1    0    0  501    0  0.00000000000E+00  0.00000000000E+00  0.16976904124E+04  0.16976904124E+04  0.50400001928E-02 0. -1.
       -1   -1    0    0    0  501  0.00000000000E+00  0.00000000000E+00 -0.16091659353E+04  0.16091659354E+04  0.50400001928E-02 0.  1.
    10030    2    1    2    0    0  0.00000000000E+00  0.00000000000E+00  0.88524477087E+02  0.33068563478E+04  0.33056712362E+04 0.  0.
        5    1    3    3  502    0  0.10641704321E+04 -0.12646579218E+04  0.39248167912E+02  0.16532939473E+04  0.46999998093E+01 0.  1.
       -5    1    3    3    0  502 -0.10641704321E+04  0.12646579218E+04  0.49276309175E+02  0.16535624005E+04  0.46999998093E+01 0. -1.
</event>
<event>
 5   0  0.2875829E-07  0.3307740E+04  0.7818609E-02  0.8160929E-01
        2   -1    0    0  501    0  0.00000000000E+00  0.00000000000E+00  0.14927996534E+04  0.14927996534E+04  0.25500000920E-02 0. -1.
       -2   -1    0    0    0  501  0.00000000000E+00  0.00000000000E+00 -0.18323194135E+04  0.18323194135E+04  0.25500000920E-02 0.  1.
    10030    2    1    2    0    0  0.00000000000E+00  0.00000000000E+00 -0.33951976004E+03  0.33251190669E+04  0.33077398842E+04 0.  0.
        3    1    3    3  502    0 -0.59589457811E+03  0.57905095727E+03  0.12677518659E+04  0.15157787316E+04  0.10100000352E+00 0. -1.
       -3    1    3    3    0  502  0.59589457811E+03 -0.57905095727E+03 -0.16072716260E+04  0.18093403354E+04  0.10100000352E+00 0.  1.
</event>
<event>
 5   0  0.2824402E-07  0.3304551E+04  0.7818609E-02  0.8161738E-01
        2   -1    0    0  501    0  0.00000000000E+00  0.00000000000E+00  0.94206284400E+03  0.94206284400E+03  0.25500000920E-02 0.  1.
       -2   -1    0    0    0  501  0.00000000000E+00  0.00000000000E+00 -0.28979113835E+04  0.28979113835E+04  0.25500000920E-02 0. -1.
    10030    2    1    2    0    0  0.00000000000E+00  0.00000000000E+00 -0.19558485395E+04  0.38399742275E+04  0.33045511886E+04 0.  0.
        1    1    3    3  502    0 -0.73476415787E+03  0.80150474641E+03 -0.24235734792E+04  0.26563126012E+04  0.50400001928E-02 0. -1.
       -1    1    3    3    0  502  0.73476415787E+03 -0.80150474641E+03  0.46772493974E+03  0.11836616263E+04  0.50400001928E-02 0.  1.
</event>
<event>
 5   0  0.2713815E-07  0.3297110E+04  0.7818609E-02  0.8163631E-01
        2   -1    0    0  501    0  0.00000000000E+00  0.00000000000E+00  0.17066050689E+04  0.17066050689E+04  0.25500000920E-02 0. -1.
       -2   -1    0    0    0  501  0.00000000000E+00  0.00000000000E+00 -0.15924796341E+04  0.15924796341E+04  0.25500000920E-02 0.  1.
    10030    2    1    2    0    0  0.00000000000E+00  0.00000000000E+00  0.11412543484E+03  0.32990847030E+04  0.32971101381E+04 0.  0.
        4    1    3    3  502    0 -0.10412374379E+04  0.98965034188E+03 -0.75221643486E+03  0.16215469093E+04  0.12699999809E+01 0.  1.
       -4    1    3    3    0  502  0.10412374379E+04 -0.98965034188E+03  0.86634186970E+03  0.16775377937E+04  0.12699999809E+01 0. -1.
</event>
<event>
 5   0  0.9454010E-08  0.3303705E+04  0.7818609E-02  0.8161953E-01
        1   -1    0    0  501    0  0.00000000000E+00  0.00000000000E+00  0.18339662771E+04  0.18339662771E+04  0.50400001928E-02 0.  1.
       -1   -1    0    0    0  501  0.00000000000E+00  0.00000000000E+00 -0.14878227206E+04  0.14878227206E+04  0.50400001928E-02 0. -1.
    10030    2    1    2    0    0  0.00000000000E+00  0.00000000000E+00  0.34614355652E+03  0.33217889978E+04  0.33037050086E+04 0.  0.
        2    1    3    3  502    0  0.95681972041E+03  0.11922667175E+04  0.80228699341E+03  0.17264612139E+04  0.25500000920E-02 0.  1.
       -2    1    3    3    0  502 -0.95681972041E+03 -0.11922667175E+04 -0.45614343689E+03  0.15953277839E+04  0.25500000920E-02 0. -1.
</event>
<event>
 5   0  0.2703956E-07  0.3308252E+04  0.7818609E-02  0.8160799E-01
       -2   -1    0    0    0  501  0.00000000000E+00  0.00000000000E+00  0.22684201859E+04  0.22684201859E+04  0.25500000920E-02 0. -1.
        2   -1    0    0  501    0  0.00000000000E+00  0.00000000000E+00 -0.12061843518E+04  0.12061843518E+04  0.25500000920E-02 0.  1.
    10030    2    1    2    0    0  0.00000000000E+00  0.00000000000E+00  0.10622358341E+04  0.34746045376E+04  0.33082520650E+04 0.  0.
        5    1    3    3  502    0  0.58689892788E+03  0.55124717437E+03  0.20486919584E+04  0.22012461537E+04  0.46999998093E+01 0. -1.
       -5    1    3    3    0  502 -0.58689892788E+03 -0.55124717437E+03 -0.98645612430E+03  0.12733583839E+04  0.46999998093E+01 0.  1.
</event>
<event>
 5   0  0.8805125E-08  0.3282348E+04  0.7818609E-02  0.8167401E-01
        1   -1    0    0  501    0  0.00000000000E+00  0.00000000000E+00  0.23689574830E+04  0.23689574830E+04  0.50400001928E-02 0. -1.
       -1   -1    0    0    0  501  0.00000000000E+00  0.00000000000E+00 -0.11369778661E+04  0.11369778661E+04  0.50400001928E-02 0.  1.
    10030    2    1    2    0    0  0.00000000000E+00  0.00000000000E+00  0.12319796169E+04  0.35059353491E+04  0.32823480766E+04 0.  0.
        4    1    3    3  502    0 -0.29021091574E+03 -0.96156038151E+03  0.20023354377E+04  0.22401271305E+04  0.12699999809E+01 0. -1.
       -4    1    3    3    0  502  0.29021091574E+03  0.96156038151E+03 -0.77035582074E+03  0.12658082186E+04  0.12699999809E+01 0.  1.
</event>
<event>
 5   0  0.2824402E-07  0.3292235E+04  0.7818609E-02  0.8164874E-01
        2   -1    0    0  501    0  0.00000000000E+00  0.00000000000E+00  0.19730513399E+04  0.19730513399E+04  0.25500000920E-02 0. -1.
       -2   -1    0    0    0  501  0.00000000000E+00  0.00000000000E+00 -0.13733561729E+04  0.13733561729E+04  0.25500000920E-02 0.  1.
    10030    2    1    2    0    0  0.00000000000E+00  0.00000000000E+00  0.59969516709E+03  0.33464075128E+04  0.32922346436E+04 0.  0.
        1    1    3    3  502    0  0.76685866121E+02  0.14998222945E+04  0.98499734457E+03  0.17959864716E+04  0.50400001928E-02 0. -1.
       -1    1    3    3    0  502 -0.76685866121E+02 -0.14998222945E+04 -0.38530217749E+03  0.15504210413E+04  0.50400001928E-02 0.  1.
</event>
<event>
 5   0  0.8805125E-08  0.3295151E+04  0.7818609E-02  0.8164130E-01
       -4   -1    0    0    0  501  0.00000000000E+00  0.00000000000E+00  0.17309863338E+04  0.17309867997E+04  0.12699999809E+01 0. -1.
        4   -1    0    0  501    0  0.00000000000E+00  0.00000000000E+00 -0.15681826971E+04  0.15681832114E+04  0.12699999809E+01 0.  1.
    10030    2    1    2    0    0  0.00000000000E+00  0.00000000000E+00  0.16280363668E+03  0.32991700111E+04  0.32951506396E+04 0.  0.
        2    1    3    3  502    0  0.90895983053E+03  0.13530999463E+04  0.32131254018E+03  0.16614238431E+04  0.25500000920E-02 0. -1.
       -2    1    3    3    0  502 -0.90895983053E+03 -0.13530999463E+04 -0.15850890351E+03  0.16377461679E+04  0.25500000920E-02 0.  1.
</event>
<event>
 5   0  0.2727168E-07  0.3288529E+04  0.7818609E-02  0.8165820E-01
        2   -1    0    0  501    0  0.00000000000E+00  0.00000000000E+00  0.15463401885E+04  0.15463401885E+04  0.25500000920E-02 0. -1.
       -2   -1    0    0    0  501  0.00000000000E+00  0.00000000000E+00 -0.17483895389E+04  0.17483895389E+04  0.25500000920E-02 0.  1.
    10030    2    1    2    0    0  0.00000000000E+00  0.00000000000E+00 -0.20204935035E+03  0.32947297274E+04  0.32885285519E+04 0.  0.
        2    1    3    3  502    0  0.12375663455E+04 -0.23267920029E+03  0.95827459396E+03  0.15824033200E+04  0.25500000920E-02 0. -1.
       -2    1    3    3    0  502 -0.12375663455E+04  0.23267920029E+03 -0.11603239443E+04  0.17123264074E+04  0.25500000920E-02 0.  1.
</event>
<event>
 5   0  0.9181760E-08  0.3298766E+04  0.7818609E-02  0.8163210E-01
       -1   -1    0    0    0  501  0.00000000000E+00  0.00000000000E+00  0.32086137291E+04  0.32086137291E+04  0.50400001928E-02 0. -1.
        1   -1    0    0  501    0  0.00000000000E+00  0.00000000000E+00 -0.84786261655E+03  0.84786261657E+03  0.50400001928E-02 0.  1.
    10030    2    1    2    0    0  0.00000000000E+00  0.00000000000E+00  0.23607511125E+04  0.40564763456E+04  0.32987656066E+04 0.  0.
        1    1    3    3  502    0 -0.45355758467E+02  0.16487580727E+04  0.11781400538E+04  0.20269371755E+04  0.50400001928E-02 0.  1.
       -1    1    3    3    0  502  0.45355758467E+02 -0.16487580727E+04  0.11826110588E+04  0.20295391702E+04  0.50400001928E-02 0. -1.
</event>
<event>
 5   0  0.8805125E-08  0.3302283E+04  0.7818609E-02  0.8162315E-01
        1   -1    0    0  501    0  0.00000000000E+00  0.00000000000E+00  0.12557810821E+04  0.12557810821E+04  0.50400001928E-02 0. -1.
       -1   -1    0    0    0  501  0.00000000000E+00  0.00000000000E+00 -0.21709743385E+04  0.21709743385E+04  0.50400001928E-02 0.  1.
    10030    2    1    2    0    0  0.00000000000E+00  0.00000000000E+00 -0.91519325639E+03  0.34267554206E+04  0.33022831520E+04 0.  0.
        4    1    3    3  502    0  0.44718151038E+03 -0.68243559202E+02 -0.21054182787E+04  0.21534660963E+04  0.12699999809E+01 0.  1.
       -4    1    3    3    0  502 -0.44718151038E+03  0.68243559202E+02  0.11902250224E+04  0.12732893243E+04  0.12699999809E+01 0. -1.
</event>
<event>
 5   0  0.2727168E-07  0.3283704E+04  0.7818609E-02  0.8167054E-01
        2   -1    0    0  501    0  0.00000000000E+00  0.00000000000E+00  0.12292289635E+04  0.12292289636E+04  0.25500000920E-02 0.  1.
       -2   -1    0    0    0  501  0.00000000000E+00  0.00000000000E+00 -0.21929830538E+04  0.21929830538E+04  0.25500000920E-02 0. -1.
    10030    2    1    2    0    0  0.00000000000E+00  0.00000000000E+00 -0.96375409022E+03  0.34222120173E+04  0.32837041805E+04 0.  0.
        2    1    3    3  502    0  0.75504312010E+02  0.13406175455E+04 -0.14665703850E+04  0.19884126832E+04  0.25500000920E-02 0. -1.
       -2    1    3    3    0  502 -0.75504312010E+02 -0.13406175455E+04  0.50281629479E+03  0.14337993342E+04  0.25500000920E-02 0.  1.
</event>
<event>
 5   0  0.2703956E-07  0.3289750E+04  0.7818609E-02  0.8165508E-01
        2   -1    0    0  501    0  0.00000000000E+00  0.00000000000E+00  0.15264323184E+04  0.15264323184E+04  0.25500000920E-02 0.  1.
       -2   -1    0    0    0  501  0.00000000000E+00  0.00000000000E+00 -0.17725080014E+04  0.17725080014E+04  0.25500000920E-02 0. -1.
    10030    2    1    2    0    0  0.00000000000E+00  0.00000000000E+00 -0.24607568308E+03  0.32989403198E+04  0.32897498373E+04 0.  0.
        5    1    3    3  502    0  0.39815369800E+03  0.11055559653E+04 -0.12772577354E+04  0.17355661245E+04  0.46999998093E+01 0. -1.
       -5    1    3    3    0  502 -0.39815369800E+03 -0.11055559653E+04  0.10311820524E+04  0.15633741954E+04  0.46999998093E+01 0.  1.
</event>
<event>
 5   0  0.9181760E-08  0.3294241E+04  0.7818609E-02  0.8164362E-01
       -1   -1    0    0    0  501  0.00000000000E+00  0.00000000000E+00  0.16882926852E+04  0.16882926852E+04  0.50400001928E-02 0. -1.
        1   -1    0    0  501    0  0.00000000000E+00  0.00000000000E+00 -0.16069524608E+04  0.16069524609E+04  0.50400001928E-02 0.  1.
    10030    2    1    2    0    0  0.00000000000E+00  0.00000000000E+00  0.81340224318E+02  0.32952451460E+04  0.32942410872E+04 0.  0.
        1    1    3    3  502    0 -0.35864369328E+03 -0.86298153237E+03 -0.13160779300E+04  0.16141324425E+04  0.50400001928E-02 0.  1.
       -1    1    3    3    0  502  0.35864369328E+03  0.86298153237E+03  0.13974181543E+04  0.16811127036E+04  0.50400001928E-02 0. -1.
</event>
<event>
 5   0  0.9454010E-08  0.3293898E+04  0.7818609E-02  0.8164450E-01
        1   -1    0    0  501    0  0.00000000000E+00  0.00000000000E+00  0.18609386313E+04  0.18609386313E+04  0.50400001928E-02 0. -1.
       -1   -1    0    0    0  501  0.00000000000E+00  0.00000000000E+00 -0.14575664214E+04  0.14575664215E+04  0.50400001928E-02 0.  1.
    10030    2    1    2    0    0  0.00000000000E+00  0.00000000000E+00  0.40337220989E+03  0.33185050528E+04  0.32938983964E+04 0.  0.
        2    1    3    3  502    0  0.36772073707E+03  0.11089872697E+04  0.13711202726E+04  0.18014000407E+04  0.25500000920E-02 0. -1.
       -2    1    3    3    0  502 -0.36772073707E+03 -0.11089872697E+04 -0.96774806271E+03  0.15171050121E+04  0.25500000920E-02 0.  1.
</event>
<event>
 5   0  0.2713815E-07  0.3305505E+04  0.7818609E-02  0.8161496E-01
       -2   -1    0    0    0  501  0.00000000000E+00  0.00000000000E+00  0.14673329012E+04  0.14673329012E+04  0.25500000920E-02 0. -1.
        2   -1    0    0  501    0  0.00000000000E+00  0.00000000000E+00 -0.18616025444E+04  0.18616025444E+04  0.25500000920E-02 0.  1.
    10030    2    1    2    0    0  0.00000000000E+00  0.00000000000E+00 -0.39426964314E+03  0.33289354456E+04  0.33055049008E+04 0.  0.
        4    1    3    3  502    0  0.14409996658E+04 -0.89523994174E+01  0.61794058243E+03  0.15679325109E+04  0.12699999809E+01 0. -1.
       -4    1    3    3    0  502 -0.14409996658E+04  0.89523994174E+01 -0.10122102256E+04  0.17610029347E+04  0.12699999809E+01 0.  1.
</event>
<event>
 5   0  0.8805125E-08  0.3297576E+04  0.7818609E-02  0.8163512E-01
       -3   -1    0    0    0  501  0.00000000000E+00  0.00000000000E+00  0.29965907592E+04  0.29965907609E+04  0.10100000352E+00 0.  1.
        3   -1    0    0  501    0  0.00000000000E+00  0.00000000000E+00 -0.90719837303E+03  0.90719837865E+03  0.10100000352E+00 0. -1.
    10030    2    1    2    0    0  0.00000000000E+00  0.00000000000E+00  0.20893923862E+04  0.39037891396E+04  0.32975762467E+04 0.  0.
        3    1    3    3  502    0  0.65122097050E+03 -0.35751684873E+03 -0.69783433465E+03  0.10192545405E+04  0.10100000352E+00 0. -1.
       -3    1    3    3    0  502 -0.65122097050E+03  0.35751684873E+03  0.27872267209E+04  0.28845345991E+04  0.10100000352E+00 0.  1.
</event>
<event>
 5   0  0.2713815E-07  0.3303005E+04  0.7818609E-02  0.8162131E-01
       -2   -1    0    0    0  501  0.00000000000E+00  0.00000000000E+00  0.17694615051E+04  0.17694615051E+04  0.25500000920E-02 0.  1.
        2   -1    0    0  501    0  0.00000000000E+00  0.00000000000E+00 -0.15414070447E+04  0.15414070447E+04  0.25500000920E-02 0. -1.
    10030    2    1    2    0    0  0.00000000000E+00  0.00000000000E+00  0.22805446036E+03  0.33108685498E+04  0.33030049526E+04 0.  0.
        4    1    3    3  502    0 -0.32898407477E+03 -0.42455477224E+01 -0.15082231928E+04  0.15436927668E+04  0.12699999809E+01 0. -1.
       -4    1    3    3    0  502  0.32898407477E+03  0.42455477224E+01  0.17362776532E+04  0.17671757830E+04  0.12699999809E+01 0.  1.
</event>
<event>
 5   0  0.2713815E-07  0.3363431E+04  0.7818609E-02  0.8146940E-01
       -2   -1    0    0    0  501  0.00000000000E+00  0.00000000000E+00  0.14878630572E+04  0.14878630573E+04  0.25500000920E-02 0. -1.
        2   -1    0    0  501    0  0.00000000000E+00  0.00000000000E+00 -0.19008246459E+04  0.19008246459E+04  0.25500000920E-02 0.  1.
    10030    2    1    2    0    0  0.00000000000E+00  0.00000000000E+00 -0.41296158868E+03  0.33886877032E+04  0.33634308490E+04 0.  0.
        4    1    3    3  502    0  0.77333439801E+02 -0.15729422978E+04  0.38789606239E+03  0.16219102630E+04  0.12699999809E+01 0. -1.
       -4    1    3    3    0  502 -0.77333439801E+02  0.15729422978E+04 -0.80085765107E+03  0.17667774402E+04  0.12699999809E+01 0.  1.
</event>
<event>
 5   0  0.2703956E-07  0.3297035E+04  0.7818609E-02  0.8163650E-01
       -2   -1    0    0    0  501  0.00000000000E+00  0.00000000000E+00  0.13051932374E+04  0.13051932374E+04  0.25500000920E-02 0. -1.
        2   -1    0    0  501    0  0.00000000000E+00  0.00000000000E+00 -0.20821512075E+04  0.20821512075E+04  0.25500000920E-02 0.  1.
    10030    2    1    2    0    0  0.00000000000E+00  0.00000000000E+00 -0.77695797009E+03  0.33873444449E+04  0.32970348347E+04 0.  0.
        5    1    3    3  502    0  0.45484390239E+03  0.98176053713E+03 -0.16662706356E+04  0.19867603400E+04  0.46999998093E+01 0.  1.
       -5    1    3    3    0  502 -0.45484390239E+03 -0.98176053713E+03  0.88931266549E+03  0.14005841049E+04  0.46999998093E+01 0. -1.
</event>
<event>
 5   0  0.9454010E-08  0.3298936E+04  0.7818609E-02  0.8163166E-01
       -1   -1    0    0    0  501  0.00000000000E+00  0.00000000000E+00  0.11690696423E+04  0.11690696423E+04  0.50400001928E-02 0.  1.
        1   -1    0    0  501    0  0.00000000000E+00  0.00000000000E+00 -0.23272738752E+04  0.23272738752E+04  0.50400001928E-02 0. -1.
    10030    2    1    2    0    0  0.00000000000E+00  0.00000000000E+00 -0.11582042330E+04  0.34963435175E+04  0.32989363358E+04 0.  0.
        2    1    3    3  502    0 -0.11499325035E+04  0.11345056882E+04 -0.22552633484E+03  0.16310456912E+04  0.25500000920E-02 0. -1.
       -2    1    3    3    0  502  0.11499325035E+04 -0.11345056882E+04 -0.93267789813E+03  0.18652978263E+04  0.25500000920E-02 0.  1.
</event>
<event>
 5   0  0.9181760E-08  0.3262386E+04  0.7818609E-02  0.8172533E-01
       -1   -1    0    0    0  501  0.00000000000E+00  0.00000000000E+00  0.14458738138E+04  0.14458738138E+04  0.50400001928E-02 0.  1.
        1   -1    0    0  501    0  0.00000000000E+00  0.00000000000E+00 -0.18402651743E+04  0.18402651743E+04  0.50400001928E-02 0. -1.
    10030    2    1    2    0    0  0.00000000000E+00  0.00000000000E+00 -0.39439136055E+03  0.32861389881E+04  0.32623863818E+04 0.  0.
        1    1    3    3  502    0 -0.14658579807E+04  0.40854158072E+03 -0.78896380282E+03  0.17140915159E+04  0.50400001928E-02 0. -1.
       -1    1    3    3    0  502  0.14658579807E+04 -0.40854158072E+03  0.39457244227E+03  0.15720474722E+04  0.50400001928E-02 0.  1.
</event>
<event>
 5   0  0.8805125E-08  0.3303620E+04  0.7818609E-02  0.8161975E-01
       -3   -1    0    0    0  501  0.00000000000E+00  0.00000000000E+00  0.23381194643E+04  0.23381194664E+04  0.10100000352E+00 0. -1.
        3   -1    0    0  501    0  0.00000000000E+00  0.00000000000E+00 -0.11669535409E+04  0.11669535452E+04  0.10100000352E+00 0.  1.
    10030    2    1    2    0    0  0.00000000000E+00  0.00000000000E+00  0.11711659234E+04  0.35050730117E+04  0.33036203167E+04 0.  0.
        4    1    3    3  502    0  0.15304488502E+04  0.11576697933E+02  0.12448153753E+04  0.19728088185E+04  0.12699999809E+01 0. -1.
       -4    1    3    3    0  502 -0.15304488502E+04 -0.11576697933E+02 -0.73649451940E+02  0.15322641931E+04  0.12699999809E+01 0.  1.
</event>
<event>
 5   0  0.2824402E-07  0.3297179E+04  0.7818609E-02  0.8163614E-01
       -2   -1    0    0    0  501  0.00000000000E+00  0.00000000000E+00  0.16865783391E+04  0.16865783391E+04  0.25500000920E-02 0.  1.
        2   -1    0    0  501    0  0.00000000000E+00  0.00000000000E+00 -0.16114563934E+04  0.16114563934E+04  0.25500000920E-02 0. -1.
    10030    2    1    2    0    0  0.00000000000E+00  0.00000000000E+00  0.75121945665E+02  0.32980347325E+04  0.32971790656E+04 0.  0.
        1    1    3    3  502    0  0.56457704722E+03 -0.83304028700E+03  0.13437115081E+04  0.16787685901E+04  0.50400001928E-02 0.  1.
       -1    1    3    3    0  502 -0.56457704722E+03  0.83304028700E+03 -0.12685895625E+04  0.16192661424E+04  0.50400001928E-02 0. -1.
</event>
<event>
 5   0  0.2703956E-07  0.3299257E+04  0.7818609E-02  0.8163084E-01
        2   -1    0    0  501    0  0.00000000000E+00  0.00000000000E+00  0.14192276543E+04  0.14192276543E+04  0.25500000920E-02 0.  1.
       -2   -1    0    0    0  501  0.00000000000E+00  0.00000000000E+00 -0.19174334161E+04  0.19174334161E+04  0.25500000920E-02 0. -1.
    10030    2    1    2    0    0  0.00000000000E+00  0.00000000000E+00 -0.49820576182E+03  0.33366610704E+04  0.32992572070E+04 0.  0.
        5    1    3    3  502    0 -0.66076847906E+03  0.16078123408E+02 -0.17776540979E+04  0.18965625934E+04  0.46999998093E+01 0. -1.
       -5    1    3    3    0  502  0.66076847906E+03 -0.16078123408E+02  0.12794483360E+04  0.14400984770E+04  0.46999998093E+01 0.  1.
</event>
<event>
 5   0  0.2713815E-07  0.3247508E+04  0.7818609E-02  0.8176382E-01
        2   -1    0    0  501    0  0.00000000000E+00  0.00000000000E+00  0.10826422906E+04  0.10826422906E+04  0.25500000920E-02 0. -1.
       -2   -1    0    0    0  501  0.00000000000E+00  0.00000000000E+00 -0.24353167021E+04  0.24353167021E+04  0.25500000920E-02 0.  1.
    10030    2    1    2    0    0  0.00000000000E+00  0.00000000000E+00 -0.13526744115E+04  0.35179589928E+04  0.32475078770E+04 0.  0.
        4    1    3    3  502    0 -0.70978346080E+03 -0.10305919314E+04  0.44456299439E+03  0.13279872586E+04  0.12699999809E+01 0. -1.
       -4    1    3    3    0  502  0.70978346080E+03  0.10305919314E+04 -0.17972374059E+04  0.21899717341E+04  0.12699999809E+01 0.  1.
</event>
<event>
 5   0  0.9810351E-08  0.3305287E+04  0.7818609E-02  0.8161551E-01
       -1   -1    0    0    0  501  0.00000000000E+00  0.00000000000E+00  0.14044173347E+04  0.14044173347E+04  0.50400001928E-02 0.  1.
        1   -1    0    0  501    0  0.00000000000E+00  0.00000000000E+00 -0.19447432133E+04  0.19447432133E+04  0.50400001928E-02 0. -1.
    10030    2    1    2    0    0  0.00000000000E+00  0.00000000000E+00 -0.54032587855E+03  0.33491605480E+04  0.33052873281E+04 0.  0.
        5    1    3    3  502    0  0.62125903372E+02  0.11409246209E+04 -0.14800135298E+04  0.18697675676E+04  0.46999998093E+01 0. -1.
       -5    1    3    3    0  502 -0.62125903372E+02 -0.11409246209E+04  0.93968765125E+03  0.14793929804E+04  0.46999998093E+01 0.  1.
</event>
<event>
 5   0  0.9283910E-08  0.3297353E+04  0.7818609E-02  0.8163569E-01
       -1   -1    0    0    0  501  0.00000000000E+00  0.00000000000E+00  0.11325004910E+04  0.11325004910E+04  0.50400001928E-02 0.  1.
        1   -1    0    0  501    0  0.00000000000E+00  0.00000000000E+00 -0.24001179348E+04  0.24001179348E+04  0.50400001928E-02 0. -1.
    10030    2    1    2    0    0  0.00000000000E+00  0.00000000000E+00 -0.12676174438E+04  0.35326184258E+04  0.32973533263E+04 0.  0.
        3    1    3    3  502    0 -0.43593050640E+03  0.88042668748E+03  0.78464699301E+03  0.12573215469E+04  0.10100000352E+00 0.  1.
       -3    1    3    3    0  502  0.43593050640E+03 -0.88042668748E+03 -0.20522644368E+04  0.22752968789E+04  0.10100000352E+00 0. -1.
</event>
<event>
 5   0  0.9454010E-08  0.3291371E+04  0.7818609E-02  0.8165094E-01
        1   -1    0    0  501    0  0.00000000000E+00  0.00000000000E+00  0.20536297767E+04  0.20536297767E+04  0.50400001928E-02 0. -1.
       -1   -1    0    0    0  501  0.00000000000E+00  0.00000000000E+00 -0.13187777649E+04  0.13187777649E+04  0.50400001928E-02 0.  1.
    10030    2    1    2    0    0  0.00000000000E+00  0.00000000000E+00  0.73485201179E+03  0.33724075416E+04  0.32913713172E+04 0.  0.
        2    1    3    3  502    0 -0.12975401591E+04 -0.68678551764E+03  0.11293722862E+04  0.18522328613E+04  0.25500000920E-02 0.  1.
       -2    1    3    3    0  502  0.12975401591E+04  0.68678551764E+03 -0.39452027441E+03  0.15201746803E+04  0.25500000920E-02 0. -1.
</event>
<event>
 5   0  0.9454010E-08  0.3303117E+04  0.7818609E-02  0.8162103E-01
        1   -1    0    0  501    0  0.00000000000E+00  0.00000000000E+00  0.17340201904E+04  0.17340201904E+04  0.50400001928E-02 0. -1.
       -1   -1    0    0    0  501  0.00000000000E+00  0.00000000000E+00 -0.15730182543E+04  0.15730182543E+04  0.50400001928E-02 0.  1.
    10030    2    1    2    0    0  0.00000000000E+00  0.00000000000E+00  0.16100193610E+03  0.33070384447E+04  0.33031169600E+04 0.  0.
        2    1    3    3  502    0 -0.10629628670E+04  0.11993161012E+04  0.48021954790E+03  0.16729793727E+04  0.25500000920E-02 0. -1.
       -2    1    3    3    0  502  0.10629628670E+04 -0.11993161012E+04 -0.31921761180E+03  0.16340590720E+04  0.25500000920E-02 0.  1.
</event>
<event>
 5   0  0.9810351E-08  0.3287574E+04  0.7818609E-02  0.8166065E-01
        1   -1    0    0  501    0  0.00000000000E+00  0.00000000000E+00  0.32033182529E+04  0.32033182529E+04  0.50400001928E-02 0. -1.
       -1   -1    0    0    0  501  0.00000000000E+00  0.00000000000E+00 -0.84351123501E+03  0.84351123502E+03  0.50400001928E-02 0.  1.
    10030    2    1    2    0    0  0.00000000000E+00  0.00000000000E+00  0.23598070179E+04  0.40468294880E+04  0.32875735342E+04 0.  0.
        5    1    3    3  502    0 -0.67093090687E+03 -0.89882819561E+03  0.26590762071E+04  0.28859571674E+04  0.46999998093E+01 0. -1.
       -5    1    3    3    0  502  0.67093090687E+03  0.89882819561E+03 -0.29926918917E+03  0.11608723205E+04  0.46999998093E+01 0.  1.
</event>
<event>
 5   0  0.2824402E-07  0.3300844E+04  0.7818609E-02  0.8162681E-01
       -2   -1    0    0    0  501  0.00000000000E+00  0.00000000000E+00  0.21008669386E+04  0.21008669386E+04  0.25500000920E-02 0. -1.
        2   -1    0    0  501    0  0.00000000000E+00  0.00000000000E+00 -0.12965564169E+04  0.12965564169E+04  0.25500000920E-02 0.  1.
    10030    2    1    2    0    0  0.00000000000E+00  0.00000000000E+00  0.80431052179E+03  0.33974233555E+04  0.33008438377E+04 0.  0.
        1    1    3    3  502    0  0.86814689296E+03  0.35350595359E+03  0.18002993992E+04  0.20297101798E+04  0.50400001928E-02 0. -1.
       -1    1    3    3    0  502 -0.86814689296E+03 -0.35350595359E+03 -0.99598887746E+03  0.13677131757E+04  0.50400001928E-02 0.  1.
</event>
<event>
 5   0  0.8805125E-08  0.3304593E+04  0.7818609E-02  0.8161728E-01
       -1   -1    0    0    0  501  0.00000000000E+00  0.00000000000E+00  0.16630238768E+04  0.16630238768E+04  0.50400001928E-02 0. -1.
        1   -1    0    0  501    0  0.00000000000E+00  0.00000000000E+00 -0.16416387851E+04  0.16416387851E+04  0.50400001928E-02 0.  1.
    10030    2    1    2    0    0  0.00000000000E+00  0.00000000000E+00  0.21385091755E+02  0.33046626619E+04  0.33045934677E+04 0.  0.
        4    1    3    3  502    0  0.10198737729E+04  0.33052892752E+03  0.12679742150E+04  0.16604674364E+04  0.12699999809E+01 0. -1.
       -4    1    3    3    0  502 -0.10198737729E+04 -0.33052892752E+03 -0.12465891232E+04  0.16441952255E+04  0.12699999809E+01 0.  1.
</event>
<event>
 5   0  0.9181760E-08  0.3310079E+04  0.7818609E-02  0.8160336E-01
        1   -1    0    0  501    0  0.00000000000E+00  0.00000000000E+00  0.25673299704E+04  0.25673299704E+04  0.50400001928E-02 0. -1.
       -1   -1    0    0    0  501  0.00000000000E+00  0.00000000000E+00 -0.10669275448E+04  0.10669275448E+04  0.50400001928E-02 0.  1.
    10030    2    1    2    0    0  0.00000000000E+00  0.00000000000E+00  0.15004024256E+04  0.36342575152E+04  0.33100785864E+04 0.  0.
        1    1    3    3  502    0  0.87294754541E+03 -0.75351927968E+03  0.20536176002E+04  0.23552439300E+04  0.50400001928E-02 0. -1.
       -1    1    3    3    0  502 -0.87294754541E+03  0.75351927968E+03 -0.55321517452E+03  0.12790135852E+04  0.50400001928E-02 0.  1.
</event>
<event>
 5   0  0.2713815E-07  0.3305953E+04  0.7818609E-02  0.8161382E-01
        2   -1    0    0  501    0  0.00000000000E+00  0.00000000000E+00  0.18216211875E+04  0.18216211875E+04  0.25500000920E-02 0. -1.
       -2   -1    0    0    0  501  0.00000000000E+00  0.00000000000E+00 -0.14999452206E+04  0.14999452206E+04  0.25500000920E-02 0.  1.
    10030    2    1    2    0    0  0.00000000000E+00  0.00000000000E+00  0.32167596692E+03  0.33215664081E+04  0.33059534140E+04 0.  0.
        4    1    3    3  502    0  0.27781514635E+03 -0.11274014675E+04 -0.10212023801E+04  0.15463089078E+04  0.12699999809E+01 0.  1.
       -4    1    3    3    0  502 -0.27781514635E+03  0.11274014675E+04  0.13428783470E+04  0.17752575003E+04  0.12699999809E+01 0. -1.
</event>
<event>
 5   0  0.9810351E-08  0.3276538E+04  0.7818609E-02  0.8168891E-01
        1   -1    0    0  501    0  0.00000000000E+00  0.00000000000E+00  0.18147118742E+04  0.18147118742E+04  0.50400001928E-02 0. -1.
       -1   -1    0    0    0  501  0.00000000000E+00  0.00000000000E+00 -0.14789810765E+04  0.14789810765E+04  0.50400001928E-02 0.  1.
    10030    2    1    2    0    0  0.00000000000E+00  0.00000000000E+00  0.33573079766E+03  0.32936929507E+04  0.32765375146E+04 0.  0.
        5    1    3    3  502    0  0.30099720174E+03 -0.10312512909E+04 -0.10754711063E+04  0.15201114205E+04  0.46999998093E+01 0.  1.
       -5    1    3    3    0  502 -0.30099720174E+03  0.10312512909E+04  0.14112019039E+04  0.17735815301E+04  0.46999998093E+01 0. -1.
</event>
<event>
 5   0  0.8805125E-08  0.3307358E+04  0.7818609E-02  0.8161026E-01
        3   -1    0    0  501    0  0.00000000000E+00  0.00000000000E+00  0.14116417512E+04  0.14116417548E+04  0.10100000352E+00 0.  1.
       -3   -1    0    0    0  501  0.00000000000E+00  0.00000000000E+00 -0.19372154498E+04  0.19372154525E+04  0.10100000352E+00 0. -1.
    10030    2    1    2    0    0  0.00000000000E+00  0.00000000000E+00 -0.52557369866E+03  0.33488572073E+04  0.33073579912E+04 0.  0.
        2    1    3    3  502    0  0.59486742117E+03 -0.72496504416E+03  0.11163655945E+04  0.14579827518E+04  0.25500000920E-02 0.  1.
       -2    1    3    3    0  502 -0.59486742117E+03  0.72496504416E+03 -0.16419392931E+04  0.18908744555E+04  0.25500000920E-02 0. -1.
</event>
<event>
 5   0  0.8805125E-08  0.3303440E+04  0.7818609E-02  0.8162021E-01
        1   -1    0    0  501    0  0.00000000000E+00  0.00000000000E+00  0.15719423063E+04  0.15719423063E+04  0.50400001928E-02 0. -1.
       -1   -1    0    0    0  501  0.00000000000E+00  0.00000000000E+00 -0.17355469327E+04  0.17355469327E+04  0.50400001928E-02 0.  1.
    10030    2    1    2    0    0  0.00000000000E+00  0.00000000000E+00 -0.16360462638E+03  0.33074892390E+04  0.33034404175E+04 0.  0.
        4    1    3    3  502    0  0.88088781489E+03 -0.39753096839E+03 -0.14229154912E+04  0.17200826495E+04  0.12699999809E+01 0.  1.
       -4    1    3    3    0  502 -0.88088781489E+03  0.39753096839E+03  0.12593108648E+04  0.15874065895E+04  0.12699999809E+01 0. -1.
</event>
<event>
 5   0  0.2824402E-07  0.3307785E+04  0.7818609E-02  0.8160917E-01
       -2   -1    0    0    0  501  0.00000000000E+00  0.00000000000E+00  0.28341496482E+04  0.28341496482E+04  0.25500000920E-02 0.  1.
        2   -1    0    0  501    0  0.00000000000E+00  0.00000000000E+00 -0.96514312348E+03  0.96514312348E+03  0.25500000920E-02 0. -1.
    10030    2    1    2    0    0  0.00000000000E+00  0.00000000000E+00  0.18690065247E+04  0.37992927716E+04  0.33077847837E+04 0.  0.
        1    1    3    3  502    0 -0.16399061381E+04  0.16505023052E+03  0.10921003814E+04  0.19771739841E+04  0.50400001928E-02 0.  1.
       -1    1    3    3    0  502  0.16399061381E+04 -0.16505023052E+03  0.77690614325E+03  0.18221187875E+04  0.50400001928E-02 0. -1.
</event>
<event>
 5   0  0.8805125E-08  0.3302905E+04  0.7818609E-02  0.8162156E-01
        1   -1    0    0  501    0  0.00000000000E+00  0.00000000000E+00  0.18197608592E+04  0.18197608592E+04  0.50400001928E-02 0. -1.
       -1   -1    0    0    0  501  0.00000000000E+00  0.00000000000E+00 -0.14987112762E+04  0.14987112762E+04  0.50400001928E-02 0.  1.
    10030    2    1    2    0    0  0.00000000000E+00  0.00000000000E+00  0.32104958302E+03  0.33184721354E+04  0.33029054602E+04 0.  0.
        4    1    3    3  502    0 -0.11497750599E+04 -0.25185972820E+03  0.13243791276E+04  0.17718345570E+04  0.12699999809E+01 0. -1.
       -4    1    3    3    0  502  0.11497750599E+04  0.25185972820E+03 -0.10033295445E+04  0.15466375784E+04  0.12699999809E+01 0.  1.
</event>
<event>
 5   0  0.2824402E-07  0.3311529E+04  0.7818609E-02  0.8159968E-01
       -2   -1    0    0    0  501  0.00000000000E+00  0.00000000000E+00  0.11725106384E+04  0.11725106384E+04  0.25500000920E-02 0.  1.
        2   -1    0    0  501    0  0.00000000000E+00  0.00000000000E+00 -0.23381926489E+04  0.23381926489E+04  0.25500000920E-02 0. -1.
    10030    2    1    2    0    0  0.00000000000E+00  0.00000000000E+00 -0.11656820105E+04  0.35107032873E+04  0.33115288043E+04 0.  0.
        1    1    3    3  502    0 -0.29305675300E+03  0.10627500447E+04  0.72687282156E+03  0.13204787074E+04  0.50400001928E-02 0.  1.
       -1    1    3    3    0  502  0.29305675300E+03 -0.10627500447E+04 -0.18925548321E+04  0.21902245799E+04  0.50400001928E-02 0. -1.
</event>
<event>
 5   0  0.2875829E-07  0.3293919E+04  0.7818609E-02  0.8164444E-01
        2   -1    0    0  501    0  0.00000000000E+00  0.00000000000E+00  0.10414841424E+04  0.10414841424E+04  0.25500000920E-02 0. -1.
       -2   -1    0    0    0  501  0.00000000000E+00  0.00000000000E+00 -0.26044329808E+04  0.26044329808E+04  0.25500000920E-02 0.  1.
    10030    2    1    2    0    0  0.00000000000E+00  0.00000000000E+00 -0.15629488384E+04  0.36459171231E+04  0.32939190332E+04 0.  0.
        3    1    3    3  502    0 -0.10338747264E+03  0.10998869836E+04 -0.21334953675E+04  0.24025492378E+04  0.10100000352E+00 0.  1.
       -3    1    3    3    0  502  0.10338747264E+03 -0.10998869836E+04  0.57054652913E+03  0.12433678854E+04  0.10100000352E+00 0. -1.
</event>
<event>
 5   0  0.2875829E-07  0.3300434E+04  0.7818609E-02  0.8162785E-01
       -2   -1    0    0    0  501  0.00000000000E+00  0.00000000000E+00  0.16494947726E+04  0.16494947726E+04  0.25500000920E-02 0.  1.
        2   -1    0    0  501    0  0.00000000000E+00  0.00000000000E+00 -0.16509396705E+04  0.16509396705E+04  0.25500000920E-02 0. -1.
    10030    2    1    2    0    0  0.00000000000E+00  0.00000000000E+00 -0.14448978387E+01  0.33004344431E+04  0.33004341268E+04 0.  0.
        3    1    3    3  502    0 -0.54530754010E+03  0.32737244632E+03  0.15220000336E+04  0.16495505886E+04  0.10100000352E+00 0.  1.
       -3    1    3    3    0  502  0.54530754010E+03 -0.32737244632E+03 -0.15234449314E+04  0.16508838545E+04  0.10100000352E+00 0. -1.
</event>
<event>
 5   0  0.9181760E-08  0.3297249E+04  0.7818609E-02  0.8163596E-01
       -1   -1    0    0    0  501  0.00000000000E+00  0.00000000000E+00  0.14957230093E+04  0.14957230093E+04  0.50400001928E-02 0.  1.
        1   -1    0    0  501    0  0.00000000000E+00  0.00000000000E+00 -0.18171561444E+04  0.18171561444E+04  0.50400001928E-02 0. -1.
    10030    2    1    2    0    0  0.00000000000E+00  0.00000000000E+00 -0.32143313514E+03  0.33128791537E+04  0.32972487056E+04 0.  0.
        1    1    3    3  502    0  0.71391853663E+03 -0.11767726662E+04  0.75104798188E+03  0.15679753365E+04  0.50400001928E-02 0.  1.
       -1    1    3    3    0  502 -0.71391853663E+03  0.11767726662E+04 -0.10724811170E+04  0.17449038172E+04  0.50400001928E-02 0. -1.
</event>
<event>
 5   0  0.9810351E-08  0.3283962E+04  0.7818609E-02  0.8166988E-01
       -1   -1    0    0    0  501  0.00000000000E+00  0.00000000000E+00  0.17847314204E+04  0.17847314204E+04  0.50400001928E-02 0.  1.
        1   -1    0    0  501    0  0.00000000000E+00  0.00000000000E+00 -0.15106484921E+04  0.15106484921E+04  0.50400001928E-02 0. -1.
    10030    2    1    2    0    0  0.00000000000E+00  0.00000000000E+00  0.27408292825E+03  0.32953799125E+04  0.32839621369E+04 0.  0.
        5    1    3    3  502    0 -0.43261855702E+03  0.14893010190E+04 -0.40418839234E+03  0.16026748540E+04  0.46999998093E+01 0. -1.
       -5    1    3    3    0  502  0.43261855702E+03 -0.14893010190E+04  0.67827132059E+03  0.16927050586E+04  0.46999998093E+01 0.  1.
</event>
<event>
 5   0  0.2875829E-07  0.3298361E+04  0.7818609E-02  0.8163313E-01
        2   -1    0    0  501    0  0.00000000000E+00  0.00000000000E+00  0.17075371441E+04  0.17075371441E+04  0.25500000920E-02 0.  1.
       -2   -1    0    0    0  501  0.00000000000E+00  0.00000000000E+00 -0.15928180699E+04  0.15928180699E+04  0.25500000920E-02 0. -1.
    10030    2    1    2    0    0  0.00000000000E+00  0.00000000000E+00  0.11471907423E+03  0.33003552139E+04  0.32983608160E+04 0.  0.
        3    1    3    3  502    0 -0.11759292836E+04  0.37452350341E+03  0.11519672908E+04  0.16882257503E+04  0.10100000352E+00 0.  1.
       -3    1    3    3    0  502  0.11759292836E+04 -0.37452350341E+03 -0.10372482165E+04  0.16121294637E+04  0.10100000352E+00 0. -1.
</event>
<event>
 5   0  0.9810351E-08  0.3305648E+04  0.7818609E-02  0.8161460E-01
       -1   -1    0    0    0  501  0.00000000000E+00  0.00000000000E+00  0.12294868699E+04  0.12294868699E+04  0.50400001928E-02 0.  1.
        1   -1    0    0  501    0  0.00000000000E+00  0.00000000000E+00 -0.22219251911E+04  0.22219251911E+04  0.50400001928E-02 0. -1.
    10030    2    1    2    0    0  0.00000000000E+00  0.00000000000E+00 -0.99243832118E+03  0.34514120610E+04  0.33056484074E+04 0.  0.
        5    1    3    3  502    0  0.21799818534E+03  0.14254669784E+04 -0.13395007999E+04  0.19681879479E+04  0.46999998093E+01 0.  1.
       -5    1    3    3    0  502 -0.21799818534E+03 -0.14254669784E+04  0.34706247872E+03  0.14832241131E+04  0.46999998093E+01 0. -1.
</event>
<event>
 5   0  0.2727168E-07  0.3303073E+04  0.7818609E-02  0.8162114E-01
        2   -1    0    0  501    0  0.00000000000E+00  0.00000000000E+00  0.25111107283E+04  0.25111107283E+04  0.25500000920E-02 0. -1.
       -2   -1    0    0    0  501  0.00000000000E+00  0.00000000000E+00 -0.10862017703E+04  0.10862017703E+04  0.25500000920E-02 0.  1.
    10030    2    1    2    0    0  0.00000000000E+00  0.00000000000E+00  0.14249089580E+04  0.35973124986E+04  0.33030730652E+04 0.  0.
        2    1    3    3  502    0  0.22278957675E+03 -0.15525041262E+04  0.12759088463E+04  0.20218426351E+04  0.25500000920E-02 0. -1.
       -2    1    3    3    0  502 -0.22278957675E+03  0.15525041262E+04  0.14900011172E+03  0.15754698634E+04  0.25500000920E-02 0.  1.
</event>
<event>
 5   0  0.9283910E-08  0.3307772E+04  0.7818609E-02  0.8160921E-01
       -1   -1    0    0    0  501  0.00000000000E+00  0.00000000000E+00  0.17451290961E+04  0.17451290961E+04  0.50400001928E-02 0.  1.
        1   -1    0    0  501    0  0.00000000000E+00  0.00000000000E+00 -0.15674137755E+04  0.15674137755E+04  0.50400001928E-02 0. -1.
    10030    2    1    2    0    0  0.00000000000E+00  0.00000000000E+00  0.17771532063E+03  0.33125428716E+04  0.33077722928E+04 0.  0.
        3    1    3    3  502    0  0.13707809625E+02 -0.16465292771E+04  0.24430011168E+03  0.16646108011E+04  0.10100000352E+00 0. -1.
       -3    1    3    3    0  502 -0.13707809625E+02  0.16465292771E+04 -0.66584791047E+02  0.16479320705E+04  0.10100000352E+00 0.  1.
</event>
<event>
 5   0  0.9181760E-08  0.3301513E+04  0.7818609E-02  0.8162510E-01
       -1   -1    0    0    0  501  0.00000000000E+00  0.00000000000E+00  0.17062211877E+04  0.17062211877E+04  0.50400001928E-02 0.  1.
        1   -1    0    0  501    0  0.00000000000E+00  0.00000000000E+00 -0.15970952469E+04  0.15970952469E+04  0.50400001928E-02 0. -1.
    10030    2    1    2    0    0  0.00000000000E+00  0.00000000000E+00  0.10912594079E+03  0.33033164346E+04  0.33015134402E+04 0.  0.
        1    1    3    3  502    0 -0.14246802049E+04  0.15655425477E+03 -0.76489274148E+03  0.16245872790E+04  0.50400001928E-02 0.  1.
       -1    1    3    3    0  502  0.14246802049E+04 -0.15655425477E+03  0.87401868227E+03  0.16787291556E+04  0.50400001928E-02 0. -1.
</event>
<event>
 5   0  0.8805125E-08  0.3302704E+04  0.7818609E-02  0.8162208E-01
        1   -1    0    0  501    0  0.00000000000E+00  0.00000000000E+00  0.26024784115E+04  0.26024784115E+04  0.50400001928E-02 0.  1.
       -1   -1    0    0    0  501  0.00000000000E+00  0.00000000000E+00 -0.10478334857E+04  0.10478334857E+04  0.50400001928E-02 0. -1.
    10030    2    1    2    0    0  0.00000000000E+00  0.00000000000E+00  0.15546449257E+04  0.36503118972E+04  0.33027043618E+04 0.  0.
        4    1    3    3  502    0 -0.12687625388E+04  0.34085431862E+03  0.18831366678E+04  0.22961152778E+04  0.12699999809E+01 0.  1.
       -4    1    3    3    0  502  0.12687625388E+04 -0.34085431862E+03 -0.32849174206E+03  0.13541966194E+04  0.12699999809E+01 0. -1.
</event>
<event>
 5   0  0.2713815E-07  0.3302176E+04  0.7818609E-02  0.8162342E-01
        2   -1    0    0  501    0  0.00000000000E+00  0.00000000000E+00  0.19491855969E+04  0.19491855969E+04  0.25500000920E-02 0.  1.
       -2   -1    0    0    0  501  0.00000000000E+00  0.00000000000E+00 -0.13985793781E+04  0.13985793781E+04  0.25500000920E-02 0. -1.
    10030    2    1    2    0    0  0.00000000000E+00  0.00000000000E+00  0.55060621875E+03  0.33477649750E+04  0.33021755132E+04 0.  0.
        4    1    3    3  502    0  0.11603473405E+03  0.16263074050E+04  0.53918362112E+03  0.17172828612E+04  0.12699999809E+01 0.  1.
       -4    1    3    3    0  502 -0.11603473405E+03 -0.16263074050E+04  0.11422597631E+02  0.16304821139E+04  0.12699999809E+01 0. -1.
</event>
<event>
 5   0  0.9283910E-08  0.3299510E+04  0.7818609E-02  0.8163020E-01
       -1   -1    0    0    0  501  0.00000000000E+00  0.00000000000E+00  0.14506512376E+04  0.14506512376E+04  0.50400001928E-02 0. -1.
        1   -1    0    0  501    0  0.00000000000E+00  0.00000000000E+00 -0.18761858867E+04  0.18761858867E+04  0.50400001928E-02 0.  1.
    10030    2    1    2    0    0  0.00000000000E+00  0.00000000000E+00 -0.42553464904E+03  0.33268371243E+04  0.32995098900E+04 0.  0.
        3    1    3    3  502    0 -0.56432537131E+03 -0.77821181233E+03 -0.15646232230E+04  0.18363340082E+04  0.10100000352E+00 0.  1.
       -3    1    3    3    0  502  0.56432537131E+03  0.77821181233E+03  0.11390885740E+04  0.14905031161E+04  0.10100000352E+00 0. -1.
</event>
<event>
 5   0  0.9810351E-08  0.3296803E+04  0.7818609E-02  0.8163709E-01
       -1   -1    0    0    0  501  0.00000000000E+00  0.00000000000E+00  0.20251885074E+04  0.20251885074E+04  0.50400001928E-02 0. -1.
        1   -1    0    0  501    0  0.00000000000E+00  0.00000000000E+00 -0.13417158566E+04  0.13417158566E+04  0.50400001928E-02 0.  1.
    10030    2    1    2    0    0  0.00000000000E+00  0.00000000000E+00  0.68347265082E+03  0.33669043641E+04  0.32968030169E+04 0.  0.
        5    1    3    3  502    0  0.14211428305E+04 -0.40829286439E+03  0.10858270927E+04  0.18345006331E+04  0.46999998093E+01 0. -1.
       -5    1    3    3    0  502 -0.14211428305E+04  0.40829286439E+03 -0.40235444183E+03  0.15324037310E+04  0.46999998093E+01 0.  1.
</event>
<event>
 5   0  0.8805125E-08  0.3321224E+04  0.7818609E-02  0.8157516E-01
       -1   -1    0    0    0  501  0.00000000000E+00  0.00000000000E+00  0.17476896252E+04  0.17476896252E+04  0.50400001928E-02 0.  1.
        1   -1    0    0  501    0  0.00000000000E+00  0.00000000000E+00 -0.15778733551E+04  0.15778733551E+04  0.50400001928E-02 0. -1.
    10030    2    1    2    0    0  0.00000000000E+00  0.00000000000E+00  0.16981627012E+03  0.33255629803E+04  0.33212244083E+04 0.  0.
        4    1    3    3  502    0 -0.78202296395E+03  0.14557305703E+04  0.24919522530E+03  0.16711706324E+04  0.12699999809E+01 0. -1.
       -4    1    3    3    0  502  0.78202296395E+03 -0.14557305703E+04 -0.79378955185E+02  0.16543923479E+04  0.12699999809E+01 0.  1.
</event>
<event>
 5   0  0.2727168E-07  0.3299956E+04  0.7818609E-02  0.8162907E-01
        2   -1    0    0  501    0  0.00000000000E+00  0.00000000000E+00  0.16075094520E+04  0.16075094520E+04  0.25500000920E-02 0. -1.
       -2   -1    0    0    0  501  0.00000000000E+00  0.00000000000E+00 -0.16935680520E+04  0.16935680520E+04  0.25500000920E-02 0.  1.
    10030    2    1    2    0    0  0.00000000000E+00  0.00000000000E+00 -0.86058599962E+02  0.33010775040E+04  0.32999555459E+04 0.  0.
        2    1    3    3  502    0  0.11165468138E+04 -0.37942323813E+03 -0.11974528004E+04  0.16806344011E+04  0.25500000920E-02 0.  1.
       -2    1    3    3    0  502 -0.11165468138E+04  0.37942323813E+03  0.11113942004E+04  0.16204431029E+04  0.25500000920E-02 0. -1.
</event>
<event>
 5   0  0.2713815E-07  0.3296795E+04  0.7818609E-02  0.8163711E-01
        2   -1    0    0  501    0  0.00000000000E+00  0.00000000000E+00  0.24536742402E+04  0.24536742402E+04  0.25500000920E-02 0. -1.
       -2   -1    0    0    0  501  0.00000000000E+00  0.00000000000E+00 -0.11074060200E+04  0.11074060200E+04  0.25500000920E-02 0.  1.
    10030    2    1    2    0    0  0.00000000000E+00  0.00000000000E+00  0.13462682202E+04  0.35610802602E+04  0.32967945794E+04 0.  0.
        4    1    3    3  502    0  0.25125215202E+02  0.10051832624E+04 -0.73778862849E+03  0.12471400646E+04  0.12699999809E+01 0.  1.
       -4    1    3    3    0  502 -0.25125215202E+02 -0.10051832624E+04  0.20840568487E+04  0.23139401957E+04  0.12699999809E+01 0. -1.
</event>
<event>
 5   0  0.2713815E-07  0.3307628E+04  0.7818609E-02  0.8160957E-01
        2   -1    0    0  501    0  0.00000000000E+00  0.00000000000E+00  0.16697140342E+04  0.16697140342E+04  0.25500000920E-02 0. -1.
       -2   -1    0    0    0  501  0.00000000000E+00  0.00000000000E+00 -0.16380656767E+04  0.16380656767E+04  0.25500000920E-02 0.  1.
    10030    2    1    2    0    0  0.00000000000E+00  0.00000000000E+00  0.31648357480E+02  0.33077797109E+04  0.33076283040E+04 0.  0.
        4    1    3    3  502    0 -0.12393906309E+04  0.15112011112E+01 -0.10792182810E+04  0.16434126477E+04  0.12699999809E+01 0.  1.
       -4    1    3    3    0  502  0.12393906309E+04 -0.15112011112E+01  0.11108666384E+04  0.16643670632E+04  0.12699999809E+01 0. -1.
</event>
<event>
 5   0  0.8805125E-08  0.3259347E+04  0.7818609E-02  0.8173317E-01
       -1   -1    0    0    0  501  0.00000000000E+00  0.00000000000E+00  0.16779225686E+04  0.16779225686E+04  0.50400001928E-02 0.  1.
        1   -1    0    0  501    0  0.00000000000E+00  0.00000000000E+00 -0.15828121621E+04  0.15828121621E+04  0.50400001928E-02 0. -1.
    10030    2    1    2    0    0  0.00000000000E+00  0.00000000000E+00  0.95110406474E+02  0.32607347307E+04  0.32593473265E+04 0.  0.
        4    1    3    3  502    0  0.79962576139E+03  0.10223170554E+04 -0.93841041373E+03  0.16016083284E+04  0.12699999809E+01 0. -1.
       -4    1    3    3    0  502 -0.79962576139E+03 -0.10223170554E+04  0.10335208202E+04  0.16591264023E+04  0.12699999809E+01 0.  1.
</event>
<event>
 5   0  0.2727168E-07  0.3295234E+04  0.7818609E-02  0.8164109E-01
        2   -1    0    0  501    0  0.00000000000E+00  0.00000000000E+00  0.28874403233E+04  0.28874403233E+04  0.25500000920E-02 0. -1.
       -2   -1    0    0    0  501  0.00000000000E+00  0.00000000000E+00 -0.94015492514E+03  0.94015492515E+03  0.25500000920E-02 0.  1.
    10030    2    1    2    0    0  0.00000000000E+00  0.00000000000E+00  0.19472853981E+04  0.38275952484E+04  0.32952336736E+04 0.  0.
        2    1    3    3  502    0 -0.24580284993E+03  0.15236356235E+04  0.30359891063E+03  0.15729134918E+04  0.25500000920E-02 0.  1.
       -2    1    3    3    0  502  0.24580284993E+03 -0.15236356235E+04  0.16436864875E+04  0.22546817566E+04  0.25500000920E-02 0. -1.
</event>
<event>
 5   0  0.2713815E-07  0.3296422E+04  0.7818609E-02  0.8163806E-01
       -2   -1    0    0    0  501  0.00000000000E+00  0.00000000000E+00  0.13417241113E+04  0.13417241113E+04  0.25500000920E-02 0.  1.
        2   -1    0    0  501    0  0.00000000000E+00  0.00000000000E+00 -0.20247075877E+04  0.20247075877E+04  0.25500000920E-02 0. -1.
    10030    2    1    2    0    0  0.00000000000E+00  0.00000000000E+00 -0.68298347642E+03  0.33664316990E+04  0.32964216895E+04 0.  0.
        4    1    3    3  502    0  0.10595708939E+04  0.12288645340E+03 -0.16246830292E+04  0.19435503898E+04  0.12699999809E+01 0. -1.
       -4    1    3    3    0  502 -0.10595708939E+04 -0.12288645340E+03  0.94169955274E+03  0.14228813092E+04  0.12699999809E+01 0.  1.
</event>
<event>
 5   0  0.2703956E-07  0.3309614E+04  0.7818609E-02  0.8160453E-01
       -2   -1    0    0    0  501  0.00000000000E+00  0.00000000000E+00  0.14688962469E+04  0.14688962469E+04  0.25500000920E-02 0.  1.
        2   -1    0    0  501    0  0.00000000000E+00  0.00000000000E+00 -0.18642476135E+04  0.18642476135E+04  0.25500000920E-02 0. -1.
    10030    2    1    2    0    0  0.00000000000E+00  0.00000000000E+00 -0.39535136659E+03  0.33331438604E+04  0.33096140698E+04 0.  0.
        5    1    3    3  502    0 -0.10708445636E+04 -0.12350090995E+04 -0.45720661183E+03  0.16973554522E+04  0.46999998093E+01 0. -1.
       -5    1    3    3    0  502  0.10708445636E+04  0.12350090995E+04  0.61855245235E+02  0.16357884082E+04  0.46999998093E+01 0.  1.
</event>
<event>
 5   0  0.9454010E-08  0.3316162E+04  0.7818609E-02  0.8158795E-01
        1   -1    0    0  501    0  0.00000000000E+00  0.00000000000E+00  0.20718103138E+04  0.20718103138E+04  0.50400001928E-02 0. -1.
       -1   -1    0    0    0  501  0.00000000000E+00  0.00000000000E+00 -0.13269708903E+04  0.13269708903E+04  0.50400001928E-02 0.  1.
    10030    2    1    2    0    0  0.00000000000E+00  0.00000000000E+00  0.74483942348E+03  0.33987812041E+04  0.33161616225E+04 0.  0.
        2    1    3    3  502    0 -0.64482309449E+03 -0.11720757143E+04 -0.63161634503E+03  0.14793571275E+04  0.25500000920E-02 0.  1.
       -2    1    3    3    0  502  0.64482309449E+03  0.11720757143E+04  0.13764557685E+04  0.19194240767E+04  0.25500000920E-02 0. -1.
</event>
<event>
 5   0  0.2703956E-07  0.3300504E+04  0.7818609E-02  0.8162767E-01
       -2   -1    0    0    0  501  0.00000000000E+00  0.00000000000E+00  0.20449756930E+04  0.20449756930E+04  0.25500000920E-02 0. -1.
        2   -1    0    0  501    0  0.00000000000E+00  0.00000000000E+00 -0.13317185217E+04  0.13317185217E+04  0.25500000920E-02 0.  1.
    10030    2    1    2    0    0  0.00000000000E+00  0.00000000000E+00  0.71325717137E+03  0.33766942147E+04  0.33005042080E+04 0.  0.
        5    1    3    3  502    0  0.14018929615E+04 -0.86873164676E+03  0.29775572970E+03  0.16759114279E+04  0.46999998093E+01 0. -1.
       -5    1    3    3    0  502 -0.14018929615E+04  0.86873164676E+03  0.41550144166E+03  0.17007827868E+04  0.46999998093E+01 0.  1.
</event>
<event>
 5   0  0.8805125E-08  0.3316926E+04  0.7818609E-02  0.8158602E-01
        3   -1    0    0  501    0  0.00000000000E+00  0.00000000000E+00  0.19977584922E+04  0.19977584947E+04  0.10100000352E+00 0.  1.
       -3   -1    0    0    0  501  0.00000000000E+00  0.00000000000E+00 -0.13767930540E+04  0.13767930577E+04  0.10100000352E+00 0. -1.
    10030    2    1    2    0    0  0.00000000000E+00  0.00000000000E+00  0.62096543820E+03  0.33745515524E+04  0.33169263037E+04 0.  0.
        1    1    3    3  502    0 -0.67140290846E+03 -0.15961783344E+03 -0.12237753678E+04  0.14049504863E+04  0.50400001928E-02 0. -1.
       -1    1    3    3    0  502  0.67140290846E+03  0.15961783344E+03  0.18447408060E+04  0.19696010661E+04  0.50400001928E-02 0.  1.
</event>
<event>
 5   0  0.9454010E-08  0.3291181E+04  0.7818609E-02  0.8165143E-01
        1   -1    0    0  501    0  0.00000000000E+00  0.00000000000E+00  0.19706882846E+04  0.19706882846E+04  0.50400001928E-02 0. -1.
       -1   -1    0    0    0  501  0.00000000000E+00  0.00000000000E+00 -0.13741229812E+04  0.13741229812E+04  0.50400001928E-02 0.  1.
    10030    2    1    2    0    0  0.00000000000E+00  0.00000000000E+00  0.59656530334E+03  0.33448112658E+04  0.32911809799E+04 0.  0.
        2    1    3    3  502    0 -0.13950149650E+04 -0.86887582858E+03  0.21352033071E+03  0.16572878114E+04  0.25500000920E-02 0. -1.
       -2    1    3    3    0  502  0.13950149650E+04  0.86887582858E+03  0.38304497263E+03  0.16875234544E+04  0.25500000920E-02 0.  1.
</event>
<event>
 5   0  0.2824402E-07  0.3295216E+04  0.7818609E-02  0.8164114E-01
       -2   -1    0    0    0  501  0.00000000000E+00  0.00000000000E+00  0.10434778490E+04  0.10434778490E+04  0.25500000920E-02 0. -1.
        2   -1    0    0  501    0  0.00000000000E+00  0.00000000000E+00 -0.26015036334E+04  0.26015036334E+04  0.25500000920E-02 0.  1.
    10030    2    1    2    0    0  0.00000000000E+00  0.00000000000E+00 -0.15580257845E+04  0.36449814824E+04  0.32952155714E+04 0.  0.
        1    1    3    3  502    0  0.19096339500E+03 -0.10010572123E+04 -0.22110433028E+04  0.24346036736E+04  0.50400001928E-02 0.  1.
       -1    1    3    3    0  502 -0.19096339500E+03  0.10010572123E+04  0.65301751838E+03  0.12103778088E+04  0.50400001928E-02 0. -1.
</event>
<event>
 5   0  0.8805125E-08  0.3340600E+04  0.7818609E-02  0.8152641E-01
        1   -1    0    0  501    0  0.00000000000E+00  0.00000000000E+00  0.23261865838E+04  0.23261865838E+04  0.50400001928E-02 0. -1.
       -1   -1    0    0    0  501  0.00000000000E+00  0.00000000000E+00 -0.11993458650E+04  0.11993458650E+04  0.50400001928E-02 0.  1.
    10030    2    1    2    0    0  0.00000000000E+00  0.00000000000E+00  0.11268407188E+04  0.35255324488E+04  0.33406001020E+04 0.  0.
        4    1    3    3  502    0  0.10295867548E+03 -0.71291452191E+03  0.21538478177E+04  0.22711031767E+04  0.12699999809E+01 0. -1.
       -4    1    3    3    0  502 -0.10295867548E+03  0.71291452191E+03 -0.10270070989E+04  0.12544292721E+04  0.12699999809E+01 0.  1.
</event>
<event>
 5   0  0.2875829E-07  0.3303367E+04  0.7818609E-02  0.8162039E-01
        2   -1    0    0  501    0  0.00000000000E+00  0.00000000000E+00  0.79901271478E+03  0.79901271478E+03  0.25500000920E-02 0.  1.
       -2   -1    0    0    0  501  0.00000000000E+00  0.00000000000E+00 -0.34142872236E+04  0.34142872236E+04  0.25500000920E-02 0. -1.
    10030    2    1    2    0    0  0.00000000000E+00  0.00000000000E+00 -0.26152745088E+04  0.42132999384E+04  0.33033673145E+04 0.  0.
        3    1    3    3  502    0  0.90938098903E+02  0.12864919326E+04 -0.26237247975E+04  0.29235702581E+04  0.10100000352E+00 0. -1.
       -3    1    3    3    0  502 -0.90938098903E+02 -0.12864919326E+04  0.84502887270E+01  0.12897296803E+04  0.10100000352E+00 0.  1.
</event>
<event>
 5   0  0.9810351E-08  0.3298818E+04  0.7818609E-02  0.8163196E-01
       -1   -1    0    0    0  501  0.00000000000E+00  0.00000000000E+00  0.18170808202E+04  0.18170808202E+04  0.50400001928E-02 0. -1.
        1   -1    0    0  501    0  0.00000000000E+00  0.00000000000E+00 -0.14972090617E+04  0.14972090617E+04  0.50400001928E-02 0.  1.
    10030    2    1    2    0    0  0.00000000000E+00  0.00000000000E+00  0.31987175845E+03  0.33142898819E+04  0.32988178913E+04 0.  0.
        5    1    3    3  502    0 -0.19608810222E+02  0.40901492945E+03  0.17651937339E+04  0.18120730465E+04  0.46999998093E+01 0. -1.
       -5    1    3    3    0  502  0.19608810222E+02 -0.40901492945E+03 -0.14453219754E+04  0.15022168354E+04  0.46999998093E+01 0.  1.
</event>
<event>
 5   0  0.9283910E-08  0.3304079E+04  0.7818609E-02  0.8161858E-01
       -1   -1    0    0    0  501  0.00000000000E+00  0.00000000000E+00  0.12629416894E+04  0.12629416894E+04  0.50400001928E-02 0.  1.
        1   -1    0    0  501    0  0.00000000000E+00  0.00000000000E+00 -0.21610136503E+04  0.21610136503E+04  0.50400001928E-02 0. -1.
    10030    2    1    2    0    0  0.00000000000E+00  0.00000000000E+00 -0.89807196089E+03  0.34239553398E+04  0.33040788311E+04 0.  0.
        3    1    3    3  502    0 -0.73796145554E+03 -0.10165979783E+04  0.66281988195E+03  0.14203481142E+04  0.10100000352E+00 0.  1.
       -3    1    3    3    0  502  0.73796145554E+03  0.10165979783E+04 -0.15608918428E+04  0.20036072256E+04  0.10100000352E+00 0. -1.
</event>
<event>
 5   0  0.2727168E-07  0.3297509E+04  0.7818609E-02  0.8163529E-01
       -2   -1    0    0    0  501  0.00000000000E+00  0.00000000000E+00  0.14105173293E+04  0.14105173293E+04  0.25500000920E-02 0. -1.
        2   -1    0    0  501    0  0.00000000000E+00  0.00000000000E+00 -0.19272302658E+04  0.19272302658E+04  0.25500000920E-02 0.  1.
    10030    2    1    2    0    0  0.00000000000E+00  0.00000000000E+00 -0.51671293658E+03  0.33377475951E+04  0.32975091736E+04 0.  0.
        2    1    3    3  502    0  0.57018778934E+03 -0.12671184991E+04 -0.11567046053E+04  0.18079460583E+04  0.25500000920E-02 0.  1.
       -2    1    3    3    0  502 -0.57018778934E+03  0.12671184991E+04  0.63999166870E+03  0.15298015368E+04  0.25500000920E-02 0. -1.
</event>
<event>
 5   0  0.2703956E-07  0.3352463E+04  0.7818609E-02  0.8149673E-01
       -2   -1    0    0    0  501  0.00000000000E+00  0.00000000000E+00  0.18227678676E+04  0.18227678676E+04  0.25500000920E-02 0.  1.
        2   -1    0    0  501    0  0.00000000000E+00  0.00000000000E+00 -0.15414756664E+04  0.15414756664E+04  0.25500000920E-02 0. -1.
    10030    2    1    2    0    0  0.00000000000E+00  0.00000000000E+00  0.28129220124E+03  0.33642435340E+04  0.33524631622E+04 0.  0.
        5    1    3    3  502    0 -0.82612521775E+03  0.33151211393E+03  0.15659705094E+04  0.18012964452E+04  0.46999998093E+01 0. -1.
       -5    1    3    3    0  502  0.82612521775E+03 -0.33151211393E+03 -0.12846783082E+04  0.15629470889E+04  0.46999998093E+01 0.  1.
</event>
<event>
 5   0  0.8805125E-08  0.3304195E+04  0.7818609E-02  0.8161829E-01
        1   -1    0    0  501    0  0.00000000000E+00  0.00000000000E+00  0.13325322895E+04  0.13325322895E+04  0.50400001928E-02 0. -1.
       -1   -1    0    0    0  501  0.00000000000E+00  0.00000000000E+00 -0.20483007552E+04  0.20483007552E+04  0.50400001928E-02 0.  1.
    10030    2    1    2    0    0  0.00000000000E+00  0.00000000000E+00 -0.71576846568E+03  0.33808330447E+04  0.33041954512E+04 0.  0.
        4    1    3    3  502    0  0.87690985993E+03 -0.50435431399E+03 -0.16943499791E+04  0.19733645485E+04  0.12699999809E+01 0.  1.
       -4    1    3    3    0  502 -0.87690985993E+03  0.50435431399E+03  0.97858151344E+03  0.14074684962E+04  0.12699999809E+01 0. -1.
</event>
<event>
 5   0  0.2713815E-07  0.3302595E+04  0.7818609E-02  0.8162235E-01
        2   -1    0    0  501    0  0.00000000000E+00  0.00000000000E+00  0.13820601483E+04  0.13820601483E+04  0.25500000920E-02 0. -1.
       -2   -1    0    0    0  501  0.00000000000E+00  0.00000000000E+00 -0.19729851165E+04  0.19729851165E+04  0.25500000920E-02 0.  1.
    10030    2    1    2    0    0  0.00000000000E+00  0.00000000000E+00 -0.59092496815E+03  0.33550452648E+04  0.33025954053E+04 0.  0.
        4    1    3    3  502    0 -0.45946789895E+03 -0.50917306481E+03  0.12305302133E+04  0.14087491540E+04  0.12699999809E+01 0. -1.
       -4    1    3    3    0  502  0.45946789895E+03  0.50917306481E+03 -0.18214551814E+04  0.19462961108E+04  0.12699999809E+01 0.  1.
</event>
<event>
 5   0  0.9810351E-08  0.3292772E+04  0.7818609E-02  0.8164737E-01
        1   -1    0    0  501    0  0.00000000000E+00  0.00000000000E+00  0.13788304088E+04  0.13788304088E+04  0.50400001928E-02 0. -1.
       -1   -1    0    0    0  501  0.00000000000E+00  0.00000000000E+00 -0.19658593660E+04  0.19658593660E+04  0.50400001928E-02 0.  1.
    10030    2    1    2    0    0  0.00000000000E+00  0.00000000000E+00 -0.58702895721E+03  0.33446897749E+04  0.32927718860E+04 0.  0.
        5    1    3    3  502    0  0.66002561041E+02 -0.15898616196E+04 -0.72272664899E+03  0.17476762305E+04  0.46999998093E+01 0.  1.
       -5    1    3    3    0  502 -0.66002561041E+02  0.15898616196E+04  0.13569769178E+03  0.15970135444E+04  0.46999998093E+01 0. -1.
</event>
<event>
 5   0  0.2727168E-07  0.3295806E+04  0.7818609E-02  0.8163963E-01
       -2   -1    0    0    0  501  0.00000000000E+00  0.00000000000E+00  0.11184103165E+04  0.11184103165E+04  0.25500000920E-02 0. -1.
        2   -1    0    0  501    0  0.00000000000E+00  0.00000000000E+00 -0.24280752592E+04  0.24280752592E+04  0.25500000920E-02 0.  1.
    10030    2    1    2    0    0  0.00000000000E+00  0.00000000000E+00 -0.13096649427E+04  0.35464855756E+04  0.32958060738E+04 0.  0.
        2    1    3    3  502    0 -0.36719434984E+02  0.14969952864E+04  0.85416526563E+02  0.14998797244E+04  0.25500000920E-02 0. -1.
       -2    1    3    3    0  502  0.36719434984E+02 -0.14969952864E+04 -0.13950814693E+04  0.20466058513E+04  0.25500000920E-02 0.  1.
</event>
<event>
 5   0  0.2875829E-07  0.3302571E+04  0.7818609E-02  0.8162241E-01
       -2   -1    0    0    0  501  0.00000000000E+00  0.00000000000E+00  0.15400142250E+04  0.15400142250E+04  0.25500000920E-02 0.  1.
        2   -1    0    0  501    0  0.00000000000E+00  0.00000000000E+00 -0.17705969065E+04  0.17705969065E+04  0.25500000920E-02 0. -1.
    10030    2    1    2    0    0  0.00000000000E+00  0.00000000000E+00 -0.23058268149E+03  0.33106111316E+04  0.33025713757E+04 0.  0.
        3    1    3    3  502    0  0.10021055426E+04  0.12513624371E+04 -0.51200840231E+03  0.16829367433E+04  0.10100000352E+00 0. -1.
       -3    1    3    3    0  502 -0.10021055426E+04 -0.12513624371E+04  0.28142572083E+03  0.16276743883E+04  0.10100000352E+00 0.  1.
</event>
<event>
 5   0  0.8805125E-08  0.3297539E+04  0.7818609E-02  0.8163522E-01
       -1   -1    0    0    0  501  0.00000000000E+00  0.00000000000E+00  0.15517108139E+04  0.15517108140E+04  0.50400001928E-02 0. -1.
        1   -1    0    0  501    0  0.00000000000E+00  0.00000000000E+00 -0.17518988413E+04  0.17518988413E+04  0.50400001928E-02 0.  1.
    10030    2    1    2    0    0  0.00000000000E+00  0.00000000000E+00 -0.20018802738E+03  0.33036096553E+04  0.32975387046E+04 0.  0.
        4    1    3    3  502    0  0.11050758326E+04  0.60036796744E+03  0.96807927029E+03  0.15870769921E+04  0.12699999809E+01 0. -1.
       -4    1    3    3    0  502 -0.11050758326E+04 -0.60036796744E+03 -0.11682672977E+04  0.17165326632E+04  0.12699999809E+01 0.  1.
</event>
<event>
 5   0  0.9810351E-08  0.3304206E+04  0.7818609E-02  0.8161826E-01
        1   -1    0    0  501    0  0.00000000000E+00  0.00000000000E+00  0.14966944802E+04  0.14966944802E+04  0.50400001928E-02 0. -1.
       -1   -1    0    0    0  501  0.00000000000E+00  0.00000000000E+00 -0.18236478786E+04  0.18236478786E+04  0.50400001928E-02 0.  1.
    10030    2    1    2    0    0  0.00000000000E+00  0.00000000000E+00 -0.32695339841E+03  0.33203423588E+04  0.33042056315E+04 0.  0.
        5    1    3    3  502    0 -0.30599425441E+03  0.74946639760E+03  0.12837265205E+04  0.15176653894E+04  0.46999998093E+01 0. -1.
       -5    1    3    3    0  502  0.30599425441E+03 -0.74946639760E+03 -0.16106799189E+04  0.18026769694E+04  0.46999998093E+01 0.  1.
</event>
<event>
 5   0  0.2875829E-07  0.3247915E+04  0.7818609E-02  0.8176276E-01
        2   -1    0    0  501    0  0.00000000000E+00  0.00000000000E+00  0.16934287704E+04  0.16934287704E+04  0.25500000920E-02 0. -1.
       -2   -1    0    0    0  501  0.00000000000E+00  0.00000000000E+00 -0.15573363330E+04  0.15573363330E+04  0.25500000920E-02 0.  1.
    10030    2    1    2    0    0  0.00000000000E+00  0.00000000000E+00  0.13609243734E+03  0.32507651034E+04  0.32479151168E+04 0.  0.
        3    1    3    3  502    0 -0.57324786453E+03  0.28221243309E+02  0.15885331541E+04  0.16890373426E+04  0.10100000352E+00 0. -1.
       -3    1    3    3    0  502  0.57324786453E+03 -0.28221243309E+02 -0.14524407168E+04  0.15617277608E+04  0.10100000352E+00 0.  1.
</event>
<event>
 5   0  0.2875829E-07  0.3300286E+04  0.7818609E-02  0.8162823E-01
       -2   -1    0    0    0  501  0.00000000000E+00  0.00000000000E+00  0.14634038211E+04  0.14634038212E+04  0.25500000920E-02 0.  1.
        2   -1    0    0  501    0  0.00000000000E+00  0.00000000000E+00 -0.18607112610E+04  0.18607112610E+04  0.25500000920E-02 0. -1.
    10030    2    1    2    0    0  0.00000000000E+00  0.00000000000E+00 -0.39730743987E+03  0.33241150822E+04  0.33002860297E+04 0.  0.
        3    1    3    3  502    0  0.14114936393E+03  0.91886279372E+03  0.11745462660E+04  0.14979288761E+04  0.10100000352E+00 0.  1.
       -3    1    3    3    0  502 -0.14114936393E+03 -0.91886279372E+03 -0.15718537058E+04  0.18261862061E+04  0.10100000352E+00 0. -1.
</event>
<event>
 5   0  0.2727168E-07  0.3300141E+04  0.7818609E-02  0.8162860E-01
       -2   -1    0    0    0  501  0.00000000000E+00  0.00000000000E+00  0.10257571308E+04  0.10257571309E+04  0.25500000920E-02 0.  1.
        2   -1    0    0  501    0  0.00000000000E+00  0.00000000000E+00 -0.26543637095E+04  0.26543637095E+04  0.25500000920E-02 0. -1.
    10030    2    1    2    0    0  0.00000000000E+00  0.00000000000E+00 -0.16286065786E+04  0.36801208403E+04  0.33001409078E+04 0.  0.
        2    1    3    3  502    0 -0.76649597654E+02  0.25001276972E+03 -0.26311101788E+04  0.26440730547E+04  0.25500000920E-02 0. -1.
       -2    1    3    3    0  502  0.76649597654E+02 -0.25001276972E+03  0.10025036001E+04  0.10360477856E+04  0.25500000920E-02 0.  1.
</event>
<event>
 5   0  0.9181760E-08  0.3299889E+04  0.7818609E-02  0.8162924E-01
       -1   -1    0    0    0  501  0.00000000000E+00  0.00000000000E+00  0.14589864397E+04  0.14589864397E+04  0.50400001928E-02 0. -1.
        1   -1    0    0  501    0  0.00000000000E+00  0.00000000000E+00 -0.18658953740E+04  0.18658953740E+04  0.50400001928E-02 0.  1.
    10030    2    1    2    0    0  0.00000000000E+00  0.00000000000E+00 -0.40690893428E+03  0.33248818137E+04  0.32998885124E+04 0.  0.
        1    1    3    3  502    0 -0.13037682244E+04 -0.28906109334E+03  0.77287804209E+03  0.15429544279E+04  0.50400001928E-02 0. -1.
       -1    1    3    3    0  502  0.13037682244E+04  0.28906109334E+03 -0.11797869764E+04  0.17819273858E+04  0.50400001928E-02 0.  1.
</event>
<event>
 5   0  0.2713815E-07  0.3297785E+04  0.7818609E-02  0.8163459E-01
        2   -1    0    0  501    0  0.00000000000E+00  0.00000000000E+00  0.20832350585E+04  0.20832350586E+04  0.25500000920E-02 0.  1.
       -2   -1    0    0    0  501  0.00000000000E+00  0.00000000000E+00 -0.13051079907E+04  0.13051079907E+04  0.25500000920E-02 0. -1.
    10030    2    1    2    0    0  0.00000000000E+00  0.00000000000E+00  0.77812706782E+03  0.33883430493E+04  0.32977851485E+04 0.  0.
        4    1    3    3  502    0  0.64751640951E+02  0.11494426298E+04 -0.82378959611E+03  0.14156419200E+04  0.12699999809E+01 0. -1.
       -4    1    3    3    0  502 -0.64751640951E+02 -0.11494426298E+04  0.16019166639E+04  0.19727011292E+04  0.12699999809E+01 0.  1.
</event>
<event>
 5   0  0.2875829E-07  0.3300295E+04  0.7818609E-02  0.8162820E-01
        2   -1    0    0  501    0  0.00000000000E+00  0.00000000000E+00  0.14261321420E+04  0.14261321420E+04  0.25500000920E-02 0. -1.
       -2   -1    0    0    0  501  0.00000000000E+00  0.00000000000E+00 -0.19093506263E+04  0.19093506263E+04  0.25500000920E-02 0.  1.
    10030    2    1    2    0    0  0.00000000000E+00  0.00000000000E+00 -0.48321848427E+03  0.33354827683E+04  0.33002947132E+04 0.  0.
        3    1    3    3  502    0 -0.89125309822E+02  0.87274431040E+03  0.11709190658E+04  0.14631054033E+04  0.10100000352E+00 0. -1.
       -3    1    3    3    0  502  0.89125309822E+02 -0.87274431040E+03 -0.16541375501E+04  0.18723773650E+04  0.10100000352E+00 0.  1.
</event>
<event>
 5   0  0.9454010E-08  0.3287503E+04  0.7818609E-02  0.8166083E-01
       -1   -1    0    0    0  501  0.00000000000E+00  0.00000000000E+00  0.12712298274E+04  0.12712298274E+04  0.50400001928E-02 0.  1.
        1   -1    0    0  501    0  0.00000000000E+00  0.00000000000E+00 -0.21254369932E+04  0.21254369932E+04  0.50400001928E-02 0. -1.
    10030    2    1    2    0    0  0.00000000000E+00  0.00000000000E+00 -0.85420716585E+03  0.33966668206E+04  0.32875029442E+04 0.  0.
        2    1    3    3  502    0  0.11804542170E+04  0.56583966552E+03  0.60002565440E+03  0.14400268995E+04  0.25500000920E-02 0.  1.
       -2    1    3    3    0  502 -0.11804542170E+04 -0.56583966552E+03 -0.14542328202E+04  0.19566399211E+04  0.25500000920E-02 0. -1.
</event>
<event>
 5   0  0.9181760E-08  0.3298023E+04  0.7818609E-02  0.8163399E-01
        1   -1    0    0  501    0  0.00000000000E+00  0.00000000000E+00  0.19643559711E+04  0.19643559711E+04  0.50400001928E-02 0.  1.
       -1   -1    0    0    0  501  0.00000000000E+00  0.00000000000E+00 -0.13842903934E+04  0.13842903934E+04  0.50400001928E-02 0. -1.
    10030    2    1    2    0    0  0.00000000000E+00  0.00000000000E+00  0.58006557764E+03  0.33486463645E+04  0.32980231049E+04 0.  0.
        1    1    3    3  502    0 -0.71103009400E+02 -0.15783449969E+04  0.76952138193E+03  0.17573820656E+04  0.50400001928E-02 0.  1.
       -1    1    3    3    0  502  0.71103009400E+02  0.15783449969E+04 -0.18945580429E+03  0.15912642989E+04  0.50400001928E-02 0. -1.
</event>
<event>
 5   0  0.2824402E-07  0.3306763E+04  0.7818609E-02  0.8161177E-01
        2   -1    0    0  501    0  0.00000000000E+00  0.00000000000E+00  0.16510087983E+04  0.16510087983E+04  0.25500000920E-02 0.  1.
       -2   -1    0    0    0  501  0.00000000000E+00  0.00000000000E+00 -0.16557573471E+04  0.16557573471E+04  0.25500000920E-02 0. -1.
    10030    2    1    2    0    0  0.00000000000E+00  0.00000000000E+00 -0.47485488188E+01  0.33067661455E+04  0.33067627360E+04 0.  0.
        1    1    3    3  502    0 -0.52445329790E+03 -0.13132532264E+04 -0.85910419868E+03  0.16546133454E+04  0.50400001928E-02 0. -1.
       -1    1    3    3    0  502  0.52445329790E+03  0.13132532264E+04  0.85435564986E+03  0.16521528001E+04  0.50400001928E-02 0.  1.
</event>
<event>
 5   0  0.9810351E-08  0.3298277E+04  0.7818609E-02  0.8163334E-01
       -1   -1    0    0    0  501  0.00000000000E+00  0.00000000000E+00  0.11603656488E+04  0.11603656489E+04  0.50400001928E-02 0.  1.
        1   -1    0    0  501    0  0.00000000000E+00  0.00000000000E+00 -0.23437939604E+04  0.23437939604E+04  0.50400001928E-02 0. -1.
    10030    2    1    2    0    0  0.00000000000E+00  0.00000000000E+00 -0.11834283115E+04  0.35041596092E+04  0.32982771258E+04 0.  0.
        5    1    3    3  502    0  0.58776764354E+03  0.18488730996E+03 -0.22168997923E+04  0.23009391342E+04  0.46999998093E+01 0. -1.
       -5    1    3    3    0  502 -0.58776764354E+03 -0.18488730996E+03  0.10334714807E+04  0.12032204751E+04  0.46999998093E+01 0.  1.
</event>
<event>
 5   0  0.9181760E-08  0.3302149E+04  0.7818609E-02  0.8162349E-01
       -1   -1    0    0    0  501  0.00000000000E+00  0.00000000000E+00  0.15790305289E+04  0.15790305289E+04  0.50400001928E-02 0.  1.
        1   -1    0    0  501    0  0.00000000000E+00  0.00000000000E+00 -0.17264054548E+04  0.17264054549E+04  0.50400001928E-02 0. -1.
    10030    2    1    2    0    0  0.00000000000E+00  0.00000000000E+00 -0.14737492593E+03  0.33054359838E+04  0.33021489479E+04 0.  0.
        1    1    3    3  502    0  0.13652233282E+04 -0.88826833468E+03 -0.34449612948E+03  0.16647921653E+04  0.50400001928E-02 0.  1.
       -1    1    3    3    0  502 -0.13652233282E+04  0.88826833468E+03  0.19712120355E+03  0.16406438185E+04  0.50400001928E-02 0. -1.
</event>
<event>
 5   0  0.2875829E-07  0.3303634E+04  0.7818609E-02  0.8161971E-01
       -2   -1    0    0    0  501  0.00000000000E+00  0.00000000000E+00  0.30267098009E+04  0.30267098009E+04  0.25500000920E-02 0.  1.
        2   -1    0    0  501    0  0.00000000000E+00  0.00000000000E+00 -0.90147349009E+03  0.90147349009E+03  0.25500000920E-02 0. -1.
    10030    2    1    2    0    0  0.00000000000E+00  0.00000000000E+00  0.21252363108E+04  0.39281832910E+04  0.33036335437E+04 0.  0.
        3    1    3    3  502    0 -0.48068689887E+03  0.78690767790E+03  0.26921863322E+04  0.28457250123E+04  0.10100000352E+00 0.  1.
       -3    1    3    3    0  502  0.48068689887E+03 -0.78690767790E+03 -0.56695002133E+03  0.10824582787E+04  0.10100000352E+00 0. -1.
</event>
<event>
 5   0  0.9181760E-08  0.3295529E+04  0.7818609E-02  0.8164034E-01
       -1   -1    0    0    0  501  0.00000000000E+00  0.00000000000E+00  0.18740738541E+04  0.18740738541E+04  0.50400001928E-02 0.  1.
        1   -1    0    0  501    0  0.00000000000E+00  0.00000000000E+00 -0.14487838682E+04  0.14487838682E+04  0.50400001928E-02 0. -1.
    10030    2    1    2    0    0  0.00000000000E+00  0.00000000000E+00  0.42528998588E+03  0.33228577223E+04  0.32955290729E+04 0.  0.
        1    1    3    3  502    0 -0.15960353521E+04 -0.37639542656E+03  0.49670447286E+02  0.16405698753E+04  0.50400001928E-02 0.  1.
       -1    1    3    3    0  502  0.15960353521E+04  0.37639542656E+03  0.37561953860E+03  0.16822878470E+04  0.50400001928E-02 0. -1.
</event>
<event>
 5   0  0.9181760E-08  0.3300875E+04  0.7818609E-02  0.8162673E-01
        1   -1    0    0  501    0  0.00000000000E+00  0.00000000000E+00  0.20568033920E+04  0.20568033920E+04  0.50400001928E-02 0.  1.
       -1   -1    0    0    0  501  0.00000000000E+00  0.00000000000E+00 -0.13243576682E+04  0.13243576682E+04  0.50400001928E-02 0. -1.
    10030    2    1    2    0    0  0.00000000000E+00  0.00000000000E+00  0.73244572381E+03  0.33811610601E+04  0.33008746381E+04 0.  0.
        1    1    3    3  502    0  0.10962208675E+04  0.79235419683E+03  0.13349625407E+04  0.19004342527E+04  0.50400001928E-02 0.  1.
       -1    1    3    3    0  502 -0.10962208675E+04 -0.79235419683E+03 -0.60251681690E+03  0.14807268075E+04  0.50400001928E-02 0. -1.
</event>
<event>
 5   0  0.9454010E-08  0.3300539E+04  0.7818609E-02  0.8162758E-01
       -1   -1    0    0    0  501  0.00000000000E+00  0.00000000000E+00  0.19574168974E+04  0.19574168974E+04  0.50400001928E-02 0.  1.
        1   -1    0    0  501    0  0.00000000000E+00  0.00000000000E+00 -0.13913179660E+04  0.13913179660E+04  0.50400001928E-02 0. -1.
    10030    2    1    2    0    0  0.00000000000E+00  0.00000000000E+00  0.56609893149E+03  0.33487348634E+04  0.33005389234E+04 0.  0.
        2    1    3    3  502    0 -0.79058548054E+03 -0.11176565432E+04  0.12180306652E+04  0.18324246920E+04  0.25500000920E-02 0.  1.
       -2    1    3    3    0  502  0.79058548054E+03  0.11176565432E+04 -0.65193173368E+03  0.15163101714E+04  0.25500000920E-02 0. -1.
</event>
<event>
 5   0  0.2824402E-07  0.3305153E+04  0.7818609E-02  0.8161585E-01
       -2   -1    0    0    0  501  0.00000000000E+00  0.00000000000E+00  0.15869583542E+04  0.15869583542E+04  0.25500000920E-02 0. -1.
        2   -1    0    0  501    0  0.00000000000E+00  0.00000000000E+00 -0.17209078980E+04  0.17209078980E+04  0.25500000920E-02 0.  1.
    10030    2    1    2    0    0  0.00000000000E+00  0.00000000000E+00 -0.13394954383E+03  0.33078662522E+04  0.33051530467E+04 0.  0.
        1    1    3    3  502    0 -0.52411174877E+03 -0.14496028079E+04 -0.66325554969E+03  0.16780790655E+04  0.50400001928E-02 0.  1.
       -1    1    3    3    0  502  0.52411174877E+03  0.14496028079E+04  0.52930600585E+03  0.16297871867E+04  0.50400001928E-02 0. -1.
</event>
<event>
 5   0  0.2875829E-07  0.3299422E+04  0.7818609E-02  0.8163043E-01
       -2   -1    0    0    0  501  0.00000000000E+00  0.00000000000E+00  0.15222968264E+04  0.15222968264E+04  0.25500000920E-02 0.  1.
        2   -1    0    0  501    0  0.00000000000E+00  0.00000000000E+00 -0.17877890261E+04  0.17877890261E+04  0.25500000920E-02 0. -1.
    10030    2    1    2    0    0  0.00000000000E+00  0.00000000000E+00 -0.26549219972E+03  0.33100858525E+04  0.32994215013E+04 0.  0.
        3    1    3    3  502    0  0.73837843607E+03 -0.79308723436E+02 -0.16106174312E+04  0.17735786163E+04  0.10100000352E+00 0. -1.
       -3    1    3    3    0  502 -0.73837843607E+03  0.79308723436E+02  0.13451252315E+04  0.15365072362E+04  0.10100000352E+00 0.  1.
</event>
<event>
 5   0  0.2727168E-07  0.3305031E+04  0.7818609E-02  0.8161616E-01
        2   -1    0    0  501    0  0.00000000000E+00  0.00000000000E+00  0.20062154839E+04  0.20062154839E+04  0.25500000920E-02 0.  1.
       -2   -1    0    0    0  501  0.00000000000E+00  0.00000000000E+00 -0.13611738659E+04  0.13611738659E+04  0.25500000920E-02 0. -1.
    10030    2    1    2    0    0  0.00000000000E+00  0.00000000000E+00  0.64504161800E+03  0.33673893498E+04  0.33050313681E+04 0.  0.
        2    1    3    3  502    0 -0.49148955661E+03 -0.12619975704E+04  0.12872804111E+04  0.18684995876E+04  0.25500000920E-02 0.  1.
       -2    1    3    3    0  502  0.49148955661E+03  0.12619975704E+04 -0.64223879312E+03  0.14988897622E+04  0.25500000920E-02 0. -1.
</event>
<event>
 5   0  0.2713815E-07  0.3301507E+04  0.7818609E-02  0.8162512E-01
       -2   -1    0    0    0  501  0.00000000000E+00  0.00000000000E+00  0.17116548512E+04  0.17116548512E+04  0.25500000920E-02 0.  1.
        2   -1    0    0  501    0  0.00000000000E+00  0.00000000000E+00 -0.15920192884E+04  0.15920192884E+04  0.25500000920E-02 0. -1.
    10030    2    1    2    0    0  0.00000000000E+00  0.00000000000E+00  0.11963556286E+03  0.33036741396E+04  0.33015072547E+04 0.  0.
        4    1    3    3  502    0  0.10307010231E+04  0.18407289064E+03  0.13368836417E+04  0.16980833055E+04  0.12699999809E+01 0.  1.
       -4    1    3    3    0  502 -0.10307010231E+04 -0.18407289064E+03 -0.12172480788E+04  0.16055908341E+04  0.12699999809E+01 0. -1.
</event>
<event>
 5   0  0.2875829E-07  0.3300485E+04  0.7818609E-02  0.8162772E-01
       -2   -1    0    0    0  501  0.00000000000E+00  0.00000000000E+00  0.11139016053E+04  0.11139016053E+04  0.25500000920E-02 0. -1.
        2   -1    0    0  501    0  0.00000000000E+00  0.00000000000E+00 -0.24448299818E+04  0.24448299818E+04  0.25500000920E-02 0.  1.
    10030    2    1    2    0    0  0.00000000000E+00  0.00000000000E+00 -0.13309283765E+04  0.35587315871E+04  0.33004848379E+04 0.  0.
        3    1    3    3  502    0  0.80642392991E+03  0.13765432670E+04 -0.11205156968E+04  0.19495502963E+04  0.10100000352E+00 0.  1.
       -3    1    3    3    0  502 -0.80642392991E+03 -0.13765432670E+04 -0.21041267976E+03  0.16091812908E+04  0.10100000352E+00 0. -1.
</event>
<event>
 5   0  0.9181760E-08  0.3303506E+04  0.7818609E-02  0.8162004E-01
       -1   -1    0    0    0  501  0.00000000000E+00  0.00000000000E+00  0.93848988672E+03  0.93848988673E+03  0.50400001928E-02 0. -1.
        1   -1    0    0  501    0  0.00000000000E+00  0.00000000000E+00 -0.29071050308E+04  0.29071050309E+04  0.50400001928E-02 0.  1.
    10030    2    1    2    0    0  0.00000000000E+00  0.00000000000E+00 -0.19686151441E+04  0.38455949176E+04  0.33035064226E+04 0.  0.
        1    1    3    3  502    0 -0.12306963419E+04 -0.51853070339E+03 -0.21158180335E+04  0.25020338781E+04  0.50400001928E-02 0.  1.
       -1    1    3    3    0  502  0.12306963419E+04  0.51853070339E+03  0.14720288933E+03  0.13435610395E+04  0.50400001928E-02 0. -1.
</event>
<event>
 5   0  0.2713815E-07  0.3308725E+04  0.7818609E-02  0.8160679E-01
        2   -1    0    0  501    0  0.00000000000E+00  0.00000000000E+00  0.95651050911E+03  0.95651050911E+03  0.25500000920E-02 0.  1.
       -2   -1    0    0    0  501  0.00000000000E+00  0.00000000000E+00 -0.28613536988E+04  0.28613536988E+04  0.25500000920E-02 0. -1.
    10030    2    1    2    0    0  0.00000000000E+00  0.00000000000E+00 -0.19048431897E+04  0.38178642079E+04  0.33087247593E+04 0.  0.
        4    1    3    3  502    0  0.15346418784E+03  0.15327408065E+04 -0.25619457844E+03  0.15615642515E+04  0.12699999809E+01 0. -1.
       -4    1    3    3    0  502 -0.15346418784E+03 -0.15327408065E+04 -0.16486486112E+04  0.22562999563E+04  0.12699999809E+01 0.  1.
</event>
<event>
 5   0  0.2727168E-07  0.3306155E+04  0.7818609E-02  0.8161331E-01
       -2   -1    0    0    0  501  0.00000000000E+00  0.00000000000E+00  0.16766530958E+04  0.16766530958E+04  0.25500000920E-02 0.  1.
        2   -1    0    0  501    0  0.00000000000E+00  0.00000000000E+00 -0.16298334703E+04  0.16298334703E+04  0.25500000920E-02 0. -1.
    10030    2    1    2    0    0  0.00000000000E+00  0.00000000000E+00  0.46819625536E+02  0.33064865661E+04  0.33061550681E+04 0.  0.
        2    1    3    3  502    0  0.37170413567E+03 -0.14885081436E+04 -0.59215565946E+03  0.16445269177E+04  0.25500000920E-02 0.  1.
       -2    1    3    3    0  502 -0.37170413567E+03  0.14885081436E+04  0.63897528500E+03  0.16619596484E+04  0.25500000920E-02 0. -1.
</event>
<event>
 5   0  0.9454010E-08  0.3298377E+04  0.7818609E-02  0.8163308E-01
        1   -1    0    0  501    0  0.00000000000E+00  0.00000000000E+00  0.25104655640E+04  0.25104655640E+04  0.50400001928E-02 0.  1.
       -1   -1    0    0    0  501  0.00000000000E+00  0.00000000000E+00 -0.10833939438E+04  0.10833939438E+04  0.50400001928E-02 0. -1.
    10030    2    1    2    0    0  0.00000000000E+00  0.00000000000E+00  0.14270716203E+04  0.35938595078E+04  0.32983772908E+04 0.  0.
        2    1    3    3  502    0  0.78183241474E+03 -0.12143658740E+04  0.15810232350E+04  0.21413969436E+04  0.25500000920E-02 0.  1.
       -2    1    3    3    0  502 -0.78183241474E+03  0.12143658740E+04 -0.15395161475E+03  0.14524625641E+04  0.25500000920E-02 0. -1.
</event>
<event>
 5   0  0.9454010E-08  0.3231191E+04  0.7818609E-02  0.8180628E-01
       -1   -1    0    0    0  501  0.00000000000E+00  0.00000000000E+00  0.14010099062E+04  0.14010099062E+04  0.50400001928E-02 0.  1.
        1   -1    0    0  501    0  0.00000000000E+00  0.00000000000E+00 -0.18630484039E+04  0.18630484039E+04  0.50400001928E-02 0. -1.
    10030    2    1    2    0    0  0.00000000000E+00  0.00000000000E+00 -0.46203849776E+03  0.32640583101E+04  0.32311912786E+04 0.  0.
        2    1    3    3  502    0 -0.74153254831E+03  0.10166319910E+04 -0.12546070206E+04  0.17769214675E+04  0.25500000920E-02 0. -1.
       -2    1    3    3    0  502  0.74153254831E+03 -0.10166319910E+04  0.79256852285E+03  0.14871368427E+04  0.25500000920E-02 0.  1.
</event>
<event>
 5   0  0.2824402E-07  0.3284412E+04  0.7818609E-02  0.8166873E-01
        2   -1    0    0  501    0  0.00000000000E+00  0.00000000000E+00  0.15397446628E+04  0.15397446628E+04  0.25500000920E-02 0. -1.
       -2   -1    0    0    0  501  0.00000000000E+00  0.00000000000E+00 -0.17514855811E+04  0.17514855811E+04  0.25500000920E-02 0.  1.
    10030    2    1    2    0    0  0.00000000000E+00  0.00000000000E+00 -0.21174091830E+03  0.32912302439E+04  0.32844120177E+04 0.  0.
        1    1    3    3  502    0  0.69432301827E+03  0.21993899723E+02 -0.15970026814E+04  0.17415469416E+04  0.50400001928E-02 0.  1.
       -1    1    3    3    0  502 -0.69432301827E+03 -0.21993899723E+02  0.13852617631E+04  0.15496833023E+04  0.50400001928E-02 0. -1.
</event>
<event>
 5   0  0.9181760E-08  0.3296655E+04  0.7818609E-02  0.8163747E-01
        1   -1    0    0  501    0  0.00000000000E+00  0.00000000000E+00  0.92518863073E+03  0.92518863074E+03  0.50400001928E-02 0.  1.
       -1   -1    0    0    0  501  0.00000000000E+00  0.00000000000E+00 -0.29366812554E+04  0.29366812554E+04  0.50400001928E-02 0. -1.
    10030    2    1    2    0    0  0.00000000000E+00  0.00000000000E+00 -0.20114926247E+04  0.38618698861E+04  0.32966553411E+04 0.  0.
        1    1    3    3  502    0 -0.10419586028E+04 -0.12718682283E+04 -0.11426487308E+04  0.20022419040E+04  0.50400001928E-02 0. -1.
       -1    1    3    3    0  502  0.10419586028E+04  0.12718682283E+04 -0.86884389389E+03  0.18596279822E+04  0.50400001928E-02 0.  1.
</event>
<event>
 5   0  0.9810351E-08  0.3298147E+04  0.7818609E-02  0.8163367E-01
        1   -1    0    0  501    0  0.00000000000E+00  0.00000000000E+00  0.16506748076E+04  0.16506748076E+04  0.50400001928E-02 0. -1.
       -1   -1    0    0    0  501  0.00000000000E+00  0.00000000000E+00 -0.16474737559E+04  0.16474737559E+04  0.50400001928E-02 0.  1.
    10030    2    1    2    0    0  0.00000000000E+00  0.00000000000E+00  0.32010516927E+01  0.32981485635E+04  0.32981470101E+04 0.  0.
        5    1    3    3  502    0 -0.23350098321E+03  0.97136716995E+03 -0.13104002624E+04  0.16478009060E+04  0.46999998093E+01 0.  1.
       -5    1    3    3    0  502  0.23350098321E+03 -0.97136716995E+03  0.13136013141E+04  0.16503476575E+04  0.46999998093E+01 0. -1.
</event>
<event>
 5   0  0.9181760E-08  0.3297050E+04  0.7818609E-02  0.8163646E-01
        1   -1    0    0  501    0  0.00000000000E+00  0.00000000000E+00  0.16559256746E+04  0.16559256746E+04  0.50400001928E-02 0.  1.
       -1   -1    0    0    0  501  0.00000000000E+00  0.00000000000E+00 -0.16411574015E+04  0.16411574015E+04  0.50400001928E-02 0. -1.
    10030    2    1    2    0    0  0.00000000000E+00  0.00000000000E+00  0.14768273096E+02  0.32970830761E+04  0.32970500010E+04 0.  0.
        1    1    3    3  502    0  0.15055660281E+04  0.53959273662E+03 -0.39230135975E+03  0.16467512694E+04  0.50400001928E-02 0. -1.
       -1    1    3    3    0  502 -0.15055660281E+04 -0.53959273662E+03  0.40706963284E+03  0.16503318068E+04  0.50400001928E-02 0.  1.
</event>
<event>
 5   0  0.9283910E-08  0.3300839E+04  0.7818609E-02  0.8162682E-01
       -1   -1    0    0    0  501  0.00000000000E+00  0.00000000000E+00  0.26525847455E+04  0.26525847455E+04  0.50400001928E-02 0.  1.
        1   -1    0    0  501    0  0.00000000000E+00  0.00000000000E+00 -0.10268791125E+04  0.10268791125E+04  0.50400001928E-02 0. -1.
    10030    2    1    2    0    0  0.00000000000E+00  0.00000000000E+00  0.16257056330E+04  0.36794638579E+04  0.33008386021E+04 0.  0.
        3    1    3    3  502    0 -0.20193482547E+03 -0.12517028769E+04 -0.36491499340E+03  0.13193561795E+04  0.10100000352E+00 0. -1.
       -3    1    3    3    0  502  0.20193482547E+03  0.12517028769E+04  0.19906206264E+04  0.23601076785E+04  0.10100000352E+00 0.  1.
</event>
<event>
 5   0  0.2875829E-07  0.3303829E+04  0.7818609E-02  0.8161922E-01
        2   -1    0    0  501    0  0.00000000000E+00  0.00000000000E+00  0.15745026070E+04  0.15745026070E+04  0.25500000920E-02 0. -1.
       -2   -1    0    0    0  501  0.00000000000E+00  0.00000000000E+00 -0.17331325415E+04  0.17331325415E+04  0.25500000920E-02 0.  1.
    10030    2    1    2    0    0  0.00000000000E+00  0.00000000000E+00 -0.15862993449E+03  0.33076351485E+04  0.33038291148E+04 0.  0.
        3    1    3    3  502    0 -0.33079410504E+02  0.90259949057E+03 -0.14640358127E+04  0.17202270079E+04  0.10100000352E+00 0.  1.
       -3    1    3    3    0  502  0.33079410504E+02 -0.90259949057E+03  0.13054058782E+04  0.15874081406E+04  0.10100000352E+00 0. -1.
</event>
<event>
 5   0  0.2824402E-07  0.3304751E+04  0.7818609E-02  0.8161687E-01
       -2   -1    0    0    0  501  0.00000000000E+00  0.00000000000E+00  0.10505398160E+04  0.10505398160E+04  0.25500000920E-02 0. -1.
        2   -1    0    0  501    0  0.00000000000E+00  0.00000000000E+00 -0.25989928621E+04  0.25989928621E+04  0.25500000920E-02 0.  1.
    10030    2    1    2    0    0  0.00000000000E+00  0.00000000000E+00 -0.15484530461E+04  0.36495326780E+04  0.33047514176E+04 0.  0.
        1    1    3    3  502    0  0.90732220731E+02 -0.68410486922E+03  0.88378050073E+03  0.11212937980E+04  0.50400001928E-02 0. -1.
       -1    1    3    3    0  502 -0.90732220731E+02  0.68410486922E+03 -0.24322335468E+04  0.25282388800E+04  0.50400001928E-02 0.  1.
</event>
<event>
 5   0  0.2713815E-07  0.3313774E+04  0.7818609E-02  0.8159399E-01
        2   -1    0    0  501    0  0.00000000000E+00  0.00000000000E+00  0.36582774454E+04  0.36582774454E+04  0.25500000920E-02 0.  1.
       -2   -1    0    0    0  501  0.00000000000E+00  0.00000000000E+00 -0.75042817678E+03  0.75042817679E+03  0.25500000920E-02 0. -1.
    10030    2    1    2    0    0  0.00000000000E+00  0.00000000000E+00  0.29078492686E+04  0.44087056222E+04  0.33137739654E+04 0.  0.
        4    1    3    3  502    0 -0.10828129846E+04  0.10674827113E+03 -0.20850944022E+03  0.11078614320E+04  0.12699999809E+01 0. -1.
       -4    1    3    3    0  502  0.10828129846E+04 -0.10674827113E+03  0.31163587088E+04  0.33008441902E+04  0.12699999809E+01 0.  1.
</event>
<event>
 5   0  0.9454010E-08  0.3303318E+04  0.7818609E-02  0.8162052E-01
       -1   -1    0    0    0  501  0.00000000000E+00  0.00000000000E+00  0.11905176619E+04  0.11905176619E+04  0.50400001928E-02 0. -1.
        1   -1    0    0  501    0  0.00000000000E+00  0.00000000000E+00 -0.22914214028E+04  0.22914214028E+04  0.50400001928E-02 0.  1.
    10030    2    1    2    0    0  0.00000000000E+00  0.00000000000E+00 -0.11009037409E+04  0.34819390647E+04  0.33033181202E+04 0.  0.
        2    1    3    3  502    0 -0.12149645725E+04  0.45475695197E+03 -0.16279987022E+04  0.20816634147E+04  0.25500000920E-02 0.  1.
       -2    1    3    3    0  502  0.12149645725E+04 -0.45475695197E+03  0.52709496129E+03  0.14002756500E+04  0.25500000920E-02 0. -1.
</event>
<event>
 5   0  0.2703956E-07  0.3301523E+04  0.7818609E-02  0.8162508E-01
        2   -1    0    0  501    0  0.00000000000E+00  0.00000000000E+00  0.20871723090E+04  0.20871723090E+04  0.25500000920E-02 0. -1.
       -2   -1    0    0    0  501  0.00000000000E+00  0.00000000000E+00 -0.13056003573E+04  0.13056003573E+04  0.25500000920E-02 0.  1.
    10030    2    1    2    0    0  0.00000000000E+00  0.00000000000E+00  0.78157195175E+03  0.33927726663E+04  0.33015226259E+04 0.  0.
        5    1    3    3  502    0  0.10285878197E+03 -0.29152682423E+03  0.20571531880E+04  0.20802569907E+04  0.46999998093E+01 0. -1.
       -5    1    3    3    0  502 -0.10285878197E+03  0.29152682423E+03 -0.12755812363E+04  0.13125156756E+04  0.46999998093E+01 0.  1.
</event>
<event>
 5   0  0.2703956E-07  0.3319817E+04  0.7818609E-02  0.8157871E-01
       -2   -1    0    0    0  501  0.00000000000E+00  0.00000000000E+00  0.13321019224E+04  0.13321019224E+04  0.25500000920E-02 0. -1.
        2   -1    0    0  501    0  0.00000000000E+00  0.00000000000E+00 -0.20683829891E+04  0.20683829891E+04  0.25500000920E-02 0.  1.
    10030    2    1    2    0    0  0.00000000000E+00  0.00000000000E+00 -0.73628106674E+03  0.34004849115E+04  0.33198174383E+04 0.  0.
        5    1    3    3  502    0 -0.19094436946E+03 -0.60865912285E+03 -0.19378091943E+04  0.20401108410E+04  0.46999998093E+01 0.  1.
       -5    1    3    3    0  502  0.19094436946E+03  0.60865912285E+03  0.12015281276E+04  0.13603740704E+04  0.46999998093E+01 0. -1.
</event>
<event>
 5   0  0.2875829E-07  0.3303142E+04  0.7818609E-02  0.8162096E-01
       -2   -1    0    0    0  501  0.00000000000E+00  0.00000000000E+00  0.94262658029E+03  0.94262658029E+03  0.25500000920E-02 0.  1.
        2   -1    0    0  501    0  0.00000000000E+00  0.00000000000E+00 -0.28937088028E+04  0.28937088028E+04  0.25500000920E-02 0. -1.
    10030    2    1    2    0    0  0.00000000000E+00  0.00000000000E+00 -0.19510822225E+04  0.38363353831E+04  0.33031420394E+04 0.  0.
        3    1    3    3  502    0  0.15692687370E+04  0.13517890788E+03 -0.39854894465E+03  0.16247211999E+04  0.10100000352E+00 0.  1.
       -3    1    3    3    0  502 -0.15692687370E+04 -0.13517890788E+03 -0.15525332779E+04  0.22116141832E+04  0.10100000352E+00 0. -1.
</event>
<event>
 5   0  0.2703956E-07  0.3291225E+04  0.7818609E-02  0.8165132E-01
        2   -1    0    0  501    0  0.00000000000E+00  0.00000000000E+00  0.18021809762E+04  0.18021809762E+04  0.25500000920E-02 0.  1.
       -2   -1    0    0    0  501  0.00000000000E+00  0.00000000000E+00 -0.15026462461E+04  0.15026462461E+04  0.25500000920E-02 0. -1.
    10030    2    1    2    0    0  0.00000000000E+00  0.00000000000E+00  0.29953473012E+03  0.33048272223E+04  0.32912249869E+04 0.  0.
        5    1    3    3  502    0  0.13273169321E+04  0.85437388118E+03 -0.31722829371E+03  0.16100872173E+04  0.46999998093E+01 0. -1.
       -5    1    3    3    0  502 -0.13273169321E+04 -0.85437388118E+03  0.61676302384E+03  0.16947400050E+04  0.46999998093E+01 0.  1.
</event>
<event>
 5   0  0.2727168E-07  0.3300325E+04  0.7818609E-02  0.8162813E-01
        2   -1    0    0  501    0  0.00000000000E+00  0.00000000000E+00  0.15817900649E+04  0.15817900649E+04  0.25500000920E-02 0. -1.
       -2   -1    0    0    0  501  0.00000000000E+00  0.00000000000E+00 -0.17214899156E+04  0.17214899156E+04  0.25500000920E-02 0.  1.
    10030    2    1    2    0    0  0.00000000000E+00  0.00000000000E+00 -0.13969985070E+03  0.33032799805E+04  0.33003246176E+04 0.  0.
        2    1    3    3  502    0  0.78900727425E+03 -0.10201044886E+04 -0.11002814184E+04  0.16952182296E+04  0.25500000920E-02 0.  1.
       -2    1    3    3    0  502 -0.78900727425E+03  0.10201044886E+04  0.96058156769E+03  0.16080617509E+04  0.25500000920E-02 0. -1.
</event>
<event>
 5   0  0.2703956E-07  0.3299123E+04  0.7818609E-02  0.8163119E-01
        2   -1    0    0  501    0  0.00000000000E+00  0.00000000000E+00  0.18364200220E+04  0.18364200220E+04  0.25500000920E-02 0. -1.
       -2   -1    0    0    0  501  0.00000000000E+00  0.00000000000E+00 -0.14817160478E+04  0.14817160478E+04  0.25500000920E-02 0.  1.
    10030    2    1    2    0    0  0.00000000000E+00  0.00000000000E+00  0.35470397418E+03  0.33181360697E+04  0.32991229241E+04 0.  0.
        5    1    3    3  502    0 -0.78804946906E+03  0.10419907214E+03  0.16310716447E+04  0.18144685757E+04  0.46999998093E+01 0.  1.
       -5    1    3    3    0  502  0.78804946906E+03 -0.10419907214E+03 -0.12763676705E+04  0.15036674940E+04  0.46999998093E+01 0. -1.
</event>
<event>
 5   0  0.2727168E-07  0.3365557E+04  0.7818609E-02  0.8146412E-01
        2   -1    0    0  501    0  0.00000000000E+00  0.00000000000E+00  0.21869262746E+04  0.21869262746E+04  0.25500000920E-02 0.  1.
       -2   -1    0    0    0  501  0.00000000000E+00  0.00000000000E+00 -0.12948505405E+04  0.12948505405E+04  0.25500000920E-02 0. -1.
    10030    2    1    2    0    0  0.00000000000E+00  0.00000000000E+00  0.89207573416E+03  0.34817768151E+04  0.33655565178E+04 0.  0.
        2    1    3    3  502    0 -0.54266540816E+03  0.34891088877E+02  0.20935250736E+04  0.21629956928E+04  0.25500000920E-02 0.  1.
       -2    1    3    3    0  502  0.54266540816E+03 -0.34891088877E+02 -0.12014493394E+04  0.13187811223E+04  0.25500000920E-02 0. -1.
</event>
<event>
 5   0  0.2713815E-07  0.3299951E+04  0.7818609E-02  0.8162908E-01
       -2   -1    0    0    0  501  0.00000000000E+00  0.00000000000E+00  0.15737180256E+04  0.15737180256E+04  0.25500000920E-02 0. -1.
        2   -1    0    0  501    0  0.00000000000E+00  0.00000000000E+00 -0.17299278575E+04  0.17299278575E+04  0.25500000920E-02 0.  1.
    10030    2    1    2    0    0  0.00000000000E+00  0.00000000000E+00 -0.15620983195E+03  0.33036458831E+04  0.32999506980E+04 0.  0.
        4    1    3    3  502    0  0.10536755638E+04  0.12150159445E+04 -0.44719253602E+03  0.16692749074E+04  0.12699999809E+01 0.  1.
       -4    1    3    3    0  502 -0.10536755638E+04 -0.12150159445E+04  0.29098270407E+03  0.16343709757E+04  0.12699999809E+01 0. -1.
</event>
<event>
 5   0  0.2824402E-07  0.3310979E+04  0.7818609E-02  0.8160107E-01
        2   -1    0    0  501    0  0.00000000000E+00  0.00000000000E+00  0.16870760408E+04  0.16870760408E+04  0.25500000920E-02 0. -1.
       -2   -1    0    0    0  501  0.00000000000E+00  0.00000000000E+00 -0.16244942515E+04  0.16244942515E+04  0.25500000920E-02 0.  1.
    10030    2    1    2    0    0  0.00000000000E+00  0.00000000000E+00  0.62581789319E+02  0.33115702923E+04  0.33109789067E+04 0.  0.
        1    1    3    3  502    0 -0.12474083398E+04 -0.34527340133E+02 -0.10567570897E+04  0.16352233028E+04  0.50400001928E-02 0.  1.
       -1    1    3    3    0  502  0.12474083398E+04  0.34527340133E+02  0.11193388790E+04  0.16763469896E+04  0.50400001928E-02 0. -1.
</event>
<event>
 5   0  0.9181760E-08  0.3299868E+04  0.7818609E-02  0.8162929E-01
       -1   -1    0    0    0  501  0.00000000000E+00  0.00000000000E+00  0.14872814944E+04  0.14872814944E+04  0.50400001928E-02 0. -1.
        1   -1    0    0  501    0  0.00000000000E+00  0.00000000000E+00 -0.18303747973E+04  0.18303747974E+04  0.50400001928E-02 0.  1.
    10030    2    1    2    0    0  0.00000000000E+00  0.00000000000E+00 -0.34309330297E+03  0.33176562917E+04  0.32998682179E+04 0.  0.
        1    1    3    3  502    0  0.22219336216E+03  0.14750844622E+04 -0.88035661075E+03  0.17321292744E+04  0.50400001928E-02 0.  1.
       -1    1    3    3    0  502 -0.22219336216E+03 -0.14750844622E+04  0.53726330778E+03  0.15855270174E+04  0.50400001928E-02 0. -1.
</event>
<event>
 5   0  0.9810351E-08  0.3303874E+04  0.7818609E-02  0.8161910E-01
        1   -1    0    0  501    0  0.00000000000E+00  0.00000000000E+00  0.14420004432E+04  0.14420004432E+04  0.50400001928E-02 0.  1.
       -1   -1    0    0    0  501  0.00000000000E+00  0.00000000000E+00 -0.18924379278E+04  0.18924379278E+04  0.50400001928E-02 0. -1.
    10030    2    1    2    0    0  0.00000000000E+00  0.00000000000E+00 -0.45043748463E+03  0.33344383710E+04  0.33038742897E+04 0.  0.
        5    1    3    3  502    0  0.33321388683E+03  0.52204423670E+03  0.13203899283E+04  0.14584283775E+04  0.46999998093E+01 0.  1.
       -5    1    3    3    0  502 -0.33321388683E+03 -0.52204423670E+03 -0.17708274129E+04  0.18760099935E+04  0.46999998093E+01 0. -1.
</event>
<event>
 5   0  0.9454010E-08  0.3293834E+04  0.7818609E-02  0.8164466E-01
       -1   -1    0    0    0  501  0.00000000000E+00  0.00000000000E+00  0.13271813849E+04  0.13271813849E+04  0.50400001928E-02 0.  1.
        1   -1    0    0  501    0  0.00000000000E+00  0.00000000000E+00 -0.20436811604E+04  0.20436811604E+04  0.50400001928E-02 0. -1.
    10030    2    1    2    0    0  0.00000000000E+00  0.00000000000E+00 -0.71649977551E+03  0.33708625453E+04  0.32938339926E+04 0.  0.
        2    1    3    3  502    0  0.80582467671E+03 -0.98620654349E+03 -0.14268815635E+04  0.19125762083E+04  0.25500000920E-02 0. -1.
       -2    1    3    3    0  502 -0.80582467671E+03  0.98620654349E+03  0.71038178804E+03  0.14582863370E+04  0.25500000920E-02 0.  1.
</event>
<event>
 5   0  0.8805125E-08  0.3302395E+04  0.7818609E-02  0.8162286E-01
       -3   -1    0    0    0  501  0.00000000000E+00  0.00000000000E+00  0.16299759532E+04  0.16299759563E+04  0.10100000352E+00 0. -1.
        3   -1    0    0  501    0  0.00000000000E+00  0.00000000000E+00 -0.16726955379E+04  0.16726955409E+04  0.10100000352E+00 0.  1.
    10030    2    1    2    0    0  0.00000000000E+00  0.00000000000E+00 -0.42719584666E+02  0.33026714973E+04  0.33023951998E+04 0.  0.
        2    1    3    3  502    0  0.85375334557E+03  0.69991262115E+03  0.12066195865E+04  0.16354520105E+04  0.25500000920E-02 0. -1.
       -2    1    3    3    0  502 -0.85375334557E+03 -0.69991262115E+03 -0.12493391711E+04  0.16672194867E+04  0.25500000920E-02 0.  1.
</event>
<event>
 5   0  0.2824402E-07  0.3302837E+04  0.7818609E-02  0.8162174E-01
        2   -1    0    0  501    0  0.00000000000E+00  0.00000000000E+00  0.22358396528E+04  0.22358396528E+04  0.25500000920E-02 0.  1.
       -2   -1    0    0    0  501  0.00000000000E+00  0.00000000000E+00 -0.12197576681E+04  0.12197576681E+04  0.25500000920E-02 0. -1.
    10030    2    1    2    0    0  0.00000000000E+00  0.00000000000E+00  0.10160819847E+04  0.34555973209E+04  0.33028366967E+04 0.  0.
        1    1    3    3  502    0 -0.41116779463E+03  0.14283004006E+04  0.12611105633E+04  0.19492308336E+04  0.50400001928E-02 0.  1.
       -1    1    3    3    0  502  0.41116779463E+03 -0.14283004006E+04 -0.24502857864E+03  0.15063664873E+04  0.50400001928E-02 0. -1.
</event>
<event>
 5   0  0.2713815E-07  0.3294908E+04  0.7818609E-02  0.8164192E-01
       -2   -1    0    0    0  501  0.00000000000E+00  0.00000000000E+00  0.13452643086E+04  0.13452643086E+04  0.25500000920E-02 0. -1.
        2   -1    0    0  501    0  0.00000000000E+00  0.00000000000E+00 -0.20175249260E+04  0.20175249260E+04  0.25500000920E-02 0.  1.
    10030    2    1    2    0    0  0.00000000000E+00  0.00000000000E+00 -0.67226061740E+03  0.33627892346E+04  0.32949077527E+04 0.  0.
        4    1    3    3  502    0  0.14371561076E+04 -0.30270824490E+03  0.42560577898E+03  0.15291147279E+04  0.12699999809E+01 0. -1.
       -4    1    3    3    0  502 -0.14371561076E+04  0.30270824490E+03 -0.10978663964E+04  0.18336745067E+04  0.12699999809E+01 0.  1.
</event>
<event>
 5   0  0.8805125E-08  0.3301883E+04  0.7818609E-02  0.8162417E-01
        1   -1    0    0  501    0  0.00000000000E+00  0.00000000000E+00  0.18981137412E+04  0.18981137412E+04  0.50400001928E-02 0. -1.
       -1   -1    0    0    0  501  0.00000000000E+00  0.00000000000E+00 -0.14359556159E+04  0.14359556159E+04  0.50400001928E-02 0.  1.
    10030    2    1    2    0    0  0.00000000000E+00  0.00000000000E+00  0.46215812524E+03  0.33340693571E+04  0.33018825456E+04 0.  0.
        4    1    3    3  502    0  0.62555689404E+03  0.58468724186E+02 -0.13105206195E+04  0.14533430175E+04  0.12699999809E+01 0.  1.
       -4    1    3    3    0  502 -0.62555689404E+03 -0.58468724186E+02  0.17726787448E+04  0.18807263396E+04  0.12699999809E+01 0. -1.
</event>
<event>
 5   0  0.9454010E-08  0.3295547E+04  0.7818609E-02  0.8164029E-01
        1   -1    0    0  501    0  0.00000000000E+00  0.00000000000E+00  0.19471746964E+04  0.19471746964E+04  0.50400001928E-02 0.  1.
       -1   -1    0    0    0  501  0.00000000000E+00  0.00000000000E+00 -0.13944090029E+04  0.13944090030E+04  0.50400001928E-02 0. -1.
    10030    2    1    2    0    0  0.00000000000E+00  0.00000000000E+00  0.55276569346E+03  0.33415836994E+04  0.32955472547E+04 0.  0.
        2    1    3    3  502    0  0.14790296769E+03  0.66494368880E+03  0.17977195122E+04  0.19224517788E+04  0.25500000920E-02 0.  1.
       -2    1    3    3    0  502 -0.14790296769E+03 -0.66494368880E+03 -0.12449538188E+04  0.14191319206E+04  0.25500000920E-02 0. -1.
</event>
<event>
 5   0  0.9454010E-08  0.3306469E+04  0.7818609E-02  0.8161251E-01
       -1   -1    0    0    0  501  0.00000000000E+00  0.00000000000E+00  0.16958546510E+04  0.16958546510E+04  0.50400001928E-02 0.  1.
        1   -1    0    0  501    0  0.00000000000E+00  0.00000000000E+00 -0.16116857126E+04  0.16116857126E+04  0.50400001928E-02 0. -1.
    10030    2    1    2    0    0  0.00000000000E+00  0.00000000000E+00  0.84168938406E+02  0.33075403637E+04  0.33064692418E+04 0.  0.
        2    1    3    3  502    0  0.45035379721E+02  0.16479434950E+04  0.16637754220E+03  0.16569331413E+04  0.25500000920E-02 0. -1.
       -2    1    3    3    0  502 -0.45035379721E+02 -0.16479434950E+04 -0.82208603796E+02  0.16506072224E+04  0.25500000920E-02 0.  1.
</event>
<event>
 5   0  0.2727168E-07  0.3265237E+04  0.7818609E-02  0.8171798E-01
        2   -1    0    0  501    0  0.00000000000E+00  0.00000000000E+00  0.13819745877E+04  0.13819745877E+04  0.25500000920E-02 0. -1.
       -2   -1    0    0    0  501  0.00000000000E+00  0.00000000000E+00 -0.19287208809E+04  0.19287208809E+04  0.25500000920E-02 0.  1.
    10030    2    1    2    0    0  0.00000000000E+00  0.00000000000E+00 -0.54674629313E+03  0.33106954686E+04  0.32652370475E+04 0.  0.
        2    1    3    3  502    0  0.14955991131E+04 -0.17701974490E+03  0.36571186901E+03  0.15498057518E+04  0.25500000920E-02 0.  1.
       -2    1    3    3    0  502 -0.14955991131E+04  0.17701974490E+03 -0.91245816213E+03  0.17608897168E+04  0.25500000920E-02 0. -1.
</event>
<event>
 5   0  0.9181760E-08  0.3300667E+04  0.7818609E-02  0.8162726E-01
        1   -1    0    0  501    0  0.00000000000E+00  0.00000000000E+00  0.11805185696E+04  0.11805185696E+04  0.50400001928E-02 0.  1.
       -1   -1    0    0    0  501  0.00000000000E+00  0.00000000000E+00 -0.23071220006E+04  0.23071220006E+04  0.50400001928E-02 0. -1.
    10030    2    1    2    0    0  0.00000000000E+00  0.00000000000E+00 -0.11266034310E+04  0.34876405702E+04  0.33006668199E+04 0.  0.
        1    1    3    3  502    0  0.76448707572E+03 -0.88628386378E+03 -0.17926783591E+04  0.21409426137E+04  0.50400001928E-02 0. -1.
       -1    1    3    3    0  502 -0.76448707572E+03  0.88628386378E+03  0.66607492808E+03  0.13466979565E+04  0.50400001928E-02 0.  1.
</event>
<event>
 5   0  0.8805125E-08  0.3319349E+04  0.7818609E-02  0.8157989E-01
        1   -1    0    0  501    0  0.00000000000E+00  0.00000000000E+00  0.20502035047E+04  0.20502035047E+04  0.50400001928E-02 0. -1.
       -1   -1    0    0    0  501  0.00000000000E+00  0.00000000000E+00 -0.13435349766E+04  0.13435349766E+04  0.50400001928E-02 0.  1.
    10030    2    1    2    0    0  0.00000000000E+00  0.00000000000E+00  0.70666852818E+03  0.33937384813E+04  0.33193494047E+04 0.  0.
        4    1    3    3  502    0  0.59795958272E+03  0.78073551592E+03  0.17202385003E+04  0.19814958287E+04  0.12699999809E+01 0. -1.
       -4    1    3    3    0  502 -0.59795958272E+03 -0.78073551592E+03 -0.10135699721E+04  0.14122426526E+04  0.12699999809E+01 0.  1.
</event>
<event>
 5   0  0.9283910E-08  0.3298693E+04  0.7818609E-02  0.8163228E-01
        1   -1    0    0  501    0  0.00000000000E+00  0.00000000000E+00  0.21256750951E+04  0.21256750951E+04  0.50400001928E-02 0. -1.
       -1   -1    0    0    0  501  0.00000000000E+00  0.00000000000E+00 -0.12797554536E+04  0.12797554537E+04  0.50400001928E-02 0.  1.
    10030    2    1    2    0    0  0.00000000000E+00  0.00000000000E+00  0.84591964145E+03  0.34054305487E+04  0.32986932538E+04 0.  0.
        3    1    3    3  502    0 -0.15947131799E+04 -0.12333107700E+03  0.83850594906E+03  0.18059382375E+04  0.10100000352E+00 0. -1.
       -3    1    3    3    0  502  0.15947131799E+04  0.12333107700E+03  0.74136923867E+01  0.15994923113E+04  0.10100000352E+00 0.  1.
</event>
<event>
 5   0  0.8805125E-08  0.3290105E+04  0.7818609E-02  0.8165418E-01
       -1   -1    0    0    0  501  0.00000000000E+00  0.00000000000E+00  0.24025803259E+04  0.24025803259E+04  0.50400001928E-02 0.  1.
        1   -1    0    0  501    0  0.00000000000E+00  0.00000000000E+00 -0.11263712861E+04  0.11263712861E+04  0.50400001928E-02 0. -1.
    10030    2    1    2    0    0  0.00000000000E+00  0.00000000000E+00  0.12762090398E+04  0.35289516121E+04  0.32901048566E+04 0.  0.
        4    1    3    3  502    0  0.11683858753E+03 -0.38275425147E+03 -0.10733639400E+04  0.11455408474E+04  0.12699999809E+01 0. -1.
       -4    1    3    3    0  502 -0.11683858753E+03  0.38275425147E+03  0.23495729798E+04  0.23834107646E+04  0.12699999809E+01 0.  1.
</event>
<event>
 5   0  0.2713815E-07  0.3295079E+04  0.7818609E-02  0.8164149E-01
       -2   -1    0    0    0  501  0.00000000000E+00  0.00000000000E+00  0.95311729633E+03  0.95311729634E+03  0.25500000920E-02 0.  1.
        2   -1    0    0  501    0  0.00000000000E+00  0.00000000000E+00 -0.28479042228E+04  0.28479042228E+04  0.25500000920E-02 0. -1.
    10030    2    1    2    0    0  0.00000000000E+00  0.00000000000E+00 -0.18947869264E+04  0.38010215191E+04  0.32950792239E+04 0.  0.
        4    1    3    3  502    0  0.13849798284E+04  0.15916951993E+03 -0.19602038958E+04  0.24053908180E+04  0.12699999809E+01 0. -1.
       -4    1    3    3    0  502 -0.13849798284E+04 -0.15916951993E+03  0.65416969350E+02  0.13956307011E+04  0.12699999809E+01 0.  1.
</event>
<event>
 5   0  0.2727168E-07  0.3301823E+04  0.7818609E-02  0.8162432E-01
       -2   -1    0    0    0  501  0.00000000000E+00  0.00000000000E+00  0.14316824330E+04  0.14316824330E+04  0.25500000920E-02 0.  1.
        2   -1    0    0  501    0  0.00000000000E+00  0.00000000000E+00 -0.19037101065E+04  0.19037101065E+04  0.25500000920E-02 0. -1.
    10030    2    1    2    0    0  0.00000000000E+00  0.00000000000E+00 -0.47202767344E+03  0.33353925395E+04  0.33018227191E+04 0.  0.
        2    1    3    3  502    0 -0.22632958485E+03  0.28528663621E+03 -0.18626321125E+04  0.18978967128E+04  0.25500000920E-02 0. -1.
       -2    1    3    3    0  502  0.22632958485E+03 -0.28528663621E+03  0.13906044391E+04  0.14374958267E+04  0.25500000920E-02 0.  1.
</event>
<event>
 5   0  0.2703956E-07  0.3297675E+04  0.7818609E-02  0.8163487E-01
        2   -1    0    0  501    0  0.00000000000E+00  0.00000000000E+00  0.23530992861E+04  0.23530992862E+04  0.25500000920E-02 0. -1.
       -2   -1    0    0    0  501  0.00000000000E+00  0.00000000000E+00 -0.11553551754E+04  0.11553551754E+04  0.25500000920E-02 0.  1.
    10030    2    1    2    0    0  0.00000000000E+00  0.00000000000E+00  0.11977441107E+04  0.35084544616E+04  0.32976752044E+04 0.  0.
        5    1    3    3  502    0 -0.15920881570E+04  0.34276435805E+03  0.87304763612E+03  0.18478274729E+04  0.46999998093E+01 0. -1.
       -5    1    3    3    0  502  0.15920881570E+04 -0.34276435805E+03  0.32469647463E+03  0.16606269886E+04  0.46999998093E+01 0.  1.
</event>
<event>
 5   0  0.2875829E-07  0.3298823E+04  0.7818609E-02  0.8163195E-01
        2   -1    0    0  501    0  0.00000000000E+00  0.00000000000E+00  0.15863534502E+04  0.15863534502E+04  0.25500000920E-02 0. -1.
       -2   -1    0    0    0  501  0.00000000000E+00  0.00000000000E+00 -0.17149759216E+04  0.17149759216E+04  0.25500000920E-02 0.  1.
    10030    2    1    2    0    0  0.00000000000E+00  0.00000000000E+00 -0.12862247138E+03  0.33013293717E+04  0.32988228022E+04 0.  0.
        3    1    3    3  502    0  0.13506506152E+04 -0.91537489199E+03 -0.30613441439E+03  0.16600863132E+04  0.10100000352E+00 0.  1.
       -3    1    3    3    0  502 -0.13506506152E+04  0.91537489199E+03  0.17751194302E+03  0.16412430586E+04  0.10100000352E+00 0. -1.
</event>
<event>
 5   0  0.2824402E-07  0.3324953E+04  0.7818609E-02  0.8156575E-01
        2   -1    0    0  501    0  0.00000000000E+00  0.00000000000E+00  0.24882402068E+04  0.24882402068E+04  0.25500000920E-02 0. -1.
       -2   -1    0    0    0  501  0.00000000000E+00  0.00000000000E+00 -0.11107562457E+04  0.11107562457E+04  0.25500000920E-02 0.  1.
    10030    2    1    2    0    0  0.00000000000E+00  0.00000000000E+00  0.13774839611E+04  0.35989964525E+04  0.33249531428E+04 0.  0.
        1    1    3    3  502    0 -0.50859107741E+03 -0.10156547994E+04  0.20027166458E+04  0.23024103715E+04  0.50400001928E-02 0. -1.
       -1    1    3    3    0  502  0.50859107741E+03  0.10156547994E+04 -0.62523268464E+03  0.12965860810E+04  0.50400001928E-02 0.  1.
</event>
<event>
 5   0  0.9283910E-08  0.3301412E+04  0.7818609E-02  0.8162536E-01
        1   -1    0    0  501    0  0.00000000000E+00  0.00000000000E+00  0.16647005268E+04  0.16647005268E+04  0.50400001928E-02 0.  1.
       -1   -1    0    0    0  501  0.00000000000E+00  0.00000000000E+00 -0.16368287308E+04  0.16368287308E+04  0.50400001928E-02 0. -1.
    10030    2    1    2    0    0  0.00000000000E+00  0.00000000000E+00  0.27871796076E+02  0.33015292576E+04  0.33014116075E+04 0.  0.
        3    1    3    3  502    0  0.35888336136E+03  0.12881253325E+01  0.16252135722E+04  0.16643671745E+04  0.10100000352E+00 0.  1.
       -3    1    3    3    0  502 -0.35888336136E+03 -0.12881253325E+01 -0.15973417761E+04  0.16371620831E+04  0.10100000352E+00 0. -1.
</event>
<event>
 5   0  0.9283910E-08  0.3304166E+04  0.7818609E-02  0.8161836E-01
       -1   -1    0    0    0  501  0.00000000000E+00  0.00000000000E+00  0.19534911862E+04  0.19534911862E+04  0.50400001928E-02 0. -1.
        1   -1    0    0  501    0  0.00000000000E+00  0.00000000000E+00 -0.13971793753E+04  0.13971793753E+04  0.50400001928E-02 0.  1.
    10030    2    1    2    0    0  0.00000000000E+00  0.00000000000E+00  0.55631181092E+03  0.33506705615E+04  0.33041656104E+04 0.  0.
        3    1    3    3  502    0  0.82424014621E+03  0.14278370572E+04  0.17041981829E+03  0.16574478589E+04  0.10100000352E+00 0. -1.
       -3    1    3    3    0  502 -0.82424014621E+03 -0.14278370572E+04  0.38589199263E+03  0.16932227026E+04  0.10100000352E+00 0.  1.
</event>
<event>
 5   0  0.2703956E-07  0.3301226E+04  0.7818609E-02  0.8162584E-01
       -2   -1    0    0    0  501  0.00000000000E+00  0.00000000000E+00  0.13605055521E+04  0.13605055521E+04  0.25500000920E-02 0.  1.
        2   -1    0    0  501    0  0.00000000000E+00  0.00000000000E+00 -0.20025811606E+04  0.20025811606E+04  0.25500000920E-02 0. -1.
    10030    2    1    2    0    0  0.00000000000E+00  0.00000000000E+00 -0.64207560850E+03  0.33630867128E+04  0.33012257043E+04 0.  0.
        5    1    3    3  502    0  0.10147520339E+04  0.10924194074E+04  0.40032627413E+03  0.15438215790E+04  0.46999998093E+01 0.  1.
       -5    1    3    3    0  502 -0.10147520339E+04 -0.10924194074E+04 -0.10424018826E+04  0.18192651338E+04  0.46999998093E+01 0. -1.
</event>
<event>
 5   0  0.8805125E-08  0.3302586E+04  0.7818609E-02  0.8162238E-01
        1   -1    0    0  501    0  0.00000000000E+00  0.00000000000E+00  0.22121525436E+04  0.22121525436E+04  0.50400001928E-02 0.  1.
       -1   -1    0    0    0  501  0.00000000000E+00  0.00000000000E+00 -0.12326310059E+04  0.12326310059E+04  0.50400001928E-02 0. -1.
    10030    2    1    2    0    0  0.00000000000E+00  0.00000000000E+00  0.97952153774E+03  0.34447835495E+04  0.33025855416E+04 0.  0.
        4    1    3    3  502    0 -0.14580123794E+04  0.45968257362E+03  0.11408637462E+04  0.19075324027E+04  0.12699999809E+01 0.  1.
       -4    1    3    3    0  502  0.14580123794E+04 -0.45968257362E+03 -0.16134220844E+03  0.15372511468E+04  0.12699999809E+01 0. -1.
</event>
<event>
 5   0  0.2824402E-07  0.3300722E+04  0.7818609E-02  0.8162712E-01
       -2   -1    0    0    0  501  0.00000000000E+00  0.00000000000E+00  0.16558752330E+04  0.16558752330E+04  0.25500000920E-02 0.  1.
        2   -1    0    0  501    0  0.00000000000E+00  0.00000000000E+00 -0.16448651176E+04  0.16448651176E+04  0.25500000920E-02 0. -1.
    10030    2    1    2    0    0  0.00000000000E+00  0.00000000000E+00  0.11010115368E+02  0.33007403506E+04  0.33007219876E+04 0.  0.
        1    1    3    3  502    0  0.10726281824E+04  0.68544998790E+03  0.10559005939E+04  0.16538739274E+04  0.50400001928E-02 0.  1.
       -1    1    3    3    0  502 -0.10726281824E+04 -0.68544998790E+03 -0.10448904785E+04  0.16468664232E+04  0.50400001928E-02 0. -1.
</event>
<event>
 5   0  0.2875829E-07  0.3296812E+04  0.7818609E-02  0.8163707E-01
       -2   -1    0    0    0  501  0.00000000000E+00  0.00000000000E+00  0.12539953327E+04  0.12539953328E+04  0.25500000920E-02 0.  1.
        2   -1    0    0  501    0  0.00000000000E+00  0.00000000000E+00 -0.21668676518E+04  0.21668676518E+04  0.25500000920E-02 0. -1.
    10030    2    1    2    0    0  0.00000000000E+00  0.00000000000E+00 -0.91287231903E+03  0.34208629845E+04  0.32968117459E+04 0.  0.
        3    1    3    3  502    0 -0.30589673115E+02 -0.16453310850E+04 -0.55591756673E+03  0.17369785429E+04  0.10100000352E+00 0.  1.
       -3    1    3    3    0  502  0.30589673115E+02  0.16453310850E+04 -0.35695475230E+03  0.16838844416E+04  0.10100000352E+00 0. -1.
</event>
<event>
 5   0  0.9283910E-08  0.3295953E+04  0.7818609E-02  0.8163926E-01
        1   -1    0    0  501    0  0.00000000000E+00  0.00000000000E+00  0.23808257390E+04  0.23808257390E+04  0.50400001928E-02 0. -1.
       -1   -1    0    0    0  501  0.00000000000E+00  0.00000000000E+00 -0.11407076208E+04  0.11407076209E+04  0.50400001928E-02 0.  1.
    10030    2    1    2    0    0  0.00000000000E+00  0.00000000000E+00  0.12401181181E+04  0.35215333598E+04  0.32959527086E+04 0.  0.
        3    1    3    3  502    0 -0.51071677662E+03  0.92925906776E+03  0.19679362932E+04  0.22354255311E+04  0.10100000352E+00 0. -1.
       -3    1    3    3    0  502  0.51071677662E+03 -0.92925906776E+03 -0.72781817506E+03  0.12861078287E+04  0.10100000352E+00 0.  1.
</event>
<event>
 5   0  0.2875829E-07  0.3292505E+04  0.7818609E-02  0.8164805E-01
        2   -1    0    0  501    0  0.00000000000E+00  0.00000000000E+00  0.14670835297E+04  0.14670835297E+04  0.25500000920E-02 0.  1.
       -2   -1    0    0    0  501  0.00000000000E+00  0.00000000000E+00 -0.18473021050E+04  0.18473021050E+04  0.25500000920E-02 0. -1.
    10030    2    1    2    0    0  0.00000000000E+00  0.00000000000E+00 -0.38021857534E+03  0.33143856347E+04  0.32925045133E+04 0.  0.
        3    1    3    3  502    0  0.47683326073E+03  0.10540443481E+04  0.98889895197E+03  0.15219397471E+04  0.10100000352E+00 0.  1.
       -3    1    3    3    0  502 -0.47683326073E+03 -0.10540443481E+04 -0.13691175273E+04  0.17924458876E+04  0.10100000352E+00 0. -1.
</event>
<event>
 5   0  0.2824402E-07  0.3298846E+04  0.7818609E-02  0.8163189E-01
       -2   -1    0    0    0  501  0.00000000000E+00  0.00000000000E+00  0.13814250739E+04  0.13814250739E+04  0.25500000920E-02 0. -1.
        2   -1    0    0  501    0  0.00000000000E+00  0.00000000000E+00 -0.19694129891E+04  0.19694129891E+04  0.25500000920E-02 0.  1.
    10030    2    1    2    0    0  0.00000000000E+00  0.00000000000E+00 -0.58798791513E+03  0.33508380630E+04  0.32988461522E+04 0.  0.
        1    1    3    3  502    0  0.11602316219E+04 -0.57391827194E+03 -0.13323959175E+04  0.18576324933E+04  0.50400001928E-02 0.  1.
       -1    1    3    3    0  502 -0.11602316219E+04  0.57391827194E+03  0.74440800239E+03  0.14932055697E+04  0.50400001928E-02 0. -1.
</event>
<event>
 5   0  0.8805125E-08  0.3301096E+04  0.7818609E-02  0.8162617E-01
       -1   -1    0    0    0  501  0.00000000000E+00  0.00000000000E+00  0.15265721199E+04  0.15265721199E+04  0.50400001928E-02 0.  1.
        1   -1    0    0  501    0  0.00000000000E+00  0.00000000000E+00 -0.17845923149E+04  0.17845923149E+04  0.50400001928E-02 0. -1.
    10030    2    1    2    0    0  0.00000000000E+00  0.00000000000E+00 -0.25802019498E+03  0.33111644349E+04  0.33010961049E+04 0.  0.
        4    1    3    3  502    0 -0.65299279468E+03  0.66394889321E+03 -0.14959135263E+04  0.17620972203E+04  0.12699999809E+01 0. -1.
       -4    1    3    3    0  502  0.65299279468E+03 -0.66394889321E+03  0.12378933313E+04  0.15490672146E+04  0.12699999809E+01 0.  1.
</event>
<event>
 5   0  0.2713815E-07  0.3293672E+04  0.7818609E-02  0.8164507E-01
       -2   -1    0    0    0  501  0.00000000000E+00  0.00000000000E+00  0.16594212868E+04  0.16594212868E+04  0.25500000920E-02 0.  1.
        2   -1    0    0  501    0  0.00000000000E+00  0.00000000000E+00 -0.16343464015E+04  0.16343464015E+04  0.25500000920E-02 0. -1.
    10030    2    1    2    0    0  0.00000000000E+00  0.00000000000E+00  0.25074885279E+02  0.32937676882E+04  0.32936722415E+04 0.  0.
        4    1    3    3  502    0  0.30760682419E+03  0.82733468775E+03 -0.13778132266E+04  0.16362993443E+04  0.12699999809E+01 0. -1.
       -4    1    3    3    0  502 -0.30760682419E+03 -0.82733468775E+03  0.14028881119E+04  0.16574683440E+04  0.12699999809E+01 0.  1.
</event>
<event>
 5   0  0.2727168E-07  0.3297998E+04  0.7818609E-02  0.8163405E-01
       -2   -1    0    0    0  501  0.00000000000E+00  0.00000000000E+00  0.16197260172E+04  0.16197260172E+04  0.25500000920E-02 0.  1.
        2   -1    0    0  501    0  0.00000000000E+00  0.00000000000E+00 -0.16788006278E+04  0.16788006278E+04  0.25500000920E-02 0. -1.
    10030    2    1    2    0    0  0.00000000000E+00  0.00000000000E+00 -0.59074610643E+02  0.32985266450E+04  0.32979976073E+04 0.  0.
        2    1    3    3  502    0  0.11815658078E+04  0.11499490428E+04 -0.27655802425E+01  0.16487838571E+04  0.25500000920E-02 0.  1.
       -2    1    3    3    0  502 -0.11815658078E+04 -0.11499490428E+04 -0.56309030400E+02  0.16497427878E+04  0.25500000920E-02 0. -1.
</event>
<event>
 5   0  0.9283910E-08  0.3298622E+04  0.7818609E-02  0.8163246E-01
        1   -1    0    0  501    0  0.00000000000E+00  0.00000000000E+00  0.26497729684E+04  0.26497729684E+04  0.50400001928E-02 0.  1.
       -1   -1    0    0    0  501  0.00000000000E+00  0.00000000000E+00 -0.10265888622E+04  0.10265888622E+04  0.50400001928E-02 0. -1.
    10030    2    1    2    0    0  0.00000000000E+00  0.00000000000E+00  0.16231841062E+04  0.36763618306E+04  0.32986223892E+04 0.  0.
        3    1    3    3  502    0  0.65581492909E+02 -0.43858186315E+03  0.25820822748E+04  0.26198862317E+04  0.10100000352E+00 0.  1.
       -3    1    3    3    0  502 -0.65581492909E+02  0.43858186315E+03 -0.95889816866E+03  0.10564755988E+04  0.10100000352E+00 0. -1.
</event>
<event>
 5   0  0.8805125E-08  0.3302118E+04  0.7818609E-02  0.8162357E-01
        1   -1    0    0  501    0  0.00000000000E+00  0.00000000000E+00  0.78247612682E+03  0.78247612683E+03  0.50400001928E-02 0.  1.
       -1   -1    0    0    0  501  0.00000000000E+00  0.00000000000E+00 -0.34838063225E+04  0.34838063225E+04  0.50400001928E-02 0. -1.
    10030    2    1    2    0    0  0.00000000000E+00  0.00000000000E+00 -0.27013301957E+04  0.42662824494E+04  0.33021176708E+04 0.  0.
        4    1    3    3  502    0 -0.15176247254E+04  0.48903594967E+02 -0.51294806339E+03  0.16027144779E+04  0.12699999809E+01 0.  1.
       -4    1    3    3    0  502  0.15176247254E+04 -0.48903594967E+02 -0.21883821323E+04  0.26635679715E+04  0.12699999809E+01 0. -1.
</event>
<event>
 5   0  0.9810351E-08  0.3302000E+04  0.7818609E-02  0.8162387E-01
       -1   -1    0    0    0  501  0.00000000000E+00  0.00000000000E+00  0.15914873293E+04  0.15914873293E+04  0.50400001928E-02 0.  1.
        1   -1    0    0  501    0  0.00000000000E+00  0.00000000000E+00 -0.17127384470E+04  0.17127384470E+04  0.50400001928E-02 0. -1.
    10030    2    1    2    0    0  0.00000000000E+00  0.00000000000E+00 -0.12125111773E+03  0.33042257763E+04  0.33020003251E+04 0.  0.
        5    1    3    3  502    0 -0.68041491728E+03 -0.10350879508E+04 -0.11528775491E+04  0.16921939188E+04  0.46999998093E+01 0. -1.
       -5    1    3    3    0  502  0.68041491728E+03  0.10350879508E+04  0.10316264314E+04  0.16120318575E+04  0.46999998093E+01 0.  1.
</event>
<event>
 5   0  0.8805125E-08  0.3297645E+04  0.7818609E-02  0.8163495E-01
        1   -1    0    0  501    0  0.00000000000E+00  0.00000000000E+00  0.22226290577E+04  0.22226290577E+04  0.50400001928E-02 0. -1.
       -1   -1    0    0    0  501  0.00000000000E+00  0.00000000000E+00 -0.12231534437E+04  0.12231534437E+04  0.50400001928E-02 0.  1.
    10030    2    1    2    0    0  0.00000000000E+00  0.00000000000E+00  0.99947561400E+03  0.34457825014E+04  0.32976454545E+04 0.  0.
        4    1    3    3  502    0  0.56386685264E+03 -0.99590820533E+03  0.17400016662E+04  0.20826392852E+04  0.12699999809E+01 0. -1.
       -4    1    3    3    0  502 -0.56386685264E+03  0.99590820533E+03 -0.74052605219E+03  0.13631432162E+04  0.12699999809E+01 0.  1.
</event>
<event>
 5   0  0.9181760E-08  0.3298802E+04  0.7818609E-02  0.8163200E-01
        1   -1    0    0  501    0  0.00000000000E+00  0.00000000000E+00  0.15572709135E+04  0.15572709135E+04  0.50400001928E-02 0.  1.
       -1   -1    0    0    0  501  0.00000000000E+00  0.00000000000E+00 -0.17469818837E+04  0.17469818837E+04  0.50400001928E-02 0. -1.
    10030    2    1    2    0    0  0.00000000000E+00  0.00000000000E+00 -0.18971097025E+03  0.33042527972E+04  0.32988022517E+04 0.  0.
        1    1    3    3  502    0  0.86267069674E+03  0.13095317545E+04 -0.60702207695E+03  0.16815320243E+04  0.50400001928E-02 0.  1.
       -1    1    3    3    0  502 -0.86267069674E+03 -0.13095317545E+04  0.41731110670E+03  0.16227207729E+04  0.50400001928E-02 0. -1.
</event>
<event>
 5   0  0.2703956E-07  0.3300597E+04  0.7818609E-02  0.8162743E-01
       -2   -1    0    0    0  501  0.00000000000E+00  0.00000000000E+00  0.13074428040E+04  0.13074428040E+04  0.25500000920E-02 0.  1.
        2   -1    0    0  501    0  0.00000000000E+00  0.00000000000E+00 -0.20830630961E+04  0.20830630961E+04  0.25500000920E-02 0. -1.
    10030    2    1    2    0    0  0.00000000000E+00  0.00000000000E+00 -0.77562029206E+03  0.33905059001E+04  0.33005974339E+04 0.  0.
        5    1    3    3  502    0  0.22429118035E+03 -0.39603262915E+03 -0.20173105915E+04  0.20680213948E+04  0.46999998093E+01 0. -1.
       -5    1    3    3    0  502 -0.22429118035E+03  0.39603262915E+03  0.12416902994E+04  0.13224845052E+04  0.46999998093E+01 0.  1.
</event>
<event>
 5   0  0.8805125E-08  0.3302870E+04  0.7818609E-02  0.8162165E-01
       -1   -1    0    0    0  501  0.00000000000E+00  0.00000000000E+00  0.95732396568E+03  0.95732396570E+03  0.50400001928E-02 0. -1.
        1   -1    0    0  501    0  0.00000000000E+00  0.00000000000E+00 -0.28488142344E+04  0.28488142344E+04  0.50400001928E-02 0.  1.
    10030    2    1    2    0    0  0.00000000000E+00  0.00000000000E+00 -0.18914902687E+04  0.38061382001E+04  0.33028703519E+04 0.  0.
        4    1    3    3  502    0  0.14623803446E+04  0.55540851856E+02 -0.18275893704E+04  0.23413085184E+04  0.12699999809E+01 0.  1.
       -4    1    3    3    0  502 -0.14623803446E+04 -0.55540851856E+02 -0.63900898285E+02  0.14648296817E+04  0.12699999809E+01 0. -1.
</event>
<event>
 5   0  0.9454010E-08  0.3297813E+04  0.7818609E-02  0.8163452E-01
        1   -1    0    0  501    0  0.00000000000E+00  0.00000000000E+00  0.19281944352E+04  0.19281944352E+04  0.50400001928E-02 0.  1.
       -1   -1    0    0    0  501  0.00000000000E+00  0.00000000000E+00 -0.14100722230E+04  0.14100722230E+04  0.50400001928E-02 0. -1.
    10030    2    1    2    0    0  0.00000000000E+00  0.00000000000E+00  0.51812221222E+03  0.33382666582E+04  0.32978134657E+04 0.  0.
        2    1    3    3  502    0  0.84559446269E+02 -0.35365092486E+03  0.18871038321E+04  0.19218168877E+04  0.25500000920E-02 0.  1.
       -2    1    3    3    0  502 -0.84559446269E+02  0.35365092486E+03 -0.13689816199E+04  0.14164497705E+04  0.25500000920E-02 0. -1.
</event>
<event>
 5   0  0.2875829E-07  0.3332902E+04  0.7818609E-02  0.8154574E-01
        2   -1    0    0  501    0  0.00000000000E+00  0.00000000000E+00  0.22117348416E+04  0.22117348416E+04  0.25500000920E-02 0. -1.
       -2   -1    0    0    0  501  0.00000000000E+00  0.00000000000E+00 -0.12556019746E+04  0.12556019746E+04  0.25500000920E-02 0.  1.
    10030    2    1    2    0    0  0.00000000000E+00  0.00000000000E+00  0.95613286701E+03  0.34673368162E+04  0.33329018194E+04 0.  0.
        3    1    3    3  502    0  0.30235317670E+03  0.65812614328E+02 -0.12254526961E+04  0.12639157663E+04  0.10100000352E+00 0.  1.
       -3    1    3    3    0  502 -0.30235317670E+03 -0.65812614328E+02  0.21815855631E+04  0.22034210499E+04  0.10100000352E+00 0. -1.
</event>
<event>
 5   0  0.2875829E-07  0.3295634E+04  0.7818609E-02  0.8164007E-01
        2   -1    0    0  501    0  0.00000000000E+00  0.00000000000E+00  0.30990891973E+04  0.30990891973E+04  0.25500000920E-02 0.  1.
       -2   -1    0    0    0  501  0.00000000000E+00  0.00000000000E+00 -0.87616083358E+03  0.87616083358E+03  0.25500000920E-02 0. -1.
    10030    2    1    2    0    0  0.00000000000E+00  0.00000000000E+00  0.22229283638E+04  0.39752500309E+04  0.32956338234E+04 0.  0.
        3    1    3    3  502    0 -0.14234520624E+04 -0.99842237594E+02  0.21054898089E+04  0.25434762810E+04  0.10100000352E+00 0. -1.
       -3    1    3    3    0  502  0.14234520624E+04  0.99842237594E+02  0.11743855483E+03  0.14317737499E+04  0.10100000352E+00 0.  1.
</event>
<event>
 5   0  0.9810351E-08  0.3299335E+04  0.7818609E-02  0.8163064E-01
       -1   -1    0    0    0  501  0.00000000000E+00  0.00000000000E+00  0.14507518294E+04  0.14507518294E+04  0.50400001928E-02 0. -1.
        1   -1    0    0  501    0  0.00000000000E+00  0.00000000000E+00 -0.18758574674E+04  0.18758574674E+04  0.50400001928E-02 0.  1.
    10030    2    1    2    0    0  0.00000000000E+00  0.00000000000E+00 -0.42510563799E+03  0.33266092969E+04  0.32993354802E+04 0.  0.
        5    1    3    3  502    0  0.16218142613E+04  0.26910724566E+03 -0.35036242868E+03  0.16809152654E+04  0.46999998093E+01 0.  1.
       -5    1    3    3    0  502 -0.16218142613E+04 -0.26910724566E+03 -0.74743209312E+02  0.16456940315E+04  0.46999998093E+01 0. -1.
</event>
<event>
 5   0  0.2703956E-07  0.3303047E+04  0.7818609E-02  0.8162120E-01
       -2   -1    0    0    0  501  0.00000000000E+00  0.00000000000E+00  0.21686179719E+04  0.21686179719E+04  0.25500000920E-02 0. -1.
        2   -1    0    0  501    0  0.00000000000E+00  0.00000000000E+00 -0.12577273912E+04  0.12577273912E+04  0.25500000920E-02 0.  1.
    10030    2    1    2    0    0  0.00000000000E+00  0.00000000000E+00  0.91089058064E+03  0.34263453631E+04  0.33030472139E+04 0.  0.
        5    1    3    3  502    0 -0.11914340619E+04 -0.11104993588E+04  0.73912040267E+03  0.17885874341E+04  0.46999998093E+01 0.  1.
       -5    1    3    3    0  502  0.11914340619E+04  0.11104993588E+04  0.17177017797E+03  0.16377579290E+04  0.46999998093E+01 0. -1.
</event>
<event>
 5   0  0.2875829E-07  0.3299346E+04  0.7818609E-02  0.8163062E-01
       -2   -1    0    0    0  501  0.00000000000E+00  0.00000000000E+00  0.15185456701E+04  0.15185456701E+04  0.25500000920E-02 0. -1.
        2   -1    0    0  501    0  0.00000000000E+00  0.00000000000E+00 -0.17921234439E+04  0.17921234439E+04  0.25500000920E-02 0.  1.
    10030    2    1    2    0    0  0.00000000000E+00  0.00000000000E+00 -0.27357777383E+03  0.33106691140E+04  0.32993461752E+04 0.  0.
        3    1    3    3  502    0 -0.50800671704E+03 -0.11161097530E+04  0.97046964647E+03  0.15638360369E+04  0.10100000352E+00 0. -1.
       -3    1    3    3    0  502  0.50800671704E+03  0.11161097530E+04 -0.12440474203E+04  0.17468330771E+04  0.10100000352E+00 0.  1.
</event>
<event>
 5   0  0.9283910E-08  0.3300292E+04  0.7818609E-02  0.8162821E-01
       -1   -1    0    0    0  501  0.00000000000E+00  0.00000000000E+00  0.11235906272E+04  0.11235906272E+04  0.50400001928E-02 0. -1.
        1   -1    0    0  501    0  0.00000000000E+00  0.00000000000E+00 -0.24234646696E+04  0.24234646696E+04  0.50400001928E-02 0.  1.
    10030    2    1    2    0    0  0.00000000000E+00  0.00000000000E+00 -0.12998740423E+04  0.35470552968E+04  0.33002922223E+04 0.  0.
        3    1    3    3  502    0 -0.15389546266E+04 -0.52095447631E+03 -0.33991239211E+03  0.16599142609E+04  0.10100000352E+00 0. -1.
       -3    1    3    3    0  502  0.15389546266E+04  0.52095447631E+03 -0.95996165024E+03  0.18871410359E+04  0.10100000352E+00 0.  1.
</event>
<event>
 5   0  0.9283910E-08  0.3298997E+04  0.7818609E-02  0.8163151E-01
        1   -1    0    0  501    0  0.00000000000E+00  0.00000000000E+00  0.21516622399E+04  0.21516622400E+04  0.50400001928E-02 0.  1.
       -1   -1    0    0    0  501  0.00000000000E+00  0.00000000000E+00 -0.12645316334E+04  0.12645316334E+04  0.50400001928E-02 0. -1.
    10030    2    1    2    0    0  0.00000000000E+00  0.00000000000E+00  0.88713060656E+03  0.34161938734E+04  0.32989967971E+04 0.  0.
        3    1    3    3  502    0  0.84758622361E+03 -0.13668008014E+04  0.82305114850E+03  0.18066433074E+04  0.10100000352E+00 0.  1.
       -3    1    3    3    0  502 -0.84758622361E+03  0.13668008014E+04  0.64079458057E+02  0.16095505659E+04  0.10100000352E+00 0. -1.
</event>
<event>
 5   0  0.8805125E-08  0.3300655E+04  0.7818609E-02  0.8162729E-01
       -1   -1    0    0    0  501  0.00000000000E+00  0.00000000000E+00  0.16699326915E+04  0.16699326915E+04  0.50400001928E-02 0.  1.
        1   -1    0    0  501    0  0.00000000000E+00  0.00000000000E+00 -0.16309527111E+04  0.16309527111E+04  0.50400001928E-02 0. -1.
    10030    2    1    2    0    0  0.00000000000E+00  0.00000000000E+00  0.38979980461E+02  0.33008854026E+04  0.33006552383E+04 0.  0.
        4    1    3    3  502    0 -0.61680573940E+03 -0.12566047848E+04  0.89366462862E+03  0.16607657832E+04  0.12699999809E+01 0.  1.
       -4    1    3    3    0  502  0.61680573940E+03  0.12566047848E+04 -0.85468464816E+03  0.16401196194E+04  0.12699999809E+01 0. -1.
</event>
<event>
 5   0  0.2824402E-07  0.3299891E+04  0.7818609E-02  0.8162923E-01
        2   -1    0    0  501    0  0.00000000000E+00  0.00000000000E+00  0.22259136110E+04  0.22259136110E+04  0.25500000920E-02 0.  1.
       -2   -1    0    0    0  501  0.00000000000E+00  0.00000000000E+00 -0.12230123840E+04  0.12230123840E+04  0.25500000920E-02 0. -1.
    10030    2    1    2    0    0  0.00000000000E+00  0.00000000000E+00  0.10029012270E+04  0.34489259950E+04  0.32998908539E+04 0.  0.
        1    1    3    3  502    0  0.92541137555E+03 -0.12226274512E+04  0.11381567423E+04  0.19096085642E+04  0.50400001928E-02 0.  1.
       -1    1    3    3    0  502 -0.92541137555E+03  0.12226274512E+04 -0.13525551532E+03  0.15393174308E+04  0.50400001928E-02 0. -1.
</event>
<event>
 5   0  0.9454010E-08  0.3296006E+04  0.7818609E-02  0.8163912E-01
        1   -1    0    0  501    0  0.00000000000E+00  0.00000000000E+00  0.23363318080E+04  0.23363318080E+04  0.50400001928E-02 0. -1.
       -1   -1    0    0    0  501  0.00000000000E+00  0.00000000000E+00 -0.11624690281E+04  0.11624690281E+04  0.50400001928E-02 0.  1.
    10030    2    1    2    0    0  0.00000000000E+00  0.00000000000E+00  0.11738627799E+04  0.34988008361E+04  0.32960056834E+04 0.  0.
        2    1    3    3  502    0 -0.11531540130E+04  0.11668123129E+04  0.75375751117E+03  0.18053713017E+04  0.25500000920E-02 0.  1.
       -2    1    3    3    0  502  0.11531540130E+04 -0.11668123129E+04  0.42010526870E+03  0.16934295344E+04  0.25500000920E-02 0. -1.
</event>
<event>
 5   0  0.2727168E-07  0.3303178E+04  0.7818609E-02  0.8162087E-01
        2   -1    0    0  501    0  0.00000000000E+00  0.00000000000E+00  0.16622715711E+04  0.16622715711E+04  0.25500000920E-02 0.  1.
       -2   -1    0    0    0  501  0.00000000000E+00  0.00000000000E+00 -0.16409749465E+04  0.16409749465E+04  0.25500000920E-02 0. -1.
    10030    2    1    2    0    0  0.00000000000E+00  0.00000000000E+00  0.21296624654E+02  0.33032465176E+04  0.33031778653E+04 0.  0.
        2    1    3    3  502    0  0.13542639440E+04 -0.38381550403E+03  0.87461119208E+03  0.16571933829E+04  0.25500000920E-02 0.  1.
       -2    1    3    3    0  502 -0.13542639440E+04  0.38381550403E+03 -0.85331456743E+03  0.16460531346E+04  0.25500000920E-02 0. -1.
</event>
<event>
 5   0  0.2875829E-07  0.3299315E+04  0.7818609E-02  0.8163070E-01
       -2   -1    0    0    0  501  0.00000000000E+00  0.00000000000E+00  0.14325589574E+04  0.14325589574E+04  0.25500000920E-02 0.  1.
        2   -1    0    0  501    0  0.00000000000E+00  0.00000000000E+00 -0.18996559707E+04  0.18996559707E+04  0.25500000920E-02 0. -1.
    10030    2    1    2    0    0  0.00000000000E+00  0.00000000000E+00 -0.46709701327E+03  0.33322149281E+04  0.32993145814E+04 0.  0.
        3    1    3    3  502    0 -0.15528996510E+04 -0.55305629261E+03 -0.16966766453E+03  0.16571528944E+04  0.10100000352E+00 0. -1.
       -3    1    3    3    0  502  0.15528996510E+04  0.55305629261E+03 -0.29742934875E+03  0.16750620337E+04  0.10100000352E+00 0.  1.
</event>
<event>
 5   0  0.8805125E-08  0.3294941E+04  0.7818609E-02  0.8164184E-01
        1   -1    0    0  501    0  0.00000000000E+00  0.00000000000E+00  0.10943103479E+04  0.10943103479E+04  0.50400001928E-02 0.  1.
       -1   -1    0    0    0  501  0.00000000000E+00  0.00000000000E+00 -0.24802457353E+04  0.24802457353E+04  0.50400001928E-02 0. -1.
    10030    2    1    2    0    0  0.00000000000E+00  0.00000000000E+00 -0.13859353874E+04  0.35745560832E+04  0.32949407118E+04 0.  0.
        4    1    3    3  502    0  0.85194437315E+03  0.60935991844E+03 -0.20725045653E+04  0.23221553590E+04  0.12699999809E+01 0. -1.
       -4    1    3    3    0  502 -0.85194437315E+03 -0.60935991844E+03  0.68656917788E+03  0.12524007242E+04  0.12699999809E+01 0.  1.
</event>
<event>
 5   0  0.9181760E-08  0.3280222E+04  0.7818609E-02  0.8167946E-01
        1   -1    0    0  501    0  0.00000000000E+00  0.00000000000E+00  0.16627453123E+04  0.16627453123E+04  0.50400001928E-02 0. -1.
       -1   -1    0    0    0  501  0.00000000000E+00  0.00000000000E+00 -0.16177844638E+04  0.16177844638E+04  0.50400001928E-02 0.  1.
    10030    2    1    2    0    0  0.00000000000E+00  0.00000000000E+00  0.44960848515E+02  0.32805297761E+04  0.32802216593E+04 0.  0.
        1    1    3    3  502    0 -0.52241506951E+03 -0.87061858444E+03 -0.12656892083E+04  0.16226100568E+04  0.50400001928E-02 0.  1.
       -1    1    3    3    0  502  0.52241506951E+03  0.87061858444E+03  0.13106500568E+04  0.16579197194E+04  0.50400001928E-02 0. -1.
</event>
<event>
 5   0  0.2875829E-07  0.3300349E+04  0.7818609E-02  0.8162807E-01
       -2   -1    0    0    0  501  0.00000000000E+00  0.00000000000E+00  0.91595685931E+03  0.91595685932E+03  0.25500000920E-02 0.  1.
        2   -1    0    0  501    0  0.00000000000E+00  0.00000000000E+00 -0.29729306979E+04  0.29729306979E+04  0.25500000920E-02 0. -1.
    10030    2    1    2    0    0  0.00000000000E+00  0.00000000000E+00 -0.20569738386E+04  0.38888875572E+04  0.33003492330E+04 0.  0.
        3    1    3    3  502    0  0.13702296962E+04 -0.45149144598E+03 -0.19724006183E+04  0.24437140085E+04  0.10100000352E+00 0. -1.
       -3    1    3    3    0  502 -0.13702296962E+04  0.45149144598E+03 -0.84573220302E+02  0.14451735487E+04  0.10100000352E+00 0.  1.
</event>
<event>
 5   0  0.2703956E-07  0.3306357E+04  0.7818609E-02  0.8161280E-01
        2   -1    0    0  501    0  0.00000000000E+00  0.00000000000E+00  0.18687663558E+04  0.18687663558E+04  0.25500000920E-02 0.  1.
       -2   -1    0    0    0  501  0.00000000000E+00  0.00000000000E+00 -0.14624618961E+04  0.14624618961E+04  0.25500000920E-02 0. -1.
    10030    2    1    2    0    0  0.00000000000E+00  0.00000000000E+00  0.40630445968E+03  0.33312282518E+04  0.33063572632E+04 0.  0.
        5    1    3    3  502    0 -0.99730720234E+03  0.66858243076E+03 -0.94177309918E+03  0.15259694567E+04  0.46999998093E+01 0. -1.
       -5    1    3    3    0  502  0.99730720234E+03 -0.66858243076E+03  0.13480775589E+04  0.18052587951E+04  0.46999998093E+01 0.  1.
</event>
<event>
 5   0  0.9283910E-08  0.3322953E+04  0.7818609E-02  0.8157079E-01
       -1   -1    0    0    0  501  0.00000000000E+00  0.00000000000E+00  0.15286542524E+04  0.15286542524E+04  0.50400001928E-02 0.  1.
        1   -1    0    0  501    0  0.00000000000E+00  0.00000000000E+00 -0.18058392966E+04  0.18058392966E+04  0.50400001928E-02 0. -1.
    10030    2    1    2    0    0  0.00000000000E+00  0.00000000000E+00 -0.27718504427E+03  0.33344935490E+04  0.33229528554E+04 0.  0.
        3    1    3    3  502    0  0.98361958653E+03  0.43299761172E+03 -0.14100801536E+04  0.17729411926E+04  0.10100000352E+00 0. -1.
       -3    1    3    3    0  502 -0.98361958653E+03 -0.43299761172E+03  0.11328951093E+04  0.15615523564E+04  0.10100000352E+00 0.  1.
</event>
<event>
 5   0  0.8805125E-08  0.3298258E+04  0.7818609E-02  0.8163339E-01
       -1   -1    0    0    0  501  0.00000000000E+00  0.00000000000E+00  0.17113356623E+04  0.17113356623E+04  0.50400001928E-02 0.  1.
        1   -1    0    0  501    0  0.00000000000E+00  0.00000000000E+00 -0.15891834322E+04  0.15891834322E+04  0.50400001928E-02 0. -1.
    10030    2    1    2    0    0  0.00000000000E+00  0.00000000000E+00  0.12215223004E+03  0.33005190945E+04  0.32982578925E+04 0.  0.
        4    1    3    3  502    0 -0.19020309298E+03 -0.14916688322E+04  0.73857169298E+03  0.16753336623E+04  0.12699999809E+01 0.  1.
       -4    1    3    3    0  502  0.19020309298E+03  0.14916688322E+04 -0.61641946293E+03  0.16251854321E+04  0.12699999809E+01 0. -1.
</event>
<event>
 5   0  0.9454010E-08  0.3300300E+04  0.7818609E-02  0.8162819E-01
       -1   -1    0    0    0  501  0.00000000000E+00  0.00000000000E+00  0.10974641051E+04  0.10974641051E+04  0.50400001928E-02 0. -1.
        1   -1    0    0  501    0  0.00000000000E+00  0.00000000000E+00 -0.24811701932E+04  0.24811701932E+04  0.50400001928E-02 0.  1.
    10030    2    1    2    0    0  0.00000000000E+00  0.00000000000E+00 -0.13837060881E+04  0.35786342983E+04  0.33003001232E+04 0.  0.
        2    1    3    3  502    0 -0.10279469144E+03 -0.29170680571E+03  0.10657535003E+04  0.11097252509E+04  0.25500000920E-02 0. -1.
       -2    1    3    3    0  502  0.10279469144E+03  0.29170680571E+03 -0.24494595884E+04  0.24689090474E+04  0.25500000920E-02 0.  1.
</event>
<event>
 5   0  0.2713815E-07  0.3300290E+04  0.7818609E-02  0.8162822E-01
        2   -1    0    0  501    0  0.00000000000E+00  0.00000000000E+00  0.19926514036E+04  0.19926514036E+04  0.25500000920E-02 0. -1.
       -2   -1    0    0    0  501  0.00000000000E+00  0.00000000000E+00 -0.13665103104E+04  0.13665103104E+04  0.25500000920E-02 0.  1.
    10030    2    1    2    0    0  0.00000000000E+00  0.00000000000E+00  0.62614109324E+03  0.33591617140E+04  0.33002901012E+04 0.  0.
        4    1    3    3  502    0 -0.44082394269E+03  0.28087006612E+03 -0.12800214653E+04  0.13826316599E+04  0.12699999809E+01 0.  1.
       -4    1    3    3    0  502  0.44082394269E+03 -0.28087006612E+03  0.19061625585E+04  0.19765300541E+04  0.12699999809E+01 0. -1.
</event>
<event>
 5   0  0.9810351E-08  0.3280074E+04  0.7818609E-02  0.8167984E-01
       -1   -1    0    0    0  501  0.00000000000E+00  0.00000000000E+00  0.13842208758E+04  0.13842208758E+04  0.50400001928E-02 0. -1.
        1   -1    0    0  501    0  0.00000000000E+00  0.00000000000E+00 -0.19431299962E+04  0.19431299962E+04  0.50400001928E-02 0.  1.
    10030    2    1    2    0    0  0.00000000000E+00  0.00000000000E+00 -0.55890912038E+03  0.33273508720E+04  0.32800738437E+04 0.  0.
        5    1    3    3  502    0 -0.10605652535E+04  0.12249218131E+04 -0.53701751885E+03  0.17069393694E+04  0.46999998093E+01 0. -1.
       -5    1    3    3    0  502  0.10605652535E+04 -0.12249218131E+04 -0.21891601526E+02  0.16204115025E+04  0.46999998093E+01 0.  1.
</event>
<event>
 5   0  0.2703956E-07  0.3322077E+04  0.7818609E-02  0.8157300E-01
        2   -1    0    0  501    0  0.00000000000E+00  0.00000000000E+00  0.15377816590E+04  0.15377816590E+04  0.25500000920E-02 0.  1.
       -2   -1    0    0    0  501  0.00000000000E+00  0.00000000000E+00 -0.17941751762E+04  0.17941751762E+04  0.25500000920E-02 0. -1.
    10030    2    1    2    0    0  0.00000000000E+00  0.00000000000E+00 -0.25639351717E+03  0.33319568353E+04  0.33220774699E+04 0.  0.
        5    1    3    3  502    0 -0.39488432379E+03  0.12532858073E+04  0.89088027360E+03  0.15875606117E+04  0.46999998093E+01 0.  1.
       -5    1    3    3    0  502  0.39488432379E+03 -0.12532858073E+04 -0.11472737908E+04  0.17443962236E+04  0.46999998093E+01 0. -1.
</event>
<event>
 5   0  0.9454010E-08  0.3303527E+04  0.7818609E-02  0.8161998E-01
       -1   -1    0    0    0  501  0.00000000000E+00  0.00000000000E+00  0.16033227894E+04  0.16033227894E+04  0.50400001928E-02 0. -1.
        1   -1    0    0  501    0  0.00000000000E+00  0.00000000000E+00 -0.17016682140E+04  0.17016682140E+04  0.50400001928E-02 0.  1.
    10030    2    1    2    0    0  0.00000000000E+00  0.00000000000E+00 -0.98345424593E+02  0.33049910035E+04  0.33035274648E+04 0.  0.
        2    1    3    3  502    0  0.12150156172E+04  0.23622551109E+02  0.10700286044E+04  0.16191918321E+04  0.25500000920E-02 0. -1.
       -2    1    3    3    0  502 -0.12150156172E+04 -0.23622551109E+02 -0.11683740290E+04  0.16857991714E+04  0.25500000920E-02 0.  1.
</event>
<event>
 5   0  0.2824402E-07  0.3296819E+04  0.7818609E-02  0.8163705E-01
        2   -1    0    0  501    0  0.00000000000E+00  0.00000000000E+00  0.24898414864E+04  0.24898414864E+04  0.25500000920E-02 0.  1.
       -2   -1    0    0    0  501  0.00000000000E+00  0.00000000000E+00 -0.10913362852E+04  0.10913362852E+04  0.25500000920E-02 0. -1.
    10030    2    1    2    0    0  0.00000000000E+00  0.00000000000E+00  0.13985052012E+04  0.35811777716E+04  0.32968192904E+04 0.  0.
        1    1    3    3  502    0 -0.15707082140E+04 -0.48339960963E+03  0.83859334520E+03  0.18450035975E+04  0.50400001928E-02 0.  1.
       -1    1    3    3    0  502  0.15707082140E+04  0.48339960963E+03  0.55991185598E+03  0.17361741741E+04  0.50400001928E-02 0. -1.
</event>
<event>
 5   0  0.9810351E-08  0.3295205E+04  0.7818609E-02  0.8164117E-01
        1   -1    0    0  501    0  0.00000000000E+00  0.00000000000E+00  0.27302482522E+04  0.27302482522E+04  0.50400001928E-02 0.  1.
       -1   -1    0    0    0  501  0.00000000000E+00  0.00000000000E+00 -0.99426645626E+03  0.99426645627E+03  0.50400001928E-02 0. -1.
    10030    2    1    2    0    0  0.00000000000E+00  0.00000000000E+00  0.17359817960E+04  0.37245147085E+04  0.32952051557E+04 0.  0.
        5    1    3    3  502    0  0.52505665890E+03  0.14168460608E+04  0.16104027163E+04  0.22082926105E+04  0.46999998093E+01 0. -1.
       -5    1    3    3    0  502 -0.52505665890E+03 -0.14168460608E+04  0.12557907965E+03  0.15162220980E+04  0.46999998093E+01 0.  1.
</event>
<event>
 5   0  0.9454010E-08  0.3302708E+04  0.7818609E-02  0.8162207E-01
       -1   -1    0    0    0  501  0.00000000000E+00  0.00000000000E+00  0.15911396845E+04  0.15911396845E+04  0.50400001928E-02 0.  1.
        1   -1    0    0  501    0  0.00000000000E+00  0.00000000000E+00 -0.17138473882E+04  0.17138473883E+04  0.50400001928E-02 0. -1.
    10030    2    1    2    0    0  0.00000000000E+00  0.00000000000E+00 -0.12270770375E+03  0.33049870728E+04  0.33027083387E+04 0.  0.
        2    1    3    3  502    0  0.13497294335E+04  0.58802566123E+03 -0.80981834708E+03  0.16802825587E+04  0.25500000920E-02 0. -1.
       -2    1    3    3    0  502 -0.13497294335E+04 -0.58802566123E+03  0.68711064334E+03  0.16247045141E+04  0.25500000920E-02 0.  1.
</event>
<event>
 5   0  0.2727168E-07  0.3294402E+04  0.7818609E-02  0.8164321E-01
        2   -1    0    0  501    0  0.00000000000E+00  0.00000000000E+00  0.14797832721E+04  0.14797832721E+04  0.25500000920E-02 0.  1.
       -2   -1    0    0    0  501  0.00000000000E+00  0.00000000000E+00 -0.18335599069E+04  0.18335599069E+04  0.25500000920E-02 0. -1.
    10030    2    1    2    0    0  0.00000000000E+00  0.00000000000E+00 -0.35377663480E+03  0.33133431790E+04  0.32944020875E+04 0.  0.
        2    1    3    3  502    0 -0.11965586285E+03  0.19812911088E+03 -0.18171231435E+04  0.18318048992E+04  0.25500000920E-02 0. -1.
       -2    1    3    3    0  502  0.11965586285E+03 -0.19812911088E+03  0.14633465087E+04  0.14815382798E+04  0.25500000920E-02 0.  1.
</event>
<event>
 5   0  0.2727168E-07  0.3298958E+04  0.7818609E-02  0.8163160E-01
       -2   -1    0    0    0  501  0.00000000000E+00  0.00000000000E+00  0.12027700557E+04  0.12027700557E+04  0.25500000920E-02 0.  1.
        2   -1    0    0  501    0  0.00000000000E+00  0.00000000000E+00 -0.22620962364E+04  0.22620962364E+04  0.25500000920E-02 0. -1.
    10030    2    1    2    0    0  0.00000000000E+00  0.00000000000E+00 -0.10593261807E+04  0.34648662921E+04  0.32989583909E+04 0.  0.
        2    1    3    3  502    0 -0.98763779787E+03  0.17637493647E+03  0.84547432186E+03  0.13120073807E+04  0.25500000920E-02 0.  1.
       -2    1    3    3    0  502  0.98763779787E+03 -0.17637493647E+03 -0.19048005026E+04  0.21528589115E+04  0.25500000920E-02 0. -1.
</event>
<event>
 5   0  0.2713815E-07  0.3296364E+04  0.7818609E-02  0.8163821E-01
        2   -1    0    0  501    0  0.00000000000E+00  0.00000000000E+00  0.17712314527E+04  0.17712314527E+04  0.25500000920E-02 0. -1.
       -2   -1    0    0    0  501  0.00000000000E+00  0.00000000000E+00 -0.15336810658E+04  0.15336810658E+04  0.25500000920E-02 0.  1.
    10030    2    1    2    0    0  0.00000000000E+00  0.00000000000E+00  0.23755038689E+03  0.33049125186E+04  0.32963641439E+04 0.  0.
        4    1    3    3  502    0 -0.15587310844E+04 -0.18047065929E+03  0.62435493580E+03  0.16887963024E+04  0.12699999809E+01 0.  1.
       -4    1    3    3    0  502  0.15587310844E+04  0.18047065929E+03 -0.38680454891E+03  0.16161162162E+04  0.12699999809E+01 0. -1.
</event>
<event>
 5   0  0.2727168E-07  0.3297883E+04  0.7818609E-02  0.8163434E-01
        2   -1    0    0  501    0  0.00000000000E+00  0.00000000000E+00  0.31962859361E+04  0.31962859361E+04  0.25500000920E-02 0.  1.
       -2   -1    0    0    0  501  0.00000000000E+00  0.00000000000E+00 -0.85067737931E+03  0.85067737931E+03  0.25500000920E-02 0. -1.
    10030    2    1    2    0    0  0.00000000000E+00  0.00000000000E+00  0.23456085568E+04  0.40469633154E+04  0.32978830444E+04 0.  0.
        2    1    3    3  502    0 -0.26862318168E+03  0.12990773327E+04 -0.29071068166E+02  0.13268780867E+04  0.25500000920E-02 0. -1.
       -2    1    3    3    0  502  0.26862318168E+03 -0.12990773327E+04  0.23746796250E+04  0.27200852287E+04  0.25500000920E-02 0.  1.
</event>
<event>
 5   0  0.2727168E-07  0.3312341E+04  0.7818609E-02  0.8159762E-01
       -2   -1    0    0    0  501  0.00000000000E+00  0.00000000000E+00  0.11807971050E+04  0.11807971050E+04  0.25500000920E-02 0. -1.
        2   -1    0    0  501    0  0.00000000000E+00  0.00000000000E+00 -0.23229224354E+04  0.23229224354E+04  0.25500000920E-02 0.  1.
    10030    2    1    2    0    0  0.00000000000E+00  0.00000000000E+00 -0.11421253304E+04  0.35037195404E+04  0.33123406147E+04 0.  0.
        2    1    3    3  502    0 -0.11817381258E+04  0.11603171291E+04 -0.56292060837E+03  0.17492056624E+04  0.25500000920E-02 0.  1.
       -2    1    3    3    0  502  0.11817381258E+04 -0.11603171291E+04 -0.57920472202E+03  0.17545138780E+04  0.25500000920E-02 0. -1.
</event>
<event>
 5   0  0.2875829E-07  0.3304219E+04  0.7818609E-02  0.8161823E-01
        2   -1    0    0  501    0  0.00000000000E+00  0.00000000000E+00  0.21766931246E+04  0.21766931246E+04  0.25500000920E-02 0. -1.
       -2   -1    0    0    0  501  0.00000000000E+00  0.00000000000E+00 -0.12539507932E+04  0.12539507932E+04  0.25500000920E-02 0.  1.
    10030    2    1    2    0    0  0.00000000000E+00  0.00000000000E+00  0.92274233145E+03  0.34306439178E+04  0.33042191635E+04 0.  0.
        3    1    3    3  502    0  0.18716490757E+02  0.11526888993E+04 -0.76730257962E+03  0.13848448521E+04  0.10100000352E+00 0.  1.
       -3    1    3    3    0  502 -0.18716490757E+02 -0.11526888993E+04  0.16900449111E+04  0.20457990657E+04  0.10100000352E+00 0. -1.
</event>
<event>
 5   0  0.8805125E-08  0.3302226E+04  0.7818609E-02  0.8162329E-01
        1   -1    0    0  501    0  0.00000000000E+00  0.00000000000E+00  0.18444874230E+04  0.18444874230E+04  0.50400001928E-02 0. -1.
       -1   -1    0    0    0  501  0.00000000000E+00  0.00000000000E+00 -0.14780121144E+04  0.14780121144E+04  0.50400001928E-02 0.  1.
    10030    2    1    2    0    0  0.00000000000E+00  0.00000000000E+00  0.36647530868E+03  0.33224995374E+04  0.33022263738E+04 0.  0.
        4    1    3    3  502    0  0.77587529167E+03  0.11615846425E+04  0.10689327150E+04  0.17589428961E+04  0.12699999809E+01 0. -1.
       -4    1    3    3    0  502 -0.77587529167E+03 -0.11615846425E+04 -0.70245740632E+03  0.15635566413E+04  0.12699999809E+01 0.  1.
</event>
<event>
 5   0  0.9181760E-08  0.3297288E+04  0.7818609E-02  0.8163586E-01
       -1   -1    0    0    0  501  0.00000000000E+00  0.00000000000E+00  0.16074309710E+04  0.16074309710E+04  0.50400001928E-02 0. -1.
        1   -1    0    0  501    0  0.00000000000E+00  0.00000000000E+00 -0.16909135375E+04  0.16909135375E+04  0.50400001928E-02 0.  1.
    10030    2    1    2    0    0  0.00000000000E+00  0.00000000000E+00 -0.83482566454E+02  0.32983445085E+04  0.32972878488E+04 0.  0.
        1    1    3    3  502    0  0.13172754584E+04 -0.82016226544E+03  0.51534473081E+03  0.16350721595E+04  0.50400001928E-02 0. -1.
       -1    1    3    3    0  502 -0.13172754584E+04  0.82016226544E+03 -0.59882729726E+03  0.16632723490E+04  0.50400001928E-02 0.  1.
</event>
<event>
 5   0  0.9283910E-08  0.3298152E+04  0.7818609E-02  0.8163366E-01
        1   -1    0    0  501    0  0.00000000000E+00  0.00000000000E+00  0.94617697567E+03  0.94617697568E+03  0.50400001928E-02 0. -1.
       -1   -1    0    0    0  501  0.00000000000E+00  0.00000000000E+00 -0.28741477842E+04  0.28741477842E+04  0.50400001928E-02 0.  1.
    10030    2    1    2    0    0  0.00000000000E+00  0.00000000000E+00 -0.19279708085E+04  0.38203247599E+04  0.32981524878E+04 0.  0.
        3    1    3    3  502    0 -0.14281245832E+04 -0.87409395490E+01 -0.19190477022E+04  0.23921455480E+04  0.10100000352E+00 0.  1.
       -3    1    3    3    0  502  0.14281245832E+04  0.87409395490E+01 -0.89231062866E+01  0.14281792119E+04  0.10100000352E+00 0. -1.
</event>
<event>
 5   0  0.9454010E-08  0.3301092E+04  0.7818609E-02  0.8162618E-01
       -1   -1    0    0    0  501  0.00000000000E+00  0.00000000000E+00  0.13574152698E+04  0.13574152698E+04  0.50400001928E-02 0.  1.
        1   -1    0    0  501    0  0.00000000000E+00  0.00000000000E+00 -0.20069771138E+04  0.20069771138E+04  0.50400001928E-02 0. -1.
    10030    2    1    2    0    0  0.00000000000E+00  0.00000000000E+00 -0.64956184401E+03  0.33643923836E+04  0.33010915651E+04 0.  0.
        2    1    3    3  502    0  0.10817171572E+04  0.12357553546E+04 -0.15700937972E+03  0.16498046096E+04  0.25500000920E-02 0. -1.
       -2    1    3    3    0  502 -0.10817171572E+04 -0.12357553546E+04 -0.49255246429E+03  0.17145877740E+04  0.25500000920E-02 0.  1.
</event>
<event>
 5   0  0.9283910E-08  0.3296924E+04  0.7818609E-02  0.8163678E-01
        1   -1    0    0  501    0  0.00000000000E+00  0.00000000000E+00  0.14311055705E+04  0.14311055705E+04  0.50400001928E-02 0.  1.
       -1   -1    0    0    0  501  0.00000000000E+00  0.00000000000E+00 -0.18988310445E+04  0.18988310445E+04  0.50400001928E-02 0. -1.
    10030    2    1    2    0    0  0.00000000000E+00  0.00000000000E+00 -0.46772547402E+03  0.33299366150E+04  0.32969244366E+04 0.  0.
        3    1    3    3  502    0 -0.12343186078E+04 -0.10843426473E+04 -0.36969455478E+03  0.16840473498E+04  0.10100000352E+00 0. -1.
       -3    1    3    3    0  502  0.12343186078E+04  0.10843426473E+04 -0.98030919248E+02  0.16458892653E+04  0.10100000352E+00 0.  1.
</event>
<event>
 5   0  0.2713815E-07  0.3301505E+04  0.7818609E-02  0.8162513E-01
       -2   -1    0    0    0  501  0.00000000000E+00  0.00000000000E+00  0.15876085432E+04  0.15876085432E+04  0.25500000920E-02 0. -1.
        2   -1    0    0  501    0  0.00000000000E+00  0.00000000000E+00 -0.17164079850E+04  0.17164079850E+04  0.25500000920E-02 0.  1.
    10030    2    1    2    0    0  0.00000000000E+00  0.00000000000E+00 -0.12879944177E+03  0.33040165282E+04  0.33015050996E+04 0.  0.
        4    1    3    3  502    0 -0.66432155466E+03  0.10491346620E+04 -0.11528739492E+04  0.16944399141E+04  0.12699999809E+01 0.  1.
       -4    1    3    3    0  502  0.66432155466E+03 -0.10491346620E+04  0.10240745074E+04  0.16095766141E+04  0.12699999809E+01 0. -1.
</event>
<event>
 5   0  0.2713815E-07  0.3304547E+04  0.7818609E-02  0.8161739E-01
       -2   -1    0    0    0  501  0.00000000000E+00  0.00000000000E+00  0.11089935925E+04  0.11089935925E+04  0.25500000920E-02 0.  1.
        2   -1    0    0  501    0  0.00000000000E+00  0.00000000000E+00 -0.24616980767E+04  0.24616980767E+04  0.25500000920E-02 0. -1.
    10030    2    1    2    0    0  0.00000000000E+00  0.00000000000E+00 -0.13527044842E+04  0.35706916692E+04  0.33045468033E+04 0.  0.
        4    1    3    3  502    0  0.11787140054E+04 -0.90397275415E+03  0.10543271553E+03  0.14891780005E+04  0.12699999809E+01 0.  1.
       -4    1    3    3    0  502 -0.11787140054E+04  0.90397275415E+03 -0.14581371998E+04  0.20815136687E+04  0.12699999809E+01 0. -1.
</event>
<event>
 5   0  0.2727168E-07  0.3297383E+04  0.7818609E-02  0.8163562E-01
        2   -1    0    0  501    0  0.00000000000E+00  0.00000000000E+00  0.19764648628E+04  0.19764648628E+04  0.25500000920E-02 0.  1.
       -2   -1    0    0    0  501  0.00000000000E+00  0.00000000000E+00 -0.13752756448E+04  0.13752756448E+04  0.25500000920E-02 0. -1.
    10030    2    1    2    0    0  0.00000000000E+00  0.00000000000E+00  0.60118921803E+03  0.33517405076E+04  0.32973831979E+04 0.  0.
        2    1    3    3  502    0  0.28513792001E+03  0.68770660158E+03  0.17958782204E+04  0.19440737090E+04  0.25500000920E-02 0.  1.
       -2    1    3    3    0  502 -0.28513792001E+03 -0.68770660158E+03 -0.11946890024E+04  0.14076667986E+04  0.25500000920E-02 0. -1.
</event>
<event>
 5   0  0.8805125E-08  0.3299781E+04  0.7818609E-02  0.8162951E-01
        1   -1    0    0  501    0  0.00000000000E+00  0.00000000000E+00  0.17370383834E+04  0.17370383834E+04  0.50400001928E-02 0. -1.
       -1   -1    0    0    0  501  0.00000000000E+00  0.00000000000E+00 -0.15671151033E+04  0.15671151033E+04  0.50400001928E-02 0.  1.
    10030    2    1    2    0    0  0.00000000000E+00  0.00000000000E+00  0.16992328014E+03  0.33041534867E+04  0.32997812568E+04 0.  0.
        4    1    3    3  502    0 -0.41189894607E+03 -0.31014233670E+03  0.16542933348E+04  0.17327830393E+04  0.12699999809E+01 0. -1.
       -4    1    3    3    0  502  0.41189894607E+03  0.31014233670E+03 -0.14843700547E+04  0.15713704474E+04  0.12699999809E+01 0.  1.
</event>
<event>
 5   0  0.9283910E-08  0.3291335E+04  0.7818609E-02  0.8165104E-01
       -1   -1    0    0    0  501  0.00000000000E+00  0.00000000000E+00  0.12923159738E+04  0.12923159738E+04  0.50400001928E-02 0.  1.
        1   -1    0    0  501    0  0.00000000000E+00  0.00000000000E+00 -0.20956344184E+04  0.20956344184E+04  0.50400001928E-02 0. -1.
    10030    2    1    2    0    0  0.00000000000E+00  0.00000000000E+00 -0.80331844464E+03  0.33879503922E+04  0.32913351905E+04 0.  0.
        3    1    3    3  502    0 -0.51846713289E+03 -0.13272603578E+04 -0.12491083964E+04  0.18949142518E+04  0.10100000352E+00 0. -1.
       -3    1    3    3    0  502  0.51846713289E+03  0.13272603578E+04  0.44578995177E+03  0.14930361404E+04  0.10100000352E+00 0.  1.
</event>
<event>
 5   0  0.8805125E-08  0.3306280E+04  0.7818609E-02  0.8161299E-01
        1   -1    0    0  501    0  0.00000000000E+00  0.00000000000E+00  0.12626084862E+04  0.12626084862E+04  0.50400001928E-02 0. -1.
       -1   -1    0    0    0  501  0.00000000000E+00  0.00000000000E+00 -0.21644650231E+04  0.21644650231E+04  0.50400001928E-02 0.  1.
    10030    2    1    2    0    0  0.00000000000E+00  0.00000000000E+00 -0.90185653687E+03  0.34270735094E+04  0.33062800283E+04 0.  0.
        4    1    3    3  502    0  0.87882650125E+03  0.19746517436E+03 -0.18877692353E+04  0.20916507388E+04  0.12699999809E+01 0.  1.
       -4    1    3    3    0  502 -0.87882650125E+03 -0.19746517436E+03  0.98591269843E+03  0.13354227706E+04  0.12699999809E+01 0. -1.
</event>
<event>
 5   0  0.8805125E-08  0.3298582E+04  0.7818609E-02  0.8163256E-01
       -1   -1    0    0    0  501  0.00000000000E+00  0.00000000000E+00  0.11395327302E+04  0.11395327302E+04  0.50400001928E-02 0. -1.
        1   -1    0    0  501    0  0.00000000000E+00  0.00000000000E+00 -0.23870839573E+04  0.23870839573E+04  0.50400001928E-02 0.  1.
    10030    2    1    2    0    0  0.00000000000E+00  0.00000000000E+00 -0.12475512271E+04  0.35266166874E+04  0.32985816946E+04 0.  0.
        4    1    3    3  502    0 -0.64331634544E+03 -0.69372715626E+03 -0.20681103284E+04  0.22742460797E+04  0.12699999809E+01 0.  1.
       -4    1    3    3    0  502  0.64331634544E+03  0.69372715626E+03  0.82055910126E+03  0.12523706078E+04  0.12699999809E+01 0. -1.
</event>
<event>
 5   0  0.2824402E-07  0.3283373E+04  0.7818609E-02  0.8167139E-01
       -2   -1    0    0    0  501  0.00000000000E+00  0.00000000000E+00  0.11882298900E+04  0.11882298900E+04  0.25500000920E-02 0. -1.
        2   -1    0    0  501    0  0.00000000000E+00  0.00000000000E+00 -0.22681931514E+04  0.22681931514E+04  0.25500000920E-02 0.  1.
    10030    2    1    2    0    0  0.00000000000E+00  0.00000000000E+00 -0.10799632614E+04  0.34564230414E+04  0.32833732037E+04 0.  0.
        1    1    3    3  502    0 -0.97380124238E+03 -0.59229925683E+03 -0.17837904988E+04  0.21168409985E+04  0.50400001928E-02 0.  1.
       -1    1    3    3    0  502  0.97380124238E+03  0.59229925683E+03  0.70382723745E+03  0.13395820428E+04  0.50400001928E-02 0. -1.
</event>
<event>
 5   0  0.2727168E-07  0.3299998E+04  0.7818609E-02  0.8162896E-01
       -2   -1    0    0    0  501  0.00000000000E+00  0.00000000000E+00  0.15853847421E+04  0.15853847421E+04  0.25500000920E-02 0.  1.
        2   -1    0    0  501    0  0.00000000000E+00  0.00000000000E+00 -0.17172469813E+04  0.17172469813E+04  0.25500000920E-02 0. -1.
    10030    2    1    2    0    0  0.00000000000E+00  0.00000000000E+00 -0.13186223922E+03  0.33026317235E+04  0.32999982804E+04 0.  0.
        2    1    3    3  502    0  0.74739289159E+03 -0.20608907625E+03  0.13917435796E+04  0.15931161392E+04  0.25500000920E-02 0.  1.
       -2    1    3    3    0  502 -0.74739289159E+03  0.20608907625E+03 -0.15236058188E+04  0.17095155843E+04  0.25500000920E-02 0. -1.
</event>
<event>
 5   0  0.2875829E-07  0.3308647E+04  0.7818609E-02  0.8160699E-01
        2   -1    0    0  501    0  0.00000000000E+00  0.00000000000E+00  0.92388489626E+03  0.92388489626E+03  0.25500000920E-02 0. -1.
       -2   -1    0    0    0  501  0.00000000000E+00  0.00000000000E+00 -0.29622583410E+04  0.29622583410E+04  0.25500000920E-02 0.  1.
    10030    2    1    2    0    0  0.00000000000E+00  0.00000000000E+00 -0.20383734448E+04  0.38861432373E+04  0.33086466962E+04 0.  0.
        3    1    3    3  502    0 -0.91430233341E+03  0.63341631752E+03 -0.24575186752E+04  0.26975105259E+04  0.10100000352E+00 0.  1.
       -3    1    3    3    0  502  0.91430233341E+03 -0.63341631752E+03  0.41914523044E+03  0.11886327114E+04  0.10100000352E+00 0. -1.
</event>
<event>
 5   0  0.2703956E-07  0.3304823E+04  0.7818609E-02  0.8161669E-01
        2   -1    0    0  501    0  0.00000000000E+00  0.00000000000E+00  0.20331079057E+04  0.20331079057E+04  0.25500000920E-02 0. -1.
       -2   -1    0    0    0  501  0.00000000000E+00  0.00000000000E+00 -0.13429995355E+04  0.13429995355E+04  0.25500000920E-02 0.  1.
    10030    2    1    2    0    0  0.00000000000E+00  0.00000000000E+00  0.69010837020E+03  0.33761074411E+04  0.33048225204E+04 0.  0.
        5    1    3    3  502    0  0.11948447353E+04 -0.98391198172E+02  0.15067306751E+04  0.19255114091E+04  0.46999998093E+01 0. -1.
       -5    1    3    3    0  502 -0.11948447353E+04  0.98391198172E+02 -0.81662230485E+03  0.14505960320E+04  0.46999998093E+01 0.  1.
</event>
<event>
 5   0  0.9810351E-08  0.3267750E+04  0.7818609E-02  0.8171150E-01
       -1   -1    0    0    0  501  0.00000000000E+00  0.00000000000E+00  0.13885478986E+04  0.13885478986E+04  0.50400001928E-02 0. -1.
        1   -1    0    0  501    0  0.00000000000E+00  0.00000000000E+00 -0.19225457681E+04  0.19225457681E+04  0.50400001928E-02 0.  1.
    10030    2    1    2    0    0  0.00000000000E+00  0.00000000000E+00 -0.53399786950E+03  0.33110936667E+04  0.32677496148E+04 0.  0.
        5    1    3    3  502    0 -0.97531480395E+03  0.37981563406E+03  0.10042442377E+04  0.14505266153E+04  0.46999998093E+01 0. -1.
       -5    1    3    3    0  502  0.97531480395E+03 -0.37981563406E+03 -0.15382421072E+04  0.18605670515E+04  0.46999998093E+01 0.  1.
</event>
<event>
 5   0  0.9454010E-08  0.3298355E+04  0.7818609E-02  0.8163314E-01
       -1   -1    0    0    0  501  0.00000000000E+00  0.00000000000E+00  0.23679450551E+04  0.23679450551E+04  0.50400001928E-02 0. -1.
        1   -1    0    0  501    0  0.00000000000E+00  0.00000000000E+00 -0.11485852129E+04  0.11485852129E+04  0.50400001928E-02 0.  1.
    10030    2    1    2    0    0  0.00000000000E+00  0.00000000000E+00  0.12193598422E+04  0.35165302680E+04  0.32983551508E+04 0.  0.
        2    1    3    3  502    0 -0.46174536192E+03  0.69235867419E+03  0.21276635992E+04  0.22846272572E+04  0.25500000920E-02 0. -1.
       -2    1    3    3    0  502  0.46174536192E+03 -0.69235867419E+03 -0.90830375697E+03  0.12319030108E+04  0.25500000920E-02 0.  1.
</event>
<event>
 5   0  0.9810351E-08  0.3298792E+04  0.7818609E-02  0.8163203E-01
        1   -1    0    0  501    0  0.00000000000E+00  0.00000000000E+00  0.28134546535E+04  0.28134546535E+04  0.50400001928E-02 0.  1.
       -1   -1    0    0    0  501  0.00000000000E+00  0.00000000000E+00 -0.96696308219E+03  0.96696308220E+03  0.50400001928E-02 0. -1.
    10030    2    1    2    0    0  0.00000000000E+00  0.00000000000E+00  0.18464915713E+04  0.37804177357E+04  0.32987917687E+04 0.  0.
        5    1    3    3  502    0  0.83763126071E+03  0.55156764206E+02 -0.70383967982E+03  0.10954819864E+04  0.46999998093E+01 0. -1.
       -5    1    3    3    0  502 -0.83763126071E+03 -0.55156764206E+02  0.25503312511E+04  0.26849357493E+04  0.46999998093E+01 0.  1.
</event>
<event>
 5   0  0.2727168E-07  0.3296458E+04  0.7818609E-02  0.8163797E-01
       -2   -1    0    0    0  501  0.00000000000E+00  0.00000000000E+00  0.12139204708E+04  0.12139204708E+04  0.25500000920E-02 0. -1.
        2   -1    0    0  501    0  0.00000000000E+00  0.00000000000E+00 -0.22379211407E+04  0.22379211407E+04  0.25500000920E-02 0.  1.
    10030    2    1    2    0    0  0.00000000000E+00  0.00000000000E+00 -0.10240006699E+04  0.34518416115E+04  0.32964576652E+04 0.  0.
        2    1    3    3  502    0  0.12971699699E+04 -0.96187137224E+03 -0.16658517983E+03  0.16234522136E+04  0.25500000920E-02 0. -1.
       -2    1    3    3    0  502 -0.12971699699E+04  0.96187137224E+03 -0.85741549007E+03  0.18283893979E+04  0.25500000920E-02 0.  1.
</event>
<event>
 5   0  0.2824402E-07  0.3303752E+04  0.7818609E-02  0.8161941E-01
        2   -1    0    0  501    0  0.00000000000E+00  0.00000000000E+00  0.14192299611E+04  0.14192299611E+04  0.25500000920E-02 0.  1.
       -2   -1    0    0    0  501  0.00000000000E+00  0.00000000000E+00 -0.19226586619E+04  0.19226586619E+04  0.25500000920E-02 0. -1.
    10030    2    1    2    0    0  0.00000000000E+00  0.00000000000E+00 -0.50342870086E+03  0.33418886230E+04  0.33037522776E+04 0.  0.
        1    1    3    3  502    0 -0.94720624943E+02 -0.62657654500E+03 -0.17948152206E+04  0.19034000735E+04  0.50400001928E-02 0. -1.
       -1    1    3    3    0  502  0.94720624943E+02  0.62657654500E+03  0.12913865198E+04  0.14384885495E+04  0.50400001928E-02 0.  1.
</event>
<event>
 5   0  0.2824402E-07  0.3306460E+04  0.7818609E-02  0.8161254E-01
       -2   -1    0    0    0  501  0.00000000000E+00  0.00000000000E+00  0.12472661868E+04  0.12472661869E+04  0.25500000920E-02 0.  1.
        2   -1    0    0  501    0  0.00000000000E+00  0.00000000000E+00 -0.21913278281E+04  0.21913278281E+04  0.25500000920E-02 0. -1.
    10030    2    1    2    0    0  0.00000000000E+00  0.00000000000E+00 -0.94406164129E+03  0.34385940150E+04  0.33064598013E+04 0.  0.
        1    1    3    3  502    0  0.33089304867E+03  0.15806376803E+04 -0.84010028169E+03  0.18203500129E+04  0.50400001928E-02 0.  1.
       -1    1    3    3    0  502 -0.33089304867E+03 -0.15806376803E+04 -0.10396135960E+03  0.16182440021E+04  0.50400001928E-02 0. -1.
</event>
<event>
 5   0  0.2875829E-07  0.3295389E+04  0.7818609E-02  0.8164070E-01
       -2   -1    0    0    0  501  0.00000000000E+00  0.00000000000E+00  0.18093165039E+04  0.18093165039E+04  0.25500000920E-02 0. -1.
        2   -1    0    0  501    0  0.00000000000E+00  0.00000000000E+00 -0.15005094364E+04  0.15005094364E+04  0.25500000920E-02 0.  1.
    10030    2    1    2    0    0  0.00000000000E+00  0.00000000000E+00  0.30880706752E+03  0.33098259402E+04  0.32953885886E+04 0.  0.
        3    1    3    3  502    0  0.11579560700E+04  0.98461509846E+03 -0.48443914768E+03  0.15953088886E+04  0.10100000352E+00 0.  1.
       -3    1    3    3    0  502 -0.11579560700E+04 -0.98461509846E+03  0.79324621520E+03  0.17145170516E+04  0.10100000352E+00 0. -1.
</event>
<event>
 5   0  0.8805125E-08  0.3302202E+04  0.7818609E-02  0.8162335E-01
       -1   -1    0    0    0  501  0.00000000000E+00  0.00000000000E+00  0.14780403407E+04  0.14780403407E+04  0.50400001928E-02 0.  1.
        1   -1    0    0  501    0  0.00000000000E+00  0.00000000000E+00 -0.18444255026E+04  0.18444255026E+04  0.50400001928E-02 0. -1.
    10030    2    1    2    0    0  0.00000000000E+00  0.00000000000E+00 -0.36638516191E+03  0.33224658433E+04  0.33022024761E+04 0.  0.
        4    1    3    3  502    0  0.11987476482E+03 -0.12324853804E+04  0.91563703921E+03  0.15400594056E+04  0.12699999809E+01 0.  1.
       -4    1    3    3    0  502 -0.11987476482E+03  0.12324853804E+04 -0.12820222011E+04  0.17824064377E+04  0.12699999809E+01 0. -1.
</event>
<event>
 5   0  0.2875829E-07  0.3306965E+04  0.7818609E-02  0.8161125E-01
        2   -1    0    0  501    0  0.00000000000E+00  0.00000000000E+00  0.23423294720E+04  0.23423294720E+04  0.25500000920E-02 0.  1.
       -2   -1    0    0    0  501  0.00000000000E+00  0.00000000000E+00 -0.11672159387E+04  0.11672159387E+04  0.25500000920E-02 0. -1.
    10030    2    1    2    0    0  0.00000000000E+00  0.00000000000E+00  0.11751135333E+04  0.35095454108E+04  0.33069649490E+04 0.  0.
        3    1    3    3  502    0 -0.73471797985E+03  0.17750998768E+03  0.21482509285E+04  0.22773454652E+04  0.10100000352E+00 0.  1.
       -3    1    3    3    0  502  0.73471797985E+03 -0.17750998768E+03 -0.97313739523E+03  0.12321999456E+04  0.10100000352E+00 0. -1.
</event>
<event>
 5   0  0.9454010E-08  0.3318878E+04  0.7818609E-02  0.8158109E-01
       -1   -1    0    0    0  501  0.00000000000E+00  0.00000000000E+00  0.13941899364E+04  0.13941899364E+04  0.50400001928E-02 0. -1.
        1   -1    0    0  501    0  0.00000000000E+00  0.00000000000E+00 -0.19751519756E+04  0.19751519757E+04  0.50400001928E-02 0.  1.
    10030    2    1    2    0    0  0.00000000000E+00  0.00000000000E+00 -0.58096203925E+03  0.33693419121E+04  0.33188775255E+04 0.  0.
        2    1    3    3  502    0  0.43083608938E+02  0.14269300554E+04 -0.11493659233E+04  0.18327650166E+04  0.25500000920E-02 0.  1.
       -2    1    3    3    0  502 -0.43083608938E+02 -0.14269300554E+04  0.56840388402E+03  0.15365768955E+04  0.25500000920E-02 0. -1.
</event>
<event>
 5   0  0.8805125E-08  0.3293322E+04  0.7818609E-02  0.8164597E-01
        4   -1    0    0  501    0  0.00000000000E+00  0.00000000000E+00  0.25296022707E+04  0.25296025896E+04  0.12699999809E+01 0. -1.
       -4   -1    0    0    0  501  0.00000000000E+00  0.00000000000E+00 -0.10719040131E+04  0.10719047655E+04  0.12699999809E+01 0.  1.
    10030    2    1    2    0    0  0.00000000000E+00  0.00000000000E+00  0.14576982576E+04  0.36015073550E+04  0.32933221856E+04 0.  0.
        3    1    3    3  502    0  0.28015802587E+03 -0.15608121826E+04  0.12140698806E+04  0.19971451811E+04  0.10100000352E+00 0. -1.
       -3    1    3    3    0  502 -0.28015802587E+03  0.15608121826E+04  0.24362837701E+03  0.16043621740E+04  0.10100000352E+00 0.  1.
</event>
<event>
 5   0  0.2875829E-07  0.3300122E+04  0.7818609E-02  0.8162864E-01
       -2   -1    0    0    0  501  0.00000000000E+00  0.00000000000E+00  0.12970800235E+04  0.12970800235E+04  0.25500000920E-02 0. -1.
        2   -1    0    0  501    0  0.00000000000E+00  0.00000000000E+00 -0.20990998559E+04  0.20990998559E+04  0.25500000920E-02 0.  1.
    10030    2    1    2    0    0  0.00000000000E+00  0.00000000000E+00 -0.80201983241E+03  0.33961798794E+04  0.33001215071E+04 0.  0.
        3    1    3    3  502    0  0.16405796146E+04 -0.24178610880E+02 -0.22094725994E+03  0.16555675096E+04  0.10100000352E+00 0. -1.
       -3    1    3    3    0  502 -0.16405796146E+04  0.24178610880E+02 -0.58107257246E+03  0.17406123697E+04  0.10100000352E+00 0.  1.
</event>
<event>
 5   0  0.9454010E-08  0.3294961E+04  0.7818609E-02  0.8164179E-01
        1   -1    0    0  501    0  0.00000000000E+00  0.00000000000E+00  0.16878750948E+04  0.16878750948E+04  0.50400001928E-02 0.  1.
       -1   -1    0    0    0  501  0.00000000000E+00  0.00000000000E+00 -0.16080528853E+04  0.16080528853E+04  0.50400001928E-02 0. -1.
    10030    2    1    2    0    0  0.00000000000E+00  0.00000000000E+00  0.79822209530E+02  0.32959279801E+04  0.32949612539E+04 0.  0.
        2    1    3    3  502    0  0.69208496227E+03 -0.14573898112E+04  0.37351421530E+03  0.16560433345E+04  0.25500000920E-02 0.  1.
       -2    1    3    3    0  502 -0.69208496227E+03  0.14573898112E+04 -0.29369200577E+03  0.16398846456E+04  0.25500000920E-02 0. -1.
</event>
<event>
 5   0  0.9454010E-08  0.3279468E+04  0.7818609E-02  0.8168140E-01
       -1   -1    0    0    0  501  0.00000000000E+00  0.00000000000E+00  0.23387446382E+04  0.23387446382E+04  0.50400001928E-02 0. -1.
        1   -1    0    0  501    0  0.00000000000E+00  0.00000000000E+00 -0.11496453401E+04  0.11496453401E+04  0.50400001928E-02 0.  1.
    10030    2    1    2    0    0  0.00000000000E+00  0.00000000000E+00  0.11890992981E+04  0.34883899783E+04  0.32794675635E+04 0.  0.
        2    1    3    3  502    0 -0.35080214152E+03  0.11933495761E+04  0.17310646062E+04  0.21316026890E+04  0.25500000920E-02 0. -1.
       -2    1    3    3    0  502  0.35080214152E+03 -0.11933495761E+04 -0.54196530808E+03  0.13567872893E+04  0.25500000920E-02 0.  1.
</event>
<event>
 5   0  0.8805125E-08  0.3268204E+04  0.7818609E-02  0.8171033E-01
        3   -1    0    0  501    0  0.00000000000E+00  0.00000000000E+00  0.12534348031E+04  0.12534348071E+04  0.10100000352E+00 0. -1.
       -3   -1    0    0    0  501  0.00000000000E+00  0.00000000000E+00 -0.21303779132E+04  0.21303779156E+04  0.10100000352E+00 0.  1.
    10030    2    1    2    0    0  0.00000000000E+00  0.00000000000E+00 -0.87694311016E+03  0.33838127228E+04  0.32682042966E+04 0.  0.
        4    1    3    3  502    0 -0.52671169688E+03  0.12151303237E+04  0.55263651882E+03  0.14350524903E+04  0.12699999809E+01 0. -1.
       -4    1    3    3    0  502  0.52671169688E+03 -0.12151303237E+04 -0.14295796290E+04  0.19487602325E+04  0.12699999809E+01 0.  1.
</event>
<event>
 5   0  0.2727168E-07  0.3284917E+04  0.7818609E-02  0.8166744E-01
       -2   -1    0    0    0  501  0.00000000000E+00  0.00000000000E+00  0.14558078441E+04  0.14558078441E+04  0.25500000920E-02 0. -1.
        2   -1    0    0  501    0  0.00000000000E+00  0.00000000000E+00 -0.18530397617E+04  0.18530397617E+04  0.25500000920E-02 0.  1.
    10030    2    1    2    0    0  0.00000000000E+00  0.00000000000E+00 -0.39723191758E+03  0.33088476058E+04  0.32849169369E+04 0.  0.
        2    1    3    3  502    0  0.20066964409E+03 -0.39237835680E+03 -0.17923690159E+04  0.18457561513E+04  0.25500000920E-02 0.  1.
       -2    1    3    3    0  502 -0.20066964409E+03  0.39237835680E+03  0.13951370983E+04  0.14630914545E+04  0.25500000920E-02 0. -1.
</event>
<event>
 5   0  0.2727168E-07  0.3302240E+04  0.7818609E-02  0.8162326E-01
       -2   -1    0    0    0  501  0.00000000000E+00  0.00000000000E+00  0.18133668755E+04  0.18133668755E+04  0.25500000920E-02 0. -1.
        2   -1    0    0  501    0  0.00000000000E+00  0.00000000000E+00 -0.15033899694E+04  0.15033899694E+04  0.25500000920E-02 0.  1.
    10030    2    1    2    0    0  0.00000000000E+00  0.00000000000E+00  0.30997690608E+03  0.33167568448E+04  0.33022401920E+04 0.  0.
        2    1    3    3  502    0 -0.11343447044E+03 -0.92807130946E+03 -0.12118811596E+04  0.15306337509E+04  0.25500000920E-02 0.  1.
       -2    1    3    3    0  502  0.11343447044E+03  0.92807130946E+03  0.15218580657E+04  0.17861230939E+04  0.25500000920E-02 0. -1.
</event>
<event>
 5   0  0.9283910E-08  0.3298525E+04  0.7818609E-02  0.8163271E-01
       -1   -1    0    0    0  501  0.00000000000E+00  0.00000000000E+00  0.10159865712E+04  0.10159865712E+04  0.50400001928E-02 0.  1.
        1   -1    0    0  501    0  0.00000000000E+00  0.00000000000E+00 -0.26772670876E+04  0.26772670876E+04  0.50400001928E-02 0. -1.
    10030    2    1    2    0    0  0.00000000000E+00  0.00000000000E+00 -0.16612805164E+04  0.36932536588E+04  0.32985253727E+04 0.  0.
        3    1    3    3  502    0  0.83038258140E+02  0.90183049881E+03  0.71266446108E+03  0.11524253751E+04  0.10100000352E+00 0.  1.
       -3    1    3    3    0  502 -0.83038258140E+02 -0.90183049881E+03 -0.23739449775E+04  0.25408282837E+04  0.10100000352E+00 0. -1.
</event>
<event>
 5   0  0.2713815E-07  0.3296715E+04  0.7818609E-02  0.8163732E-01
       -2   -1    0    0    0  501  0.00000000000E+00  0.00000000000E+00  0.11733034743E+04  0.11733034743E+04  0.25500000920E-02 0. -1.
        2   -1    0    0  501    0  0.00000000000E+00  0.00000000000E+00 -0.23157540054E+04  0.23157540054E+04  0.25500000920E-02 0.  1.
    10030    2    1    2    0    0  0.00000000000E+00  0.00000000000E+00 -0.11424505311E+04  0.34890574797E+04  0.32967148619E+04 0.  0.
        4    1    3    3  502    0  0.10495027365E+04  0.12444154089E+04 -0.29716756509E+03  0.16547917931E+04  0.12699999809E+01 0. -1.
       -4    1    3    3    0  502 -0.10495027365E+04 -0.12444154089E+04 -0.84528296598E+03  0.18342656866E+04  0.12699999809E+01 0.  1.
</event>
<event>
 5   0  0.9181760E-08  0.3301507E+04  0.7818609E-02  0.8162512E-01
       -1   -1    0    0    0  501  0.00000000000E+00  0.00000000000E+00  0.12603007518E+04  0.12603007518E+04  0.50400001928E-02 0. -1.
        1   -1    0    0  501    0  0.00000000000E+00  0.00000000000E+00 -0.21621717814E+04  0.21621717814E+04  0.50400001928E-02 0.  1.
    10030    2    1    2    0    0  0.00000000000E+00  0.00000000000E+00 -0.90187102960E+03  0.34224725331E+04  0.33015067600E+04 0.  0.
        1    1    3    3  502    0 -0.13278913417E+04 -0.91836665716E+03 -0.94394809528E+02  0.16172826322E+04  0.50400001928E-02 0. -1.
       -1    1    3    3    0  502  0.13278913417E+04  0.91836665716E+03 -0.80747622007E+03  0.18051899009E+04  0.50400001928E-02 0.  1.
</event>
<event>
 5   0  0.2727168E-07  0.3301444E+04  0.7818609E-02  0.8162528E-01
       -2   -1    0    0    0  501  0.00000000000E+00  0.00000000000E+00  0.13113911072E+04  0.13113911072E+04  0.25500000920E-02 0. -1.
        2   -1    0    0  501    0  0.00000000000E+00  0.00000000000E+00 -0.20778574009E+04  0.20778574009E+04  0.25500000920E-02 0.  1.
    10030    2    1    2    0    0  0.00000000000E+00  0.00000000000E+00 -0.76646629369E+03  0.33892485081E+04  0.33014443612E+04 0.  0.
        2    1    3    3  502    0 -0.67010022326E+03 -0.49507338613E+03 -0.18461776422E+04  0.20254638613E+04  0.25500000920E-02 0.  1.
       -2    1    3    3    0  502  0.67010022326E+03  0.49507338613E+03  0.10797113485E+04  0.13637846468E+04  0.25500000920E-02 0. -1.
</event>
<event>
 5   0  0.9810351E-08  0.3295007E+04  0.7818609E-02  0.8164167E-01
       -1   -1    0    0    0  501  0.00000000000E+00  0.00000000000E+00  0.32678292896E+04  0.32678292896E+04  0.50400001928E-02 0.  1.
        1   -1    0    0  501    0  0.00000000000E+00  0.00000000000E+00 -0.83060261774E+03  0.83060261776E+03  0.50400001928E-02 0. -1.
    10030    2    1    2    0    0  0.00000000000E+00  0.00000000000E+00  0.24372266718E+04  0.40984319073E+04  0.32950068663E+04 0.  0.
        5    1    3    3  502    0  0.16341658418E+04  0.80231069872E+02  0.14588706620E+04  0.21920904912E+04  0.46999998093E+01 0.  1.
       -5    1    3    3    0  502 -0.16341658418E+04 -0.80231069872E+02  0.97835600981E+03  0.19063414162E+04  0.46999998093E+01 0. -1.
</event>
<event>
 5   0  0.2824402E-07  0.3298077E+04  0.7818609E-02  0.8163385E-01
        2   -1    0    0  501    0  0.00000000000E+00  0.00000000000E+00  0.22147074431E+04  0.22147074431E+04  0.25500000920E-02 0.  1.
       -2   -1    0    0    0  501  0.00000000000E+00  0.00000000000E+00 -0.12278500775E+04  0.12278500775E+04  0.25500000920E-02 0. -1.
    10030    2    1    2    0    0  0.00000000000E+00  0.00000000000E+00  0.98685736554E+03  0.34425575206E+04  0.32980774434E+04 0.  0.
        1    1    3    3  502    0  0.85207046382E+03  0.12371091530E+04 -0.21671756501E+03  0.15177053847E+04  0.50400001928E-02 0. -1.
       -1    1    3    3    0  502 -0.85207046382E+03 -0.12371091530E+04  0.12035749306E+04  0.19248521359E+04  0.50400001928E-02 0.  1.
</event>
<event>
 5   0  0.9454010E-08  0.3304012E+04  0.7818609E-02  0.8161875E-01
       -1   -1    0    0    0  501  0.00000000000E+00  0.00000000000E+00  0.10483840984E+04  0.10483840985E+04  0.50400001928E-02 0. -1.
        1   -1    0    0  501    0  0.00000000000E+00  0.00000000000E+00 -0.26031714232E+04  0.26031714232E+04  0.50400001928E-02 0.  1.
    10030    2    1    2    0    0  0.00000000000E+00  0.00000000000E+00 -0.15547873248E+04  0.36515555217E+04  0.33040118194E+04 0.  0.
        2    1    3    3  502    0  0.80003115777E+03 -0.56701933251E+03  0.69195119174E+03  0.12001488360E+04  0.25500000920E-02 0. -1.
       -2    1    3    3    0  502 -0.80003115777E+03  0.56701933251E+03 -0.22467385165E+04  0.24514066857E+04  0.25500000920E-02 0.  1.
</event>
<event>
 5   0  0.9181760E-08  0.3271534E+04  0.7818609E-02  0.8170177E-01
       -1   -1    0    0    0  501  0.00000000000E+00  0.00000000000E+00  0.13154621015E+04  0.13154621015E+04  0.50400001928E-02 0. -1.
        1   -1    0    0  501    0  0.00000000000E+00  0.00000000000E+00 -0.20340636772E+04  0.20340636772E+04  0.50400001928E-02 0.  1.
    10030    2    1    2    0    0  0.00000000000E+00  0.00000000000E+00 -0.71860157567E+03  0.33495257787E+04  0.32715340006E+04 0.  0.
        1    1    3    3  502    0 -0.21098007507E+03 -0.14612441191E+04  0.36175174530E+03  0.15200695027E+04  0.50400001928E-02 0. -1.
       -1    1    3    3    0  502  0.21098007507E+03  0.14612441191E+04 -0.10803533210E+04  0.18294562760E+04  0.50400001928E-02 0.  1.
</event>
<event>
 5   0  0.8805125E-08  0.3302644E+04  0.7818609E-02  0.8162223E-01
       -1   -1    0    0    0  501  0.00000000000E+00  0.00000000000E+00  0.97960577200E+03  0.97960577202E+03  0.50400001928E-02 0. -1.
        1   -1    0    0  501    0  0.00000000000E+00  0.00000000000E+00 -0.27836349467E+04  0.27836349467E+04  0.50400001928E-02 0.  1.
    10030    2    1    2    0    0  0.00000000000E+00  0.00000000000E+00 -0.18040291747E+04  0.37632407188E+04  0.33026443109E+04 0.  0.
        4    1    3    3  502    0  0.15703892791E+04  0.49208420701E+03 -0.10573910983E+04  0.19561050336E+04  0.12699999809E+01 0.  1.
       -4    1    3    3    0  502 -0.15703892791E+04 -0.49208420701E+03 -0.74663807639E+03  0.18071356852E+04  0.12699999809E+01 0. -1.
</event>
<event>
 5   0  0.8805125E-08  0.3306081E+04  0.7818609E-02  0.8161350E-01
       -1   -1    0    0    0  501  0.00000000000E+00  0.00000000000E+00  0.18569415732E+04  0.18569415732E+04  0.50400001928E-02 0. -1.
        1   -1    0    0  501    0  0.00000000000E+00  0.00000000000E+00 -0.14715289610E+04  0.14715289610E+04  0.50400001928E-02 0.  1.
    10030    2    1    2    0    0  0.00000000000E+00  0.00000000000E+00  0.38541261219E+03  0.33284705341E+04  0.33060812475E+04 0.  0.
        4    1    3    3  502    0  0.76921434194E+03 -0.14506040072E+04  0.10208043103E+00  0.16419331025E+04  0.12699999809E+01 0.  1.
       -4    1    3    3    0  502 -0.76921434194E+03  0.14506040072E+04  0.38531053176E+03  0.16865374317E+04  0.12699999809E+01 0. -1.
</event>
<event>
 5   0  0.2727168E-07  0.3296950E+04  0.7818609E-02  0.8163672E-01
        2   -1    0    0  501    0  0.00000000000E+00  0.00000000000E+00  0.88814459419E+03  0.88814459420E+03  0.25500000920E-02 0. -1.
       -2   -1    0    0    0  501  0.00000000000E+00  0.00000000000E+00 -0.30597154863E+04  0.30597154863E+04  0.25500000920E-02 0.  1.
    10030    2    1    2    0    0  0.00000000000E+00  0.00000000000E+00 -0.21715708921E+04  0.39478600805E+04  0.32969499656E+04 0.  0.
        2    1    3    3  502    0 -0.12817429363E+04 -0.52633191328E+03 -0.21551761283E+04  0.25621620521E+04  0.25500000920E-02 0.  1.
       -2    1    3    3    0  502  0.12817429363E+04  0.52633191328E+03 -0.16394763892E+02  0.13856980284E+04  0.25500000920E-02 0. -1.
</event>
<event>
 5   0  0.2727168E-07  0.3302794E+04  0.7818609E-02  0.8162185E-01
       -2   -1    0    0    0  501  0.00000000000E+00  0.00000000000E+00  0.13599255211E+04  0.13599255211E+04  0.25500000920E-02 0. -1.
        2   -1    0    0  501    0  0.00000000000E+00  0.00000000000E+00 -0.20053387635E+04  0.20053387635E+04  0.25500000920E-02 0.  1.
    10030    2    1    2    0    0  0.00000000000E+00  0.00000000000E+00 -0.64541324245E+03  0.33652642846E+04  0.33027935830E+04 0.  0.
        2    1    3    3  502    0  0.94246932598E+03 -0.55331143590E+02  0.10578384578E+04  0.14178618299E+04  0.25500000920E-02 0. -1.
       -2    1    3    3    0  502 -0.94246932598E+03  0.55331143590E+02 -0.17032517003E+04  0.19474024547E+04  0.25500000920E-02 0.  1.
</event>
<event>
 5   0  0.2713815E-07  0.3278791E+04  0.7818609E-02  0.8168313E-01
        2   -1    0    0  501    0  0.00000000000E+00  0.00000000000E+00  0.16165857977E+04  0.16165857977E+04  0.25500000920E-02 0. -1.
       -2   -1    0    0    0  501  0.00000000000E+00  0.00000000000E+00 -0.16625268529E+04  0.16625268529E+04  0.25500000920E-02 0.  1.
    10030    2    1    2    0    0  0.00000000000E+00  0.00000000000E+00 -0.45941055206E+02  0.32791126506E+04  0.32787908129E+04 0.  0.
        4    1    3    3  502    0 -0.20784290588E+03 -0.19673459034E+03  0.15914098732E+04  0.16169385177E+04  0.12699999809E+01 0. -1.
       -4    1    3    3    0  502  0.20784290588E+03  0.19673459034E+03 -0.16373509284E+04  0.16621741329E+04  0.12699999809E+01 0.  1.
</event>
<event>
 5   0  0.2703956E-07  0.3292299E+04  0.7818609E-02  0.8164858E-01
        2   -1    0    0  501    0  0.00000000000E+00  0.00000000000E+00  0.20597340171E+04  0.20597340171E+04  0.25500000920E-02 0. -1.
       -2   -1    0    0    0  501  0.00000000000E+00  0.00000000000E+00 -0.13156104432E+04  0.13156104432E+04  0.25500000920E-02 0.  1.
    10030    2    1    2    0    0  0.00000000000E+00  0.00000000000E+00  0.74412357391E+03  0.33753444603E+04  0.32922986396E+04 0.  0.
        5    1    3    3  502    0 -0.57322282424E+03  0.69536993344E+03  0.17843660776E+04  0.19990267981E+04  0.46999998093E+01 0. -1.
       -5    1    3    3    0  502  0.57322282424E+03 -0.69536993344E+03 -0.10402425037E+04  0.13763176621E+04  0.46999998093E+01 0.  1.
</event>
<event>
 5   0  0.2727168E-07  0.3298969E+04  0.7818609E-02  0.8163158E-01
       -2   -1    0    0    0  501  0.00000000000E+00  0.00000000000E+00  0.13336813806E+04  0.13336813806E+04  0.25500000920E-02 0. -1.
        2   -1    0    0  501    0  0.00000000000E+00  0.00000000000E+00 -0.20400662986E+04  0.20400662986E+04  0.25500000920E-02 0.  1.
    10030    2    1    2    0    0  0.00000000000E+00  0.00000000000E+00 -0.70638491806E+03  0.33737476792E+04  0.32989685889E+04 0.  0.
        2    1    3    3  502    0 -0.12006930752E+04  0.11298679122E+04 -0.30172192325E+03  0.16760970971E+04  0.25500000920E-02 0.  1.
       -2    1    3    3    0  502  0.12006930752E+04 -0.11298679122E+04 -0.40466299481E+03  0.16976505822E+04  0.25500000920E-02 0. -1.
</event>
<event>
 5   0  0.2824402E-07  0.3298921E+04  0.7818609E-02  0.8163170E-01
        2   -1    0    0  501    0  0.00000000000E+00  0.00000000000E+00  0.29920374646E+04  0.29920374646E+04  0.25500000920E-02 0.  1.
       -2   -1    0    0    0  501  0.00000000000E+00  0.00000000000E+00 -0.90932005054E+03  0.90932005054E+03  0.25500000920E-02 0. -1.
    10030    2    1    2    0    0  0.00000000000E+00  0.00000000000E+00  0.20827174140E+04  0.39013575151E+04  0.32989208287E+04 0.  0.
        1    1    3    3  502    0 -0.39026440721E+03  0.49174620526E+03  0.28452261811E+04  0.29136630999E+04  0.50400001928E-02 0.  1.
       -1    1    3    3    0  502  0.39026440721E+03 -0.49174620526E+03 -0.76250876710E+03  0.98769441521E+03  0.50400001928E-02 0. -1.
</event>
<event>
 5   0  0.2713815E-07  0.3304632E+04  0.7818609E-02  0.8161718E-01
       -2   -1    0    0    0  501  0.00000000000E+00  0.00000000000E+00  0.20139624561E+04  0.20139624561E+04  0.25500000920E-02 0. -1.
        2   -1    0    0  501    0  0.00000000000E+00  0.00000000000E+00 -0.13556099191E+04  0.13556099191E+04  0.25500000920E-02 0.  1.
    10030    2    1    2    0    0  0.00000000000E+00  0.00000000000E+00  0.65835253700E+03  0.33695723753E+04  0.33046315875E+04 0.  0.
        4    1    3    3  502    0 -0.50028070255E+03 -0.12878923528E+04  0.12531843723E+04  0.18653203954E+04  0.12699999809E+01 0. -1.
       -4    1    3    3    0  502  0.50028070255E+03  0.12878923528E+04 -0.59483183526E+03  0.15042519799E+04  0.12699999809E+01 0.  1.
</event>
<event>
 5   0  0.2713815E-07  0.3301429E+04  0.7818609E-02  0.8162532E-01
        2   -1    0    0  501    0  0.00000000000E+00  0.00000000000E+00  0.21678244702E+04  0.21678244702E+04  0.25500000920E-02 0. -1.
       -2   -1    0    0    0  501  0.00000000000E+00  0.00000000000E+00 -0.12569550048E+04  0.12569550048E+04  0.25500000920E-02 0.  1.
    10030    2    1    2    0    0  0.00000000000E+00  0.00000000000E+00  0.91086946534E+03  0.34247794750E+04  0.33014286710E+04 0.  0.
        4    1    3    3  502    0  0.15972619944E+04 -0.35490418365E+03  0.22898208907E+03  0.16521613929E+04  0.12699999809E+01 0.  1.
       -4    1    3    3    0  502 -0.15972619944E+04  0.35490418365E+03  0.68188737627E+03  0.17726180821E+04  0.12699999809E+01 0. -1.
</event>
<event>
 5   0  0.2703956E-07  0.3300897E+04  0.7818609E-02  0.8162667E-01
       -2   -1    0    0    0  501  0.00000000000E+00  0.00000000000E+00  0.29587828108E+04  0.29587828108E+04  0.25500000920E-02 0. -1.
        2   -1    0    0  501    0  0.00000000000E+00  0.00000000000E+00 -0.92064239056E+03  0.92064239056E+03  0.25500000920E-02 0.  1.
    10030    2    1    2    0    0  0.00000000000E+00  0.00000000000E+00  0.20381404202E+04  0.38794252013E+04  0.33008973811E+04 0.  0.
        5    1    3    3  502    0  0.38688410722E+03  0.13540623370E+04  0.20306130554E+04  0.24711486389E+04  0.46999998093E+01 0. -1.
       -5    1    3    3    0  502 -0.38688410722E+03 -0.13540623370E+04  0.75273648436E+01  0.14082765624E+04  0.46999998093E+01 0.  1.
</event>
<event>
 5   0  0.8805125E-08  0.3302048E+04  0.7818609E-02  0.8162375E-01
        1   -1    0    0  501    0  0.00000000000E+00  0.00000000000E+00  0.15597314665E+04  0.15597314665E+04  0.50400001928E-02 0. -1.
       -1   -1    0    0    0  501  0.00000000000E+00  0.00000000000E+00 -0.17476596867E+04  0.17476596867E+04  0.50400001928E-02 0.  1.
    10030    2    1    2    0    0  0.00000000000E+00  0.00000000000E+00 -0.18792822020E+03  0.33073911531E+04  0.33020477319E+04 0.  0.
        4    1    3    3  502    0 -0.49516536436E+03  0.13204015535E+04  0.76604583914E+03  0.16048292249E+04  0.12699999809E+01 0. -1.
       -4    1    3    3    0  502  0.49516536436E+03 -0.13204015535E+04 -0.95397405934E+03  0.17025619282E+04  0.12699999809E+01 0.  1.
</event>
<event>
 5   0  0.2703956E-07  0.3294854E+04  0.7818609E-02  0.8164206E-01
       -2   -1    0    0    0  501  0.00000000000E+00  0.00000000000E+00  0.13515374112E+04  0.13515374112E+04  0.25500000920E-02 0.  1.
        2   -1    0    0  501    0  0.00000000000E+00  0.00000000000E+00 -0.20080945454E+04  0.20080945454E+04  0.25500000920E-02 0. -1.
    10030    2    1    2    0    0  0.00000000000E+00  0.00000000000E+00 -0.65655713420E+03  0.33596319566E+04  0.32948535040E+04 0.  0.
        5    1    3    3  502    0  0.37015403005E+03 -0.75286131425E+03 -0.17739610599E+04  0.19623389352E+04  0.46999998093E+01 0. -1.
       -5    1    3    3    0  502 -0.37015403005E+03  0.75286131425E+03  0.11174039257E+04  0.13972930214E+04  0.46999998093E+01 0.  1.
</event>
<event>
 5   0  0.2875829E-07  0.3233750E+04  0.7818609E-02  0.8179960E-01
       -2   -1    0    0    0  501  0.00000000000E+00  0.00000000000E+00  0.14990667073E+04  0.14990667073E+04  0.25500000920E-02 0.  1.
        2   -1    0    0  501    0  0.00000000000E+00  0.00000000000E+00 -0.17439413123E+04  0.17439413123E+04  0.25500000920E-02 0. -1.
    10030    2    1    2    0    0  0.00000000000E+00  0.00000000000E+00 -0.24487460497E+03  0.32430080197E+04  0.32337497497E+04 0.  0.
        3    1    3    3  502    0  0.28818039959E+03  0.94860915889E+03  0.11584732150E+04  0.15247844041E+04  0.10100000352E+00 0.  1.
       -3    1    3    3    0  502 -0.28818039959E+03 -0.94860915889E+03 -0.14033478199E+04  0.17182236155E+04  0.10100000352E+00 0. -1.
</event>
<event>
 5   0  0.9454010E-08  0.3277757E+04  0.7818609E-02  0.8168578E-01
        1   -1    0    0  501    0  0.00000000000E+00  0.00000000000E+00  0.26558127744E+04  0.26558127744E+04  0.50400001928E-02 0. -1.
       -1   -1    0    0    0  501  0.00000000000E+00  0.00000000000E+00 -0.10113375411E+04  0.10113375412E+04  0.50400001928E-02 0.  1.
    10030    2    1    2    0    0  0.00000000000E+00  0.00000000000E+00  0.16444752332E+04  0.36671503156E+04  0.32777572583E+04 0.  0.
        2    1    3    3  502    0 -0.77407237683E+03 -0.12017305136E+04 -0.74602756879E+02  0.14314013565E+04  0.25500000920E-02 0.  1.
       -2    1    3    3    0  502  0.77407237683E+03  0.12017305136E+04  0.17190779901E+04  0.22357489591E+04  0.25500000920E-02 0. -1.
</event>
<event>
 5   0  0.9181760E-08  0.3299269E+04  0.7818609E-02  0.8163081E-01
       -1   -1    0    0    0  501  0.00000000000E+00  0.00000000000E+00  0.13031445927E+04  0.13031445927E+04  0.50400001928E-02 0. -1.
        1   -1    0    0  501    0  0.00000000000E+00  0.00000000000E+00 -0.20882522446E+04  0.20882522446E+04  0.50400001928E-02 0.  1.
    10030    2    1    2    0    0  0.00000000000E+00  0.00000000000E+00 -0.78510765190E+03  0.33913968374E+04  0.32992693863E+04 0.  0.
        1    1    3    3  502    0 -0.12652092876E+04  0.72493736613E+03  0.40035174224E+03  0.15121409470E+04  0.50400001928E-02 0.  1.
       -1    1    3    3    0  502  0.12652092876E+04 -0.72493736613E+03 -0.11854593941E+04  0.18792558903E+04  0.50400001928E-02 0. -1.
</event>
<event>
 5   0  0.9810351E-08  0.3299214E+04  0.7818609E-02  0.8163095E-01
        1   -1    0    0  501    0  0.00000000000E+00  0.00000000000E+00  0.28194349792E+04  0.28194349792E+04  0.50400001928E-02 0.  1.
       -1   -1    0    0    0  501  0.00000000000E+00  0.00000000000E+00 -0.96515935505E+03  0.96515935506E+03  0.50400001928E-02 0. -1.
    10030    2    1    2    0    0  0.00000000000E+00  0.00000000000E+00  0.18542756241E+04  0.37845943342E+04  0.32992144799E+04 0.  0.
        5    1    3    3  502    0  0.16001288681E+04 -0.24345555401E+03  0.56167804729E+03  0.17132388392E+04  0.46999998093E+01 0.  1.
       -5    1    3    3    0  502 -0.16001288681E+04  0.24345555401E+03  0.12925975768E+04  0.20713554950E+04  0.46999998093E+01 0. -1.
</event>
<event>
 5   0  0.9810351E-08  0.3298684E+04  0.7818609E-02  0.8163230E-01
       -1   -1    0    0    0  501  0.00000000000E+00  0.00000000000E+00  0.16605676639E+04  0.16605676639E+04  0.50400001928E-02 0.  1.
        1   -1    0    0  501    0  0.00000000000E+00  0.00000000000E+00 -0.16381918466E+04  0.16381918466E+04  0.50400001928E-02 0. -1.
    10030    2    1    2    0    0  0.00000000000E+00  0.00000000000E+00  0.22375817328E+02  0.32987595104E+04  0.32986836209E+04 0.  0.
        5    1    3    3  502    0 -0.83390218821E+03  0.13310661704E+04 -0.49198994992E+03  0.16459666492E+04  0.46999998093E+01 0. -1.
       -5    1    3    3    0  502  0.83390218821E+03 -0.13310661704E+04  0.51436576725E+03  0.16527928612E+04  0.46999998093E+01 0.  1.
</event>
<event>
 5   0  0.2824402E-07  0.3308944E+04  0.7818609E-02  0.8160623E-01
       -2   -1    0    0    0  501  0.00000000000E+00  0.00000000000E+00  0.18568963393E+04  0.18568963393E+04  0.25500000920E-02 0. -1.
        2   -1    0    0  501    0  0.00000000000E+00  0.00000000000E+00 -0.14741147233E+04  0.14741147233E+04  0.25500000920E-02 0.  1.
    10030    2    1    2    0    0  0.00000000000E+00  0.00000000000E+00  0.38278161597E+03  0.33310110626E+04  0.33089443836E+04 0.  0.
        1    1    3    3  502    0 -0.12027869903E+04  0.15629582325E+03 -0.94134793224E+03  0.15353373760E+04  0.50400001928E-02 0.  1.
       -1    1    3    3    0  502  0.12027869903E+04 -0.15629582325E+03  0.13241295482E+04  0.17956736867E+04  0.50400001928E-02 0. -1.
</event>
<event>
 5   0  0.2824402E-07  0.3296985E+04  0.7818609E-02  0.8163663E-01
       -2   -1    0    0    0  501  0.00000000000E+00  0.00000000000E+00  0.19229434840E+04  0.19229434840E+04  0.25500000920E-02 0.  1.
        2   -1    0    0  501    0  0.00000000000E+00  0.00000000000E+00 -0.14132124107E+04  0.14132124108E+04  0.25500000920E-02 0. -1.
    10030    2    1    2    0    0  0.00000000000E+00  0.00000000000E+00  0.50973107326E+03  0.33361558948E+04  0.32969850450E+04 0.  0.
        1    1    3    3  502    0 -0.10913110634E+04  0.17061829974E+03  0.14931104768E+04  0.18572693228E+04  0.50400001928E-02 0.  1.
       -1    1    3    3    0  502  0.10913110634E+04 -0.17061829974E+03 -0.98337940357E+03  0.14788865720E+04  0.50400001928E-02 0. -1.
</event>
<event>
 5   0  0.9181760E-08  0.3301516E+04  0.7818609E-02  0.8162510E-01
        1   -1    0    0  501    0  0.00000000000E+00  0.00000000000E+00  0.25308506916E+04  0.25308506916E+04  0.50400001928E-02 0. -1.
       -1   -1    0    0    0  501  0.00000000000E+00  0.00000000000E+00 -0.10767138463E+04  0.10767138463E+04  0.50400001928E-02 0.  1.
    10030    2    1    2    0    0  0.00000000000E+00  0.00000000000E+00  0.14541368453E+04  0.36075645379E+04  0.33015160049E+04 0.  0.
        1    1    3    3  502    0  0.48915899293E+03 -0.10683776768E+04  0.19939847396E+04  0.23144508036E+04  0.50400001928E-02 0. -1.
       -1    1    3    3    0  502 -0.48915899293E+03  0.10683776768E+04 -0.53984789429E+03  0.12931137343E+04  0.50400001928E-02 0.  1.
</event>
<event>
 5   0  0.2727168E-07  0.3305479E+04  0.7818609E-02  0.8161503E-01
       -2   -1    0    0    0  501  0.00000000000E+00  0.00000000000E+00  0.14222415520E+04  0.14222415520E+04  0.25500000920E-02 0.  1.
        2   -1    0    0  501    0  0.00000000000E+00  0.00000000000E+00 -0.19205932033E+04  0.19205932033E+04  0.25500000920E-02 0. -1.
    10030    2    1    2    0    0  0.00000000000E+00  0.00000000000E+00 -0.49835165138E+03  0.33428347553E+04  0.33054787600E+04 0.  0.
        2    1    3    3  502    0 -0.55875693446E+03 -0.77177967403E+03  0.11165280947E+04  0.14678174830E+04  0.25500000920E-02 0.  1.
       -2    1    3    3    0  502  0.55875693446E+03  0.77177967403E+03 -0.16148797461E+04  0.18750172723E+04  0.25500000920E-02 0. -1.
</event>
<event>
 5   0  0.2703956E-07  0.3279793E+04  0.7818609E-02  0.8168056E-01
        2   -1    0    0  501    0  0.00000000000E+00  0.00000000000E+00  0.25783328419E+04  0.25783328419E+04  0.25500000920E-02 0. -1.
       -2   -1    0    0    0  501  0.00000000000E+00  0.00000000000E+00 -0.10430227126E+04  0.10430227126E+04  0.25500000920E-02 0.  1.
    10030    2    1    2    0    0  0.00000000000E+00  0.00000000000E+00  0.15353101293E+04  0.36213555545E+04  0.32797925024E+04 0.  0.
        5    1    3    3  502    0  0.84395474513E+03 -0.11766615845E+04  0.16175182395E+04  0.21709858225E+04  0.46999998093E+01 0.  1.
       -5    1    3    3    0  502 -0.84395474513E+03  0.11766615845E+04 -0.82208110256E+02  0.14503697320E+04  0.46999998093E+01 0. -1.
</event>
<event>
 5   0  0.2703956E-07  0.3291839E+04  0.7818609E-02  0.8164975E-01
       -2   -1    0    0    0  501  0.00000000000E+00  0.00000000000E+00  0.20252383621E+04  0.20252383621E+04  0.25500000920E-02 0.  1.
        2   -1    0    0  501    0  0.00000000000E+00  0.00000000000E+00 -0.13376458747E+04  0.13376458747E+04  0.25500000920E-02 0. -1.
    10030    2    1    2    0    0  0.00000000000E+00  0.00000000000E+00  0.68759248741E+03  0.33628842369E+04  0.32918394496E+04 0.  0.
        5    1    3    3  502    0  0.69543419824E+03  0.31328103613E+03  0.18337855186E+04  0.19860929359E+04  0.46999998093E+01 0.  1.
       -5    1    3    3    0  502 -0.69543419824E+03 -0.31328103613E+03 -0.11461930312E+04  0.13767913010E+04  0.46999998093E+01 0. -1.
</event>
<event>
 5   0  0.9181760E-08  0.3300482E+04  0.7818609E-02  0.8162773E-01
       -1   -1    0    0    0  501  0.00000000000E+00  0.00000000000E+00  0.96781126563E+03  0.96781126564E+03  0.50400001928E-02 0. -1.
        1   -1    0    0  501    0  0.00000000000E+00  0.00000000000E+00 -0.28138695993E+04  0.28138695993E+04  0.50400001928E-02 0.  1.
    10030    2    1    2    0    0  0.00000000000E+00  0.00000000000E+00 -0.18460583337E+04  0.37816808650E+04  0.33004816002E+04 0.  0.
        1    1    3    3  502    0 -0.12492849028E+04 -0.24740730211E+03  0.27944149284E+03  0.13038445802E+04  0.50400001928E-02 0. -1.
       -1    1    3    3    0  502  0.12492849028E+04  0.24740730211E+03 -0.21254998266E+04  0.24778362848E+04  0.50400001928E-02 0.  1.
</event>
<event>
 5   0  0.8805125E-08  0.3298668E+04  0.7818609E-02  0.8163235E-01
       -1   -1    0    0    0  501  0.00000000000E+00  0.00000000000E+00  0.10278337758E+04  0.10278337758E+04  0.50400001928E-02 0.  1.
        1   -1    0    0  501    0  0.00000000000E+00  0.00000000000E+00 -0.26466360090E+04  0.26466360090E+04  0.50400001928E-02 0. -1.
    10030    2    1    2    0    0  0.00000000000E+00  0.00000000000E+00 -0.16188022332E+04  0.36744697848E+04  0.32986675384E+04 0.  0.
        4    1    3    3  502    0 -0.12189517758E+04 -0.60176064010E+03  0.23099630850E+03  0.13788836815E+04  0.12699999809E+01 0.  1.
       -4    1    3    3    0  502  0.12189517758E+04  0.60176064010E+03 -0.18497985417E+04  0.22955861033E+04  0.12699999809E+01 0. -1.
</event>
<event>
 5   0  0.2875829E-07  0.3299549E+04  0.7818609E-02  0.8163010E-01
        2   -1    0    0  501    0  0.00000000000E+00  0.00000000000E+00  0.18330458989E+04  0.18330458989E+04  0.25500000920E-02 0.  1.
       -2   -1    0    0    0  501  0.00000000000E+00  0.00000000000E+00 -0.14848265990E+04  0.14848265990E+04  0.25500000920E-02 0. -1.
    10030    2    1    2    0    0  0.00000000000E+00  0.00000000000E+00  0.34821929987E+03  0.33178724979E+04  0.32995486406E+04 0.  0.
        3    1    3    3  502    0 -0.15698841861E+04 -0.50554058072E+03  0.21492646561E+03  0.16632200793E+04  0.10100000352E+00 0.  1.
       -3    1    3    3    0  502  0.15698841861E+04  0.50554058072E+03  0.13329283427E+03  0.16546524186E+04  0.10100000352E+00 0. -1.
</event>
<event>
 5   0  0.2824402E-07  0.3298756E+04  0.7818609E-02  0.8163212E-01
       -2   -1    0    0    0  501  0.00000000000E+00  0.00000000000E+00  0.16028702691E+04  0.16028702691E+04  0.25500000920E-02 0. -1.
        2   -1    0    0  501    0  0.00000000000E+00  0.00000000000E+00 -0.16972349639E+04  0.16972349639E+04  0.25500000920E-02 0.  1.
    10030    2    1    2    0    0  0.00000000000E+00  0.00000000000E+00 -0.94364694804E+02  0.33001052330E+04  0.32987558038E+04 0.  0.
        1    1    3    3  502    0 -0.45032535870E+03  0.14327316370E+04  0.63495770593E+03  0.16305471967E+04  0.50400001928E-02 0. -1.
       -1    1    3    3    0  502  0.45032535870E+03 -0.14327316370E+04 -0.72932240073E+03  0.16695580363E+04  0.50400001928E-02 0.  1.
</event>
<event>
 5   0  0.2703956E-07  0.3288523E+04  0.7818609E-02  0.8165822E-01
        2   -1    0    0  501    0  0.00000000000E+00  0.00000000000E+00  0.23081201362E+04  0.23081201363E+04  0.25500000920E-02 0.  1.
       -2   -1    0    0    0  501  0.00000000000E+00  0.00000000000E+00 -0.11713411628E+04  0.11713411628E+04  0.25500000920E-02 0. -1.
    10030    2    1    2    0    0  0.00000000000E+00  0.00000000000E+00  0.11367789735E+04  0.34794612990E+04  0.32885231483E+04 0.  0.
        5    1    3    3  502    0  0.57126298676E+02 -0.14654660197E+04 -0.21822815688E+03  0.14827338559E+04  0.46999998093E+01 0. -1.
       -5    1    3    3    0  502 -0.57126298676E+02  0.14654660197E+04  0.13550071304E+04  0.19967274431E+04  0.46999998093E+01 0.  1.
</event>
<event>
 5   0  0.9454010E-08  0.3300147E+04  0.7818609E-02  0.8162858E-01
       -1   -1    0    0    0  501  0.00000000000E+00  0.00000000000E+00  0.11808293742E+04  0.11808293742E+04  0.50400001928E-02 0. -1.
        1   -1    0    0  501    0  0.00000000000E+00  0.00000000000E+00 -0.23057885600E+04  0.23057885600E+04  0.50400001928E-02 0.  1.
    10030    2    1    2    0    0  0.00000000000E+00  0.00000000000E+00 -0.11249591858E+04  0.34866179342E+04  0.33001471860E+04 0.  0.
        2    1    3    3  502    0  0.76770794399E+03 -0.14411619577E+04 -0.81342889989E+03  0.18242778984E+04  0.25500000920E-02 0. -1.
       -2    1    3    3    0  502 -0.76770794399E+03  0.14411619577E+04 -0.31153028588E+03  0.16623400358E+04  0.25500000920E-02 0.  1.
</event>
<event>
 5   0  0.2875829E-07  0.3302358E+04  0.7818609E-02  0.8162296E-01
       -2   -1    0    0    0  501  0.00000000000E+00  0.00000000000E+00  0.14209690938E+04  0.14209690938E+04  0.25500000920E-02 0. -1.
        2   -1    0    0  501    0  0.00000000000E+00  0.00000000000E+00 -0.19186849717E+04  0.19186849717E+04  0.25500000920E-02 0.  1.
    10030    2    1    2    0    0  0.00000000000E+00  0.00000000000E+00 -0.49771587790E+03  0.33396540655E+04  0.33023579731E+04 0.  0.
        3    1    3    3  502    0  0.15120299732E+04 -0.63292365499E+03 -0.45001401408E+03  0.16998057583E+04  0.10100000352E+00 0. -1.
       -3    1    3    3    0  502 -0.15120299732E+04  0.63292365499E+03 -0.47701863814E+02  0.16398483073E+04  0.10100000352E+00 0.  1.
</event>
<event>
 5   0  0.2713815E-07  0.3298465E+04  0.7818609E-02  0.8163286E-01
       -2   -1    0    0    0  501  0.00000000000E+00  0.00000000000E+00  0.24853055911E+04  0.24853055911E+04  0.25500000920E-02 0.  1.
        2   -1    0    0  501    0  0.00000000000E+00  0.00000000000E+00 -0.10944196271E+04  0.10944196271E+04  0.25500000920E-02 0. -1.
    10030    2    1    2    0    0  0.00000000000E+00  0.00000000000E+00  0.13908859640E+04  0.35797252181E+04  0.32984646235E+04 0.  0.
        4    1    3    3  502    0  0.23081630881E+02 -0.15789427501E+04  0.17908627325E+03  0.15892345567E+04  0.12699999809E+01 0. -1.
       -4    1    3    3    0  502 -0.23081630881E+02  0.15789427501E+04  0.12117996908E+04  0.19904906615E+04  0.12699999809E+01 0.  1.
</event>
<event>
 5   0  0.8805125E-08  0.3300779E+04  0.7818609E-02  0.8162697E-01
       -3   -1    0    0    0  501  0.00000000000E+00  0.00000000000E+00  0.17623373625E+04  0.17623373654E+04  0.10100000352E+00 0. -1.
        3   -1    0    0  501    0  0.00000000000E+00  0.00000000000E+00 -0.15455532129E+04  0.15455532162E+04  0.10100000352E+00 0.  1.
    10030    2    1    2    0    0  0.00000000000E+00  0.00000000000E+00  0.21678414961E+03  0.33078905816E+04  0.33007794128E+04 0.  0.
        5    1    3    3  502    0 -0.14334563611E+04 -0.76144894438E+03 -0.19085206370E+03  0.16343341868E+04  0.46999998093E+01 0.  1.
       -5    1    3    3    0  502  0.14334563611E+04  0.76144894438E+03  0.40763621331E+03  0.16735563947E+04  0.46999998093E+01 0. -1.
</event>
<event>
 5   0  0.2875829E-07  0.3298967E+04  0.7818609E-02  0.8163158E-01
       -2   -1    0    0    0  501  0.00000000000E+00  0.00000000000E+00  0.13802068477E+04  0.13802068477E+04  0.25500000920E-02 0. -1.
        2   -1    0    0  501    0  0.00000000000E+00  0.00000000000E+00 -0.19712953109E+04  0.19712953109E+04  0.25500000920E-02 0.  1.
    10030    2    1    2    0    0  0.00000000000E+00  0.00000000000E+00 -0.59108846323E+03  0.33515021585E+04  0.32989666787E+04 0.  0.
        3    1    3    3  502    0  0.37800444070E+03 -0.12689979832E+04  0.70376233333E+03  0.14995081429E+04  0.10100000352E+00 0. -1.
       -3    1    3    3    0  502 -0.37800444070E+03  0.12689979832E+04 -0.12948507966E+04  0.18519940157E+04  0.10100000352E+00 0.  1.
</event>
<event>
 5   0  0.2713815E-07  0.3318650E+04  0.7818609E-02  0.8158166E-01
        2   -1    0    0  501    0  0.00000000000E+00  0.00000000000E+00  0.19354362969E+04  0.19354362969E+04  0.25500000920E-02 0. -1.
       -2   -1    0    0    0  501  0.00000000000E+00  0.00000000000E+00 -0.14226040984E+04  0.14226040984E+04  0.25500000920E-02 0.  1.
    10030    2    1    2    0    0  0.00000000000E+00  0.00000000000E+00  0.51283219851E+03  0.33580403953E+04  0.33186500919E+04 0.  0.
        4    1    3    3  502    0  0.43749370305E+03 -0.93788035857E+03  0.15688608768E+04  0.18794537426E+04  0.12699999809E+01 0. -1.
       -4    1    3    3    0  502 -0.43749370305E+03  0.93788035857E+03 -0.10560286783E+04  0.14785866527E+04  0.12699999809E+01 0.  1.
</event>
<event>
 5   0  0.2824402E-07  0.3299688E+04  0.7818609E-02  0.8162975E-01
       -2   -1    0    0    0  501  0.00000000000E+00  0.00000000000E+00  0.14306374730E+04  0.14306374730E+04  0.25500000920E-02 0.  1.
        2   -1    0    0  501    0  0.00000000000E+00  0.00000000000E+00 -0.19026376960E+04  0.19026376960E+04  0.25500000920E-02 0. -1.
    10030    2    1    2    0    0  0.00000000000E+00  0.00000000000E+00 -0.47200022306E+03  0.33332751690E+04  0.32996877340E+04 0.  0.
        1    1    3    3  502    0 -0.99044865890E+03  0.35795264311E+03  0.10469137207E+04  0.14849737301E+04  0.50400001928E-02 0.  1.
       -1    1    3    3    0  502  0.99044865890E+03 -0.35795264311E+03 -0.15189139437E+04  0.18483014389E+04  0.50400001928E-02 0. -1.
</event>
<event>
 5   0  0.8805125E-08  0.3298194E+04  0.7818609E-02  0.8163355E-01
        1   -1    0    0  501    0  0.00000000000E+00  0.00000000000E+00  0.16710043538E+04  0.16710043538E+04  0.50400001928E-02 0.  1.
       -1   -1    0    0    0  501  0.00000000000E+00  0.00000000000E+00 -0.16274770484E+04  0.16274770484E+04  0.50400001928E-02 0. -1.
    10030    2    1    2    0    0  0.00000000000E+00  0.00000000000E+00  0.43527305447E+02  0.32984814022E+04  0.32981941929E+04 0.  0.
        4    1    3    3  502    0 -0.52093085754E+03  0.80027869180E+03 -0.13228625125E+04  0.16314967921E+04  0.12699999809E+01 0. -1.
       -4    1    3    3    0  502  0.52093085754E+03 -0.80027869180E+03  0.13663898179E+04  0.16669846101E+04  0.12699999809E+01 0.  1.
</event>
<event>
 5   0  0.2875829E-07  0.3289814E+04  0.7818609E-02  0.8165492E-01
       -2   -1    0    0    0  501  0.00000000000E+00  0.00000000000E+00  0.11864883615E+04  0.11864883615E+04  0.25500000920E-02 0.  1.
        2   -1    0    0  501    0  0.00000000000E+00  0.00000000000E+00 -0.22804428367E+04  0.22804428367E+04  0.25500000920E-02 0. -1.
    10030    2    1    2    0    0  0.00000000000E+00  0.00000000000E+00 -0.10939544752E+04  0.34669311983E+04  0.32898139065E+04 0.  0.
        3    1    3    3  502    0 -0.17101335029E+03 -0.11315772499E+04 -0.17921154749E+04  0.21263561611E+04  0.10100000352E+00 0. -1.
       -3    1    3    3    0  502  0.17101335029E+03  0.11315772499E+04  0.69816099971E+03  0.13405750371E+04  0.10100000352E+00 0.  1.
</event>
<event>
 5   0  0.2703956E-07  0.3310311E+04  0.7818609E-02  0.8160277E-01
       -2   -1    0    0    0  501  0.00000000000E+00  0.00000000000E+00  0.14679098586E+04  0.14679098586E+04  0.25500000920E-02 0. -1.
        2   -1    0    0  501    0  0.00000000000E+00  0.00000000000E+00 -0.18662863088E+04  0.18662863088E+04  0.25500000920E-02 0.  1.
    10030    2    1    2    0    0  0.00000000000E+00  0.00000000000E+00 -0.39837645017E+03  0.33341961675E+04  0.33103112070E+04 0.  0.
        5    1    3    3  502    0  0.20131509629E+03  0.59355062002E+03  0.13437551511E+04  0.14827441123E+04  0.46999998093E+01 0. -1.
       -5    1    3    3    0  502 -0.20131509629E+03 -0.59355062002E+03 -0.17421316012E+04  0.18514520552E+04  0.46999998093E+01 0.  1.
</event>
<event>
 5   0  0.9283910E-08  0.3301583E+04  0.7818609E-02  0.8162493E-01
       -1   -1    0    0    0  501  0.00000000000E+00  0.00000000000E+00  0.17849089794E+04  0.17849089794E+04  0.50400001928E-02 0.  1.
        1   -1    0    0  501    0  0.00000000000E+00  0.00000000000E+00 -0.15267514827E+04  0.15267514827E+04  0.50400001928E-02 0. -1.
    10030    2    1    2    0    0  0.00000000000E+00  0.00000000000E+00  0.25815749675E+03  0.33116604621E+04  0.33015829118E+04 0.  0.
        3    1    3    3  502    0 -0.16011050000E+04 -0.20935530809E+03  0.47326685158E+03  0.16826611034E+04  0.10100000352E+00 0. -1.
       -3    1    3    3    0  502  0.16011050000E+04  0.20935530809E+03 -0.21510935483E+03  0.16289993587E+04  0.10100000352E+00 0.  1.
</event>
<event>
 5   0  0.8805125E-08  0.3303967E+04  0.7818609E-02  0.8161887E-01
        1   -1    0    0  501    0  0.00000000000E+00  0.00000000000E+00  0.26415370932E+04  0.26415370932E+04  0.50400001928E-02 0.  1.
       -1   -1    0    0    0  501  0.00000000000E+00  0.00000000000E+00 -0.10331295203E+04  0.10331295204E+04  0.50400001928E-02 0. -1.
    10030    2    1    2    0    0  0.00000000000E+00  0.00000000000E+00  0.16084075729E+04  0.36746666136E+04  0.33039672820E+04 0.  0.
        4    1    3    3  502    0 -0.63648263375E+03  0.15026586443E+04  0.51857189019E+03  0.17123117597E+04  0.12699999809E+01 0. -1.
       -4    1    3    3    0  502  0.63648263375E+03 -0.15026586443E+04  0.10898356827E+04  0.19623548539E+04  0.12699999809E+01 0.  1.
</event>
<event>
 5   0  0.2713815E-07  0.3306010E+04  0.7818609E-02  0.8161368E-01
        2   -1    0    0  501    0  0.00000000000E+00  0.00000000000E+00  0.20387160603E+04  0.20387160603E+04  0.25500000920E-02 0. -1.
       -2   -1    0    0    0  501  0.00000000000E+00  0.00000000000E+00 -0.13402674723E+04  0.13402674723E+04  0.25500000920E-02 0.  1.
    10030    2    1    2    0    0  0.00000000000E+00  0.00000000000E+00  0.69844858802E+03  0.33789835326E+04  0.33060095710E+04 0.  0.
        4    1    3    3  502    0  0.13283384076E+04 -0.31138238061E+03 -0.60463954080E+03  0.14923245288E+04  0.12699999809E+01 0.  1.
       -4    1    3    3    0  502 -0.13283384076E+04  0.31138238061E+03  0.13030881288E+04  0.18866590038E+04  0.12699999809E+01 0. -1.
</event>
<event>
 5   0  0.9283910E-08  0.3305017E+04  0.7818609E-02  0.8161620E-01
       -1   -1    0    0    0  501  0.00000000000E+00  0.00000000000E+00  0.13409091233E+04  0.13409091233E+04  0.50400001928E-02 0.  1.
        1   -1    0    0  501    0  0.00000000000E+00  0.00000000000E+00 -0.20365175339E+04  0.20365175339E+04  0.50400001928E-02 0. -1.
    10030    2    1    2    0    0  0.00000000000E+00  0.00000000000E+00 -0.69560841062E+03  0.33774266571E+04  0.33050173621E+04 0.  0.
        3    1    3    3  502    0  0.91321899080E+03  0.11802560393E+04 -0.10731520092E+04  0.18381045913E+04  0.10100000352E+00 0.  1.
       -3    1    3    3    0  502 -0.91321899080E+03 -0.11802560393E+04  0.37754359863E+03  0.15393220659E+04  0.10100000352E+00 0. -1.
</event>
<event>
 5   0  0.2703956E-07  0.3303361E+04  0.7818609E-02  0.8162041E-01
        2   -1    0    0  501    0  0.00000000000E+00  0.00000000000E+00  0.14547011414E+04  0.14547011414E+04  0.25500000920E-02 0. -1.
       -2   -1    0    0    0  501  0.00000000000E+00  0.00000000000E+00 -0.18753323704E+04  0.18753323704E+04  0.25500000920E-02 0.  1.
    10030    2    1    2    0    0  0.00000000000E+00  0.00000000000E+00 -0.42063122898E+03  0.33300335118E+04  0.33033607975E+04 0.  0.
        5    1    3    3  502    0 -0.46000895432E+03 -0.10177394306E+04  0.10163184593E+04  0.15100751926E+04  0.46999998093E+01 0. -1.
       -5    1    3    3    0  502  0.46000895432E+03  0.10177394306E+04 -0.14369496883E+04  0.18199583191E+04  0.46999998093E+01 0.  1.
</event>
<event>
 5   0  0.2727168E-07  0.3214263E+04  0.7818609E-02  0.8185060E-01
       -2   -1    0    0    0  501  0.00000000000E+00  0.00000000000E+00  0.18254442833E+04  0.18254442833E+04  0.25500000920E-02 0.  1.
        2   -1    0    0  501    0  0.00000000000E+00  0.00000000000E+00 -0.14149277222E+04  0.14149277222E+04  0.25500000920E-02 0. -1.
    10030    2    1    2    0    0  0.00000000000E+00  0.00000000000E+00  0.41051656108E+03  0.32403720055E+04  0.32142630395E+04 0.  0.
        2    1    3    3  502    0  0.11075245402E+04  0.11645529954E+04  0.21412949173E+03  0.16213098796E+04  0.25500000920E-02 0.  1.
       -2    1    3    3    0  502 -0.11075245402E+04 -0.11645529954E+04  0.19638706935E+03  0.16190621259E+04  0.25500000920E-02 0. -1.
</event>
<event>
 5   0  0.2703956E-07  0.3307226E+04  0.7818609E-02  0.8161059E-01
        2   -1    0    0  501    0  0.00000000000E+00  0.00000000000E+00  0.17423485199E+04  0.17423485199E+04  0.25500000920E-02 0. -1.
       -2   -1    0    0    0  501  0.00000000000E+00  0.00000000000E+00 -0.15693964785E+04  0.15693964785E+04  0.25500000920E-02 0.  1.
    10030    2    1    2    0    0  0.00000000000E+00  0.00000000000E+00  0.17295204143E+03  0.33117449983E+04  0.33072258050E+04 0.  0.
        5    1    3    3  502    0  0.12730400901E+04 -0.10339129161E+04 -0.12548880781E+03  0.16448028818E+04  0.46999998093E+01 0.  1.
       -5    1    3    3    0  502 -0.12730400901E+04  0.10339129161E+04  0.29844084924E+03  0.16669421165E+04  0.46999998093E+01 0. -1.
</event>
<event>
 5   0  0.9810351E-08  0.3299507E+04  0.7818609E-02  0.8163021E-01
       -1   -1    0    0    0  501  0.00000000000E+00  0.00000000000E+00  0.14669152326E+04  0.14669152326E+04  0.50400001928E-02 0. -1.
        1   -1    0    0  501    0  0.00000000000E+00  0.00000000000E+00 -0.18553806151E+04  0.18553806151E+04  0.50400001928E-02 0.  1.
    10030    2    1    2    0    0  0.00000000000E+00  0.00000000000E+00 -0.38846538251E+03  0.33222958476E+04  0.32995066822E+04 0.  0.
        5    1    3    3  502    0  0.65255092915E+03  0.13392108917E+04  0.51943306474E+03  0.15777012792E+04  0.46999998093E+01 0.  1.
       -5    1    3    3    0  502 -0.65255092915E+03 -0.13392108917E+04 -0.90789844724E+03  0.17445945684E+04  0.46999998093E+01 0. -1.
</event>
<event>
 5   0  0.8805125E-08  0.3297366E+04  0.7818609E-02  0.8163566E-01
       -1   -1    0    0    0  501  0.00000000000E+00  0.00000000000E+00  0.11744880524E+04  0.11744880525E+04  0.50400001928E-02 0.  1.
        1   -1    0    0  501    0  0.00000000000E+00  0.00000000000E+00 -0.23143324039E+04  0.23143324039E+04  0.50400001928E-02 0. -1.
    10030    2    1    2    0    0  0.00000000000E+00  0.00000000000E+00 -0.11398443514E+04  0.34888204563E+04  0.32973660748E+04 0.  0.
        4    1    3    3  502    0  0.94022641317E+03 -0.13433071450E+04 -0.38771911526E+03  0.16848820490E+04  0.12699999809E+01 0.  1.
       -4    1    3    3    0  502 -0.94022641317E+03  0.13433071450E+04 -0.75212523618E+03  0.18039384074E+04  0.12699999809E+01 0. -1.
</event>
<event>
 5   0  0.2875829E-07  0.3299957E+04  0.7818609E-02  0.8162906E-01
        2   -1    0    0  501    0  0.00000000000E+00  0.00000000000E+00  0.23484866433E+04  0.23484866433E+04  0.25500000920E-02 0. -1.
       -2   -1    0    0    0  501  0.00000000000E+00  0.00000000000E+00 -0.11592272440E+04  0.11592272440E+04  0.25500000920E-02 0.  1.
    10030    2    1    2    0    0  0.00000000000E+00  0.00000000000E+00  0.11892593993E+04  0.35077138873E+04  0.32999573931E+04 0.  0.
        3    1    3    3  502    0 -0.10523635039E+04 -0.10473408566E+04 -0.17043222022E+03  0.14944694598E+04  0.10100000352E+00 0. -1.
       -3    1    3    3    0  502  0.10523635039E+04  0.10473408566E+04  0.13596916195E+04  0.20132444275E+04  0.10100000352E+00 0.  1.
</event>
<event>
 5   0  0.9454010E-08  0.3294128E+04  0.7818609E-02  0.8164391E-01
       -1   -1    0    0    0  501  0.00000000000E+00  0.00000000000E+00  0.10115464101E+04  0.10115464101E+04  0.50400001928E-02 0.  1.
        1   -1    0    0  501    0  0.00000000000E+00  0.00000000000E+00 -0.26818539831E+04  0.26818539831E+04  0.50400001928E-02 0. -1.
    10030    2    1    2    0    0  0.00000000000E+00  0.00000000000E+00 -0.16703075730E+04  0.36934003932E+04  0.32941279690E+04 0.  0.
        2    1    3    3  502    0  0.26251911029E+03 -0.14725558551E+04 -0.16082851698E+04  0.21963420082E+04  0.25500000920E-02 0. -1.
       -2    1    3    3    0  502 -0.26251911029E+03  0.14725558551E+04 -0.62022403160E+02  0.14970583850E+04  0.25500000920E-02 0.  1.
</event>
<event>
 5   0  0.2713815E-07  0.3308552E+04  0.7818609E-02  0.8160723E-01
       -2   -1    0    0    0  501  0.00000000000E+00  0.00000000000E+00  0.17236228812E+04  0.17236228812E+04  0.25500000920E-02 0. -1.
        2   -1    0    0  501    0  0.00000000000E+00  0.00000000000E+00 -0.15877189198E+04  0.15877189198E+04  0.25500000920E-02 0.  1.
    10030    2    1    2    0    0  0.00000000000E+00  0.00000000000E+00  0.13590396142E+03  0.33113418009E+04  0.33085517430E+04 0.  0.
        4    1    3    3  502    0  0.74536357615E+03  0.11509876508E+04 -0.85818646153E+03  0.16176603625E+04  0.12699999809E+01 0.  1.
       -4    1    3    3    0  502 -0.74536357615E+03 -0.11509876508E+04  0.99409042295E+03  0.16936814384E+04  0.12699999809E+01 0. -1.
</event>
<event>
 5   0  0.8805125E-08  0.3297615E+04  0.7818609E-02  0.8163502E-01
       -1   -1    0    0    0  501  0.00000000000E+00  0.00000000000E+00  0.10216470465E+04  0.10216470465E+04  0.50400001928E-02 0.  1.
        1   -1    0    0  501    0  0.00000000000E+00  0.00000000000E+00 -0.26609644417E+04  0.26609644417E+04  0.50400001928E-02 0. -1.
    10030    2    1    2    0    0  0.00000000000E+00  0.00000000000E+00 -0.16393173952E+04  0.36826114882E+04  0.32976151763E+04 0.  0.
        4    1    3    3  502    0  0.79095037406E+03 -0.72537156794E+03 -0.22175148952E+04  0.24635625279E+04  0.12699999809E+01 0. -1.
       -4    1    3    3    0  502 -0.79095037406E+03  0.72537156794E+03  0.57819749994E+03  0.12190489603E+04  0.12699999809E+01 0.  1.
</event>
<event>
 5   0  0.9181760E-08  0.3300197E+04  0.7818609E-02  0.8162845E-01
       -1   -1    0    0    0  501  0.00000000000E+00  0.00000000000E+00  0.10035838578E+04  0.10035838578E+04  0.50400001928E-02 0.  1.
        1   -1    0    0  501    0  0.00000000000E+00  0.00000000000E+00 -0.27131015743E+04  0.27131015743E+04  0.50400001928E-02 0. -1.
    10030    2    1    2    0    0  0.00000000000E+00  0.00000000000E+00 -0.17095177165E+04  0.37166854322E+04  0.33001969303E+04 0.  0.
        1    1    3    3  502    0 -0.79458117392E+03  0.30153116530E+03 -0.24476645893E+04  0.25910118154E+04  0.50400001928E-02 0. -1.
       -1    1    3    3    0  502  0.79458117392E+03 -0.30153116530E+03  0.73814687283E+03  0.11256736168E+04  0.50400001928E-02 0.  1.
</event>
<event>
 5   0  0.9810351E-08  0.3304035E+04  0.7818609E-02  0.8161870E-01
        1   -1    0    0  501    0  0.00000000000E+00  0.00000000000E+00  0.17875090679E+04  0.17875090679E+04  0.50400001928E-02 0.  1.
       -1   -1    0    0    0  501  0.00000000000E+00  0.00000000000E+00 -0.15267957172E+04  0.15267957172E+04  0.50400001928E-02 0. -1.
    10030    2    1    2    0    0  0.00000000000E+00  0.00000000000E+00  0.26071335072E+03  0.33143047852E+04  0.33040346181E+04 0.  0.
        5    1    3    3  502    0  0.11776545778E+04 -0.74040646482E+03  0.10242309645E+04  0.17274672780E+04  0.46999998093E+01 0.  1.
       -5    1    3    3    0  502 -0.11776545778E+04  0.74040646482E+03 -0.76351761375E+03  0.15868375072E+04  0.46999998093E+01 0. -1.
</event>
<event>
 5   0  0.9283910E-08  0.3297654E+04  0.7818609E-02  0.8163492E-01
        1   -1    0    0  501    0  0.00000000000E+00  0.00000000000E+00  0.26944863867E+04  0.26944863867E+04  0.50400001928E-02 0. -1.
       -1   -1    0    0    0  501  0.00000000000E+00  0.00000000000E+00 -0.10089608027E+04  0.10089608027E+04  0.50400001928E-02 0.  1.
    10030    2    1    2    0    0  0.00000000000E+00  0.00000000000E+00  0.16855255840E+04  0.37034471895E+04  0.32976544074E+04 0.  0.
        3    1    3    3  502    0  0.12565965213E+04 -0.54913212397E+03 -0.18533882260E+03  0.13838104625E+04  0.10100000352E+00 0.  1.
       -3    1    3    3    0  502 -0.12565965213E+04  0.54913212397E+03  0.18708644066E+04  0.23196367269E+04  0.10100000352E+00 0. -1.
</event>
<event>
 5   0  0.2727168E-07  0.3300319E+04  0.7818609E-02  0.8162814E-01
        2   -1    0    0  501    0  0.00000000000E+00  0.00000000000E+00  0.86400505938E+03  0.86400505939E+03  0.25500000920E-02 0. -1.
       -2   -1    0    0    0  501  0.00000000000E+00  0.00000000000E+00 -0.31516331037E+04  0.31516331037E+04  0.25500000920E-02 0.  1.
    10030    2    1    2    0    0  0.00000000000E+00  0.00000000000E+00 -0.22876280444E+04  0.40156381631E+04  0.33003193463E+04 0.  0.
        2    1    3    3  502    0  0.28544372103E+03 -0.12011880912E+04  0.18833599753E+03  0.12489200920E+04  0.25500000920E-02 0. -1.
       -2    1    3    3    0  502 -0.28544372103E+03  0.12011880912E+04 -0.24759640419E+04  0.27667180711E+04  0.25500000920E-02 0.  1.
</event>
<event>
 5   0  0.8805125E-08  0.3304308E+04  0.7818609E-02  0.8161800E-01
        1   -1    0    0  501    0  0.00000000000E+00  0.00000000000E+00  0.11113296605E+04  0.11113296605E+04  0.50400001928E-02 0.  1.
       -1   -1    0    0    0  501  0.00000000000E+00  0.00000000000E+00 -0.24561688243E+04  0.24561688243E+04  0.50400001928E-02 0. -1.
    10030    2    1    2    0    0  0.00000000000E+00  0.00000000000E+00 -0.13448391638E+04  0.35674984848E+04  0.33043082578E+04 0.  0.
        4    1    3    3  502    0  0.37585625900E+03 -0.34477365281E+03 -0.23690433458E+04  0.24233251507E+04  0.12699999809E+01 0. -1.
       -4    1    3    3    0  502 -0.37585625900E+03  0.34477365281E+03  0.10242041820E+04  0.11441733341E+04  0.12699999809E+01 0.  1.
</event>
<event>
 5   0  0.2703956E-07  0.3301243E+04  0.7818609E-02  0.8162579E-01
       -2   -1    0    0    0  501  0.00000000000E+00  0.00000000000E+00  0.23552486921E+04  0.23552486921E+04  0.25500000920E-02 0. -1.
        2   -1    0    0  501    0  0.00000000000E+00  0.00000000000E+00 -0.11568000394E+04  0.11568000394E+04  0.25500000920E-02 0.  1.
    10030    2    1    2    0    0  0.00000000000E+00  0.00000000000E+00  0.11984486527E+04  0.35120487315E+04  0.33012432688E+04 0.  0.
        5    1    3    3  502    0 -0.80789614654E+03 -0.11708284804E+03 -0.92700182442E+03  0.12352161954E+04  0.46999998093E+01 0.  1.
       -5    1    3    3    0  502  0.80789614654E+03  0.11708284804E+03  0.21254504771E+04  0.22768325361E+04  0.46999998093E+01 0. -1.
</event>
<event>
 5   0  0.2713815E-07  0.3304264E+04  0.7818609E-02  0.8161811E-01
       -2   -1    0    0    0  501  0.00000000000E+00  0.00000000000E+00  0.16959280050E+04  0.16959280050E+04  0.25500000920E-02 0. -1.
        2   -1    0    0  501    0  0.00000000000E+00  0.00000000000E+00 -0.16094668153E+04  0.16094668153E+04  0.25500000920E-02 0.  1.
    10030    2    1    2    0    0  0.00000000000E+00  0.00000000000E+00  0.86461189673E+02  0.33053948203E+04  0.33042638183E+04 0.  0.
        4    1    3    3  502    0  0.29441812389E+03  0.15147971902E+04 -0.54709483496E+03  0.16372559148E+04  0.12699999809E+01 0.  1.
       -4    1    3    3    0  502 -0.29441812389E+03 -0.15147971902E+04  0.63355602464E+03  0.16681389056E+04  0.12699999809E+01 0. -1.
</event>
<event>
 5   0  0.9181760E-08  0.3295084E+04  0.7818609E-02  0.8164147E-01
       -1   -1    0    0    0  501  0.00000000000E+00  0.00000000000E+00  0.15229295976E+04  0.15229295976E+04  0.50400001928E-02 0. -1.
        1   -1    0    0  501    0  0.00000000000E+00  0.00000000000E+00 -0.17823508110E+04  0.17823508110E+04  0.50400001928E-02 0.  1.
    10030    2    1    2    0    0  0.00000000000E+00  0.00000000000E+00 -0.25942121338E+03  0.33052804086E+04  0.32950840980E+04 0.  0.
        1    1    3    3  502    0  0.23996259373E+03  0.21455868429E+03  0.14910792962E+04  0.15254294290E+04  0.50400001928E-02 0. -1.
       -1    1    3    3    0  502 -0.23996259373E+03 -0.21455868429E+03 -0.17505005096E+04  0.17798509795E+04  0.50400001928E-02 0.  1.
</event>
<event>
 5   0  0.2703956E-07  0.3297335E+04  0.7818609E-02  0.8163574E-01
       -2   -1    0    0    0  501  0.00000000000E+00  0.00000000000E+00  0.12427028667E+04  0.12427028667E+04  0.25500000920E-02 0.  1.
        2   -1    0    0  501    0  0.00000000000E+00  0.00000000000E+00 -0.21872517977E+04  0.21872517977E+04  0.25500000920E-02 0. -1.
    10030    2    1    2    0    0  0.00000000000E+00  0.00000000000E+00 -0.94454893095E+03  0.34299546644E+04  0.32973347293E+04 0.  0.
        5    1    3    3  502    0  0.77440732041E+03 -0.14546269917E+04 -0.42093765417E+03  0.17008400811E+04  0.46999998093E+01 0.  1.
       -5    1    3    3    0  502 -0.77440732041E+03  0.14546269917E+04 -0.52361127677E+03  0.17291145833E+04  0.46999998093E+01 0. -1.
</event>
<event>
 5   0  0.2824402E-07  0.3300332E+04  0.7818609E-02  0.8162811E-01
        2   -1    0    0  501    0  0.00000000000E+00  0.00000000000E+00  0.18401314731E+04  0.18401314731E+04  0.25500000920E-02 0. -1.
       -2   -1    0    0    0  501  0.00000000000E+00  0.00000000000E+00 -0.14798117570E+04  0.14798117570E+04  0.25500000920E-02 0.  1.
    10030    2    1    2    0    0  0.00000000000E+00  0.00000000000E+00  0.36031971611E+03  0.33199432301E+04  0.33003322187E+04 0.  0.
        1    1    3    3  502    0  0.30857063521E+03  0.26654212753E+03 -0.14283374112E+04  0.14853983651E+04  0.50400001928E-02 0.  1.
       -1    1    3    3    0  502 -0.30857063521E+03 -0.26654212753E+03  0.17886571273E+04  0.18345448651E+04  0.50400001928E-02 0. -1.
</event>
<event>
 5   0  0.2875829E-07  0.3301044E+04  0.7818609E-02  0.8162630E-01
       -2   -1    0    0    0  501  0.00000000000E+00  0.00000000000E+00  0.15689342809E+04  0.15689342809E+04  0.25500000920E-02 0. -1.
        2   -1    0    0  501    0  0.00000000000E+00  0.00000000000E+00 -0.17363526238E+04  0.17363526238E+04  0.25500000920E-02 0.  1.
    10030    2    1    2    0    0  0.00000000000E+00  0.00000000000E+00 -0.16741834297E+03  0.33052869047E+04  0.33010441713E+04 0.  0.
        3    1    3    3  502    0  0.15679668309E+04 -0.21732955094E+03  0.38430042013E+03  0.16289379791E+04  0.10100000352E+00 0. -1.
       -3    1    3    3    0  502 -0.15679668309E+04  0.21732955094E+03 -0.55171876310E+03  0.16763489256E+04  0.10100000352E+00 0.  1.
</event>
<event>
 5   0  0.9181760E-08  0.3298518E+04  0.7818609E-02  0.8163273E-01
       -1   -1    0    0    0  501  0.00000000000E+00  0.00000000000E+00  0.11939537008E+04  0.11939537008E+04  0.50400001928E-02 0.  1.
        1   -1    0    0  501    0  0.00000000000E+00  0.00000000000E+00 -0.22781909238E+04  0.22781909238E+04  0.50400001928E-02 0. -1.
    10030    2    1    2    0    0  0.00000000000E+00  0.00000000000E+00 -0.10842372230E+04  0.34721446246E+04  0.32985175365E+04 0.  0.
        1    1    3    3  502    0 -0.10207296010E+04 -0.40359784049E+03 -0.18378788374E+04  0.21406958580E+04  0.50400001928E-02 0. -1.
       -1    1    3    3    0  502  0.10207296010E+04  0.40359784049E+03  0.75364161438E+03  0.13314487667E+04  0.50400001928E-02 0.  1.
</event>
<event>
 5   0  0.9454010E-08  0.3298478E+04  0.7818609E-02  0.8163283E-01
        1   -1    0    0  501    0  0.00000000000E+00  0.00000000000E+00  0.27660838314E+04  0.27660838314E+04  0.50400001928E-02 0.  1.
       -1   -1    0    0    0  501  0.00000000000E+00  0.00000000000E+00 -0.98333564924E+03  0.98333564925E+03  0.50400001928E-02 0. -1.
    10030    2    1    2    0    0  0.00000000000E+00  0.00000000000E+00  0.17827481821E+04  0.37494194806E+04  0.32984777339E+04 0.  0.
        2    1    3    3  502    0  0.12262772022E+03 -0.32678924300E+03 -0.94087041016E+03  0.10035267290E+04  0.25500000920E-02 0. -1.
       -2    1    3    3    0  502 -0.12262772022E+03  0.32678924300E+03  0.27236185923E+04  0.27458927516E+04  0.25500000920E-02 0.  1.
</event>
<event>
 5   0  0.2824402E-07  0.3293410E+04  0.7818609E-02  0.8164574E-01
       -2   -1    0    0    0  501  0.00000000000E+00  0.00000000000E+00  0.11799965352E+04  0.11799965352E+04  0.25500000920E-02 0.  1.
        2   -1    0    0  501    0  0.00000000000E+00  0.00000000000E+00 -0.22980038646E+04  0.22980038646E+04  0.25500000920E-02 0. -1.
    10030    2    1    2    0    0  0.00000000000E+00  0.00000000000E+00 -0.11180073294E+04  0.34780003998E+04  0.32934095391E+04 0.  0.
        1    1    3    3  502    0 -0.19710695750E+03  0.48938412960E+03  0.10883266895E+04  0.12094639152E+04  0.50400001928E-02 0.  1.
       -1    1    3    3    0  502  0.19710695750E+03 -0.48938412960E+03 -0.22063340189E+04  0.22685364846E+04  0.50400001928E-02 0. -1.
</event>
<event>
 5   0  0.2875829E-07  0.3301393E+04  0.7818609E-02  0.8162541E-01
        2   -1    0    0  501    0  0.00000000000E+00  0.00000000000E+00  0.30203682400E+04  0.30203682400E+04  0.25500000920E-02 0. -1.
       -2   -1    0    0    0  501  0.00000000000E+00  0.00000000000E+00 -0.90214110606E+03  0.90214110606E+03  0.25500000920E-02 0.  1.
    10030    2    1    2    0    0  0.00000000000E+00  0.00000000000E+00  0.21182271339E+04  0.39225093461E+04  0.33013926423E+04 0.  0.
        3    1    3    3  502    0 -0.58416751474E+03  0.51399016543E+03 -0.67058032753E+03  0.10271881820E+04  0.10100000352E+00 0.  1.
       -3    1    3    3    0  502  0.58416751474E+03 -0.51399016543E+03  0.27888074615E+04  0.28953211640E+04  0.10100000352E+00 0. -1.
</event>
<event>
 5   0  0.9810351E-08  0.3299721E+04  0.7818609E-02  0.8162966E-01
        1   -1    0    0  501    0  0.00000000000E+00  0.00000000000E+00  0.11681051349E+04  0.11681051350E+04  0.50400001928E-02 0.  1.
       -1   -1    0    0    0  501  0.00000000000E+00  0.00000000000E+00 -0.23303038091E+04  0.23303038091E+04  0.50400001928E-02 0. -1.
    10030    2    1    2    0    0  0.00000000000E+00  0.00000000000E+00 -0.11621986742E+04  0.34984089441E+04  0.32997211067E+04 0.  0.
        5    1    3    3  502    0  0.10437570283E+04 -0.71463089394E+02  0.77144479111E+03  0.12998787878E+04  0.46999998093E+01 0.  1.
       -5    1    3    3    0  502 -0.10437570283E+04  0.71463089394E+02 -0.19336434653E+04  0.21985301563E+04  0.46999998093E+01 0. -1.
</event>
<event>
 5   0  0.2875829E-07  0.3303216E+04  0.7818609E-02  0.8162078E-01
       -2   -1    0    0    0  501  0.00000000000E+00  0.00000000000E+00  0.17440784452E+04  0.17440784452E+04  0.25500000920E-02 0.  1.
        2   -1    0    0  501    0  0.00000000000E+00  0.00000000000E+00 -0.15640398651E+04  0.15640398651E+04  0.25500000920E-02 0. -1.
    10030    2    1    2    0    0  0.00000000000E+00  0.00000000000E+00  0.18003858013E+03  0.33081183103E+04  0.33032155341E+04 0.  0.
        3    1    3    3  502    0  0.50616503141E+03 -0.50561088857E+03  0.15808397805E+04  0.17351944651E+04  0.10100000352E+00 0.  1.
       -3    1    3    3    0  502 -0.50616503141E+03  0.50561088857E+03 -0.14008012004E+04  0.15729238452E+04  0.10100000352E+00 0. -1.
</event>
<event>
 5   0  0.8805125E-08  0.3300935E+04  0.7818609E-02  0.8162658E-01
        1   -1    0    0  501    0  0.00000000000E+00  0.00000000000E+00  0.17024983818E+04  0.17024983819E+04  0.50400001928E-02 0.  1.
       -1   -1    0    0    0  501  0.00000000000E+00  0.00000000000E+00 -0.16000266483E+04  0.16000266483E+04  0.50400001928E-02 0. -1.
    10030    2    1    2    0    0  0.00000000000E+00  0.00000000000E+00  0.10247173352E+03  0.33025250302E+04  0.33009348856E+04 0.  0.
        4    1    3    3  502    0  0.71257348878E+03 -0.11011701603E+04 -0.95109727192E+03  0.16201618229E+04  0.12699999809E+01 0. -1.
       -4    1    3    3    0  502 -0.71257348878E+03  0.11011701603E+04  0.10535690054E+04  0.16823632072E+04  0.12699999809E+01 0.  1.
</event>
<event>
 5   0  0.8805125E-08  0.3302426E+04  0.7818609E-02  0.8162278E-01
       -1   -1    0    0    0  501  0.00000000000E+00  0.00000000000E+00  0.13103695511E+04  0.13103695511E+04  0.50400001928E-02 0.  1.
        1   -1    0    0  501    0  0.00000000000E+00  0.00000000000E+00 -0.20807144569E+04  0.20807144569E+04  0.50400001928E-02 0. -1.
    10030    2    1    2    0    0  0.00000000000E+00  0.00000000000E+00 -0.77034490584E+03  0.33910840080E+04  0.33024263012E+04 0.  0.
        4    1    3    3  502    0  0.66131381905E+03  0.10725669810E+04 -0.14809513179E+04  0.19444676173E+04  0.12699999809E+01 0. -1.
       -4    1    3    3    0  502 -0.66131381905E+03 -0.10725669810E+04  0.71060641202E+03  0.14466163907E+04  0.12699999809E+01 0.  1.
</event>
<event>
 5   0  0.2875829E-07  0.3300560E+04  0.7818609E-02  0.8162753E-01
        2   -1    0    0  501    0  0.00000000000E+00  0.00000000000E+00  0.21885929877E+04  0.21885929877E+04  0.25500000920E-02 0.  1.
       -2   -1    0    0    0  501  0.00000000000E+00  0.00000000000E+00 -0.12443723739E+04  0.12443723739E+04  0.25500000920E-02 0. -1.
    10030    2    1    2    0    0  0.00000000000E+00  0.00000000000E+00  0.94422061384E+03  0.34329653616E+04  0.33005603473E+04 0.  0.
        3    1    3    3  502    0 -0.15648267337E+04 -0.52006562651E+03  0.54010620219E+03  0.17351846248E+04  0.10100000352E+00 0. -1.
       -3    1    3    3    0  502  0.15648267337E+04  0.52006562651E+03  0.40411441165E+03  0.16977807368E+04  0.10100000352E+00 0.  1.
</event>
<event>
 5   0  0.9810351E-08  0.3298623E+04  0.7818609E-02  0.8163246E-01
        1   -1    0    0  501    0  0.00000000000E+00  0.00000000000E+00  0.22502201654E+04  0.22502201654E+04  0.50400001928E-02 0. -1.
       -1   -1    0    0    0  501  0.00000000000E+00  0.00000000000E+00 -0.12088720977E+04  0.12088720977E+04  0.50400001928E-02 0.  1.
    10030    2    1    2    0    0  0.00000000000E+00  0.00000000000E+00  0.10413480677E+04  0.34590922631E+04  0.32986229682E+04 0.  0.
        5    1    3    3  502    0  0.15309067891E+04 -0.55578858800E+03  0.24796577213E+03  0.16474482285E+04  0.46999998093E+01 0.  1.
       -5    1    3    3    0  502 -0.15309067891E+04  0.55578858800E+03  0.79338229562E+03  0.18116440347E+04  0.46999998093E+01 0. -1.
</event>
<event>
 5   0  0.9181760E-08  0.3293807E+04  0.7818609E-02  0.8164473E-01
        1   -1    0    0  501    0  0.00000000000E+00  0.00000000000E+00  0.18930267283E+04  0.18930267283E+04  0.50400001928E-02 0. -1.
       -1   -1    0    0    0  501  0.00000000000E+00  0.00000000000E+00 -0.14327797858E+04  0.14327797858E+04  0.50400001928E-02 0.  1.
    10030    2    1    2    0    0  0.00000000000E+00  0.00000000000E+00  0.46024694250E+03  0.33258065141E+04  0.32938065701E+04 0.  0.
        1    1    3    3  502    0  0.14965910056E+04 -0.51318588349E+03 -0.23164439994E+03  0.15990007871E+04  0.50400001928E-02 0.  1.
       -1    1    3    3    0  502 -0.14965910056E+04  0.51318588349E+03  0.69189134244E+03  0.17268057270E+04  0.50400001928E-02 0. -1.
</event>
<event>
 5   0  0.8805125E-08  0.3307409E+04  0.7818609E-02  0.8161013E-01
        1   -1    0    0  501    0  0.00000000000E+00  0.00000000000E+00  0.18650782235E+04  0.18650782235E+04  0.50400001928E-02 0. -1.
       -1   -1    0    0    0  501  0.00000000000E+00  0.00000000000E+00 -0.14662858727E+04  0.14662858727E+04  0.50400001928E-02 0.  1.
    10030    2    1    2    0    0  0.00000000000E+00  0.00000000000E+00  0.39879235074E+03  0.33313640962E+04  0.33074085630E+04 0.  0.
        4    1    3    3  502    0 -0.60561076364E+03 -0.53404122538E+03  0.16530302672E+04  0.18396942965E+04  0.12699999809E+01 0. -1.
       -4    1    3    3    0  502  0.60561076364E+03  0.53404122538E+03 -0.12542379164E+04  0.14916697997E+04  0.12699999809E+01 0.  1.
</event>
<event>
 5   0  0.2727168E-07  0.3300118E+04  0.7818609E-02  0.8162865E-01
        2   -1    0    0  501    0  0.00000000000E+00  0.00000000000E+00  0.11377055566E+04  0.11377055566E+04  0.25500000920E-02 0. -1.
       -2   -1    0    0    0  501  0.00000000000E+00  0.00000000000E+00 -0.23931448238E+04  0.23931448238E+04  0.25500000920E-02 0.  1.
    10030    2    1    2    0    0  0.00000000000E+00  0.00000000000E+00 -0.12554392672E+04  0.35308503804E+04  0.33001176729E+04 0.  0.
        2    1    3    3  502    0  0.14897975945E+04 -0.10290382684E+03  0.12321245071E+03  0.14984216290E+04  0.25500000920E-02 0. -1.
       -2    1    3    3    0  502 -0.14897975945E+04  0.10290382684E+03 -0.13786517179E+04  0.20324287514E+04  0.25500000920E-02 0.  1.
</event>
<event>
 5   0  0.2727168E-07  0.3298873E+04  0.7818609E-02  0.8163182E-01
        2   -1    0    0  501    0  0.00000000000E+00  0.00000000000E+00  0.16521320208E+04  0.16521320208E+04  0.25500000920E-02 0. -1.
       -2   -1    0    0    0  501  0.00000000000E+00  0.00000000000E+00 -0.16467455107E+04  0.16467455107E+04  0.25500000920E-02 0.  1.
    10030    2    1    2    0    0  0.00000000000E+00  0.00000000000E+00  0.53865101230E+01  0.32988775315E+04  0.32988731338E+04 0.  0.
        2    1    3    3  502    0  0.98795591413E+03 -0.12629242317E+03 -0.13120838868E+04  0.16472919566E+04  0.25500000920E-02 0.  1.
       -2    1    3    3    0  502 -0.98795591413E+03  0.12629242317E+03  0.13174703969E+04  0.16515855749E+04  0.25500000920E-02 0. -1.
</event>
<event>
 5   0  0.2727168E-07  0.3303059E+04  0.7818609E-02  0.8162117E-01
       -2   -1    0    0    0  501  0.00000000000E+00  0.00000000000E+00  0.20616154724E+04  0.20616154724E+04  0.25500000920E-02 0. -1.
        2   -1    0    0  501    0  0.00000000000E+00  0.00000000000E+00 -0.13230156158E+04  0.13230156158E+04  0.25500000920E-02 0.  1.
    10030    2    1    2    0    0  0.00000000000E+00  0.00000000000E+00  0.73859985658E+03  0.33846310882E+04  0.33030588634E+04 0.  0.
        2    1    3    3  502    0 -0.13827206055E+03  0.21256601142E+03  0.20415478580E+04  0.20572362840E+04  0.25500000920E-02 0. -1.
       -2    1    3    3    0  502  0.13827206055E+03 -0.21256601142E+03 -0.13029480014E+04  0.13273948042E+04  0.25500000920E-02 0.  1.
</event>
<event>
 5   0  0.9454010E-08  0.3305872E+04  0.7818609E-02  0.8161403E-01
       -1   -1    0    0    0  501  0.00000000000E+00  0.00000000000E+00  0.95549107799E+03  0.95549107800E+03  0.50400001928E-02 0. -1.
        1   -1    0    0  501    0  0.00000000000E+00  0.00000000000E+00 -0.28594684527E+04  0.28594684527E+04  0.50400001928E-02 0.  1.
    10030    2    1    2    0    0  0.00000000000E+00  0.00000000000E+00 -0.19039773747E+04  0.38149595307E+04  0.33058715005E+04 0.  0.
        2    1    3    3  502    0 -0.15847282821E+04  0.46604982001E+03 -0.88245694823E+03  0.18727777306E+04  0.25500000920E-02 0.  1.
       -2    1    3    3    0  502  0.15847282821E+04 -0.46604982001E+03 -0.10215204265E+04  0.19421818001E+04  0.25500000920E-02 0. -1.
</event>
<event>
 5   0  0.8805125E-08  0.3295496E+04  0.7818609E-02  0.8164042E-01
       -1   -1    0    0    0  501  0.00000000000E+00  0.00000000000E+00  0.24780637190E+04  0.24780637190E+04  0.50400001928E-02 0.  1.
        1   -1    0    0  501    0  0.00000000000E+00  0.00000000000E+00 -0.10956432655E+04  0.10956432655E+04  0.50400001928E-02 0. -1.
    10030    2    1    2    0    0  0.00000000000E+00  0.00000000000E+00  0.13824204535E+04  0.35737069845E+04  0.32954962147E+04 0.  0.
        4    1    3    3  502    0  0.54846072003E+02  0.16194013612E+04  0.10158189991E+04  0.19124222108E+04  0.12699999809E+01 0. -1.
       -4    1    3    3    0  502 -0.54846072003E+02 -0.16194013612E+04  0.36660145434E+03  0.16612847738E+04  0.12699999809E+01 0.  1.
</event>
<event>
 5   0  0.9283910E-08  0.3297964E+04  0.7818609E-02  0.8163414E-01
       -1   -1    0    0    0  501  0.00000000000E+00  0.00000000000E+00  0.18542470556E+04  0.18542470556E+04  0.50400001928E-02 0.  1.
        1   -1    0    0  501    0  0.00000000000E+00  0.00000000000E+00 -0.14664397791E+04  0.14664397791E+04  0.50400001928E-02 0. -1.
    10030    2    1    2    0    0  0.00000000000E+00  0.00000000000E+00  0.38780727655E+03  0.33206868347E+04  0.32979640038E+04 0.  0.
        3    1    3    3  502    0 -0.65936102260E+03 -0.33268246750E+03  0.16784115488E+04  0.18337120602E+04  0.10100000352E+00 0.  1.
       -3    1    3    3    0  502  0.65936102260E+03  0.33268246750E+03 -0.12906042722E+04  0.14869747745E+04  0.10100000352E+00 0. -1.
</event>
<event>
 5   0  0.2703956E-07  0.3302595E+04  0.7818609E-02  0.8162235E-01
       -2   -1    0    0    0  501  0.00000000000E+00  0.00000000000E+00  0.24101742078E+04  0.24101742078E+04  0.25500000920E-02 0.  1.
        2   -1    0    0  501    0  0.00000000000E+00  0.00000000000E+00 -0.11313636937E+04  0.11313636937E+04  0.25500000920E-02 0. -1.
    10030    2    1    2    0    0  0.00000000000E+00  0.00000000000E+00  0.12788105141E+04  0.35415379015E+04  0.33025950973E+04 0.  0.
        5    1    3    3  502    0 -0.13047708927E+04  0.22541374220E+03  0.16974637685E+04  0.21528222808E+04  0.46999998093E+01 0.  1.
       -5    1    3    3    0  502  0.13047708927E+04 -0.22541374220E+03 -0.41865325434E+03  0.13887156207E+04  0.46999998093E+01 0. -1.
</event>
<event>
 5   0  0.8805125E-08  0.3311929E+04  0.7818609E-02  0.8159867E-01
        1   -1    0    0  501    0  0.00000000000E+00  0.00000000000E+00  0.30785500006E+04  0.30785500006E+04  0.50400001928E-02 0.  1.
       -1   -1    0    0    0  501  0.00000000000E+00  0.00000000000E+00 -0.89074997017E+03  0.89074997018E+03  0.50400001928E-02 0. -1.
    10030    2    1    2    0    0  0.00000000000E+00  0.00000000000E+00  0.21878000304E+04  0.39692999707E+04  0.33119289372E+04 0.  0.
        4    1    3    3  502    0  0.80690854001E+03 -0.14143329937E+04  0.73280456293E+03  0.17856212782E+04  0.12699999809E+01 0. -1.
       -4    1    3    3    0  502 -0.80690854001E+03  0.14143329937E+04  0.14549954675E+04  0.21836786925E+04  0.12699999809E+01 0.  1.
</event>
<event>
 5   0  0.2703956E-07  0.3301567E+04  0.7818609E-02  0.8162497E-01
        2   -1    0    0  501    0  0.00000000000E+00  0.00000000000E+00  0.20673858037E+04  0.20673858037E+04  0.25500000920E-02 0. -1.
       -2   -1    0    0    0  501  0.00000000000E+00  0.00000000000E+00 -0.13181315697E+04  0.13181315697E+04  0.25500000920E-02 0.  1.
    10030    2    1    2    0    0  0.00000000000E+00  0.00000000000E+00  0.74925423394E+03  0.33855173734E+04  0.33015672004E+04 0.  0.
        5    1    3    3  502    0 -0.52398125150E+03  0.12678498093E+04 -0.56690559442E+03  0.14843865850E+04  0.46999998093E+01 0.  1.
       -5    1    3    3    0  502  0.52398125150E+03 -0.12678498093E+04  0.13161598284E+04  0.19011307884E+04  0.46999998093E+01 0. -1.
</event>
<event>
 5   0  0.8805125E-08  0.3296918E+04  0.7818609E-02  0.8163680E-01
       -1   -1    0    0    0  501  0.00000000000E+00  0.00000000000E+00  0.14081998040E+04  0.14081998040E+04  0.50400001928E-02 0. -1.
        1   -1    0    0  501    0  0.00000000000E+00  0.00000000000E+00 -0.19297104571E+04  0.19297104571E+04  0.50400001928E-02 0.  1.
    10030    2    1    2    0    0  0.00000000000E+00  0.00000000000E+00 -0.52151065312E+03  0.33379102612E+04  0.32969184931E+04 0.  0.
        4    1    3    3  502    0  0.79570024313E+03  0.78050410484E+01 -0.17223867077E+04  0.18973184707E+04  0.12699999809E+01 0.  1.
       -4    1    3    3    0  502 -0.79570024313E+03 -0.78050410484E+01  0.12008760545E+04  0.14405917905E+04  0.12699999809E+01 0. -1.
</event>
<event>
 5   0  0.8805125E-08  0.3269791E+04  0.7818609E-02  0.8170625E-01
       -3   -1    0    0    0  501  0.00000000000E+00  0.00000000000E+00  0.17473203808E+04  0.17473203837E+04  0.10100000352E+00 0. -1.
        3   -1    0    0  501    0  0.00000000000E+00  0.00000000000E+00 -0.15297037115E+04  0.15297037148E+04  0.10100000352E+00 0.  1.
    10030    2    1    2    0    0  0.00000000000E+00  0.00000000000E+00  0.21761666934E+03  0.32770240985E+04  0.32697905021E+04 0.  0.
        1    1    3    3  502    0 -0.36897848571E+03 -0.14175181888E+04 -0.61900724349E+03  0.15901801490E+04  0.50400001928E-02 0.  1.
       -1    1    3    3    0  502  0.36897848571E+03  0.14175181888E+04  0.83662391283E+03  0.16868439496E+04  0.50400001928E-02 0. -1.
</event>
<event>
 5   0  0.9283910E-08  0.3301581E+04  0.7818609E-02  0.8162493E-01
       -1   -1    0    0    0  501  0.00000000000E+00  0.00000000000E+00  0.12866849907E+04  0.12866849907E+04  0.50400001928E-02 0. -1.
        1   -1    0    0  501    0  0.00000000000E+00  0.00000000000E+00 -0.21179302846E+04  0.21179302846E+04  0.50400001928E-02 0.  1.
    10030    2    1    2    0    0  0.00000000000E+00  0.00000000000E+00 -0.83124529395E+03  0.34046152753E+04  0.33015808993E+04 0.  0.
        3    1    3    3  502    0  0.72264702924E+03  0.58296172858E+03  0.99190809206E+03  0.13586555042E+04  0.10100000352E+00 0. -1.
       -3    1    3    3    0  502 -0.72264702924E+03 -0.58296172858E+03 -0.18231533860E+04  0.20459597711E+04  0.10100000352E+00 0.  1.
</event>
<event>
 5   0  0.9283910E-08  0.3305216E+04  0.7818609E-02  0.8161569E-01
        1   -1    0    0  501    0  0.00000000000E+00  0.00000000000E+00  0.12158494470E+04  0.12158494470E+04  0.50400001928E-02 0.  1.
       -1   -1    0    0    0  501  0.00000000000E+00  0.00000000000E+00 -0.22462599891E+04  0.22462599891E+04  0.50400001928E-02 0. -1.
    10030    2    1    2    0    0  0.00000000000E+00  0.00000000000E+00 -0.10304105421E+04  0.34621094362E+04  0.33052164623E+04 0.  0.
        3    1    3    3  502    0 -0.11106820117E+04 -0.10400143816E+04  0.16028550818E+03  0.15300117318E+04  0.10100000352E+00 0.  1.
       -3    1    3    3    0  502  0.11106820117E+04  0.10400143816E+04 -0.11906960503E+04  0.19320977044E+04  0.10100000352E+00 0. -1.
</event>
<event>
 5   0  0.2713815E-07  0.3297854E+04  0.7818609E-02  0.8163442E-01
       -2   -1    0    0    0  501  0.00000000000E+00  0.00000000000E+00  0.14846825396E+04  0.14846825396E+04  0.25500000920E-02 0. -1.
        2   -1    0    0  501    0  0.00000000000E+00  0.00000000000E+00 -0.18313416114E+04  0.18313416114E+04  0.25500000920E-02 0.  1.
    10030    2    1    2    0    0  0.00000000000E+00  0.00000000000E+00 -0.34665907178E+03  0.33160241510E+04  0.32978544022E+04 0.  0.
        4    1    3    3  502    0 -0.15415453399E+04 -0.54479050981E+03  0.41860240944E+02  0.16355160125E+04  0.12699999809E+01 0. -1.
       -4    1    3    3    0  502  0.15415453399E+04  0.54479050981E+03 -0.38851931272E+03  0.16805081385E+04  0.12699999809E+01 0.  1.
</event>
<event>
 5   0  0.2727168E-07  0.3302176E+04  0.7818609E-02  0.8162342E-01
       -2   -1    0    0    0  501  0.00000000000E+00  0.00000000000E+00  0.18936872062E+04  0.18936872062E+04  0.25500000920E-02 0. -1.
        2   -1    0    0  501    0  0.00000000000E+00  0.00000000000E+00 -0.14395678801E+04  0.14395678801E+04  0.25500000920E-02 0.  1.
    10030    2    1    2    0    0  0.00000000000E+00  0.00000000000E+00  0.45411932613E+03  0.33332550862E+04  0.33021758141E+04 0.  0.
        2    1    3    3  502    0 -0.84707435569E+03  0.11603144363E+04 -0.59437250986E+03  0.15547164487E+04  0.25500000920E-02 0.  1.
       -2    1    3    3    0  502  0.84707435569E+03 -0.11603144363E+04  0.10484918360E+04  0.17785386376E+04  0.25500000920E-02 0. -1.
</event>
<event>
 5   0  0.9283910E-08  0.3296572E+04  0.7818609E-02  0.8163768E-01
       -1   -1    0    0    0  501  0.00000000000E+00  0.00000000000E+00  0.10351404527E+04  0.10351404527E+04  0.50400001928E-02 0.  1.
        1   -1    0    0  501    0  0.00000000000E+00  0.00000000000E+00 -0.26246163838E+04  0.26246163838E+04  0.50400001928E-02 0. -1.
    10030    2    1    2    0    0  0.00000000000E+00  0.00000000000E+00 -0.15894759311E+04  0.36597568366E+04  0.32965719114E+04 0.  0.
        3    1    3    3  502    0  0.60666998230E+03  0.15073286622E+04 -0.48716179509E+03  0.16962944285E+04  0.10100000352E+00 0. -1.
       -3    1    3    3    0  502 -0.60666998230E+03 -0.15073286622E+04 -0.11023141360E+04  0.19634624081E+04  0.10100000352E+00 0.  1.
</event>
<event>
 5   0  0.2875829E-07  0.3305893E+04  0.7818609E-02  0.8161398E-01
        2   -1    0    0  501    0  0.00000000000E+00  0.00000000000E+00  0.28934994596E+04  0.28934994596E+04  0.25500000920E-02 0. -1.
       -2   -1    0    0    0  501  0.00000000000E+00  0.00000000000E+00 -0.94426556137E+03  0.94426556137E+03  0.25500000920E-02 0.  1.
    10030    2    1    2    0    0  0.00000000000E+00  0.00000000000E+00  0.19492338983E+04  0.38377650210E+04  0.33058928546E+04 0.  0.
        3    1    3    3  502    0  0.37269403359E+03 -0.44130358926E+03 -0.82328874504E+03  0.10057107280E+04  0.10100000352E+00 0.  1.
       -3    1    3    3    0  502 -0.37269403359E+03  0.44130358926E+03  0.27725226433E+04  0.28320542930E+04  0.10100000352E+00 0. -1.
</event>
<event>
 5   0  0.9181760E-08  0.3303223E+04  0.7818609E-02  0.8162076E-01
        1   -1    0    0  501    0  0.00000000000E+00  0.00000000000E+00  0.13306605383E+04  0.13306605383E+04  0.50400001928E-02 0.  1.
       -1   -1    0    0    0  501  0.00000000000E+00  0.00000000000E+00 -0.20499743486E+04  0.20499743486E+04  0.50400001928E-02 0. -1.
    10030    2    1    2    0    0  0.00000000000E+00  0.00000000000E+00 -0.71931381028E+03  0.33806348870E+04  0.33032226509E+04 0.  0.
        1    1    3    3  502    0 -0.78210918998E+03 -0.78000474599E+03  0.89701078555E+03  0.14229302647E+04  0.50400001928E-02 0.  1.
       -1    1    3    3    0  502  0.78210918998E+03  0.78000474599E+03 -0.16163245958E+04  0.19577046222E+04  0.50400001928E-02 0. -1.
</event>
<event>
 5   0  0.8805125E-08  0.3300325E+04  0.7818609E-02  0.8162813E-01
        1   -1    0    0  501    0  0.00000000000E+00  0.00000000000E+00  0.14538811399E+04  0.14538811399E+04  0.50400001928E-02 0.  1.
       -1   -1    0    0    0  501  0.00000000000E+00  0.00000000000E+00 -0.18729430928E+04  0.18729430929E+04  0.50400001928E-02 0. -1.
    10030    2    1    2    0    0  0.00000000000E+00  0.00000000000E+00 -0.41906195297E+03  0.33268242327E+04  0.33003252196E+04 0.  0.
        4    1    3    3  502    0  0.16273490305E+02  0.12592744002E+04  0.86533175206E+03  0.15280175050E+04  0.12699999809E+01 0.  1.
       -4    1    3    3    0  502 -0.16273490305E+02 -0.12592744002E+04 -0.12843937050E+04  0.17988067278E+04  0.12699999809E+01 0. -1.
</event>
<event>
 5   0  0.9810351E-08  0.3301894E+04  0.7818609E-02  0.8162414E-01
        1   -1    0    0  501    0  0.00000000000E+00  0.00000000000E+00  0.16073156788E+04  0.16073156788E+04  0.50400001928E-02 0. -1.
       -1   -1    0    0    0  501  0.00000000000E+00  0.00000000000E+00 -0.16957624329E+04  0.16957624329E+04  0.50400001928E-02 0.  1.
    10030    2    1    2    0    0  0.00000000000E+00  0.00000000000E+00 -0.88446754104E+02  0.33030781118E+04  0.33018937270E+04 0.  0.
        5    1    3    3  502    0  0.37729717418E+03 -0.56608225101E+03 -0.15490239625E+04  0.16918332066E+04  0.46999998093E+01 0.  1.
       -5    1    3    3    0  502 -0.37729717418E+03  0.56608225101E+03  0.14605772084E+04  0.16112449051E+04  0.46999998093E+01 0. -1.
</event>
<event>
 5   0  0.2875829E-07  0.3295113E+04  0.7818609E-02  0.8164140E-01
       -2   -1    0    0    0  501  0.00000000000E+00  0.00000000000E+00  0.25230504258E+04  0.25230504258E+04  0.25500000920E-02 0.  1.
        2   -1    0    0  501    0  0.00000000000E+00  0.00000000000E+00 -0.10758571667E+04  0.10758571667E+04  0.25500000920E-02 0. -1.
    10030    2    1    2    0    0  0.00000000000E+00  0.00000000000E+00  0.14471932592E+04  0.35989075925E+04  0.32951126733E+04 0.  0.
        3    1    3    3  502    0  0.40506395025E+03  0.14964583093E+04  0.13326635008E+04  0.20443718576E+04  0.10100000352E+00 0. -1.
       -3    1    3    3    0  502 -0.40506395025E+03 -0.14964583093E+04  0.11452975834E+03  0.15545357349E+04  0.10100000352E+00 0.  1.
</event>
<event>
 5   0  0.9181760E-08  0.3298910E+04  0.7818609E-02  0.8163173E-01
        1   -1    0    0  501    0  0.00000000000E+00  0.00000000000E+00  0.18893774444E+04  0.18893774444E+04  0.50400001928E-02 0. -1.
       -1   -1    0    0    0  501  0.00000000000E+00  0.00000000000E+00 -0.14399991820E+04  0.14399991820E+04  0.50400001928E-02 0.  1.
    10030    2    1    2    0    0  0.00000000000E+00  0.00000000000E+00  0.44937826238E+03  0.33293766264E+04  0.32989101076E+04 0.  0.
        1    1    3    3  502    0  0.24325809310E+03  0.14257628307E+04 -0.57555737228E+03  0.15566760864E+04  0.50400001928E-02 0.  1.
       -1    1    3    3    0  502 -0.24325809310E+03 -0.14257628307E+04  0.10249356347E+04  0.17727005400E+04  0.50400001928E-02 0. -1.
</event>
<event>
 5   0  0.2824402E-07  0.3303592E+04  0.7818609E-02  0.8161982E-01
       -2   -1    0    0    0  501  0.00000000000E+00  0.00000000000E+00  0.17553587442E+04  0.17553587442E+04  0.25500000920E-02 0.  1.
        2   -1    0    0  501    0  0.00000000000E+00  0.00000000000E+00 -0.15543433181E+04  0.15543433181E+04  0.25500000920E-02 0. -1.
    10030    2    1    2    0    0  0.00000000000E+00  0.00000000000E+00  0.20101542608E+03  0.33097020623E+04  0.33035920662E+04 0.  0.
        1    1    3    3  502    0  0.14499765325E+04  0.75150990724E+03  0.34841445479E+03  0.16699076974E+04  0.50400001928E-02 0.  1.
       -1    1    3    3    0  502 -0.14499765325E+04 -0.75150990724E+03 -0.14739902871E+03  0.16397943649E+04  0.50400001928E-02 0. -1.
</event>
<event>
 5   0  0.8805125E-08  0.3302706E+04  0.7818609E-02  0.8162207E-01
       -1   -1    0    0    0  501  0.00000000000E+00  0.00000000000E+00  0.11959358122E+04  0.11959358122E+04  0.50400001928E-02 0.  1.
        1   -1    0    0  501    0  0.00000000000E+00  0.00000000000E+00 -0.22801946836E+04  0.22801946836E+04  0.50400001928E-02 0. -1.
    10030    2    1    2    0    0  0.00000000000E+00  0.00000000000E+00 -0.10842588714E+04  0.34761304958E+04  0.33027058488E+04 0.  0.
        4    1    3    3  502    0 -0.69869751174E+03 -0.98197648112E+03  0.64609260283E+03  0.13674404143E+04  0.12699999809E+01 0.  1.
       -4    1    3    3    0  502  0.69869751174E+03  0.98197648112E+03 -0.17303514742E+04  0.21086900815E+04  0.12699999809E+01 0. -1.
</event>
<event>
 5   0  0.9810351E-08  0.3244711E+04  0.7818609E-02  0.8177108E-01
       -1   -1    0    0    0  501  0.00000000000E+00  0.00000000000E+00  0.14358501400E+04  0.14358501401E+04  0.50400001928E-02 0. -1.
        1   -1    0    0  501    0  0.00000000000E+00  0.00000000000E+00 -0.18330861377E+04  0.18330861377E+04  0.50400001928E-02 0.  1.
    10030    2    1    2    0    0  0.00000000000E+00  0.00000000000E+00 -0.39723599769E+03  0.32689362778E+04  0.32447107653E+04 0.  0.
        5    1    3    3  502    0  0.15532184021E+04  0.44610900444E+03 -0.54320674137E+02  0.16169333548E+04  0.46999998093E+01 0.  1.
       -5    1    3    3    0  502 -0.15532184021E+04 -0.44610900444E+03 -0.34291532355E+03  0.16520029230E+04  0.46999998093E+01 0. -1.
</event>
<event>
 5   0  0.9454010E-08  0.3301487E+04  0.7818609E-02  0.8162517E-01
        1   -1    0    0  501    0  0.00000000000E+00  0.00000000000E+00  0.34568058262E+04  0.34568058262E+04  0.50400001928E-02 0.  1.
       -1   -1    0    0    0  501  0.00000000000E+00  0.00000000000E+00 -0.78828674965E+03  0.78828674967E+03  0.50400001928E-02 0. -1.
    10030    2    1    2    0    0  0.00000000000E+00  0.00000000000E+00  0.26685190766E+04  0.42450925759E+04  0.33014870764E+04 0.  0.
        2    1    3    3  502    0 -0.12766712630E+04 -0.92283447615E+03  0.69984278332E+03  0.17237438631E+04  0.25500000920E-02 0.  1.
       -2    1    3    3    0  502  0.12766712630E+04  0.92283447615E+03  0.19686762932E+04  0.25213487128E+04  0.25500000920E-02 0. -1.
</event>
<event>
 5   0  0.8805125E-08  0.3293080E+04  0.7818609E-02  0.8164658E-01
       -1   -1    0    0    0  501  0.00000000000E+00  0.00000000000E+00  0.13000451680E+04  0.13000451681E+04  0.50400001928E-02 0.  1.
        1   -1    0    0  501    0  0.00000000000E+00  0.00000000000E+00 -0.20853843144E+04  0.20853843144E+04  0.50400001928E-02 0. -1.
    10030    2    1    2    0    0  0.00000000000E+00  0.00000000000E+00 -0.78533914634E+03  0.33854294824E+04  0.32930798967E+04 0.  0.
        4    1    3    3  502    0  0.55141639617E+03 -0.35513440509E+03  0.11599524455E+04  0.13325433488E+04  0.12699999809E+01 0.  1.
       -4    1    3    3    0  502 -0.55141639617E+03  0.35513440509E+03 -0.19452915918E+04  0.20528861337E+04  0.12699999809E+01 0. -1.
</event>
<event>
 5   0  0.9810351E-08  0.3268398E+04  0.7818609E-02  0.8170983E-01
        1   -1    0    0  501    0  0.00000000000E+00  0.00000000000E+00  0.18367532615E+04  0.18367532615E+04  0.50400001928E-02 0.  1.
       -1   -1    0    0    0  501  0.00000000000E+00  0.00000000000E+00 -0.14539825029E+04  0.14539825029E+04  0.50400001928E-02 0. -1.
    10030    2    1    2    0    0  0.00000000000E+00  0.00000000000E+00  0.38277075861E+03  0.32907357645E+04  0.32683984485E+04 0.  0.
        5    1    3    3  502    0  0.43294916924E+03 -0.10719571112E+04  0.13542890487E+04  0.17806341423E+04  0.46999998093E+01 0.  1.
       -5    1    3    3    0  502 -0.43294916924E+03  0.10719571112E+04 -0.97151829005E+03  0.15101016222E+04  0.46999998093E+01 0. -1.
</event>
<event>
 5   0  0.2727168E-07  0.3301431E+04  0.7818609E-02  0.8162531E-01
       -2   -1    0    0    0  501  0.00000000000E+00  0.00000000000E+00  0.15356863824E+04  0.15356863824E+04  0.25500000920E-02 0. -1.
        2   -1    0    0  501    0  0.00000000000E+00  0.00000000000E+00 -0.17743611955E+04  0.17743611955E+04  0.25500000920E-02 0.  1.
    10030    2    1    2    0    0  0.00000000000E+00  0.00000000000E+00 -0.23867481308E+03  0.33100475780E+04  0.33014314020E+04 0.  0.
        2    1    3    3  502    0  0.55255717203E+03 -0.15226493881E+04 -0.43810070263E+03  0.16780085855E+04  0.25500000920E-02 0.  1.
       -2    1    3    3    0  502 -0.55255717203E+03  0.15226493881E+04  0.19942588956E+03  0.16320389924E+04  0.25500000920E-02 0. -1.
</event>
<event>
 5   0  0.9181760E-08  0.3300021E+04  0.7818609E-02  0.8162890E-01
       -1   -1    0    0    0  501  0.00000000000E+00  0.00000000000E+00  0.17723248259E+04  0.17723248259E+04  0.50400001928E-02 0. -1.
        1   -1    0    0  501    0  0.00000000000E+00  0.00000000000E+00 -0.15361374295E+04  0.15361374295E+04  0.50400001928E-02 0.  1.
    10030    2    1    2    0    0  0.00000000000E+00  0.00000000000E+00  0.23618739643E+03  0.33084622555E+04  0.33000209105E+04 0.  0.
        1    1    3    3  502    0 -0.12914658865E+04 -0.85569093500E+03 -0.45119981062E+03  0.16135899049E+04  0.50400001928E-02 0. -1.
       -1    1    3    3    0  502  0.12914658865E+04  0.85569093500E+03  0.68738720705E+03  0.16948723505E+04  0.50400001928E-02 0.  1.
</event>
<event>
 5   0  0.9181760E-08  0.3301689E+04  0.7818609E-02  0.8162466E-01
        1   -1    0    0  501    0  0.00000000000E+00  0.00000000000E+00  0.11933165289E+04  0.11933165289E+04  0.50400001928E-02 0.  1.
       -1   -1    0    0    0  501  0.00000000000E+00  0.00000000000E+00 -0.22837929176E+04  0.22837929176E+04  0.50400001928E-02 0. -1.
    10030    2    1    2    0    0  0.00000000000E+00  0.00000000000E+00 -0.10904763887E+04  0.34771094465E+04  0.33016891659E+04 0.  0.
        1    1    3    3  502    0 -0.64917760223E+03 -0.26102057205E+03 -0.21199146100E+04  0.22323980944E+04  0.50400001928E-02 0. -1.
       -1    1    3    3    0  502  0.64917760223E+03  0.26102057205E+03  0.10294382214E+04  0.12447113520E+04  0.50400001928E-02 0.  1.
</event>
<event>
 5   0  0.9181760E-08  0.3283384E+04  0.7818609E-02  0.8167136E-01
       -1   -1    0    0    0  501  0.00000000000E+00  0.00000000000E+00  0.17971886850E+04  0.17971886850E+04  0.50400001928E-02 0.  1.
        1   -1    0    0  501    0  0.00000000000E+00  0.00000000000E+00 -0.14996489734E+04  0.14996489734E+04  0.50400001928E-02 0. -1.
    10030    2    1    2    0    0  0.00000000000E+00  0.00000000000E+00  0.29753971157E+03  0.32968376584E+04  0.32833837220E+04 0.  0.
        1    1    3    3  502    0 -0.14794942605E+04 -0.62012161021E+03  0.49905183864E+03  0.16800317902E+04  0.50400001928E-02 0.  1.
       -1    1    3    3    0  502  0.14794942605E+04  0.62012161021E+03 -0.20151212707E+03  0.16168058683E+04  0.50400001928E-02 0. -1.
</event>
<event>
 5   0  0.2713815E-07  0.3299562E+04  0.7818609E-02  0.8163007E-01
        2   -1    0    0  501    0  0.00000000000E+00  0.00000000000E+00  0.14454311932E+04  0.14454311932E+04  0.25500000920E-02 0.  1.
       -2   -1    0    0    0  501  0.00000000000E+00  0.00000000000E+00 -0.18830215681E+04  0.18830215681E+04  0.25500000920E-02 0. -1.
    10030    2    1    2    0    0  0.00000000000E+00  0.00000000000E+00 -0.43759037493E+03  0.33284527613E+04  0.32995624631E+04 0.  0.
        4    1    3    3  502    0 -0.61344865216E+03 -0.80045384223E+03 -0.15358806602E+04  0.18373830895E+04  0.12699999809E+01 0. -1.
       -4    1    3    3    0  502  0.61344865216E+03  0.80045384223E+03  0.10982902853E+04  0.14910696718E+04  0.12699999809E+01 0.  1.
</event>
<event>
 5   0  0.9283910E-08  0.3312887E+04  0.7818609E-02  0.8159624E-01
        1   -1    0    0  501    0  0.00000000000E+00  0.00000000000E+00  0.19008713295E+04  0.19008713295E+04  0.50400001928E-02 0. -1.
       -1   -1    0    0    0  501  0.00000000000E+00  0.00000000000E+00 -0.14434462213E+04  0.14434462213E+04  0.50400001928E-02 0.  1.
    10030    2    1    2    0    0  0.00000000000E+00  0.00000000000E+00  0.45742510814E+03  0.33443175508E+04  0.33128872832E+04 0.  0.
        3    1    3    3  502    0  0.33363119675E+03  0.16149121014E+04  0.70526649593E+02  0.16505226110E+04  0.10100000352E+00 0.  1.
       -3    1    3    3    0  502 -0.33363119675E+03 -0.16149121014E+04  0.38689845855E+03  0.16937949399E+04  0.10100000352E+00 0. -1.
</event>
<event>
 5   0  0.2713815E-07  0.3262941E+04  0.7818609E-02  0.8172390E-01
        2   -1    0    0  501    0  0.00000000000E+00  0.00000000000E+00  0.25313198217E+04  0.25313198217E+04  0.25500000920E-02 0. -1.
       -2   -1    0    0    0  501  0.00000000000E+00  0.00000000000E+00 -0.10515050350E+04  0.10515050350E+04  0.25500000920E-02 0.  1.
    10030    2    1    2    0    0  0.00000000000E+00  0.00000000000E+00  0.14798147868E+04  0.35828248567E+04  0.32629407213E+04 0.  0.
        4    1    3    3  502    0 -0.90250606081E+03  0.13530035131E+04  0.88120126683E+03  0.18497710620E+04  0.12699999809E+01 0. -1.
       -4    1    3    3    0  502  0.90250606081E+03 -0.13530035131E+04  0.59861351993E+03  0.17330537947E+04  0.12699999809E+01 0.  1.
</event>
<event>
 5   0  0.2875829E-07  0.3316533E+04  0.7818609E-02  0.8158701E-01
        2   -1    0    0  501    0  0.00000000000E+00  0.00000000000E+00  0.21789457001E+04  0.21789457001E+04  0.25500000920E-02 0. -1.
       -2   -1    0    0    0  501  0.00000000000E+00  0.00000000000E+00 -0.12620087770E+04  0.12620087770E+04  0.25500000920E-02 0.  1.
    10030    2    1    2    0    0  0.00000000000E+00  0.00000000000E+00  0.91693692313E+03  0.34409544771E+04  0.33165334904E+04 0.  0.
        3    1    3    3  502    0 -0.74988690656E+03  0.89535235196E+03  0.16798591169E+04  0.20459503586E+04  0.10100000352E+00 0. -1.
       -3    1    3    3    0  502  0.74988690656E+03 -0.89535235196E+03 -0.76292219381E+03  0.13950041186E+04  0.10100000352E+00 0.  1.
</event>
<event>
 5   0  0.2824402E-07  0.3303411E+04  0.7818609E-02  0.8162028E-01
       -2   -1    0    0    0  501  0.00000000000E+00  0.00000000000E+00  0.16422385006E+04  0.16422385006E+04  0.25500000920E-02 0. -1.
        2   -1    0    0  501    0  0.00000000000E+00  0.00000000000E+00 -0.16612267089E+04  0.16612267089E+04  0.25500000920E-02 0.  1.
    10030    2    1    2    0    0  0.00000000000E+00  0.00000000000E+00 -0.18988208256E+02  0.33034652095E+04  0.33034106373E+04 0.  0.
        1    1    3    3  502    0 -0.68139139813E+03  0.10904178458E+04 -0.10462489720E+04  0.16576918373E+04  0.50400001928E-02 0.  1.
       -1    1    3    3    0  502  0.68139139813E+03 -0.10904178458E+04  0.10272607638E+04  0.16457733722E+04  0.50400001928E-02 0. -1.
</event>
<event>
 5   0  0.2713815E-07  0.3307016E+04  0.7818609E-02  0.8161112E-01
        2   -1    0    0  501    0  0.00000000000E+00  0.00000000000E+00  0.19985416392E+04  0.19985416392E+04  0.25500000920E-02 0. -1.
       -2   -1    0    0    0  501  0.00000000000E+00  0.00000000000E+00 -0.13680418946E+04  0.13680418946E+04  0.25500000920E-02 0.  1.
    10030    2    1    2    0    0  0.00000000000E+00  0.00000000000E+00  0.63049974460E+03  0.33665835338E+04  0.33070159906E+04 0.  0.
        4    1    3    3  502    0 -0.13080745656E+04 -0.51661291389E+03 -0.56997569673E+03  0.15175051498E+04  0.12699999809E+01 0. -1.
       -4    1    3    3    0  502  0.13080745656E+04  0.51661291389E+03  0.12004754413E+04  0.18490783840E+04  0.12699999809E+01 0.  1.
</event>
<event>
 5   0  0.9283910E-08  0.3302729E+04  0.7818609E-02  0.8162201E-01
        1   -1    0    0  501    0  0.00000000000E+00  0.00000000000E+00  0.17875076953E+04  0.17875076953E+04  0.50400001928E-02 0.  1.
       -1   -1    0    0    0  501  0.00000000000E+00  0.00000000000E+00 -0.15255905617E+04  0.15255905617E+04  0.50400001928E-02 0. -1.
    10030    2    1    2    0    0  0.00000000000E+00  0.00000000000E+00  0.26191713354E+03  0.33130982570E+04  0.33027290951E+04 0.  0.
        3    1    3    3  502    0  0.24785778135E+03 -0.11366086905E+04  0.13066843934E+04  0.17494961873E+04  0.10100000352E+00 0.  1.
       -3    1    3    3    0  502 -0.24785778135E+03  0.11366086905E+04 -0.10447672598E+04  0.15636020698E+04  0.10100000352E+00 0. -1.
</event>
<event>
 5   0  0.2875829E-07  0.3306977E+04  0.7818609E-02  0.8161122E-01
        2   -1    0    0  501    0  0.00000000000E+00  0.00000000000E+00  0.23665994131E+04  0.23665994131E+04  0.25500000920E-02 0. -1.
       -2   -1    0    0    0  501  0.00000000000E+00  0.00000000000E+00 -0.11552539964E+04  0.11552539964E+04  0.25500000920E-02 0.  1.
    10030    2    1    2    0    0  0.00000000000E+00  0.00000000000E+00  0.12113454167E+04  0.35218534095E+04  0.33069765224E+04 0.  0.
        3    1    3    3  502    0  0.13355454776E+04  0.12486144656E+03  0.16353193475E+04  0.21150748172E+04  0.10100000352E+00 0. -1.
       -3    1    3    3    0  502 -0.13355454776E+04 -0.12486144656E+03 -0.42397393085E+03  0.14067785924E+04  0.10100000352E+00 0.  1.
</event>
<event>
 5   0  0.9283910E-08  0.3297592E+04  0.7818609E-02  0.8163508E-01
        1   -1    0    0  501    0  0.00000000000E+00  0.00000000000E+00  0.12696380555E+04  0.12696380555E+04  0.50400001928E-02 0.  1.
       -1   -1    0    0    0  501  0.00000000000E+00  0.00000000000E+00 -0.21411839097E+04  0.21411839097E+04  0.50400001928E-02 0. -1.
    10030    2    1    2    0    0  0.00000000000E+00  0.00000000000E+00 -0.87154585421E+03  0.34108219652E+04  0.32975921977E+04 0.  0.
        3    1    3    3  502    0 -0.37299815636E+03  0.47217199995E+02  0.12247075060E+04  0.12811188758E+04  0.10100000352E+00 0.  1.
       -3    1    3    3    0  502  0.37299815636E+03 -0.47217199995E+02 -0.20962533602E+04  0.21297030894E+04  0.10100000352E+00 0. -1.
</event>
<event>
 5   0  0.2713815E-07  0.3299281E+04  0.7818609E-02  0.8163078E-01
        2   -1    0    0  501    0  0.00000000000E+00  0.00000000000E+00  0.22663222795E+04  0.22663222795E+04  0.25500000920E-02 0. -1.
       -2   -1    0    0    0  501  0.00000000000E+00  0.00000000000E+00 -0.12007617478E+04  0.12007617478E+04  0.25500000920E-02 0.  1.
    10030    2    1    2    0    0  0.00000000000E+00  0.00000000000E+00  0.10655605317E+04  0.34670840273E+04  0.32992805891E+04 0.  0.
        4    1    3    3  502    0  0.60441088050E+02 -0.10086019483E+04  0.19030881921E+04  0.21546872847E+04  0.12699999809E+01 0. -1.
       -4    1    3    3    0  502 -0.60441088050E+02  0.10086019483E+04 -0.83752766037E+03  0.13123967426E+04  0.12699999809E+01 0.  1.
</event>
<event>
 5   0  0.2727168E-07  0.3301731E+04  0.7818609E-02  0.8162455E-01
       -2   -1    0    0    0  501  0.00000000000E+00  0.00000000000E+00  0.18616311618E+04  0.18616311618E+04  0.25500000920E-02 0. -1.
        2   -1    0    0  501    0  0.00000000000E+00  0.00000000000E+00 -0.14639619749E+04  0.14639619749E+04  0.25500000920E-02 0.  1.
    10030    2    1    2    0    0  0.00000000000E+00  0.00000000000E+00  0.39766918690E+03  0.33255931368E+04  0.33017312018E+04 0.  0.
        2    1    3    3  502    0 -0.90003393842E+03 -0.34044798482E+03  0.15499430459E+04  0.18243599881E+04  0.25500000920E-02 0. -1.
       -2    1    3    3    0  502  0.90003393842E+03  0.34044798482E+03 -0.11522738590E+04  0.15012331487E+04  0.25500000920E-02 0.  1.
</event>
<event>
 5   0  0.2824402E-07  0.3295536E+04  0.7818609E-02  0.8164032E-01
       -2   -1    0    0    0  501  0.00000000000E+00  0.00000000000E+00  0.11705726435E+04  0.11705726435E+04  0.25500000920E-02 0. -1.
        2   -1    0    0  501    0  0.00000000000E+00  0.00000000000E+00 -0.23194970013E+04  0.23194970013E+04  0.25500000920E-02 0.  1.
    10030    2    1    2    0    0  0.00000000000E+00  0.00000000000E+00 -0.11489243578E+04  0.34900696448E+04  0.32955362151E+04 0.  0.
        1    1    3    3  502    0  0.36819514086E+03  0.39696997708E+03  0.10736770664E+04  0.12024704851E+04  0.50400001928E-02 0. -1.
       -1    1    3    3    0  502 -0.36819514086E+03 -0.39696997708E+03 -0.22226014242E+04  0.22875991597E+04  0.50400001928E-02 0.  1.
</event>
<event>
 5   0  0.2875829E-07  0.3296063E+04  0.7818609E-02  0.8163898E-01
       -2   -1    0    0    0  501  0.00000000000E+00  0.00000000000E+00  0.14290823519E+04  0.14290823519E+04  0.25500000920E-02 0. -1.
        2   -1    0    0  501    0  0.00000000000E+00  0.00000000000E+00 -0.19005261607E+04  0.19005261607E+04  0.25500000920E-02 0.  1.
    10030    2    1    2    0    0  0.00000000000E+00  0.00000000000E+00 -0.47144380885E+03  0.33296085126E+04  0.32960633462E+04 0.  0.
        3    1    3    3  502    0 -0.58126258579E+03 -0.15135431031E+04  0.62801254193E+02  0.16225359553E+04  0.10100000352E+00 0.  1.
       -3    1    3    3    0  502  0.58126258579E+03  0.15135431031E+04 -0.53424506305E+03  0.17070725573E+04  0.10100000352E+00 0. -1.
</event>
<event>
 5   0  0.2727168E-07  0.3292573E+04  0.7818609E-02  0.8164788E-01
        2   -1    0    0  501    0  0.00000000000E+00  0.00000000000E+00  0.15689231951E+04  0.15689231951E+04  0.25500000920E-02 0. -1.
       -2   -1    0    0    0  501  0.00000000000E+00  0.00000000000E+00 -0.17274642833E+04  0.17274642833E+04  0.25500000920E-02 0.  1.
    10030    2    1    2    0    0  0.00000000000E+00  0.00000000000E+00 -0.15854108820E+03  0.32963874784E+04  0.32925727222E+04 0.  0.
        2    1    3    3  502    0 -0.74390258693E+03  0.26545256619E+03  0.13668415015E+04  0.15786423958E+04  0.25500000920E-02 0. -1.
       -2    1    3    3    0  502  0.74390258693E+03 -0.26545256619E+03 -0.15253825897E+04  0.17177450826E+04  0.25500000920E-02 0.  1.
</event>
<event>
 5   0  0.8805125E-08  0.3287638E+04  0.7818609E-02  0.8166048E-01
       -1   -1    0    0    0  501  0.00000000000E+00  0.00000000000E+00  0.11357297774E+04  0.11357297775E+04  0.50400001928E-02 0. -1.
        1   -1    0    0  501    0  0.00000000000E+00  0.00000000000E+00 -0.23792113573E+04  0.23792113573E+04  0.50400001928E-02 0.  1.
    10030    2    1    2    0    0  0.00000000000E+00  0.00000000000E+00 -0.12434815799E+04  0.35149411348E+04  0.32876381707E+04 0.  0.
        4    1    3    3  502    0  0.10702495724E+04 -0.63985551330E+02  0.71044688043E+03  0.12861822113E+04  0.12699999809E+01 0. -1.
       -4    1    3    3    0  502 -0.10702495724E+04  0.63985551330E+02 -0.19539284603E+04  0.22287589235E+04  0.12699999809E+01 0.  1.
</event>
<event>
 5   0  0.9454010E-08  0.3298371E+04  0.7818609E-02  0.8163310E-01
        1   -1    0    0  501    0  0.00000000000E+00  0.00000000000E+00  0.11371507190E+04  0.11371507190E+04  0.50400001928E-02 0.  1.
       -1   -1    0    0    0  501  0.00000000000E+00  0.00000000000E+00 -0.23917788096E+04  0.23917788096E+04  0.50400001928E-02 0. -1.
    10030    2    1    2    0    0  0.00000000000E+00  0.00000000000E+00 -0.12546280906E+04  0.35289295286E+04  0.32983711089E+04 0.  0.
        2    1    3    3  502    0  0.12989639212E+03 -0.15405835962E+04 -0.13129445214E+02  0.15461058411E+04  0.25500000920E-02 0. -1.
       -2    1    3    3    0  502 -0.12989639212E+03  0.15405835962E+04 -0.12414986454E+04  0.19828236876E+04  0.25500000920E-02 0.  1.
</event>
<event>
 5   0  0.8805125E-08  0.3300478E+04  0.7818609E-02  0.8162774E-01
       -1   -1    0    0    0  501  0.00000000000E+00  0.00000000000E+00  0.12528104227E+04  0.12528104227E+04  0.50400001928E-02 0. -1.
        1   -1    0    0  501    0  0.00000000000E+00  0.00000000000E+00 -0.21737440908E+04  0.21737440908E+04  0.50400001928E-02 0.  1.
    10030    2    1    2    0    0  0.00000000000E+00  0.00000000000E+00 -0.92093366814E+03  0.34265545135E+04  0.33004783006E+04 0.  0.
        4    1    3    3  502    0 -0.71741007682E+03  0.10509304004E+04  0.63046075773E+03  0.14200754574E+04  0.12699999809E+01 0. -1.
       -4    1    3    3    0  502  0.71741007682E+03 -0.10509304004E+04 -0.15513944259E+04  0.20064790561E+04  0.12699999809E+01 0.  1.
</event>
<event>
 5   0  0.9810351E-08  0.3300593E+04  0.7818609E-02  0.8162744E-01
       -1   -1    0    0    0  501  0.00000000000E+00  0.00000000000E+00  0.15799920622E+04  0.15799920622E+04  0.50400001928E-02 0.  1.
        1   -1    0    0  501    0  0.00000000000E+00  0.00000000000E+00 -0.17237295663E+04  0.17237295663E+04  0.50400001928E-02 0. -1.
    10030    2    1    2    0    0  0.00000000000E+00  0.00000000000E+00 -0.14373750412E+03  0.33037216285E+04  0.33005932994E+04 0.  0.
        5    1    3    3  502    0 -0.11138323379E+04  0.10320357624E+04  0.57506933921E+03  0.16237139916E+04  0.46999998093E+01 0.  1.
       -5    1    3    3    0  502  0.11138323379E+04 -0.10320357624E+04 -0.71880684333E+03  0.16800076368E+04  0.46999998093E+01 0. -1.
</event>
<event>
 5   0  0.9810351E-08  0.3300116E+04  0.7818609E-02  0.8162866E-01
        1   -1    0    0  501    0  0.00000000000E+00  0.00000000000E+00  0.15103785459E+04  0.15103785459E+04  0.50400001928E-02 0. -1.
       -1   -1    0    0    0  501  0.00000000000E+00  0.00000000000E+00 -0.18026551317E+04  0.18026551317E+04  0.50400001928E-02 0.  1.
    10030    2    1    2    0    0  0.00000000000E+00  0.00000000000E+00 -0.29227658583E+03  0.33130336776E+04  0.33001161414E+04 0.  0.
        5    1    3    3  502    0 -0.20313717154E+03 -0.12827405542E+04 -0.11679541258E+04  0.17466616644E+04  0.46999998093E+01 0.  1.
       -5    1    3    3    0  502  0.20313717154E+03  0.12827405542E+04  0.87567753994E+03  0.15663720132E+04  0.46999998093E+01 0. -1.
</event>
<event>
 5   0  0.2875829E-07  0.3299916E+04  0.7818609E-02  0.8162917E-01
        2   -1    0    0  501    0  0.00000000000E+00  0.00000000000E+00  0.21625278274E+04  0.21625278274E+04  0.25500000920E-02 0.  1.
       -2   -1    0    0    0  501  0.00000000000E+00  0.00000000000E+00 -0.12588794141E+04  0.12588794141E+04  0.25500000920E-02 0. -1.
    10030    2    1    2    0    0  0.00000000000E+00  0.00000000000E+00  0.90364841330E+03  0.34214072415E+04  0.32999162197E+04 0.  0.
        3    1    3    3  502    0 -0.13404143992E+04  0.79385526445E+03  0.10153840507E+04  0.18595487955E+04  0.10100000352E+00 0. -1.
       -3    1    3    3    0  502  0.13404143992E+04 -0.79385526445E+03 -0.11173563737E+03  0.15618584460E+04  0.10100000352E+00 0.  1.
</event>
<event>
 5   0  0.2875829E-07  0.3298554E+04  0.7818609E-02  0.8163263E-01
        2   -1    0    0  501    0  0.00000000000E+00  0.00000000000E+00  0.20583668884E+04  0.20583668884E+04  0.25500000920E-02 0.  1.
       -2   -1    0    0    0  501  0.00000000000E+00  0.00000000000E+00 -0.13214914766E+04  0.13214914766E+04  0.25500000920E-02 0. -1.
    10030    2    1    2    0    0  0.00000000000E+00  0.00000000000E+00  0.73687541177E+03  0.33798583651E+04  0.32985538036E+04 0.  0.
        3    1    3    3  502    0  0.10311815541E+03 -0.30849223127E+03  0.20251754245E+04  0.20511304983E+04  0.10100000352E+00 0.  1.
       -3    1    3    3    0  502 -0.10311815541E+03  0.30849223127E+03 -0.12883000128E+04  0.13287278667E+04  0.10100000352E+00 0. -1.
</event>
<event>
 5   0  0.8805125E-08  0.3295815E+04  0.7818609E-02  0.8163961E-01
       -3   -1    0    0    0  501  0.00000000000E+00  0.00000000000E+00  0.20290753217E+04  0.20290753242E+04  0.10100000352E+00 0. -1.
        3   -1    0    0  501    0  0.00000000000E+00  0.00000000000E+00 -0.13383435259E+04  0.13383435297E+04  0.10100000352E+00 0.  1.
    10030    2    1    2    0    0  0.00000000000E+00  0.00000000000E+00  0.69073179580E+03  0.33674188539E+04  0.32958154263E+04 0.  0.
        1    1    3    3  502    0 -0.64043443051E+03 -0.12886455868E+04 -0.47509697997E+03  0.15154144148E+04  0.50400001928E-02 0.  1.
       -1    1    3    3    0  502  0.64043443051E+03  0.12886455868E+04  0.11658287758E+04  0.18520044391E+04  0.50400001928E-02 0. -1.
</event>
<event>
 5   0  0.2824402E-07  0.3294081E+04  0.7818609E-02  0.8164403E-01
        2   -1    0    0  501    0  0.00000000000E+00  0.00000000000E+00  0.20045210025E+04  0.20045210025E+04  0.25500000920E-02 0.  1.
       -2   -1    0    0    0  501  0.00000000000E+00  0.00000000000E+00 -0.13533120138E+04  0.13533120138E+04  0.25500000920E-02 0. -1.
    10030    2    1    2    0    0  0.00000000000E+00  0.00000000000E+00  0.65120898867E+03  0.33578330163E+04  0.32940809672E+04 0.  0.
        1    1    3    3  502    0  0.15473431134E+04 -0.20713931597E+03  0.86070678767E+03  0.17826927893E+04  0.50400001928E-02 0.  1.
       -1    1    3    3    0  502 -0.15473431134E+04  0.20713931597E+03 -0.20949779900E+03  0.15751402270E+04  0.50400001928E-02 0. -1.
</event>
<event>
 5   0  0.9454010E-08  0.3303855E+04  0.7818609E-02  0.8161915E-01
       -1   -1    0    0    0  501  0.00000000000E+00  0.00000000000E+00  0.11155182897E+04  0.11155182897E+04  0.50400001928E-02 0. -1.
        1   -1    0    0  501    0  0.00000000000E+00  0.00000000000E+00 -0.24462755362E+04  0.24462755362E+04  0.50400001928E-02 0.  1.
    10030    2    1    2    0    0  0.00000000000E+00  0.00000000000E+00 -0.13307572465E+04  0.35617938259E+04  0.33038553856E+04 0.  0.
        2    1    3    3  502    0  0.88688500664E+03 -0.46645710193E+03  0.75043725178E+03  0.12519198504E+04  0.25500000920E-02 0. -1.
       -2    1    3    3    0  502 -0.88688500664E+03  0.46645710193E+03 -0.20811944983E+04  0.23098739755E+04  0.25500000920E-02 0.  1.
</event>
<event>
 5   0  0.2875829E-07  0.3296417E+04  0.7818609E-02  0.8163808E-01
        2   -1    0    0  501    0  0.00000000000E+00  0.00000000000E+00  0.19313023073E+04  0.19313023073E+04  0.25500000920E-02 0.  1.
       -2   -1    0    0    0  501  0.00000000000E+00  0.00000000000E+00 -0.14066109695E+04  0.14066109695E+04  0.25500000920E-02 0. -1.
    10030    2    1    2    0    0  0.00000000000E+00  0.00000000000E+00  0.52469133787E+03  0.33379132768E+04  0.32964168492E+04 0.  0.
        3    1    3    3  502    0  0.88445304272E+03 -0.10673865121E+03 -0.11418119694E+04  0.14482351011E+04  0.10100000352E+00 0. -1.
       -3    1    3    3    0  502 -0.88445304272E+03  0.10673865121E+03  0.16665033073E+04  0.18896781757E+04  0.10100000352E+00 0.  1.
</event>
<event>
 5   0  0.2713815E-07  0.3305664E+04  0.7818609E-02  0.8161456E-01
       -2   -1    0    0    0  501  0.00000000000E+00  0.00000000000E+00  0.11398704498E+04  0.11398704498E+04  0.25500000920E-02 0.  1.
        2   -1    0    0  501    0  0.00000000000E+00  0.00000000000E+00 -0.23966352105E+04  0.23966352105E+04  0.25500000920E-02 0. -1.
    10030    2    1    2    0    0  0.00000000000E+00  0.00000000000E+00 -0.12567647607E+04  0.35365056603E+04  0.33056640213E+04 0.  0.
        4    1    3    3  502    0  0.11218577342E+04  0.37996658850E+03  0.60490380189E+03  0.13299810550E+04  0.12699999809E+01 0.  1.
       -4    1    3    3    0  502 -0.11218577342E+04 -0.37996658850E+03 -0.18616685626E+04  0.22065246054E+04  0.12699999809E+01 0. -1.
</event>
<event>
 5   0  0.2703956E-07  0.3301279E+04  0.7818609E-02  0.8162570E-01
       -2   -1    0    0    0  501  0.00000000000E+00  0.00000000000E+00  0.88292373729E+03  0.88292373729E+03  0.25500000920E-02 0.  1.
        2   -1    0    0  501    0  0.00000000000E+00  0.00000000000E+00 -0.30858956798E+04  0.30858956798E+04  0.25500000920E-02 0. -1.
    10030    2    1    2    0    0  0.00000000000E+00  0.00000000000E+00 -0.22029719425E+04  0.39688194171E+04  0.33012788713E+04 0.  0.
        5    1    3    3  502    0  0.12712914407E+04 -0.72867124861E+03 -0.18793172294E+03  0.14773233019E+04  0.46999998093E+01 0.  1.
       -5    1    3    3    0  502 -0.12712914407E+04  0.72867124861E+03 -0.20150402195E+04  0.24914961152E+04  0.46999998093E+01 0. -1.
</event>
<event>
 5   0  0.9181760E-08  0.3299300E+04  0.7818609E-02  0.8163074E-01
       -1   -1    0    0    0  501  0.00000000000E+00  0.00000000000E+00  0.19061300358E+04  0.19061300358E+04  0.50400001928E-02 0.  1.
        1   -1    0    0  501    0  0.00000000000E+00  0.00000000000E+00 -0.14276804753E+04  0.14276804753E+04  0.50400001928E-02 0. -1.
    10030    2    1    2    0    0  0.00000000000E+00  0.00000000000E+00  0.47844956050E+03  0.33338105112E+04  0.32992997049E+04 0.  0.
        1    1    3    3  502    0 -0.16393626246E+04 -0.44544555918E+02  0.41955892856E+03  0.16927857889E+04  0.50400001928E-02 0.  1.
       -1    1    3    3    0  502  0.16393626246E+04  0.44544555918E+02  0.58890631937E+02  0.16410247223E+04  0.50400001928E-02 0. -1.
</event>
<event>
 5   0  0.9283910E-08  0.3300573E+04  0.7818609E-02  0.8162750E-01
       -1   -1    0    0    0  501  0.00000000000E+00  0.00000000000E+00  0.23067947321E+04  0.23067947321E+04  0.50400001928E-02 0.  1.
        1   -1    0    0  501    0  0.00000000000E+00  0.00000000000E+00 -0.11806187709E+04  0.11806187709E+04  0.50400001928E-02 0. -1.
    10030    2    1    2    0    0  0.00000000000E+00  0.00000000000E+00  0.11261759612E+04  0.34874135031E+04  0.33005727754E+04 0.  0.
        3    1    3    3  502    0 -0.98865941020E+03 -0.13209429265E+04  0.52792486853E+03  0.17323516738E+04  0.10100000352E+00 0.  1.
       -3    1    3    3    0  502  0.98865941020E+03  0.13209429265E+04  0.59825109269E+03  0.17550618293E+04  0.10100000352E+00 0. -1.
</event>
<event>
 5   0  0.8805125E-08  0.3298825E+04  0.7818609E-02  0.8163194E-01
        1   -1    0    0  501    0  0.00000000000E+00  0.00000000000E+00  0.10332370366E+04  0.10332370366E+04  0.50400001928E-02 0. -1.
       -1   -1    0    0    0  501  0.00000000000E+00  0.00000000000E+00 -0.26330476622E+04  0.26330476622E+04  0.50400001928E-02 0.  1.
    10030    2    1    2    0    0  0.00000000000E+00  0.00000000000E+00 -0.15998106256E+04  0.36662846988E+04  0.32988254659E+04 0.  0.
        4    1    3    3  502    0  0.11392867328E+04 -0.10733734645E+04 -0.22192229886E+03  0.15809351579E+04  0.12699999809E+01 0. -1.
       -4    1    3    3    0  502 -0.11392867328E+04  0.10733734645E+04 -0.13778883268E+04  0.20853495409E+04  0.12699999809E+01 0.  1.
</event>
<event>
 5   0  0.9810351E-08  0.3298839E+04  0.7818609E-02  0.8163191E-01
        1   -1    0    0  501    0  0.00000000000E+00  0.00000000000E+00  0.19389364185E+04  0.19389364185E+04  0.50400001928E-02 0.  1.
       -1   -1    0    0    0  501  0.00000000000E+00  0.00000000000E+00 -0.14031323840E+04  0.14031323840E+04  0.50400001928E-02 0. -1.
    10030    2    1    2    0    0  0.00000000000E+00  0.00000000000E+00  0.53580403453E+03  0.33420688025E+04  0.32988388741E+04 0.  0.
        5    1    3    3  502    0 -0.12833266651E+03 -0.70805313156E+03  0.17715191654E+04  0.19120959060E+04  0.46999998093E+01 0.  1.
       -5    1    3    3    0  502  0.12833266651E+03  0.70805313156E+03 -0.12357151308E+04  0.14299728966E+04  0.46999998093E+01 0. -1.
</event>
<event>
 5   0  0.2875829E-07  0.3298000E+04  0.7818609E-02  0.8163404E-01
       -2   -1    0    0    0  501  0.00000000000E+00  0.00000000000E+00  0.12530835433E+04  0.12530835433E+04  0.25500000920E-02 0.  1.
        2   -1    0    0  501    0  0.00000000000E+00  0.00000000000E+00 -0.21700084022E+04  0.21700084022E+04  0.25500000920E-02 0. -1.
    10030    2    1    2    0    0  0.00000000000E+00  0.00000000000E+00 -0.91692485895E+03  0.34230919455E+04  0.32980004958E+04 0.  0.
        3    1    3    3  502    0  0.22532950019E+03 -0.95293578992E+03 -0.18355651914E+04  0.20804229342E+04  0.10100000352E+00 0. -1.
       -3    1    3    3    0  502 -0.22532950019E+03  0.95293578992E+03  0.91864033240E+03  0.13426690113E+04  0.10100000352E+00 0.  1.
</event>
<event>
 5   0  0.9454010E-08  0.3299064E+04  0.7818609E-02  0.8163134E-01
       -1   -1    0    0    0  501  0.00000000000E+00  0.00000000000E+00  0.19968864168E+04  0.19968864168E+04  0.50400001928E-02 0. -1.
        1   -1    0    0  501    0  0.00000000000E+00  0.00000000000E+00 -0.13625994641E+04  0.13625994641E+04  0.50400001928E-02 0.  1.
    10030    2    1    2    0    0  0.00000000000E+00  0.00000000000E+00  0.63428695270E+03  0.33594858809E+04  0.32990643289E+04 0.  0.
        2    1    3    3  502    0  0.58919534314E+03  0.13505790924E+04 -0.43788134345E+03  0.15371906545E+04  0.25500000920E-02 0. -1.
       -2    1    3    3    0  502 -0.58919534314E+03 -0.13505790924E+04  0.10721682962E+04  0.18222952265E+04  0.25500000920E-02 0.  1.
</event>
<event>
 5   0  0.8805125E-08  0.3297989E+04  0.7818609E-02  0.8163407E-01
        1   -1    0    0  501    0  0.00000000000E+00  0.00000000000E+00  0.19211103461E+04  0.19211103462E+04  0.50400001928E-02 0.  1.
       -1   -1    0    0    0  501  0.00000000000E+00  0.00000000000E+00 -0.14154226049E+04  0.14154226049E+04  0.50400001928E-02 0. -1.
    10030    2    1    2    0    0  0.00000000000E+00  0.00000000000E+00  0.50568774125E+03  0.33365329511E+04  0.32979890906E+04 0.  0.
        4    1    3    3  502    0  0.85378955281E+03 -0.61911200779E+03  0.15353044463E+04  0.18626372794E+04  0.12699999809E+01 0.  1.
       -4    1    3    3    0  502 -0.85378955281E+03  0.61911200779E+03 -0.10296167051E+04  0.14738956717E+04  0.12699999809E+01 0. -1.
</event>
<event>
 5   0  0.9283910E-08  0.3293494E+04  0.7818609E-02  0.8164553E-01
       -1   -1    0    0    0  501  0.00000000000E+00  0.00000000000E+00  0.14616613703E+04  0.14616613703E+04  0.50400001928E-02 0. -1.
        1   -1    0    0  501    0  0.00000000000E+00  0.00000000000E+00 -0.18552692411E+04  0.18552692411E+04  0.50400001928E-02 0.  1.
    10030    2    1    2    0    0  0.00000000000E+00  0.00000000000E+00 -0.39360787086E+03  0.33169306114E+04  0.32934938173E+04 0.  0.
        3    1    3    3  502    0  0.40264298394E+03  0.15924608119E+04 -0.78826997216E+02  0.16444654194E+04  0.10100000352E+00 0.  1.
       -3    1    3    3    0  502 -0.40264298394E+03 -0.15924608119E+04 -0.31478087365E+03  0.16724651920E+04  0.10100000352E+00 0. -1.
</event>
<event>
 5   0  0.8805125E-08  0.3299526E+04  0.7818609E-02  0.8163016E-01
        1   -1    0    0  501    0  0.00000000000E+00  0.00000000000E+00  0.20814428175E+04  0.20814428175E+04  0.50400001928E-02 0. -1.
       -1   -1    0    0    0  501  0.00000000000E+00  0.00000000000E+00 -0.13076116028E+04  0.13076116028E+04  0.50400001928E-02 0.  1.
    10030    2    1    2    0    0  0.00000000000E+00  0.00000000000E+00  0.77383121466E+03  0.33890544203E+04  0.32995264986E+04 0.  0.
        4    1    3    3  502    0  0.92300610715E+03 -0.13660359765E+04  0.44958424784E+03  0.17088364965E+04  0.12699999809E+01 0. -1.
       -4    1    3    3    0  502 -0.92300610715E+03  0.13660359765E+04  0.32424696682E+03  0.16802179238E+04  0.12699999809E+01 0.  1.
</event>
<event>
 5   0  0.2727168E-07  0.3277387E+04  0.7818609E-02  0.8168673E-01
        2   -1    0    0  501    0  0.00000000000E+00  0.00000000000E+00  0.27252453963E+04  0.27252453963E+04  0.25500000920E-02 0. -1.
       -2   -1    0    0    0  501  0.00000000000E+00  0.00000000000E+00 -0.98534860786E+03  0.98534860787E+03  0.25500000920E-02 0.  1.
    10030    2    1    2    0    0  0.00000000000E+00  0.00000000000E+00  0.17398967884E+04  0.37105940041E+04  0.32773872260E+04 0.  0.
        2    1    3    3  502    0  0.52772587770E+03  0.15083748246E+04  0.12807092693E+04  0.20479026945E+04  0.25500000920E-02 0. -1.
       -2    1    3    3    0  502 -0.52772587770E+03 -0.15083748246E+04  0.45918751915E+03  0.16626913097E+04  0.25500000920E-02 0.  1.
</event>
<event>
 5   0  0.2703956E-07  0.3299663E+04  0.7818609E-02  0.8162981E-01
        2   -1    0    0  501    0  0.00000000000E+00  0.00000000000E+00  0.29995751198E+04  0.29995751198E+04  0.25500000920E-02 0.  1.
       -2   -1    0    0    0  501  0.00000000000E+00  0.00000000000E+00 -0.90744295847E+03  0.90744295847E+03  0.25500000920E-02 0. -1.
    10030    2    1    2    0    0  0.00000000000E+00  0.00000000000E+00  0.20921321613E+04  0.39070180783E+04  0.32996626015E+04 0.  0.
        5    1    3    3  502    0 -0.36073133937E+03  0.35548488202E+03 -0.81311525773E+03  0.95795360686E+03  0.46999998093E+01 0. -1.
       -5    1    3    3    0  502  0.36073133937E+03 -0.35548488202E+03  0.29052474191E+04  0.29490644714E+04  0.46999998093E+01 0.  1.
</event>
<event>
 5   0  0.2875829E-07  0.3289613E+04  0.7818609E-02  0.8165543E-01
        2   -1    0    0  501    0  0.00000000000E+00  0.00000000000E+00  0.97948908654E+03  0.97948908654E+03  0.25500000920E-02 0.  1.
       -2   -1    0    0    0  501  0.00000000000E+00  0.00000000000E+00 -0.27620408072E+04  0.27620408072E+04  0.25500000920E-02 0. -1.
    10030    2    1    2    0    0  0.00000000000E+00  0.00000000000E+00 -0.17825517207E+04  0.37415298937E+04  0.32896132461E+04 0.  0.
        3    1    3    3  502    0 -0.14024893084E+04  0.10640633598E+03  0.78560668537E+02  0.14087123047E+04  0.10100000352E+00 0.  1.
       -3    1    3    3    0  502  0.14024893084E+04 -0.10640633598E+03 -0.18611123892E+04  0.23328175891E+04  0.10100000352E+00 0. -1.
</event>
<event>
 5   0  0.2703956E-07  0.3304328E+04  0.7818609E-02  0.8161795E-01
        2   -1    0    0  501    0  0.00000000000E+00  0.00000000000E+00  0.25561845641E+04  0.25561845641E+04  0.25500000920E-02 0. -1.
       -2   -1    0    0    0  501  0.00000000000E+00  0.00000000000E+00 -0.10678593734E+04  0.10678593734E+04  0.25500000920E-02 0.  1.
    10030    2    1    2    0    0  0.00000000000E+00  0.00000000000E+00  0.14883251907E+04  0.36240439376E+04  0.33043278572E+04 0.  0.
        5    1    3    3  502    0 -0.38880877078E+03 -0.69278197434E+03  0.23329480973E+04  0.24645056378E+04  0.46999998093E+01 0. -1.
       -5    1    3    3    0  502  0.38880877078E+03  0.69278197434E+03 -0.84462290658E+03  0.11595382997E+04  0.46999998093E+01 0.  1.
</event>
<event>
 5   0  0.8805125E-08  0.3298820E+04  0.7818609E-02  0.8163196E-01
        1   -1    0    0  501    0  0.00000000000E+00  0.00000000000E+00  0.22014636901E+04  0.22014636901E+04  0.50400001928E-02 0.  1.
       -1   -1    0    0    0  501  0.00000000000E+00  0.00000000000E+00 -0.12357928588E+04  0.12357928588E+04  0.50400001928E-02 0. -1.
    10030    2    1    2    0    0  0.00000000000E+00  0.00000000000E+00  0.96567083131E+03  0.34372565489E+04  0.32988198539E+04 0.  0.
        4    1    3    3  502    0  0.66365330911E+03 -0.12757629646E+04  0.13245376130E+04  0.19550980430E+04  0.12699999809E+01 0.  1.
       -4    1    3    3    0  502 -0.66365330911E+03  0.12757629646E+04 -0.35886678169E+03  0.14821585059E+04  0.12699999809E+01 0. -1.
</event>
<event>
 5   0  0.9810351E-08  0.3296921E+04  0.7818609E-02  0.8163679E-01
        1   -1    0    0  501    0  0.00000000000E+00  0.00000000000E+00  0.10714724374E+04  0.10714724375E+04  0.50400001928E-02 0.  1.
       -1   -1    0    0    0  501  0.00000000000E+00  0.00000000000E+00 -0.25361565786E+04  0.25361565786E+04  0.50400001928E-02 0. -1.
    10030    2    1    2    0    0  0.00000000000E+00  0.00000000000E+00 -0.14646841411E+04  0.36076290160E+04  0.32969209096E+04 0.  0.
        5    1    3    3  502    0 -0.53569170528E+03  0.88010455679E+03  0.67572667227E+03  0.12321437658E+04  0.46999998093E+01 0.  1.
       -5    1    3    3    0  502  0.53569170528E+03 -0.88010455679E+03 -0.21404108134E+04  0.23754852502E+04  0.46999998093E+01 0. -1.
</event>
<event>
 5   0  0.9283910E-08  0.3235844E+04  0.7818609E-02  0.8179414E-01
       -1   -1    0    0    0  501  0.00000000000E+00  0.00000000000E+00  0.98721614823E+03  0.98721614824E+03  0.50400001928E-02 0.  1.
        1   -1    0    0  501    0  0.00000000000E+00  0.00000000000E+00 -0.26515689197E+04  0.26515689197E+04  0.50400001928E-02 0. -1.
    10030    2    1    2    0    0  0.00000000000E+00  0.00000000000E+00 -0.16643527715E+04  0.36387850679E+04  0.32358440356E+04 0.  0.
        3    1    3    3  502    0 -0.10882417518E+04 -0.36319433757E+03 -0.21150665508E+04  0.24061767935E+04  0.10100000352E+00 0. -1.
       -3    1    3    3    0  502  0.10882417518E+04  0.36319433757E+03  0.45071377929E+03  0.12326082745E+04  0.10100000352E+00 0.  1.
</event>
<event>
 5   0  0.9810351E-08  0.3300131E+04  0.7818609E-02  0.8162862E-01
        1   -1    0    0  501    0  0.00000000000E+00  0.00000000000E+00  0.19348902304E+04  0.19348902304E+04  0.50400001928E-02 0. -1.
       -1   -1    0    0    0  501  0.00000000000E+00  0.00000000000E+00 -0.14071684813E+04  0.14071684813E+04  0.50400001928E-02 0.  1.
    10030    2    1    2    0    0  0.00000000000E+00  0.00000000000E+00  0.52772174914E+03  0.33420587117E+04  0.33001312380E+04 0.  0.
        5    1    3    3  502    0 -0.15183273164E+04  0.63773476847E+03  0.15924801724E+03  0.16545106514E+04  0.46999998093E+01 0.  1.
       -5    1    3    3    0  502  0.15183273164E+04 -0.63773476847E+03  0.36847373190E+03  0.16875480603E+04  0.46999998093E+01 0. -1.
</event>
<event>
 5   0  0.2727168E-07  0.3301363E+04  0.7818609E-02  0.8162549E-01
       -2   -1    0    0    0  501  0.00000000000E+00  0.00000000000E+00  0.12951014957E+04  0.12951014957E+04  0.25500000920E-02 0.  1.
        2   -1    0    0  501    0  0.00000000000E+00  0.00000000000E+00 -0.21038882447E+04  0.21038882447E+04  0.25500000920E-02 0. -1.
    10030    2    1    2    0    0  0.00000000000E+00  0.00000000000E+00 -0.80878674900E+03  0.33989897403E+04  0.33013626353E+04 0.  0.
        2    1    3    3  502    0 -0.10752864629E+04 -0.60703277634E+03  0.72345493021E+03  0.14311243150E+04  0.25500000920E-02 0.  1.
       -2    1    3    3    0  502  0.10752864629E+04  0.60703277634E+03 -0.15322416792E+04  0.19678654254E+04  0.25500000920E-02 0. -1.
</event>
<event>
 5   0  0.2875829E-07  0.3289972E+04  0.7818609E-02  0.8165452E-01
       -2   -1    0    0    0  501  0.00000000000E+00  0.00000000000E+00  0.10686460970E+04  0.10686460970E+04  0.25500000920E-02 0.  1.
        2   -1    0    0  501    0  0.00000000000E+00  0.00000000000E+00 -0.25321567466E+04  0.25321567466E+04  0.25500000920E-02 0. -1.
    10030    2    1    2    0    0  0.00000000000E+00  0.00000000000E+00 -0.14635106496E+04  0.36008028436E+04  0.32899722943E+04 0.  0.
        3    1    3    3  502    0 -0.21890606407E+03 -0.14929481172E+04 -0.14754776906E+02  0.15089836511E+04  0.10100000352E+00 0.  1.
       -3    1    3    3    0  502  0.21890606407E+03  0.14929481172E+04 -0.14487558727E+04  0.20918191926E+04  0.10100000352E+00 0. -1.
</event>
<event>
 5   0  0.2875829E-07  0.3316249E+04  0.7818609E-02  0.8158773E-01
       -2   -1    0    0    0  501  0.00000000000E+00  0.00000000000E+00  0.13432649446E+04  0.13432649446E+04  0.25500000920E-02 0.  1.
        2   -1    0    0  501    0  0.00000000000E+00  0.00000000000E+00 -0.20467871483E+04  0.20467871483E+04  0.25500000920E-02 0. -1.
    10030    2    1    2    0    0  0.00000000000E+00  0.00000000000E+00 -0.70352220377E+03  0.33900520929E+04  0.33162493425E+04 0.  0.
        3    1    3    3  502    0  0.15693304167E+03  0.44541738322E+03 -0.19765846086E+04  0.20322183323E+04  0.10100000352E+00 0. -1.
       -3    1    3    3    0  502 -0.15693304167E+03 -0.44541738322E+03  0.12730624048E+04  0.13578337607E+04  0.10100000352E+00 0.  1.
</event>
<event>
 5   0  0.9454010E-08  0.3293958E+04  0.7818609E-02  0.8164434E-01
       -1   -1    0    0    0  501  0.00000000000E+00  0.00000000000E+00  0.20225672334E+04  0.20225672334E+04  0.50400001928E-02 0.  1.
        1   -1    0    0  501    0  0.00000000000E+00  0.00000000000E+00 -0.13411370659E+04  0.13411370659E+04  0.50400001928E-02 0. -1.
    10030    2    1    2    0    0  0.00000000000E+00  0.00000000000E+00  0.68143016749E+03  0.33637042993E+04  0.32939580356E+04 0.  0.
        2    1    3    3  502    0 -0.52608686269E+03  0.28385252092E+03  0.19078762705E+04  0.19993327648E+04  0.25500000920E-02 0.  1.
       -2    1    3    3    0  502  0.52608686269E+03 -0.28385252092E+03 -0.12264461030E+04  0.13643715346E+04  0.25500000920E-02 0. -1.
</event>
<event>
 5   0  0.2713815E-07  0.3310325E+04  0.7818609E-02  0.8160273E-01
        2   -1    0    0  501    0  0.00000000000E+00  0.00000000000E+00  0.15520138687E+04  0.15520138687E+04  0.25500000920E-02 0. -1.
       -2   -1    0    0    0  501  0.00000000000E+00  0.00000000000E+00 -0.17651667426E+04  0.17651667426E+04  0.25500000920E-02 0.  1.
    10030    2    1    2    0    0  0.00000000000E+00  0.00000000000E+00 -0.21315287382E+03  0.33171806113E+04  0.33103252197E+04 0.  0.
        4    1    3    3  502    0 -0.52817770161E+03 -0.15684654703E+04 -0.84034606232E+02  0.16571418298E+04  0.12699999809E+01 0.  1.
       -4    1    3    3    0  502  0.52817770161E+03  0.15684654703E+04 -0.12911826759E+03  0.16600387815E+04  0.12699999809E+01 0. -1.
</event>
<event>
 5   0  0.2875829E-07  0.3299370E+04  0.7818609E-02  0.8163056E-01
        2   -1    0    0  501    0  0.00000000000E+00  0.00000000000E+00  0.89758599566E+03  0.89758599566E+03  0.25500000920E-02 0. -1.
       -2   -1    0    0    0  501  0.00000000000E+00  0.00000000000E+00 -0.30319768100E+04  0.30319768100E+04  0.25500000920E-02 0.  1.
    10030    2    1    2    0    0  0.00000000000E+00  0.00000000000E+00 -0.21343908144E+04  0.39295628057E+04  0.32993695906E+04 0.  0.
        3    1    3    3  502    0  0.10108522403E+03  0.10751542171E+04 -0.25525094015E+04  0.27715481356E+04  0.10100000352E+00 0.  1.
       -3    1    3    3    0  502 -0.10108522403E+03 -0.10751542171E+04  0.41811858715E+03  0.11580146701E+04  0.10100000352E+00 0. -1.
</event>
<event>
 5   0  0.2875829E-07  0.3301845E+04  0.7818609E-02  0.8162426E-01
        2   -1    0    0  501    0  0.00000000000E+00  0.00000000000E+00  0.22096274810E+04  0.22096274810E+04  0.25500000920E-02 0. -1.
       -2   -1    0    0    0  501  0.00000000000E+00  0.00000000000E+00 -0.12334859356E+04  0.12334859356E+04  0.25500000920E-02 0.  1.
    10030    2    1    2    0    0  0.00000000000E+00  0.00000000000E+00  0.97614154536E+03  0.34431134166E+04  0.33018445879E+04 0.  0.
        3    1    3    3  502    0 -0.13829312292E+04 -0.22105672381E+03 -0.42350422841E+03  0.14631201938E+04  0.10100000352E+00 0.  1.
       -3    1    3    3    0  502  0.13829312292E+04  0.22105672381E+03  0.13996457738E+04  0.19799932227E+04  0.10100000352E+00 0. -1.
</event>
<event>
 5   0  0.2875829E-07  0.3294999E+04  0.7818609E-02  0.8164169E-01
       -2   -1    0    0    0  501  0.00000000000E+00  0.00000000000E+00  0.14127928078E+04  0.14127928078E+04  0.25500000920E-02 0.  1.
        2   -1    0    0  501    0  0.00000000000E+00  0.00000000000E+00 -0.19211982043E+04  0.19211982043E+04  0.25500000920E-02 0. -1.
    10030    2    1    2    0    0  0.00000000000E+00  0.00000000000E+00 -0.50840539650E+03  0.33339910120E+04  0.32949992445E+04 0.  0.
        3    1    3    3  502    0  0.12795003722E+04  0.68047666642E+03 -0.10471118960E+04  0.17879074442E+04  0.10100000352E+00 0. -1.
       -3    1    3    3    0  502 -0.12795003722E+04 -0.68047666642E+03  0.53870649950E+03  0.15460835679E+04  0.10100000352E+00 0.  1.
</event>
<event>
 5   0  0.2703956E-07  0.3297741E+04  0.7818609E-02  0.8163470E-01
       -2   -1    0    0    0  501  0.00000000000E+00  0.00000000000E+00  0.16488895024E+04  0.16488895024E+04  0.25500000920E-02 0. -1.
        2   -1    0    0  501    0  0.00000000000E+00  0.00000000000E+00 -0.16488512938E+04  0.16488512938E+04  0.25500000920E-02 0.  1.
    10030    2    1    2    0    0  0.00000000000E+00  0.00000000000E+00  0.38208636505E-01  0.32977407963E+04  0.32977407960E+04 0.  0.
        5    1    3    3  502    0 -0.10392405113E+04 -0.11612382032E+04 -0.53873547308E+03  0.16488641560E+04  0.46999998093E+01 0. -1.
       -5    1    3    3    0  502  0.10392405113E+04  0.11612382032E+04  0.53877368172E+03  0.16488766403E+04  0.46999998093E+01 0.  1.
</event>
<event>
 5   0  0.9283910E-08  0.3308162E+04  0.7818609E-02  0.8160822E-01
        1   -1    0    0  501    0  0.00000000000E+00  0.00000000000E+00  0.19318445401E+04  0.19318445401E+04  0.50400001928E-02 0.  1.
       -1   -1    0    0    0  501  0.00000000000E+00  0.00000000000E+00 -0.14162544598E+04  0.14162544598E+04  0.50400001928E-02 0. -1.
    10030    2    1    2    0    0  0.00000000000E+00  0.00000000000E+00  0.51559008026E+03  0.33480989999E+04  0.33081616922E+04 0.  0.
        3    1    3    3  502    0  0.23067584235E+03  0.14123206078E+04 -0.58175091020E+03  0.15447637279E+04  0.10100000352E+00 0.  1.
       -3    1    3    3    0  502 -0.23067584235E+03 -0.14123206078E+04  0.10973409905E+04  0.18033352719E+04  0.10100000352E+00 0. -1.
</event>
<event>
 5   0  0.9454010E-08  0.3298670E+04  0.7818609E-02  0.8163234E-01
       -1   -1    0    0    0  501  0.00000000000E+00  0.00000000000E+00  0.16612097778E+04  0.16612097779E+04  0.50400001928E-02 0.  1.
        1   -1    0    0  501    0  0.00000000000E+00  0.00000000000E+00 -0.16375449449E+04  0.16375449449E+04  0.50400001928E-02 0. -1.
    10030    2    1    2    0    0  0.00000000000E+00  0.00000000000E+00  0.23664832967E+02  0.32987547227E+04  0.32986698375E+04 0.  0.
        2    1    3    3  502    0  0.20764374556E+03 -0.47221097383E+03  0.15784634694E+04  0.16606161667E+04  0.25500000920E-02 0.  1.
       -2    1    3    3    0  502 -0.20764374556E+03  0.47221097383E+03 -0.15547986364E+04  0.16381385560E+04  0.25500000920E-02 0. -1.
</event>
<event>
 5   0  0.8805125E-08  0.3299006E+04  0.7818609E-02  0.8163148E-01
        1   -1    0    0  501    0  0.00000000000E+00  0.00000000000E+00  0.18560251306E+04  0.18560251306E+04  0.50400001928E-02 0. -1.
       -1   -1    0    0    0  501  0.00000000000E+00  0.00000000000E+00 -0.14659605914E+04  0.14659605914E+04  0.50400001928E-02 0.  1.
    10030    2    1    2    0    0  0.00000000000E+00  0.00000000000E+00  0.39006453925E+03  0.33219857220E+04  0.32990057278E+04 0.  0.
        4    1    3    3  502    0 -0.17732358311E+03  0.16378451085E+04  0.11152188343E+03  0.16511871475E+04  0.12699999809E+01 0.  1.
       -4    1    3    3    0  502  0.17732358311E+03 -0.16378451085E+04  0.27854265582E+03  0.16707985745E+04  0.12699999809E+01 0. -1.
</event>
<event>
 5   0  0.2875829E-07  0.3299281E+04  0.7818609E-02  0.8163078E-01
        2   -1    0    0  501    0  0.00000000000E+00  0.00000000000E+00  0.19387522403E+04  0.19387522403E+04  0.25500000920E-02 0. -1.
       -2   -1    0    0    0  501  0.00000000000E+00  0.00000000000E+00 -0.14036421954E+04  0.14036421954E+04  0.25500000920E-02 0.  1.
    10030    2    1    2    0    0  0.00000000000E+00  0.00000000000E+00  0.53511004487E+03  0.33423944357E+04  0.32992814072E+04 0.  0.
        3    1    3    3  502    0 -0.63092290039E+03  0.74192189103E+03 -0.10813101308E+04  0.14552468546E+04  0.10100000352E+00 0.  1.
       -3    1    3    3    0  502  0.63092290039E+03 -0.74192189103E+03  0.16164201756E+04  0.18871475811E+04  0.10100000352E+00 0. -1.
</event>
<event>
 5   0  0.2875829E-07  0.3292106E+04  0.7818609E-02  0.8164907E-01
        2   -1    0    0  501    0  0.00000000000E+00  0.00000000000E+00  0.30886996376E+04  0.30886996376E+04  0.25500000920E-02 0. -1.
       -2   -1    0    0    0  501  0.00000000000E+00  0.00000000000E+00 -0.87722717465E+03  0.87722717465E+03  0.25500000920E-02 0.  1.
    10030    2    1    2    0    0  0.00000000000E+00  0.00000000000E+00  0.22114724629E+04  0.39659268122E+04  0.32921064724E+04 0.  0.
        3    1    3    3  502    0 -0.10780576693E+03  0.13029277237E+04  0.23105634751E+04  0.26547968509E+04  0.10100000352E+00 0. -1.
       -3    1    3    3    0  502  0.10780576693E+03 -0.13029277237E+04 -0.99091012198E+02  0.13111299613E+04  0.10100000352E+00 0.  1.
</event>
<event>
 5   0  0.2824402E-07  0.3300743E+04  0.7818609E-02  0.8162706E-01
       -2   -1    0    0    0  501  0.00000000000E+00  0.00000000000E+00  0.12606695225E+04  0.12606695225E+04  0.25500000920E-02 0.  1.
        2   -1    0    0  501    0  0.00000000000E+00  0.00000000000E+00 -0.21605391921E+04  0.21605391921E+04  0.25500000920E-02 0. -1.
    10030    2    1    2    0    0  0.00000000000E+00  0.00000000000E+00 -0.89986966964E+03  0.34212087146E+04  0.33007428931E+04 0.  0.
        1    1    3    3  502    0  0.89942925934E+02 -0.11896574574E+04  0.73201276608E+03  0.13997204312E+04  0.50400001928E-02 0.  1.
       -1    1    3    3    0  502 -0.89942925934E+02  0.11896574574E+04 -0.16318824357E+04  0.20214882834E+04  0.50400001928E-02 0. -1.
</event>
<event>
 5   0  0.9181760E-08  0.3300306E+04  0.7818609E-02  0.8162818E-01
       -1   -1    0    0    0  501  0.00000000000E+00  0.00000000000E+00  0.12715892292E+04  0.12715892292E+04  0.50400001928E-02 0.  1.
        1   -1    0    0  501    0  0.00000000000E+00  0.00000000000E+00 -0.21414182461E+04  0.21414182461E+04  0.50400001928E-02 0. -1.
    10030    2    1    2    0    0  0.00000000000E+00  0.00000000000E+00 -0.86982901695E+03  0.34130074753E+04  0.33003056689E+04 0.  0.
        1    1    3    3  502    0 -0.50919583266E+02 -0.15018727155E+04  0.27012170436E+03  0.15268202883E+04  0.50400001928E-02 0.  1.
       -1    1    3    3    0  502  0.50919583266E+02  0.15018727155E+04 -0.11399507213E+04  0.18861871870E+04  0.50400001928E-02 0. -1.
</event>
<event>
 5   0  0.2727168E-07  0.3300956E+04  0.7818609E-02  0.8162652E-01
        2   -1    0    0  501    0  0.00000000000E+00  0.00000000000E+00  0.21994511813E+04  0.21994511813E+04  0.25500000920E-02 0.  1.
       -2   -1    0    0    0  501  0.00000000000E+00  0.00000000000E+00 -0.12385262870E+04  0.12385262870E+04  0.25500000920E-02 0. -1.
    10030    2    1    2    0    0  0.00000000000E+00  0.00000000000E+00  0.96092489431E+03  0.34379774683E+04  0.33009562887E+04 0.  0.
        2    1    3    3  502    0  0.13574852241E+03 -0.15877590197E+04  0.92803502701E+03  0.18440865970E+04  0.25500000920E-02 0.  1.
       -2    1    3    3    0  502 -0.13574852241E+03  0.15877590197E+04  0.32889867300E+02  0.15938908712E+04  0.25500000920E-02 0. -1.
</event>
<event>
 5   0  0.2875829E-07  0.3301945E+04  0.7818609E-02  0.8162401E-01
        2   -1    0    0  501    0  0.00000000000E+00  0.00000000000E+00  0.18747856613E+04  0.18747856613E+04  0.25500000920E-02 0.  1.
       -2   -1    0    0    0  501  0.00000000000E+00  0.00000000000E+00 -0.14538784716E+04  0.14538784716E+04  0.25500000920E-02 0. -1.
    10030    2    1    2    0    0  0.00000000000E+00  0.00000000000E+00  0.42090718974E+03  0.33286641329E+04  0.33019451914E+04 0.  0.
        3    1    3    3  502    0 -0.43572309959E+02  0.15176873821E+04 -0.44320437784E+03  0.15816774851E+04  0.10100000352E+00 0. -1.
       -3    1    3    3    0  502  0.43572309959E+02 -0.15176873821E+04  0.86411156758E+03  0.17469866478E+04  0.10100000352E+00 0.  1.
</event>
<event>
 5   0  0.9181760E-08  0.3293925E+04  0.7818609E-02  0.8164443E-01
        1   -1    0    0  501    0  0.00000000000E+00  0.00000000000E+00  0.19942257885E+04  0.19942257885E+04  0.50400001928E-02 0. -1.
       -1   -1    0    0    0  501  0.00000000000E+00  0.00000000000E+00 -0.13601693169E+04  0.13601693169E+04  0.50400001928E-02 0.  1.
    10030    2    1    2    0    0  0.00000000000E+00  0.00000000000E+00  0.63405647165E+03  0.33543951054E+04  0.32939245459E+04 0.  0.
        1    1    3    3  502    0 -0.63770250649E+03  0.13409183437E+04  0.10426813410E+04  0.18143623866E+04  0.50400001928E-02 0. -1.
       -1    1    3    3    0  502  0.63770250649E+03 -0.13409183437E+04 -0.40862486931E+03  0.15400327188E+04  0.50400001928E-02 0.  1.
</event>
<event>
 5   0  0.2713815E-07  0.3299122E+04  0.7818609E-02  0.8163119E-01
        2   -1    0    0  501    0  0.00000000000E+00  0.00000000000E+00  0.21718552892E+04  0.21718552892E+04  0.25500000920E-02 0. -1.
       -2   -1    0    0    0  501  0.00000000000E+00  0.00000000000E+00 -0.12528697730E+04  0.12528697730E+04  0.25500000920E-02 0.  1.
    10030    2    1    2    0    0  0.00000000000E+00  0.00000000000E+00  0.91898551627E+03  0.34247250622E+04  0.32991222124E+04 0.  0.
        4    1    3    3  502    0  0.10396852248E+03 -0.11151279349E+04  0.17166872354E+04  0.20497161857E+04  0.12699999809E+01 0. -1.
       -4    1    3    3    0  502 -0.10396852248E+03  0.11151279349E+04 -0.79770171917E+03  0.13750088765E+04  0.12699999809E+01 0.  1.
</event>
<event>
 5   0  0.8805125E-08  0.3300455E+04  0.7818609E-02  0.8162780E-01
       -3   -1    0    0    0  501  0.00000000000E+00  0.00000000000E+00  0.13264820826E+04  0.13264820864E+04  0.10100000352E+00 0. -1.
        3   -1    0    0  501    0  0.00000000000E+00  0.00000000000E+00 -0.20529871835E+04  0.20529871860E+04  0.10100000352E+00 0.  1.
    10030    2    1    2    0    0  0.00000000000E+00  0.00000000000E+00 -0.72650510089E+03  0.33794692724E+04  0.33004549537E+04 0.  0.
        3    1    3    3  502    0  0.12685914434E+04 -0.94595652421E+03 -0.84253184252E+03  0.17927682259E+04  0.10100000352E+00 0.  1.
       -3    1    3    3    0  502 -0.12685914434E+04  0.94595652421E+03  0.11602674163E+03  0.15867010465E+04  0.10100000352E+00 0. -1.
</event>
<event>
 5   0  0.2703956E-07  0.3287595E+04  0.7818609E-02  0.8166059E-01
        2   -1    0    0  501    0  0.00000000000E+00  0.00000000000E+00  0.27848162574E+04  0.27848162574E+04  0.25500000920E-02 0.  1.
       -2   -1    0    0    0  501  0.00000000000E+00  0.00000000000E+00 -0.97028672313E+03  0.97028672313E+03  0.25500000920E-02 0. -1.
    10030    2    1    2    0    0  0.00000000000E+00  0.00000000000E+00  0.18145295342E+04  0.37551029805E+04  0.32875950121E+04 0.  0.
        5    1    3    3  502    0  0.14786768233E+02 -0.13420797200E+04  0.19912464255E+04  0.24013498371E+04  0.46999998093E+01 0.  1.
       -5    1    3    3    0  502 -0.14786768233E+02  0.13420797200E+04 -0.17671689123E+03  0.13537531433E+04  0.46999998093E+01 0. -1.
</event>
<event>
 5   0  0.2713815E-07  0.3296803E+04  0.7818609E-02  0.8163709E-01
        2   -1    0    0  501    0  0.00000000000E+00  0.00000000000E+00  0.12642628846E+04  0.12642628846E+04  0.25500000920E-02 0. -1.
       -2   -1    0    0    0  501  0.00000000000E+00  0.00000000000E+00 -0.21492578132E+04  0.21492578132E+04  0.25500000920E-02 0.  1.
    10030    2    1    2    0    0  0.00000000000E+00  0.00000000000E+00 -0.88499492859E+03  0.34135206978E+04  0.32968026224E+04 0.  0.
        4    1    3    3  502    0  0.43306364769E+03 -0.76341242701E+03 -0.18872034657E+04  0.20813171768E+04  0.12699999809E+01 0.  1.
       -4    1    3    3    0  502 -0.43306364769E+03  0.76341242701E+03  0.10022085371E+04  0.13322035210E+04  0.12699999809E+01 0. -1.
</event>
<event>
 5   0  0.2875829E-07  0.3299343E+04  0.7818609E-02  0.8163063E-01
       -2   -1    0    0    0  501  0.00000000000E+00  0.00000000000E+00  0.11115467341E+04  0.11115467341E+04  0.25500000920E-02 0.  1.
        2   -1    0    0  501    0  0.00000000000E+00  0.00000000000E+00 -0.24483140332E+04  0.24483140332E+04  0.25500000920E-02 0. -1.
    10030    2    1    2    0    0  0.00000000000E+00  0.00000000000E+00 -0.13367672991E+04  0.35598607673E+04  0.32993426422E+04 0.  0.
        3    1    3    3  502    0  0.95671968492E+03  0.77285742111E+03  0.51788156468E+03  0.13344746060E+04  0.10100000352E+00 0. -1.
       -3    1    3    3    0  502 -0.95671968492E+03 -0.77285742111E+03 -0.18546488638E+04  0.22253861613E+04  0.10100000352E+00 0.  1.
</event>
<event>
 5   0  0.2875829E-07  0.3300991E+04  0.7818609E-02  0.8162643E-01
        2   -1    0    0  501    0  0.00000000000E+00  0.00000000000E+00  0.13551095765E+04  0.13551095765E+04  0.25500000920E-02 0.  1.
       -2   -1    0    0    0  501  0.00000000000E+00  0.00000000000E+00 -0.20102697892E+04  0.20102697892E+04  0.25500000920E-02 0. -1.
    10030    2    1    2    0    0  0.00000000000E+00  0.00000000000E+00 -0.65516021271E+03  0.33653793658E+04  0.33009912710E+04 0.  0.
        3    1    3    3  502    0  0.32401262288E+03  0.70871717187E+03 -0.18109071416E+04  0.19714585705E+04  0.10100000352E+00 0. -1.
       -3    1    3    3    0  502 -0.32401262288E+03 -0.70871717187E+03  0.11557469289E+04  0.13939207953E+04  0.10100000352E+00 0.  1.
</event>
<event>
 5   0  0.2713815E-07  0.3296055E+04  0.7818609E-02  0.8163900E-01
       -2   -1    0    0    0  501  0.00000000000E+00  0.00000000000E+00  0.13505515698E+04  0.13505515698E+04  0.25500000920E-02 0. -1.
        2   -1    0    0  501    0  0.00000000000E+00  0.00000000000E+00 -0.20110256912E+04  0.20110256912E+04  0.25500000920E-02 0.  1.
    10030    2    1    2    0    0  0.00000000000E+00  0.00000000000E+00 -0.66047412146E+03  0.33615772610E+04  0.32960545531E+04 0.  0.
        4    1    3    3  502    0  0.14045867642E+03 -0.70784936969E+03  0.11808414568E+04  0.13838957797E+04  0.12699999809E+01 0. -1.
       -4    1    3    3    0  502 -0.14045867642E+03  0.70784936969E+03 -0.18413155783E+04  0.19776814813E+04  0.12699999809E+01 0.  1.
</event>
<event>
 5   0  0.2875829E-07  0.3306836E+04  0.7818609E-02  0.8161158E-01
        2   -1    0    0  501    0  0.00000000000E+00  0.00000000000E+00  0.11115834159E+04  0.11115834160E+04  0.25500000920E-02 0.  1.
       -2   -1    0    0    0  501  0.00000000000E+00  0.00000000000E+00 -0.24593669673E+04  0.24593669673E+04  0.25500000920E-02 0. -1.
    10030    2    1    2    0    0  0.00000000000E+00  0.00000000000E+00 -0.13477835514E+04  0.35709503833E+04  0.33068362733E+04 0.  0.
        3    1    3    3  502    0  0.10528131379E+04  0.27286760844E+03  0.67093306287E+03  0.12778980476E+04  0.10100000352E+00 0.  1.
       -3    1    3    3    0  502 -0.10528131379E+04 -0.27286760844E+03 -0.20187166143E+04  0.22930523357E+04  0.10100000352E+00 0. -1.
</event>
<event>
 5   0  0.9810351E-08  0.3231210E+04  0.7818609E-02  0.8180623E-01
        1   -1    0    0  501    0  0.00000000000E+00  0.00000000000E+00  0.20197005015E+04  0.20197005015E+04  0.50400001928E-02 0. -1.
       -1   -1    0    0    0  501  0.00000000000E+00  0.00000000000E+00 -0.12923594674E+04  0.12923594674E+04  0.50400001928E-02 0.  1.
    10030    2    1    2    0    0  0.00000000000E+00  0.00000000000E+00  0.72734103408E+03  0.33120599689E+04  0.32312097205E+04 0.  0.
        5    1    3    3  502    0 -0.92114489645E+03  0.31106216394E+03  0.16862620468E+04  0.19464761418E+04  0.46999998093E+01 0. -1.
       -5    1    3    3    0  502  0.92114489645E+03 -0.31106216394E+03 -0.95892101277E+03  0.13655838271E+04  0.46999998093E+01 0.  1.
</event>
<event>
 5   0  0.2824402E-07  0.3301599E+04  0.7818609E-02  0.8162489E-01
       -2   -1    0    0    0  501  0.00000000000E+00  0.00000000000E+00  0.15315232805E+04  0.15315232805E+04  0.25500000920E-02 0. -1.
        2   -1    0    0  501    0  0.00000000000E+00  0.00000000000E+00 -0.17793646849E+04  0.17793646849E+04  0.25500000920E-02 0.  1.
    10030    2    1    2    0    0  0.00000000000E+00  0.00000000000E+00 -0.24784140435E+03  0.33108879654E+04  0.33015986670E+04 0.  0.
        1    1    3    3  502    0 -0.10748394163E+04 -0.11594565093E+04  0.35230412715E+03  0.16197954704E+04  0.50400001928E-02 0. -1.
       -1    1    3    3    0  502  0.10748394163E+04  0.11594565093E+04 -0.60014553150E+03  0.16910924951E+04  0.50400001928E-02 0.  1.
</event>
<event>
 5   0  0.9283910E-08  0.3307946E+04  0.7818609E-02  0.8160876E-01
        1   -1    0    0  501    0  0.00000000000E+00  0.00000000000E+00  0.15915912091E+04  0.15915912091E+04  0.50400001928E-02 0.  1.
       -1   -1    0    0    0  501  0.00000000000E+00  0.00000000000E+00 -0.17188002616E+04  0.17188002616E+04  0.50400001928E-02 0. -1.
    10030    2    1    2    0    0  0.00000000000E+00  0.00000000000E+00 -0.12720905256E+03  0.33103914707E+04  0.33079464243E+04 0.  0.
        3    1    3    3  502    0 -0.11332695692E+03 -0.44720155380E+03  0.15259004092E+04  0.15941155221E+04  0.10100000352E+00 0.  1.
       -3    1    3    3    0  502  0.11332695692E+03  0.44720155380E+03 -0.16531094618E+04  0.17162759486E+04  0.10100000352E+00 0. -1.
</event>
<event>
 5   0  0.2713815E-07  0.3301653E+04  0.7818609E-02  0.8162475E-01
       -2   -1    0    0    0  501  0.00000000000E+00  0.00000000000E+00  0.12030247368E+04  0.12030247368E+04  0.25500000920E-02 0.  1.
        2   -1    0    0  501    0  0.00000000000E+00  0.00000000000E+00 -0.22653140995E+04  0.22653140995E+04  0.25500000920E-02 0. -1.
    10030    2    1    2    0    0  0.00000000000E+00  0.00000000000E+00 -0.10622893627E+04  0.34683388363E+04  0.33016534635E+04 0.  0.
        4    1    3    3  502    0  0.13058428078E+04  0.10055888240E+04 -0.62964954460E+03  0.17643396735E+04  0.12699999809E+01 0. -1.
       -4    1    3    3    0  502 -0.13058428078E+04 -0.10055888240E+04 -0.43263981806E+03  0.17039991628E+04  0.12699999809E+01 0.  1.
</event>
<event>
 5   0  0.2713815E-07  0.3290771E+04  0.7818609E-02  0.8165248E-01
        2   -1    0    0  501    0  0.00000000000E+00  0.00000000000E+00  0.30911119958E+04  0.30911119958E+04  0.25500000920E-02 0. -1.
       -2   -1    0    0    0  501  0.00000000000E+00  0.00000000000E+00 -0.87583141464E+03  0.87583141465E+03  0.25500000920E-02 0.  1.
    10030    2    1    2    0    0  0.00000000000E+00  0.00000000000E+00  0.22152805811E+04  0.39669434104E+04  0.32907707256E+04 0.  0.
        4    1    3    3  502    0 -0.79719557744E+03 -0.50803248283E+03  0.27310866519E+04  0.28900611941E+04  0.12699999809E+01 0. -1.
       -4    1    3    3    0  502  0.79719557744E+03  0.50803248283E+03 -0.51580607080E+03  0.10768822163E+04  0.12699999809E+01 0.  1.
</event>
<event>
 5   0  0.2713815E-07  0.3255089E+04  0.7818609E-02  0.8174418E-01
       -2   -1    0    0    0  501  0.00000000000E+00  0.00000000000E+00  0.17968120719E+04  0.17968120719E+04  0.25500000920E-02 0. -1.
        2   -1    0    0  501    0  0.00000000000E+00  0.00000000000E+00 -0.14742223985E+04  0.14742223985E+04  0.25500000920E-02 0.  1.
    10030    2    1    2    0    0  0.00000000000E+00  0.00000000000E+00  0.32258967343E+03  0.32710344705E+04  0.32550886946E+04 0.  0.
        4    1    3    3  502    0  0.10497530964E+04 -0.41758831797E+03 -0.10159977012E+04  0.15194125537E+04  0.12699999809E+01 0.  1.
       -4    1    3    3    0  502 -0.10497530964E+04  0.41758831797E+03  0.13385873746E+04  0.17516219167E+04  0.12699999809E+01 0. -1.
</event>
<event>
 5   0  0.2824402E-07  0.3299600E+04  0.7818609E-02  0.8162997E-01
        2   -1    0    0  501    0  0.00000000000E+00  0.00000000000E+00  0.20754085246E+04  0.20754085246E+04  0.25500000920E-02 0. -1.
       -2   -1    0    0    0  501  0.00000000000E+00  0.00000000000E+00 -0.13114721847E+04  0.13114721847E+04  0.25500000920E-02 0.  1.
    10030    2    1    2    0    0  0.00000000000E+00  0.00000000000E+00  0.76393633999E+03  0.33868807093E+04  0.32996003103E+04 0.  0.
        1    1    3    3  502    0 -0.46690405912E+03 -0.12958441476E+04 -0.55014338534E+03  0.14831956040E+04  0.50400001928E-02 0.  1.
       -1    1    3    3    0  502  0.46690405912E+03  0.12958441476E+04  0.13140797253E+04  0.19036851053E+04  0.50400001928E-02 0. -1.
</event>
<event>
 5   0  0.8805125E-08  0.3297904E+04  0.7818609E-02  0.8163429E-01
        1   -1    0    0  501    0  0.00000000000E+00  0.00000000000E+00  0.16254425795E+04  0.16254425795E+04  0.50400001928E-02 0. -1.
       -1   -1    0    0    0  501  0.00000000000E+00  0.00000000000E+00 -0.16728011282E+04  0.16728011282E+04  0.50400001928E-02 0.  1.
    10030    2    1    2    0    0  0.00000000000E+00  0.00000000000E+00 -0.47358548774E+02  0.32982437077E+04  0.32979036862E+04 0.  0.
        4    1    3    3  502    0  0.51332805513E+03  0.11666828982E+04  0.10225575869E+04  0.16340992346E+04  0.12699999809E+01 0. -1.
       -4    1    3    3    0  502 -0.51332805513E+03 -0.11666828982E+04 -0.10699161357E+04  0.16641444731E+04  0.12699999809E+01 0.  1.
</event>
<event>
 5   0  0.9810351E-08  0.3295798E+04  0.7818609E-02  0.8163965E-01
        1   -1    0    0  501    0  0.00000000000E+00  0.00000000000E+00  0.95920393440E+03  0.95920393441E+03  0.50400001928E-02 0.  1.
       -1   -1    0    0    0  501  0.00000000000E+00  0.00000000000E+00 -0.28310683763E+04  0.28310683763E+04  0.50400001928E-02 0. -1.
    10030    2    1    2    0    0  0.00000000000E+00  0.00000000000E+00 -0.18718644419E+04  0.37902723107E+04  0.32957984921E+04 0.  0.
        5    1    3    3  502    0  0.65739417829E+03  0.96940074216E+03  0.39713491244E+03  0.12367874244E+04  0.46999998093E+01 0.  1.
       -5    1    3    3    0  502 -0.65739417829E+03 -0.96940074216E+03 -0.22689993543E+04  0.25534848863E+04  0.46999998093E+01 0. -1.
</event>
<event>
 5   0  0.2713815E-07  0.3291006E+04  0.7818609E-02  0.8165188E-01
       -2   -1    0    0    0  501  0.00000000000E+00  0.00000000000E+00  0.14140593435E+04  0.14140593435E+04  0.25500000920E-02 0. -1.
        2   -1    0    0  501    0  0.00000000000E+00  0.00000000000E+00 -0.19148283113E+04  0.19148283113E+04  0.25500000920E-02 0.  1.
    10030    2    1    2    0    0  0.00000000000E+00  0.00000000000E+00 -0.50076896774E+03  0.33288876548E+04  0.32910064508E+04 0.  0.
        4    1    3    3  502    0  0.13028168612E+04  0.12075227902E+03  0.75898258451E+03  0.15126034058E+04  0.12699999809E+01 0. -1.
       -4    1    3    3    0  502 -0.13028168612E+04 -0.12075227902E+03 -0.12597515523E+04  0.18162842490E+04  0.12699999809E+01 0.  1.
</event>
<event>
 5   0  0.2824402E-07  0.3301690E+04  0.7818609E-02  0.8162465E-01
        2   -1    0    0  501    0  0.00000000000E+00  0.00000000000E+00  0.29113158966E+04  0.29113158966E+04  0.25500000920E-02 0. -1.
       -2   -1    0    0    0  501  0.00000000000E+00  0.00000000000E+00 -0.93610224988E+03  0.93610224988E+03  0.25500000920E-02 0.  1.
    10030    2    1    2    0    0  0.00000000000E+00  0.00000000000E+00  0.19752136467E+04  0.38474181465E+04  0.33016900890E+04 0.  0.
        1    1    3    3  502    0  0.95402198104E+03  0.27193571222E+03  0.25252487626E+04  0.27131141305E+04  0.50400001928E-02 0. -1.
       -1    1    3    3    0  502 -0.95402198104E+03 -0.27193571222E+03 -0.55003511592E+03  0.11343040160E+04  0.50400001928E-02 0.  1.
</event>
<event>
 5   0  0.2727168E-07  0.3297899E+04  0.7818609E-02  0.8163430E-01
       -2   -1    0    0    0  501  0.00000000000E+00  0.00000000000E+00  0.13803549241E+04  0.13803549241E+04  0.25500000920E-02 0.  1.
        2   -1    0    0  501    0  0.00000000000E+00  0.00000000000E+00 -0.19698084293E+04  0.19698084293E+04  0.25500000920E-02 0. -1.
    10030    2    1    2    0    0  0.00000000000E+00  0.00000000000E+00 -0.58945350524E+03  0.33501633534E+04  0.32978991888E+04 0.  0.
        2    1    3    3  502    0  0.13210768433E+03 -0.15648027171E+03  0.13673864553E+04  0.13826366962E+04  0.25500000920E-02 0.  1.
       -2    1    3    3    0  502 -0.13210768433E+03  0.15648027171E+03 -0.19568399605E+04  0.19675266572E+04  0.25500000920E-02 0. -1.
</event>
<event>
 5   0  0.2703956E-07  0.3296383E+04  0.7818609E-02  0.8163816E-01
        2   -1    0    0  501    0  0.00000000000E+00  0.00000000000E+00  0.16003875521E+04  0.16003875521E+04  0.25500000920E-02 0. -1.
       -2   -1    0    0    0  501  0.00000000000E+00  0.00000000000E+00 -0.16974237845E+04  0.16974237845E+04  0.25500000920E-02 0.  1.
    10030    2    1    2    0    0  0.00000000000E+00  0.00000000000E+00 -0.97036232372E+02  0.32978113366E+04  0.32963834093E+04 0.  0.
        5    1    3    3  502    0 -0.83493665872E+03 -0.11731310685E+04 -0.85083688355E+03  0.16725134440E+04  0.46999998093E+01 0.  1.
       -5    1    3    3    0  502  0.83493665872E+03  0.11731310685E+04  0.75380065118E+03  0.16252978926E+04  0.46999998093E+01 0. -1.
</event>
<event>
 5   0  0.2727168E-07  0.3300004E+04  0.7818609E-02  0.8162894E-01
        2   -1    0    0  501    0  0.00000000000E+00  0.00000000000E+00  0.24817037595E+04  0.24817037595E+04  0.25500000920E-02 0.  1.
       -2   -1    0    0    0  501  0.00000000000E+00  0.00000000000E+00 -0.10970310477E+04  0.10970310477E+04  0.25500000920E-02 0. -1.
    10030    2    1    2    0    0  0.00000000000E+00  0.00000000000E+00  0.13846727119E+04  0.35787348072E+04  0.33000036820E+04 0.  0.
        2    1    3    3  502    0 -0.23949784045E+03  0.42391471864E+03  0.24020249393E+04  0.24508746833E+04  0.25500000920E-02 0.  1.
       -2    1    3    3    0  502  0.23949784045E+03 -0.42391471864E+03 -0.10173522275E+04  0.11278601238E+04  0.25500000920E-02 0. -1.
</event>
<event>
 5   0  0.9283910E-08  0.3296605E+04  0.7818609E-02  0.8163760E-01
        1   -1    0    0  501    0  0.00000000000E+00  0.00000000000E+00  0.20535722554E+04  0.20535722554E+04  0.50400001928E-02 0. -1.
       -1   -1    0    0    0  501  0.00000000000E+00  0.00000000000E+00 -0.13230119771E+04  0.13230119771E+04  0.50400001928E-02 0.  1.
    10030    2    1    2    0    0  0.00000000000E+00  0.00000000000E+00  0.73056027824E+03  0.33765842325E+04  0.32966047320E+04 0.  0.
        3    1    3    3  502    0 -0.15827032492E+04  0.34462495471E+03  0.52612365551E+02  0.16206430840E+04  0.10100000352E+00 0.  1.
       -3    1    3    3    0  502  0.15827032492E+04 -0.34462495471E+03  0.67794791269E+03  0.17559411485E+04  0.10100000352E+00 0. -1.
</event>
<event>
 5   0  0.2824402E-07  0.3311248E+04  0.7818609E-02  0.8160039E-01
       -2   -1    0    0    0  501  0.00000000000E+00  0.00000000000E+00  0.12360217779E+04  0.12360217779E+04  0.25500000920E-02 0.  1.
        2   -1    0    0  501    0  0.00000000000E+00  0.00000000000E+00 -0.22176721652E+04  0.22176721652E+04  0.25500000920E-02 0. -1.
    10030    2    1    2    0    0  0.00000000000E+00  0.00000000000E+00 -0.98165038731E+03  0.34536939431E+04  0.33112481588E+04 0.  0.
        1    1    3    3  502    0 -0.27458847696E+03 -0.46169970212E+03  0.11425986763E+04  0.12625756143E+04  0.50400001928E-02 0.  1.
       -1    1    3    3    0  502  0.27458847696E+03  0.46169970212E+03 -0.21242490636E+04  0.21911183288E+04  0.50400001928E-02 0. -1.
</event>
<event>
 5   0  0.8805125E-08  0.3292336E+04  0.7818609E-02  0.8164848E-01
        1   -1    0    0  501    0  0.00000000000E+00  0.00000000000E+00  0.21887182266E+04  0.21887182266E+04  0.50400001928E-02 0. -1.
       -1   -1    0    0    0  501  0.00000000000E+00  0.00000000000E+00 -0.12381076477E+04  0.12381076477E+04  0.50400001928E-02 0.  1.
    10030    2    1    2    0    0  0.00000000000E+00  0.00000000000E+00  0.95061057890E+03  0.34268258744E+04  0.32923358123E+04 0.  0.
        4    1    3    3  502    0  0.16276460074E+04 -0.23768229601E+03  0.40831174517E+03  0.16948287505E+04  0.12699999809E+01 0. -1.
       -4    1    3    3    0  502 -0.16276460074E+04  0.23768229601E+03  0.54229883373E+03  0.17319971239E+04  0.12699999809E+01 0.  1.
</event>
<event>
 5   0  0.8805125E-08  0.3301360E+04  0.7818609E-02  0.8162549E-01
       -1   -1    0    0    0  501  0.00000000000E+00  0.00000000000E+00  0.24851771014E+04  0.24851771014E+04  0.50400001928E-02 0. -1.
        1   -1    0    0  501    0  0.00000000000E+00  0.00000000000E+00 -0.10963988216E+04  0.10963988216E+04  0.50400001928E-02 0.  1.
    10030    2    1    2    0    0  0.00000000000E+00  0.00000000000E+00  0.13887782798E+04  0.35815759230E+04  0.33013604744E+04 0.  0.
        4    1    3    3  502    0  0.70283053989E+03 -0.14882608599E+04  0.55779571704E+03  0.17378230145E+04  0.12699999809E+01 0. -1.
       -4    1    3    3    0  502 -0.70283053989E+03  0.14882608599E+04  0.83098256274E+03  0.18437529085E+04  0.12699999809E+01 0.  1.
</event>
<event>
 5   0  0.2875829E-07  0.3289723E+04  0.7818609E-02  0.8165515E-01
       -2   -1    0    0    0  501  0.00000000000E+00  0.00000000000E+00  0.13699165772E+04  0.13699165772E+04  0.25500000920E-02 0.  1.
        2   -1    0    0  501    0  0.00000000000E+00  0.00000000000E+00 -0.19749883552E+04  0.19749883552E+04  0.25500000920E-02 0. -1.
    10030    2    1    2    0    0  0.00000000000E+00  0.00000000000E+00 -0.60507177805E+03  0.33449049324E+04  0.32897229595E+04 0.  0.
        3    1    3    3  502    0 -0.50111036758E+03 -0.10058800691E+04  0.91872062831E+03  0.14515350209E+04  0.10100000352E+00 0.  1.
       -3    1    3    3    0  502  0.50111036758E+03  0.10058800691E+04 -0.15237924064E+04  0.18933699115E+04  0.10100000352E+00 0. -1.
</event>
<event>
 5   0  0.2703956E-07  0.3295118E+04  0.7818609E-02  0.8164139E-01
       -2   -1    0    0    0  501  0.00000000000E+00  0.00000000000E+00  0.26359751867E+04  0.26359751867E+04  0.25500000920E-02 0. -1.
        2   -1    0    0  501    0  0.00000000000E+00  0.00000000000E+00 -0.10297712077E+04  0.10297712077E+04  0.25500000920E-02 0.  1.
    10030    2    1    2    0    0  0.00000000000E+00  0.00000000000E+00  0.16062039790E+04  0.36657463945E+04  0.32951184207E+04 0.  0.
        5    1    3    3  502    0 -0.55624955311E+01 -0.15949120246E+04  0.34353421627E+03  0.16315064068E+04  0.46999998093E+01 0.  1.
       -5    1    3    3    0  502  0.55624955311E+01  0.15949120246E+04  0.12626697627E+04  0.20342399876E+04  0.46999998093E+01 0. -1.
</event>
<event>
 5   0  0.2703956E-07  0.3296789E+04  0.7818609E-02  0.8163713E-01
       -2   -1    0    0    0  501  0.00000000000E+00  0.00000000000E+00  0.99845961176E+03  0.99845961176E+03  0.25500000920E-02 0. -1.
        2   -1    0    0  501    0  0.00000000000E+00  0.00000000000E+00 -0.27213967110E+04  0.27213967110E+04  0.25500000920E-02 0.  1.
    10030    2    1    2    0    0  0.00000000000E+00  0.00000000000E+00 -0.17229370992E+04  0.37198563227E+04  0.32967891674E+04 0.  0.
        5    1    3    3  502    0 -0.11286007315E+04  0.12004450418E+04 -0.80648411848E+03  0.18344608562E+04  0.46999998093E+01 0.  1.
       -5    1    3    3    0  502  0.11286007315E+04 -0.12004450418E+04 -0.91645298074E+03  0.18853954666E+04  0.46999998093E+01 0. -1.
</event>
<event>
 5   0  0.2824402E-07  0.3289797E+04  0.7818609E-02  0.8165496E-01
       -2   -1    0    0    0  501  0.00000000000E+00  0.00000000000E+00  0.10592224070E+04  0.10592224070E+04  0.25500000920E-02 0.  1.
        2   -1    0    0  501    0  0.00000000000E+00  0.00000000000E+00 -0.25544123522E+04  0.25544123522E+04  0.25500000920E-02 0. -1.
    10030    2    1    2    0    0  0.00000000000E+00  0.00000000000E+00 -0.14951899452E+04  0.36136347592E+04  0.32897968328E+04 0.  0.
        1    1    3    3  502    0  0.86142736124E+03 -0.28470551650E+03  0.75953771788E+03  0.11832209746E+04  0.50400001928E-02 0.  1.
       -1    1    3    3    0  502 -0.86142736124E+03  0.28470551650E+03 -0.22547276631E+04  0.24304137846E+04  0.50400001928E-02 0. -1.
</event>
<event>
 5   0  0.8805125E-08  0.3300317E+04  0.7818609E-02  0.8162815E-01
       -1   -1    0    0    0  501  0.00000000000E+00  0.00000000000E+00  0.11095027142E+04  0.11095027143E+04  0.50400001928E-02 0.  1.
        1   -1    0    0  501    0  0.00000000000E+00  0.00000000000E+00 -0.24542738506E+04  0.24542738506E+04  0.50400001928E-02 0. -1.
    10030    2    1    2    0    0  0.00000000000E+00  0.00000000000E+00 -0.13447711363E+04  0.35637765648E+04  0.33003172567E+04 0.  0.
        4    1    3    3  502    0 -0.15217505009E+04  0.10778534863E+02  0.16661032963E+02  0.15218804048E+04  0.12699999809E+01 0.  1.
       -4    1    3    3    0  502  0.15217505009E+04 -0.10778534863E+02 -0.13614321693E+04  0.20418961600E+04  0.12699999809E+01 0. -1.
</event>
<event>
 5   0  0.8805125E-08  0.3398023E+04  0.7818609E-02  0.8138392E-01
        3   -1    0    0  501    0  0.00000000000E+00  0.00000000000E+00  0.14101573884E+04  0.14101573920E+04  0.10100000352E+00 0.  1.
       -3   -1    0    0    0  501  0.00000000000E+00  0.00000000000E+00 -0.20470342924E+04  0.20470342949E+04  0.10100000352E+00 0. -1.
    10030    2    1    2    0    0  0.00000000000E+00  0.00000000000E+00 -0.63687690395E+03  0.34571916869E+04  0.33980232738E+04 0.  0.
        3    1    3    3  502    0  0.77331683398E+03 -0.15117924396E+04 -0.37513331624E+03  0.17390400574E+04  0.10100000352E+00 0. -1.
       -3    1    3    3    0  502 -0.77331683398E+03  0.15117924396E+04 -0.26174358770E+03  0.17181516295E+04  0.10100000352E+00 0.  1.
</event>
<event>
 5   0  0.2703956E-07  0.3286040E+04  0.7818609E-02  0.8166457E-01
        2   -1    0    0  501    0  0.00000000000E+00  0.00000000000E+00  0.13807171520E+04  0.13807171520E+04  0.25500000920E-02 0.  1.
       -2   -1    0    0    0  501  0.00000000000E+00  0.00000000000E+00 -0.19551535743E+04  0.19551535743E+04  0.25500000920E-02 0. -1.
    10030    2    1    2    0    0  0.00000000000E+00  0.00000000000E+00 -0.57443642226E+03  0.33358707263E+04  0.32860396071E+04 0.  0.
        5    1    3    3  502    0 -0.15264098513E+04  0.60718201568E+03 -0.25684883234E+03  0.16627057608E+04  0.46999998093E+01 0.  1.
       -5    1    3    3    0  502  0.15264098513E+04 -0.60718201568E+03 -0.31758758991E+03  0.16731649655E+04  0.46999998093E+01 0. -1.
</event>
<event>
 5   0  0.2727168E-07  0.3289274E+04  0.7818609E-02  0.8165630E-01
        2   -1    0    0  501    0  0.00000000000E+00  0.00000000000E+00  0.19218043842E+04  0.19218043842E+04  0.25500000920E-02 0.  1.
       -2   -1    0    0    0  501  0.00000000000E+00  0.00000000000E+00 -0.14074430540E+04  0.14074430540E+04  0.25500000920E-02 0. -1.
    10030    2    1    2    0    0  0.00000000000E+00  0.00000000000E+00  0.51436133027E+03  0.33292474382E+04  0.32892736169E+04 0.  0.
        2    1    3    3  502    0 -0.10061976020E+04 -0.76794061350E+03 -0.80565871490E+03  0.15004173969E+04  0.25500000920E-02 0. -1.
       -2    1    3    3    0  502  0.10061976020E+04  0.76794061350E+03  0.13200200452E+04  0.18288300413E+04  0.25500000920E-02 0.  1.
</event>
<event>
 5   0  0.2875829E-07  0.3308708E+04  0.7818609E-02  0.8160683E-01
       -2   -1    0    0    0  501  0.00000000000E+00  0.00000000000E+00  0.12405743291E+04  0.12405743291E+04  0.25500000920E-02 0.  1.
        2   -1    0    0  501    0  0.00000000000E+00  0.00000000000E+00 -0.22061457777E+04  0.22061457777E+04  0.25500000920E-02 0. -1.
    10030    2    1    2    0    0  0.00000000000E+00  0.00000000000E+00 -0.96557144858E+03  0.34467201068E+04  0.33087083994E+04 0.  0.
        3    1    3    3  502    0 -0.15037698951E+04  0.50630655836E+03 -0.97052217410E+03  0.18599955723E+04  0.10100000352E+00 0. -1.
       -3    1    3    3    0  502  0.15037698951E+04 -0.50630655836E+03  0.49507255191E+01  0.15867245345E+04  0.10100000352E+00 0.  1.
</event>
<event>
 5   0  0.9181760E-08  0.3295616E+04  0.7818609E-02  0.8164012E-01
       -1   -1    0    0    0  501  0.00000000000E+00  0.00000000000E+00  0.11974017463E+04  0.11974017463E+04  0.50400001928E-02 0. -1.
        1   -1    0    0  501    0  0.00000000000E+00  0.00000000000E+00 -0.22676357782E+04  0.22676357782E+04  0.50400001928E-02 0.  1.
    10030    2    1    2    0    0  0.00000000000E+00  0.00000000000E+00 -0.10702340319E+04  0.34650375245E+04  0.32956159005E+04 0.  0.
        1    1    3    3  502    0 -0.13037921727E+04 -0.75454300654E+03  0.16709603917E+03  0.15156286698E+04  0.50400001928E-02 0. -1.
       -1    1    3    3    0  502  0.13037921727E+04  0.75454300654E+03 -0.12373300711E+04  0.19494088548E+04  0.50400001928E-02 0.  1.
</event>
<event>
 5   0  0.2875829E-07  0.3298176E+04  0.7818609E-02  0.8163360E-01
        2   -1    0    0  501    0  0.00000000000E+00  0.00000000000E+00  0.13474695808E+04  0.13474695808E+04  0.25500000920E-02 0. -1.
       -2   -1    0    0    0  501  0.00000000000E+00  0.00000000000E+00 -0.20182206243E+04  0.20182206243E+04  0.25500000920E-02 0.  1.
    10030    2    1    2    0    0  0.00000000000E+00  0.00000000000E+00 -0.67075104348E+03  0.33656902051E+04  0.32981757980E+04 0.  0.
        3    1    3    3  502    0  0.90926015543E+03 -0.60900773413E+03  0.92350859585E+03  0.14319610984E+04  0.10100000352E+00 0. -1.
       -3    1    3    3    0  502 -0.90926015543E+03  0.60900773413E+03 -0.15942596393E+04  0.19337291067E+04  0.10100000352E+00 0.  1.
</event>
<event>
 5   0  0.2703956E-07  0.3301544E+04  0.7818609E-02  0.8162503E-01
       -2   -1    0    0    0  501  0.00000000000E+00  0.00000000000E+00  0.21922957937E+04  0.21922957937E+04  0.25500000920E-02 0. -1.
        2   -1    0    0  501    0  0.00000000000E+00  0.00000000000E+00 -0.12430115063E+04  0.12430115063E+04  0.25500000920E-02 0.  1.
    10030    2    1    2    0    0  0.00000000000E+00  0.00000000000E+00  0.94928428738E+03  0.34353072999E+04  0.33015444245E+04 0.  0.
        5    1    3    3  502    0 -0.10377084229E+03  0.97001571527E+03  0.18602584135E+04  0.21005433418E+04  0.46999998093E+01 0. -1.
       -5    1    3    3    0  502  0.10377084229E+03 -0.97001571527E+03 -0.91097412613E+03  0.13347639582E+04  0.46999998093E+01 0.  1.
</event>
<event>
 5   0  0.9181760E-08  0.3299505E+04  0.7818609E-02  0.8163021E-01
       -1   -1    0    0    0  501  0.00000000000E+00  0.00000000000E+00  0.20627228260E+04  0.20627228260E+04  0.50400001928E-02 0.  1.
        1   -1    0    0  501    0  0.00000000000E+00  0.00000000000E+00 -0.13194617248E+04  0.13194617248E+04  0.50400001928E-02 0. -1.
    10030    2    1    2    0    0  0.00000000000E+00  0.00000000000E+00  0.74326110114E+03  0.33821845508E+04  0.32995053071E+04 0.  0.
        1    1    3    3  502    0  0.74708383220E+03 -0.12568853524E+04 -0.41157605341E+03  0.15189765927E+04  0.50400001928E-02 0. -1.
       -1    1    3    3    0  502 -0.74708383220E+03  0.12568853524E+04  0.11548371545E+04  0.18632079581E+04  0.50400001928E-02 0.  1.
</event>
<event>
 5   0  0.9454010E-08  0.3330862E+04  0.7818609E-02  0.8155087E-01
       -1   -1    0    0    0  501  0.00000000000E+00  0.00000000000E+00  0.12485635404E+04  0.12485635404E+04  0.50400001928E-02 0. -1.
        1   -1    0    0  501    0  0.00000000000E+00  0.00000000000E+00 -0.22214816303E+04  0.22214816303E+04  0.50400001928E-02 0.  1.
    10030    2    1    2    0    0  0.00000000000E+00  0.00000000000E+00 -0.97291808994E+03  0.34700451707E+04  0.33308623323E+04 0.  0.
        2    1    3    3  502    0  0.16306669984E+04 -0.88929509693E+02 -0.14619569882E+03  0.16396208402E+04  0.25500000920E-02 0. -1.
       -2    1    3    3    0  502 -0.16306669984E+04  0.88929509693E+02 -0.82672239112E+03  0.18304243304E+04  0.25500000920E-02 0.  1.
</event>
<event>
 5   0  0.2713815E-07  0.3300089E+04  0.7818609E-02  0.8162873E-01
       -2   -1    0    0    0  501  0.00000000000E+00  0.00000000000E+00  0.11171975436E+04  0.11171975436E+04  0.25500000920E-02 0. -1.
        2   -1    0    0  501    0  0.00000000000E+00  0.00000000000E+00 -0.24370321595E+04  0.24370321595E+04  0.25500000920E-02 0.  1.
    10030    2    1    2    0    0  0.00000000000E+00  0.00000000000E+00 -0.13198346158E+04  0.35542297031E+04  0.33000886911E+04 0.  0.
        4    1    3    3  502    0 -0.10446957933E+04  0.47712157581E+03  0.61606065429E+03  0.13032906972E+04  0.12699999809E+01 0. -1.
       -4    1    3    3    0  502  0.10446957933E+04 -0.47712157581E+03 -0.19358952701E+04  0.22509390059E+04  0.12699999809E+01 0.  1.
</event>
<event>
 5   0  0.2713815E-07  0.3303617E+04  0.7818609E-02  0.8161976E-01
        2   -1    0    0  501    0  0.00000000000E+00  0.00000000000E+00  0.13358227108E+04  0.13358227108E+04  0.25500000920E-02 0. -1.
       -2   -1    0    0    0  501  0.00000000000E+00  0.00000000000E+00 -0.20425403028E+04  0.20425403028E+04  0.25500000920E-02 0.  1.
    10030    2    1    2    0    0  0.00000000000E+00  0.00000000000E+00 -0.70671759204E+03  0.33783630136E+04  0.33036172442E+04 0.  0.
        4    1    3    3  502    0  0.14788831092E+04 -0.73479028175E+03 -0.39240785661E+03  0.16973501547E+04  0.12699999809E+01 0. -1.
       -4    1    3    3    0  502 -0.14788831092E+04  0.73479028175E+03 -0.31430973543E+03  0.16810128588E+04  0.12699999809E+01 0.  1.
</event>
<event>
 5   0  0.2727168E-07  0.3297409E+04  0.7818609E-02  0.8163555E-01
        2   -1    0    0  501    0  0.00000000000E+00  0.00000000000E+00  0.25909826016E+04  0.25909826016E+04  0.25500000920E-02 0.  1.
       -2   -1    0    0    0  501  0.00000000000E+00  0.00000000000E+00 -0.10491104407E+04  0.10491104407E+04  0.25500000920E-02 0. -1.
    10030    2    1    2    0    0  0.00000000000E+00  0.00000000000E+00  0.15418721609E+04  0.36400930423E+04  0.32974092248E+04 0.  0.
        2    1    3    3  502    0 -0.13881691515E+04  0.46990519059E+03 -0.62803299185E+02  0.14668908397E+04  0.25500000920E-02 0.  1.
       -2    1    3    3    0  502  0.13881691515E+04 -0.46990519059E+03  0.16046754601E+04  0.21732022026E+04  0.25500000920E-02 0. -1.
</event>
<event>
 5   0  0.2824402E-07  0.3299089E+04  0.7818609E-02  0.8163127E-01
       -2   -1    0    0    0  501  0.00000000000E+00  0.00000000000E+00  0.12786309521E+04  0.12786309521E+04  0.25500000920E-02 0. -1.
        2   -1    0    0  501    0  0.00000000000E+00  0.00000000000E+00 -0.21280555503E+04  0.21280555503E+04  0.25500000920E-02 0.  1.
    10030    2    1    2    0    0  0.00000000000E+00  0.00000000000E+00 -0.84942459821E+03  0.34066865024E+04  0.32990893861E+04 0.  0.
        1    1    3    3  502    0 -0.89508865165E+03  0.11400220896E+04 -0.12379008129E+04  0.19061040060E+04  0.50400001928E-02 0.  1.
       -1    1    3    3    0  502  0.89508865165E+03 -0.11400220896E+04  0.38847621470E+03  0.15005824964E+04  0.50400001928E-02 0. -1.
</event>
<event>
 5   0  0.2713815E-07  0.3299926E+04  0.7818609E-02  0.8162914E-01
        2   -1    0    0  501    0  0.00000000000E+00  0.00000000000E+00  0.20149699715E+04  0.20149699715E+04  0.25500000920E-02 0.  1.
       -2   -1    0    0    0  501  0.00000000000E+00  0.00000000000E+00 -0.13510758685E+04  0.13510758685E+04  0.25500000920E-02 0. -1.
    10030    2    1    2    0    0  0.00000000000E+00  0.00000000000E+00  0.66389410296E+03  0.33660458400E+04  0.32999256381E+04 0.  0.
        4    1    3    3  502    0  0.51108682630E+03 -0.18365838126E+02  0.19320818103E+04  0.19986217207E+04  0.12699999809E+01 0.  1.
       -4    1    3    3    0  502 -0.51108682630E+03  0.18365838126E+02 -0.12681877073E+04  0.13674241193E+04  0.12699999809E+01 0. -1.
</event>
<event>
 5   0  0.2703956E-07  0.3297738E+04  0.7818609E-02  0.8163471E-01
        2   -1    0    0  501    0  0.00000000000E+00  0.00000000000E+00  0.18203620255E+04  0.18203620255E+04  0.25500000920E-02 0.  1.
       -2   -1    0    0    0  501  0.00000000000E+00  0.00000000000E+00 -0.14935318835E+04  0.14935318835E+04  0.25500000920E-02 0. -1.
    10030    2    1    2    0    0  0.00000000000E+00  0.00000000000E+00  0.32683014202E+03  0.33138939090E+04  0.32977378456E+04 0.  0.
        5    1    3    3  502    0  0.10472383724E+04 -0.85301905637E+03 -0.78694376913E+03  0.15632185723E+04  0.46999998093E+01 0. -1.
       -5    1    3    3    0  502 -0.10472383724E+04  0.85301905637E+03  0.11137739112E+04  0.17506753366E+04  0.46999998093E+01 0.  1.
</event>
<event>
 5   0  0.9283910E-08  0.3303873E+04  0.7818609E-02  0.8161911E-01
        1   -1    0    0  501    0  0.00000000000E+00  0.00000000000E+00  0.16886560049E+04  0.16886560049E+04  0.50400001928E-02 0. -1.
       -1   -1    0    0    0  501  0.00000000000E+00  0.00000000000E+00 -0.16160153160E+04  0.16160153160E+04  0.50400001928E-02 0.  1.
    10030    2    1    2    0    0  0.00000000000E+00  0.00000000000E+00  0.72640688905E+02  0.33046713209E+04  0.33038728591E+04 0.  0.
        3    1    3    3  502    0  0.27391472694E+03  0.15183562555E+04 -0.55412644277E+03  0.16393569230E+04  0.10100000352E+00 0. -1.
       -3    1    3    3    0  502 -0.27391472694E+03 -0.15183562555E+04  0.62676713167E+03  0.16653143979E+04  0.10100000352E+00 0.  1.
</event>
<event>
 5   0  0.9283910E-08  0.3297919E+04  0.7818609E-02  0.8163425E-01
        1   -1    0    0  501    0  0.00000000000E+00  0.00000000000E+00  0.14855301347E+04  0.14855301347E+04  0.50400001928E-02 0. -1.
       -1   -1    0    0    0  501  0.00000000000E+00  0.00000000000E+00 -0.18303678571E+04  0.18303678571E+04  0.50400001928E-02 0.  1.
    10030    2    1    2    0    0  0.00000000000E+00  0.00000000000E+00 -0.34483772243E+03  0.33158979919E+04  0.32979185007E+04 0.  0.
        3    1    3    3  502    0 -0.92910785675E+02  0.16189145616E+04  0.12846134593E+03  0.16266588761E+04  0.10100000352E+00 0. -1.
       -3    1    3    3    0  502  0.92910785675E+02 -0.16189145616E+04 -0.47329906837E+03  0.16892391157E+04  0.10100000352E+00 0.  1.
</event>
<event>
 5   0  0.8805125E-08  0.3275223E+04  0.7818609E-02  0.8169229E-01
        1   -1    0    0  501    0  0.00000000000E+00  0.00000000000E+00  0.17618636338E+04  0.17618636338E+04  0.50400001928E-02 0.  1.
       -1   -1    0    0    0  501  0.00000000000E+00  0.00000000000E+00 -0.15221217771E+04  0.15221217771E+04  0.50400001928E-02 0. -1.
    10030    2    1    2    0    0  0.00000000000E+00  0.00000000000E+00  0.23974185667E+03  0.32839854109E+04  0.32752227437E+04 0.  0.
        4    1    3    3  502    0  0.75324014049E+03 -0.35125204599E+03 -0.12949395374E+04  0.15387068361E+04  0.12699999809E+01 0. -1.
       -4    1    3    3    0  502 -0.75324014049E+03  0.35125204599E+03  0.15346813941E+04  0.17452785747E+04  0.12699999809E+01 0.  1.
</event>
<event>
 5   0  0.9181760E-08  0.3296081E+04  0.7818609E-02  0.8163893E-01
       -1   -1    0    0    0  501  0.00000000000E+00  0.00000000000E+00  0.10463022210E+04  0.10463022210E+04  0.50400001928E-02 0.  1.
        1   -1    0    0  501    0  0.00000000000E+00  0.00000000000E+00 -0.25958438456E+04  0.25958438456E+04  0.50400001928E-02 0. -1.
    10030    2    1    2    0    0  0.00000000000E+00  0.00000000000E+00 -0.15495416246E+04  0.36421460666E+04  0.32960808127E+04 0.  0.
        1    1    3    3  502    0 -0.84164850508E+03 -0.13684437527E+04 -0.11808112503E+04  0.19938218875E+04  0.50400001928E-02 0. -1.
       -1    1    3    3    0  502  0.84164850508E+03  0.13684437527E+04 -0.36873037434E+03  0.16483241791E+04  0.50400001928E-02 0.  1.
</event>
<event>
 5   0  0.2824402E-07  0.3300945E+04  0.7818609E-02  0.8162655E-01
       -2   -1    0    0    0  501  0.00000000000E+00  0.00000000000E+00  0.16014181269E+04  0.16014181269E+04  0.25500000920E-02 0.  1.
        2   -1    0    0  501    0  0.00000000000E+00  0.00000000000E+00 -0.17010292013E+04  0.17010292013E+04  0.25500000920E-02 0. -1.
    10030    2    1    2    0    0  0.00000000000E+00  0.00000000000E+00 -0.99611074343E+02  0.33024473282E+04  0.33009447116E+04 0.  0.
        1    1    3    3  502    0  0.13843092270E+04  0.74340749086E+03 -0.55510204105E+03  0.16664648239E+04  0.50400001928E-02 0. -1.
       -1    1    3    3    0  502 -0.13843092270E+04 -0.74340749086E+03  0.45549096671E+03  0.16359825043E+04  0.50400001928E-02 0.  1.
</event>
<event>
 5   0  0.2713815E-07  0.3330426E+04  0.7818609E-02  0.8155196E-01
       -2   -1    0    0    0  501  0.00000000000E+00  0.00000000000E+00  0.18238488776E+04  0.18238488776E+04  0.25500000920E-02 0.  1.
        2   -1    0    0  501    0  0.00000000000E+00  0.00000000000E+00 -0.15203750946E+04  0.15203750946E+04  0.25500000920E-02 0. -1.
    10030    2    1    2    0    0  0.00000000000E+00  0.00000000000E+00  0.30347378308E+03  0.33442239722E+04  0.33304260447E+04 0.  0.
        4    1    3    3  502    0 -0.14117967380E+03 -0.15165588852E+04 -0.52414178647E+03  0.16107789351E+04  0.12699999809E+01 0. -1.
       -4    1    3    3    0  502  0.14117967380E+03  0.15165588852E+04  0.82761556954E+03  0.17334450371E+04  0.12699999809E+01 0.  1.
</event>
<event>
 5   0  0.2727168E-07  0.3282017E+04  0.7818609E-02  0.8167486E-01
        2   -1    0    0  501    0  0.00000000000E+00  0.00000000000E+00  0.11683558893E+04  0.11683558893E+04  0.25500000920E-02 0.  1.
       -2   -1    0    0    0  501  0.00000000000E+00  0.00000000000E+00 -0.23048699677E+04  0.23048699677E+04  0.25500000920E-02 0. -1.
    10030    2    1    2    0    0  0.00000000000E+00  0.00000000000E+00 -0.11365140785E+04  0.34732258570E+04  0.32820166976E+04 0.  0.
        2    1    3    3  502    0 -0.14967939419E+04 -0.40974004218E+03 -0.36684278259E+01  0.15518674119E+04  0.25500000920E-02 0.  1.
       -2    1    3    3    0  502  0.14967939419E+04  0.40974004218E+03 -0.11328456506E+04  0.19213584452E+04  0.25500000920E-02 0. -1.
</event>
<event>
 5   0  0.8805125E-08  0.3304480E+04  0.7818609E-02  0.8161756E-01
       -3   -1    0    0    0  501  0.00000000000E+00  0.00000000000E+00  0.91754449916E+03  0.91754450472E+03  0.10100000352E+00 0. -1.
        3   -1    0    0  501    0  0.00000000000E+00  0.00000000000E+00 -0.29752205103E+04  0.29752205120E+04  0.10100000352E+00 0.  1.
    10030    2    1    2    0    0  0.00000000000E+00  0.00000000000E+00 -0.20576760111E+04  0.38927650167E+04  0.33044801268E+04 0.  0.
        4    1    3    3  502    0  0.45277856803E+03 -0.28124552015E+03  0.81347942765E+03  0.97255224352E+03  0.12699999809E+01 0. -1.
       -4    1    3    3    0  502 -0.45277856803E+03  0.28124552015E+03 -0.28711554388E+04  0.29202127732E+04  0.12699999809E+01 0.  1.
</event>
<event>
 5   0  0.9283910E-08  0.3260719E+04  0.7818609E-02  0.8172963E-01
       -1   -1    0    0    0  501  0.00000000000E+00  0.00000000000E+00  0.12998096712E+04  0.12998096712E+04  0.50400001928E-02 0.  1.
        1   -1    0    0  501    0  0.00000000000E+00  0.00000000000E+00 -0.20449705083E+04  0.20449705083E+04  0.50400001928E-02 0. -1.
    10030    2    1    2    0    0  0.00000000000E+00  0.00000000000E+00 -0.74516083712E+03  0.33447801794E+04  0.32607192114E+04 0.  0.
        3    1    3    3  502    0  0.11753139399E+04 -0.93147460592E+03  0.28348953132E+03  0.15262287258E+04  0.10100000352E+00 0. -1.
       -3    1    3    3    0  502 -0.11753139399E+04  0.93147460592E+03 -0.10286503684E+04  0.18185514536E+04  0.10100000352E+00 0.  1.
</event>
<event>
 5   0  0.2824402E-07  0.3294053E+04  0.7818609E-02  0.8164410E-01
       -2   -1    0    0    0  501  0.00000000000E+00  0.00000000000E+00  0.12492818668E+04  0.12492818668E+04  0.25500000920E-02 0.  1.
        2   -1    0    0  501    0  0.00000000000E+00  0.00000000000E+00 -0.21714040575E+04  0.21714040575E+04  0.25500000920E-02 0. -1.
    10030    2    1    2    0    0  0.00000000000E+00  0.00000000000E+00 -0.92212219069E+03  0.34206859242E+04  0.32940526495E+04 0.  0.
        1    1    3    3  502    0  0.86063584073E+03  0.25047001741E+03  0.97382006371E+03  0.13235387401E+04  0.50400001928E-02 0.  1.
       -1    1    3    3    0  502 -0.86063584073E+03 -0.25047001741E+03 -0.18959422544E+04  0.20971471842E+04  0.50400001928E-02 0. -1.
</event>
<event>
 5   0  0.8805125E-08  0.3300876E+04  0.7818609E-02  0.8162673E-01
        1   -1    0    0  501    0  0.00000000000E+00  0.00000000000E+00  0.26213487120E+04  0.26213487120E+04  0.50400001928E-02 0. -1.
       -1   -1    0    0    0  501  0.00000000000E+00  0.00000000000E+00 -0.10391388937E+04  0.10391388938E+04  0.50400001928E-02 0.  1.
    10030    2    1    2    0    0  0.00000000000E+00  0.00000000000E+00  0.15822098183E+04  0.36604876058E+04  0.33008758842E+04 0.  0.
        4    1    3    3  502    0 -0.10996568473E+04 -0.92665253712E+03  0.16892907290E+04  0.22184758025E+04  0.12699999809E+01 0. -1.
       -4    1    3    3    0  502  0.10996568473E+04  0.92665253712E+03 -0.10708091073E+03  0.14420118033E+04  0.12699999809E+01 0.  1.
</event>
<event>
 5   0  0.9283910E-08  0.3298761E+04  0.7818609E-02  0.8163211E-01
       -1   -1    0    0    0  501  0.00000000000E+00  0.00000000000E+00  0.17640460730E+04  0.17640460730E+04  0.50400001928E-02 0. -1.
        1   -1    0    0  501    0  0.00000000000E+00  0.00000000000E+00 -0.15421679438E+04  0.15421679439E+04  0.50400001928E-02 0.  1.
    10030    2    1    2    0    0  0.00000000000E+00  0.00000000000E+00  0.22187812916E+03  0.33062140169E+04  0.32987605583E+04 0.  0.
        3    1    3    3  502    0  0.82568518914E+03 -0.19078548761E+03 -0.13072847074E+04  0.15579308233E+04  0.10100000352E+00 0.  1.
       -3    1    3    3    0  502 -0.82568518914E+03  0.19078548761E+03  0.15291628366E+04  0.17482831935E+04  0.10100000352E+00 0. -1.
</event>
<event>
 5   0  0.9181760E-08  0.3295316E+04  0.7818609E-02  0.8164088E-01
        1   -1    0    0  501    0  0.00000000000E+00  0.00000000000E+00  0.21735440183E+04  0.21735440183E+04  0.50400001928E-02 0.  1.
       -1   -1    0    0    0  501  0.00000000000E+00  0.00000000000E+00 -0.12490096928E+04  0.12490096928E+04  0.50400001928E-02 0. -1.
    10030    2    1    2    0    0  0.00000000000E+00  0.00000000000E+00  0.92453432542E+03  0.34225537111E+04  0.32953164016E+04 0.  0.
        1    1    3    3  502    0  0.13839420966E+04 -0.79436638224E+03  0.88855853197E+03  0.18264309296E+04  0.50400001928E-02 0. -1.
       -1    1    3    3    0  502 -0.13839420966E+04  0.79436638224E+03  0.35975793455E+02  0.15961227815E+04  0.50400001928E-02 0.  1.
</event>
<event>
 5   0  0.8805125E-08  0.3299429E+04  0.7818609E-02  0.8163041E-01
       -3   -1    0    0    0  501  0.00000000000E+00  0.00000000000E+00  0.16868715049E+04  0.16868715080E+04  0.10100000352E+00 0. -1.
        3   -1    0    0  501    0  0.00000000000E+00  0.00000000000E+00 -0.16133757798E+04  0.16133757830E+04  0.10100000352E+00 0.  1.
    10030    2    1    2    0    0  0.00000000000E+00  0.00000000000E+00  0.73495725105E+02  0.33002472910E+04  0.32994288233E+04 0.  0.
        4    1    3    3  502    0  0.12948930252E+04  0.82436546623E+03 -0.56774438822E+03  0.16366617463E+04  0.12699999809E+01 0.  1.
       -4    1    3    3    0  502 -0.12948930252E+04 -0.82436546623E+03  0.64124011332E+03  0.16635855447E+04  0.12699999809E+01 0. -1.
</event>
<event>
 5   0  0.9283910E-08  0.3367076E+04  0.7818609E-02  0.8146035E-01
       -1   -1    0    0    0  501  0.00000000000E+00  0.00000000000E+00  0.30498528117E+04  0.30498528117E+04  0.50400001928E-02 0.  1.
        1   -1    0    0  501    0  0.00000000000E+00  0.00000000000E+00 -0.92932338093E+03  0.92932338094E+03  0.50400001928E-02 0. -1.
    10030    2    1    2    0    0  0.00000000000E+00  0.00000000000E+00  0.21205294308E+04  0.39791761927E+04  0.33670756014E+04 0.  0.
        3    1    3    3  502    0  0.11017090141E+04 -0.29274662941E+03  0.25243666523E+04  0.27698177461E+04  0.10100000352E+00 0.  1.
       -3    1    3    3    0  502 -0.11017090141E+04  0.29274662941E+03 -0.40383722154E+03  0.12093584466E+04  0.10100000352E+00 0. -1.
</event>
<event>
 5   0  0.2713815E-07  0.3299268E+04  0.7818609E-02  0.8163082E-01
       -2   -1    0    0    0  501  0.00000000000E+00  0.00000000000E+00  0.22639490896E+04  0.22639490896E+04  0.25500000920E-02 0. -1.
        2   -1    0    0  501    0  0.00000000000E+00  0.00000000000E+00 -0.12020110888E+04  0.12020110888E+04  0.25500000920E-02 0.  1.
    10030    2    1    2    0    0  0.00000000000E+00  0.00000000000E+00  0.10619380008E+04  0.34659601784E+04  0.32992677431E+04 0.  0.
        4    1    3    3  502    0  0.31131340942E+03  0.94573998709E+03 -0.85075976881E+03  0.13096312302E+04  0.12699999809E+01 0.  1.
       -4    1    3    3    0  502 -0.31131340942E+03 -0.94573998709E+03  0.19126977696E+04  0.21563289482E+04  0.12699999809E+01 0. -1.
</event>
<event>
 5   0  0.2824402E-07  0.3293287E+04  0.7818609E-02  0.8164606E-01
        2   -1    0    0  501    0  0.00000000000E+00  0.00000000000E+00  0.24937574957E+04  0.24937574957E+04  0.25500000920E-02 0.  1.
       -2   -1    0    0    0  501  0.00000000000E+00  0.00000000000E+00 -0.10872887872E+04  0.10872887872E+04  0.25500000920E-02 0. -1.
    10030    2    1    2    0    0  0.00000000000E+00  0.00000000000E+00  0.14064687085E+04  0.35810462828E+04  0.32932868463E+04 0.  0.
        1    1    3    3  502    0  0.16256967785E+04 -0.22564983534E+03  0.55886803904E+03  0.17338227559E+04  0.50400001928E-02 0.  1.
       -1    1    3    3    0  502 -0.16256967785E+04  0.22564983534E+03  0.84760066945E+03  0.18472235270E+04  0.50400001928E-02 0. -1.
</event>
<event>
 5   0  0.8805125E-08  0.3305223E+04  0.7818609E-02  0.8161568E-01
       -1   -1    0    0    0  501  0.00000000000E+00  0.00000000000E+00  0.32815751280E+04  0.32815751280E+04  0.50400001928E-02 0.  1.
        1   -1    0    0  501    0  0.00000000000E+00  0.00000000000E+00 -0.83226010627E+03  0.83226010628E+03  0.50400001928E-02 0. -1.
    10030    2    1    2    0    0  0.00000000000E+00  0.00000000000E+00  0.24493150217E+04  0.41138352343E+04  0.33052225733E+04 0.  0.
        4    1    3    3  502    0 -0.15960238797E+04 -0.30786161768E+03  0.85323631432E+03  0.18357790775E+04  0.12699999809E+01 0. -1.
       -4    1    3    3    0  502  0.15960238797E+04  0.30786161768E+03  0.15960787074E+04  0.22780561568E+04  0.12699999809E+01 0.  1.
</event>
<event>
 5   0  0.2703956E-07  0.3302021E+04  0.7818609E-02  0.8162381E-01
        2   -1    0    0  501    0  0.00000000000E+00  0.00000000000E+00  0.23625411881E+04  0.23625411881E+04  0.25500000920E-02 0.  1.
       -2   -1    0    0    0  501  0.00000000000E+00  0.00000000000E+00 -0.11537724229E+04  0.11537724229E+04  0.25500000920E-02 0. -1.
    10030    2    1    2    0    0  0.00000000000E+00  0.00000000000E+00  0.12087687651E+04  0.35163136110E+04  0.33020205153E+04 0.  0.
        5    1    3    3  502    0 -0.87337689327E+03 -0.13130129076E+04  0.11250122340E+04  0.19371279539E+04  0.46999998093E+01 0.  1.
       -5    1    3    3    0  502  0.87337689327E+03  0.13130129076E+04  0.83756531140E+02  0.15791856571E+04  0.46999998093E+01 0. -1.
</event>
<event>
 5   0  0.8805125E-08  0.3300696E+04  0.7818609E-02  0.8162718E-01
        1   -1    0    0  501    0  0.00000000000E+00  0.00000000000E+00  0.15071018169E+04  0.15071018169E+04  0.50400001928E-02 0. -1.
       -1   -1    0    0    0  501  0.00000000000E+00  0.00000000000E+00 -0.18072090070E+04  0.18072090070E+04  0.50400001928E-02 0.  1.
    10030    2    1    2    0    0  0.00000000000E+00  0.00000000000E+00 -0.30010719010E+03  0.33143108239E+04  0.33006956708E+04 0.  0.
        4    1    3    3  502    0  0.10648977547E+03 -0.53279903907E+02 -0.18028894604E+04  0.18068178768E+04  0.12699999809E+01 0.  1.
       -4    1    3    3    0  502 -0.10648977547E+03  0.53279903907E+02  0.15027822703E+04  0.15074929471E+04  0.12699999809E+01 0. -1.
</event>
<event>
 5   0  0.9181760E-08  0.3297417E+04  0.7818609E-02  0.8163553E-01
        1   -1    0    0  501    0  0.00000000000E+00  0.00000000000E+00  0.14413157821E+04  0.14413157821E+04  0.50400001928E-02 0. -1.
       -1   -1    0    0    0  501  0.00000000000E+00  0.00000000000E+00 -0.18859432265E+04  0.18859432266E+04  0.50400001928E-02 0.  1.
    10030    2    1    2    0    0  0.00000000000E+00  0.00000000000E+00 -0.44462744446E+03  0.33272590087E+04  0.32974170113E+04 0.  0.
        1    1    3    3  502    0  0.53761712500E+03  0.15555657860E+04 -0.32026254968E+03  0.16767185776E+04  0.50400001928E-02 0. -1.
       -1    1    3    3    0  502 -0.53761712500E+03 -0.15555657860E+04 -0.12436489478E+03  0.16505404311E+04  0.50400001928E-02 0.  1.
</event>
<event>
 5   0  0.9181760E-08  0.3293995E+04  0.7818609E-02  0.8164425E-01
       -1   -1    0    0    0  501  0.00000000000E+00  0.00000000000E+00  0.12463483625E+04  0.12463483626E+04  0.50400001928E-02 0. -1.
        1   -1    0    0  501    0  0.00000000000E+00  0.00000000000E+00 -0.21764387271E+04  0.21764387271E+04  0.50400001928E-02 0.  1.
    10030    2    1    2    0    0  0.00000000000E+00  0.00000000000E+00 -0.93009036459E+03  0.34227870897E+04  0.32939950478E+04 0.  0.
        1    1    3    3  502    0  0.13068022489E+04  0.20854733698E+03 -0.14838799274E+04  0.19882464003E+04  0.50400001928E-02 0.  1.
       -1    1    3    3    0  502 -0.13068022489E+04 -0.20854733698E+03  0.55378956280E+03  0.14345406894E+04  0.50400001928E-02 0. -1.
</event>
<event>
 5   0  0.9283910E-08  0.3299055E+04  0.7818609E-02  0.8163136E-01
       -1   -1    0    0    0  501  0.00000000000E+00  0.00000000000E+00  0.13343535439E+04  0.13343535439E+04  0.50400001928E-02 0.  1.
        1   -1    0    0  501    0  0.00000000000E+00  0.00000000000E+00 -0.20391456899E+04  0.20391456899E+04  0.50400001928E-02 0. -1.
    10030    2    1    2    0    0  0.00000000000E+00  0.00000000000E+00 -0.70479214599E+03  0.33734992338E+04  0.32990551847E+04 0.  0.
        3    1    3    3  502    0 -0.13730431643E+03 -0.96691323341E+03 -0.17117417324E+04  0.19707443885E+04  0.10100000352E+00 0. -1.
       -3    1    3    3    0  502  0.13730431643E+03  0.96691323341E+03  0.10069495864E+04  0.14027548453E+04  0.10100000352E+00 0.  1.
</event>
<event>
 5   0  0.2703956E-07  0.3294507E+04  0.7818609E-02  0.8164294E-01
        2   -1    0    0  501    0  0.00000000000E+00  0.00000000000E+00  0.22127568841E+04  0.22127568841E+04  0.25500000920E-02 0.  1.
       -2   -1    0    0    0  501  0.00000000000E+00  0.00000000000E+00 -0.12262733302E+04  0.12262733302E+04  0.25500000920E-02 0. -1.
    10030    2    1    2    0    0  0.00000000000E+00  0.00000000000E+00  0.98648355394E+03  0.34390302143E+04  0.32945074006E+04 0.  0.
        5    1    3    3  502    0 -0.37428299190E+01 -0.55989515842E+03  0.21103699202E+04  0.21833872509E+04  0.46999998093E+01 0.  1.
       -5    1    3    3    0  502  0.37428299190E+01  0.55989515842E+03 -0.11238863663E+04  0.12556429634E+04  0.46999998093E+01 0. -1.
</event>
<event>
 5   0  0.2824402E-07  0.3302451E+04  0.7818609E-02  0.8162272E-01
       -2   -1    0    0    0  501  0.00000000000E+00  0.00000000000E+00  0.11558124570E+04  0.11558124570E+04  0.25500000920E-02 0.  1.
        2   -1    0    0  501    0  0.00000000000E+00  0.00000000000E+00 -0.23589863834E+04  0.23589863834E+04  0.25500000920E-02 0. -1.
    10030    2    1    2    0    0  0.00000000000E+00  0.00000000000E+00 -0.12031739264E+04  0.35147988404E+04  0.33024511187E+04 0.  0.
        1    1    3    3  502    0  0.83763527698E+03 -0.34357659150E+03 -0.20712724480E+04  0.22604971324E+04  0.50400001928E-02 0. -1.
       -1    1    3    3    0  502 -0.83763527698E+03  0.34357659150E+03  0.86809852163E+03  0.12543017080E+04  0.50400001928E-02 0.  1.
</event>
<event>
 5   0  0.8805125E-08  0.3303784E+04  0.7818609E-02  0.8161933E-01
        1   -1    0    0  501    0  0.00000000000E+00  0.00000000000E+00  0.23710899144E+04  0.23710899144E+04  0.50400001928E-02 0.  1.
       -1   -1    0    0    0  501  0.00000000000E+00  0.00000000000E+00 -0.11508409308E+04  0.11508409308E+04  0.50400001928E-02 0. -1.
    10030    2    1    2    0    0  0.00000000000E+00  0.00000000000E+00  0.12202489836E+04  0.35219308452E+04  0.33037840874E+04 0.  0.
        4    1    3    3  502    0  0.12836247234E+03  0.56265393786E+03 -0.10398773030E+04  0.11892866754E+04  0.12699999809E+01 0. -1.
       -4    1    3    3    0  502 -0.12836247234E+03 -0.56265393786E+03  0.22601262867E+04  0.23326441698E+04  0.12699999809E+01 0.  1.
</event>
<event>
 5   0  0.9283910E-08  0.3292244E+04  0.7818609E-02  0.8164872E-01
        1   -1    0    0  501    0  0.00000000000E+00  0.00000000000E+00  0.23351856649E+04  0.23351856649E+04  0.50400001928E-02 0.  1.
       -1   -1    0    0    0  501  0.00000000000E+00  0.00000000000E+00 -0.11603863294E+04  0.11603863294E+04  0.50400001928E-02 0. -1.
    10030    2    1    2    0    0  0.00000000000E+00  0.00000000000E+00  0.11747993354E+04  0.34955719943E+04  0.32922439291E+04 0.  0.
        3    1    3    3  502    0  0.70674874594E+03 -0.99832519726E+03 -0.58225795426E+03  0.13546849541E+04  0.10100000352E+00 0. -1.
       -3    1    3    3    0  502 -0.70674874594E+03  0.99832519726E+03  0.17570572897E+04  0.21408870402E+04  0.10100000352E+00 0.  1.
</event>
<event>
 5   0  0.2703956E-07  0.3304782E+04  0.7818609E-02  0.8161680E-01
       -2   -1    0    0    0  501  0.00000000000E+00  0.00000000000E+00  0.17605472588E+04  0.17605472588E+04  0.25500000920E-02 0. -1.
        2   -1    0    0  501    0  0.00000000000E+00  0.00000000000E+00 -0.15508794430E+04  0.15508794430E+04  0.25500000920E-02 0.  1.
    10030    2    1    2    0    0  0.00000000000E+00  0.00000000000E+00  0.20966781576E+03  0.33114267018E+04  0.33047823239E+04 0.  0.
        5    1    3    3  502    0 -0.12237547365E+04 -0.11041441949E+04 -0.12295954540E+02  0.16482971027E+04  0.46999998093E+01 0. -1.
       -5    1    3    3    0  502  0.12237547365E+04  0.11041441949E+04  0.22196377030E+03  0.16631295991E+04  0.46999998093E+01 0.  1.
</event>
<event>
 5   0  0.9810351E-08  0.3295418E+04  0.7818609E-02  0.8164062E-01
        1   -1    0    0  501    0  0.00000000000E+00  0.00000000000E+00  0.11676218878E+04  0.11676218878E+04  0.50400001928E-02 0. -1.
       -1   -1    0    0    0  501  0.00000000000E+00  0.00000000000E+00 -0.23251919581E+04  0.23251919581E+04  0.50400001928E-02 0.  1.
    10030    2    1    2    0    0  0.00000000000E+00  0.00000000000E+00 -0.11575700703E+04  0.34928138459E+04  0.32954180455E+04 0.  0.
        5    1    3    3  502    0 -0.76427477376E+03 -0.12785450214E+04  0.16777116698E+03  0.14989871767E+04  0.46999998093E+01 0. -1.
       -5    1    3    3    0  502  0.76427477376E+03  0.12785450214E+04 -0.13253412373E+04  0.19938266692E+04  0.46999998093E+01 0.  1.
</event>
<event>
 5   0  0.9283910E-08  0.3295283E+04  0.7818609E-02  0.8164097E-01
        1   -1    0    0  501    0  0.00000000000E+00  0.00000000000E+00  0.17275048595E+04  0.17275048595E+04  0.50400001928E-02 0.  1.
       -1   -1    0    0    0  501  0.00000000000E+00  0.00000000000E+00 -0.15714702045E+04  0.15714702045E+04  0.50400001928E-02 0. -1.
    10030    2    1    2    0    0  0.00000000000E+00  0.00000000000E+00  0.15603465505E+03  0.32989750640E+04  0.32952829407E+04 0.  0.
        3    1    3    3  502    0  0.10108930084E+03  0.20203373495E+02 -0.15682384416E+04  0.15716230601E+04  0.10100000352E+00 0. -1.
       -3    1    3    3    0  502 -0.10108930084E+03 -0.20203373495E+02  0.17242730967E+04  0.17273520039E+04  0.10100000352E+00 0.  1.
</event>
<event>
 5   0  0.2713815E-07  0.3303062E+04  0.7818609E-02  0.8162117E-01
       -2   -1    0    0    0  501  0.00000000000E+00  0.00000000000E+00  0.12553168484E+04  0.12553168484E+04  0.25500000920E-02 0.  1.
        2   -1    0    0  501    0  0.00000000000E+00  0.00000000000E+00 -0.21728020492E+04  0.21728020492E+04  0.25500000920E-02 0. -1.
    10030    2    1    2    0    0  0.00000000000E+00  0.00000000000E+00 -0.91748520080E+03  0.34281188976E+04  0.33030622281E+04 0.  0.
        4    1    3    3  502    0  0.76182516758E+03  0.14105571158E+04 -0.87063665933E+03  0.18242967873E+04  0.12699999809E+01 0. -1.
       -4    1    3    3    0  502 -0.76182516758E+03 -0.14105571158E+04 -0.46848541464E+02  0.16038221103E+04  0.12699999809E+01 0.  1.
</event>
<event>
 5   0  0.2727168E-07  0.3297021E+04  0.7818609E-02  0.8163654E-01
       -2   -1    0    0    0  501  0.00000000000E+00  0.00000000000E+00  0.99428787714E+03  0.99428787714E+03  0.25500000920E-02 0. -1.
        2   -1    0    0  501    0  0.00000000000E+00  0.00000000000E+00 -0.27331997737E+04  0.27331997737E+04  0.25500000920E-02 0.  1.
    10030    2    1    2    0    0  0.00000000000E+00  0.00000000000E+00 -0.17389118966E+04  0.37274876508E+04  0.32970213228E+04 0.  0.
        2    1    3    3  502    0 -0.10079585123E+04  0.13033837105E+04 -0.92925768306E+03  0.18916419589E+04  0.25500000920E-02 0.  1.
       -2    1    3    3    0  502  0.10079585123E+04 -0.13033837105E+04 -0.80965421349E+03  0.18358456919E+04  0.25500000920E-02 0. -1.
</event>
<event>
 5   0  0.9454010E-08  0.3304218E+04  0.7818609E-02  0.8161823E-01
       -1   -1    0    0    0  501  0.00000000000E+00  0.00000000000E+00  0.30207340739E+04  0.30207340739E+04  0.50400001928E-02 0. -1.
        1   -1    0    0  501    0  0.00000000000E+00  0.00000000000E+00 -0.90357671546E+03  0.90357671547E+03  0.50400001928E-02 0.  1.
    10030    2    1    2    0    0  0.00000000000E+00  0.00000000000E+00  0.21171573584E+04  0.39243107894E+04  0.33042184993E+04 0.  0.
        2    1    3    3  502    0  0.25570899667E+03 -0.45800623366E+03 -0.80204773787E+03  0.95835138382E+03  0.25500000920E-02 0.  1.
       -2    1    3    3    0  502 -0.25570899667E+03  0.45800623366E+03  0.29192050963E+04  0.29659594056E+04  0.25500000920E-02 0. -1.
</event>
<event>
 5   0  0.2727168E-07  0.3295815E+04  0.7818609E-02  0.8163961E-01
        2   -1    0    0  501    0  0.00000000000E+00  0.00000000000E+00  0.25023197966E+04  0.25023197966E+04  0.25500000920E-02 0. -1.
       -2   -1    0    0    0  501  0.00000000000E+00  0.00000000000E+00 -0.10852327396E+04  0.10852327396E+04  0.25500000920E-02 0.  1.
    10030    2    1    2    0    0  0.00000000000E+00  0.00000000000E+00  0.14170870570E+04  0.35875525362E+04  0.32958151454E+04 0.  0.
        2    1    3    3  502    0  0.77783711700E+03  0.14469633743E+04  0.56717958511E+03  0.17379373605E+04  0.25500000920E-02 0. -1.
       -2    1    3    3    0  502 -0.77783711700E+03 -0.14469633743E+04  0.84990747186E+03  0.18496151757E+04  0.25500000920E-02 0.  1.
</event>
<event>
 5   0  0.9454010E-08  0.3287603E+04  0.7818609E-02  0.8166057E-01
        1   -1    0    0  501    0  0.00000000000E+00  0.00000000000E+00  0.12029045659E+04  0.12029045660E+04  0.50400001928E-02 0.  1.
       -1   -1    0    0    0  501  0.00000000000E+00  0.00000000000E+00 -0.22462993093E+04  0.22462993093E+04  0.50400001928E-02 0. -1.
    10030    2    1    2    0    0  0.00000000000E+00  0.00000000000E+00 -0.10433947433E+04  0.34492038752E+04  0.32876031973E+04 0.  0.
        2    1    3    3  502    0  0.11464298751E+04 -0.11154480396E+04 -0.12418281955E+03  0.16043525673E+04  0.25500000920E-02 0. -1.
       -2    1    3    3    0  502 -0.11464298751E+04  0.11154480396E+04 -0.91921192378E+03  0.18448513079E+04  0.25500000920E-02 0.  1.
</event>
<event>
 5   0  0.9181760E-08  0.3301925E+04  0.7818609E-02  0.8162406E-01
       -1   -1    0    0    0  501  0.00000000000E+00  0.00000000000E+00  0.11779334157E+04  0.11779334157E+04  0.50400001928E-02 0.  1.
        1   -1    0    0  501    0  0.00000000000E+00  0.00000000000E+00 -0.23139484943E+04  0.23139484943E+04  0.50400001928E-02 0. -1.
    10030    2    1    2    0    0  0.00000000000E+00  0.00000000000E+00 -0.11360150785E+04  0.34918819100E+04  0.33019250468E+04 0.  0.
        1    1    3    3  502    0 -0.16280718073E+04 -0.65395222940E+02 -0.84936377191E+03  0.18374746698E+04  0.50400001928E-02 0.  1.
       -1    1    3    3    0  502  0.16280718073E+04  0.65395222940E+02 -0.28665130663E+03  0.16544072402E+04  0.50400001928E-02 0. -1.
</event>
<event>
 5   0  0.2727168E-07  0.3298064E+04  0.7818609E-02  0.8163388E-01
       -2   -1    0    0    0  501  0.00000000000E+00  0.00000000000E+00  0.12629060175E+04  0.12629060175E+04  0.25500000920E-02 0.  1.
        2   -1    0    0  501    0  0.00000000000E+00  0.00000000000E+00 -0.21532135599E+04  0.21532135599E+04  0.25500000920E-02 0. -1.
    10030    2    1    2    0    0  0.00000000000E+00  0.00000000000E+00 -0.89030754242E+03  0.34161195774E+04  0.32980638937E+04 0.  0.
        2    1    3    3  502    0 -0.10725329719E+04 -0.35120701667E+03 -0.16905370450E+04  0.20326310154E+04  0.25500000920E-02 0. -1.
       -2    1    3    3    0  502  0.10725329719E+04  0.35120701667E+03  0.80022950260E+03  0.13834885620E+04  0.25500000920E-02 0.  1.
</event>
<event>
 5   0  0.2713815E-07  0.3300076E+04  0.7818609E-02  0.8162876E-01
       -2   -1    0    0    0  501  0.00000000000E+00  0.00000000000E+00  0.13660841685E+04  0.13660841685E+04  0.25500000920E-02 0. -1.
        2   -1    0    0  501    0  0.00000000000E+00  0.00000000000E+00 -0.19930148143E+04  0.19930148144E+04  0.25500000920E-02 0.  1.
    10030    2    1    2    0    0  0.00000000000E+00  0.00000000000E+00 -0.62693064586E+03  0.33590989828E+04  0.33000763539E+04 0.  0.
        4    1    3    3  502    0  0.29127921844E+03 -0.16232024201E+04 -0.36916785796E+03  0.16899456204E+04  0.12699999809E+01 0. -1.
       -4    1    3    3    0  502 -0.29127921844E+03  0.16232024201E+04 -0.25776278791E+03  0.16691533624E+04  0.12699999809E+01 0.  1.
</event>
<event>
 5   0  0.2824402E-07  0.3305687E+04  0.7818609E-02  0.8161450E-01
       -2   -1    0    0    0  501  0.00000000000E+00  0.00000000000E+00  0.11465177105E+04  0.11465177105E+04  0.25500000920E-02 0.  1.
        2   -1    0    0  501    0  0.00000000000E+00  0.00000000000E+00 -0.23827728914E+04  0.23827728914E+04  0.25500000920E-02 0. -1.
    10030    2    1    2    0    0  0.00000000000E+00  0.00000000000E+00 -0.12362551809E+04  0.35292906019E+04  0.33056868091E+04 0.  0.
        1    1    3    3  502    0 -0.14230494743E+04 -0.40213842235E+03  0.17012657946E+03  0.14885322200E+04  0.50400001928E-02 0.  1.
       -1    1    3    3    0  502  0.14230494743E+04  0.40213842235E+03 -0.14063817604E+04  0.20407583818E+04  0.50400001928E-02 0. -1.
</event>
<event>
 5   0  0.2824402E-07  0.3304063E+04  0.7818609E-02  0.8161862E-01
        2   -1    0    0  501    0  0.00000000000E+00  0.00000000000E+00  0.16845049683E+04  0.16845049683E+04  0.25500000920E-02 0.  1.
       -2   -1    0    0    0  501  0.00000000000E+00  0.00000000000E+00 -0.16201839884E+04  0.16201839884E+04  0.25500000920E-02 0. -1.
    10030    2    1    2    0    0  0.00000000000E+00  0.00000000000E+00  0.64320979915E+02  0.33046889566E+04  0.33040629400E+04 0.  0.
        1    1    3    3  502    0 -0.12986235227E+04  0.35796675365E+03 -0.92439131385E+03  0.16337265841E+04  0.50400001928E-02 0. -1.
       -1    1    3    3    0  502  0.12986235227E+04 -0.35796675365E+03  0.98871229376E+03  0.16709623725E+04  0.50400001928E-02 0.  1.
</event>
<event>
 5   0  0.9454010E-08  0.3301131E+04  0.7818609E-02  0.8162608E-01
       -1   -1    0    0    0  501  0.00000000000E+00  0.00000000000E+00  0.11987377770E+04  0.11987377770E+04  0.50400001928E-02 0. -1.
        1   -1    0    0  501    0  0.00000000000E+00  0.00000000000E+00 -0.22726957704E+04  0.22726957704E+04  0.50400001928E-02 0.  1.
    10030    2    1    2    0    0  0.00000000000E+00  0.00000000000E+00 -0.10739579935E+04  0.34714335474E+04  0.33011308823E+04 0.  0.
        2    1    3    3  502    0 -0.83119584890E+03  0.14592118124E+03 -0.20286747543E+04  0.21972029467E+04  0.25500000920E-02 0.  1.
       -2    1    3    3    0  502  0.83119584890E+03 -0.14592118124E+03  0.95471676080E+03  0.12742306007E+04  0.25500000920E-02 0. -1.
</event>
<event>
 5   0  0.9454010E-08  0.3309098E+04  0.7818609E-02  0.8160584E-01
       -1   -1    0    0    0  501  0.00000000000E+00  0.00000000000E+00  0.12324285226E+04  0.12324285226E+04  0.50400001928E-02 0.  1.
        1   -1    0    0  501    0  0.00000000000E+00  0.00000000000E+00 -0.22212505897E+04  0.22212505897E+04  0.50400001928E-02 0. -1.
    10030    2    1    2    0    0  0.00000000000E+00  0.00000000000E+00 -0.98882206712E+03  0.34536791123E+04  0.33090981144E+04 0.  0.
        2    1    3    3  502    0  0.90492925166E+03 -0.13778513006E+04 -0.64260583144E+03  0.17692691744E+04  0.25500000920E-02 0.  1.
       -2    1    3    3    0  502 -0.90492925166E+03  0.13778513006E+04 -0.34621623568E+03  0.16844099379E+04  0.25500000920E-02 0. -1.
</event>
<event>
 5   0  0.2824402E-07  0.3292517E+04  0.7818609E-02  0.8164802E-01
       -2   -1    0    0    0  501  0.00000000000E+00  0.00000000000E+00  0.12364891315E+04  0.12364891315E+04  0.25500000920E-02 0.  1.
        2   -1    0    0  501    0  0.00000000000E+00  0.00000000000E+00 -0.21918247899E+04  0.21918247899E+04  0.25500000920E-02 0. -1.
    10030    2    1    2    0    0  0.00000000000E+00  0.00000000000E+00 -0.95533565835E+03  0.34283139214E+04  0.32925172928E+04 0.  0.
        1    1    3    3  502    0  0.65110758175E+03 -0.45101118682E+03  0.10250516056E+04  0.12954084174E+04  0.50400001928E-02 0.  1.
       -1    1    3    3    0  502 -0.65110758175E+03  0.45101118682E+03 -0.19803872640E+04  0.21329055040E+04  0.50400001928E-02 0. -1.
</event>
<event>
 5   0  0.2703956E-07  0.3299218E+04  0.7818609E-02  0.8163094E-01
       -2   -1    0    0    0  501  0.00000000000E+00  0.00000000000E+00  0.14068511741E+04  0.14068511741E+04  0.25500000920E-02 0. -1.
        2   -1    0    0  501    0  0.00000000000E+00  0.00000000000E+00 -0.19342558454E+04  0.19342558454E+04  0.25500000920E-02 0.  1.
    10030    2    1    2    0    0  0.00000000000E+00  0.00000000000E+00 -0.52740467127E+03  0.33411070195E+04  0.32992181542E+04 0.  0.
        5    1    3    3  502    0 -0.46410068032E+03 -0.33152482837E+03  0.13038165378E+04  0.14231155285E+04  0.46999998093E+01 0. -1.
       -5    1    3    3    0  502  0.46410068032E+03  0.33152482837E+03 -0.18312212090E+04  0.19179914910E+04  0.46999998093E+01 0.  1.
</event>
<event>
 5   0  0.2713815E-07  0.3299285E+04  0.7818609E-02  0.8163077E-01
       -2   -1    0    0    0  501  0.00000000000E+00  0.00000000000E+00  0.13146673182E+04  0.13146673182E+04  0.25500000920E-02 0.  1.
        2   -1    0    0  501    0  0.00000000000E+00  0.00000000000E+00 -0.20699688390E+04  0.20699688390E+04  0.25500000920E-02 0. -1.
    10030    2    1    2    0    0  0.00000000000E+00  0.00000000000E+00 -0.75530152079E+03  0.33846361571E+04  0.32992850027E+04 0.  0.
        4    1    3    3  502    0 -0.33578087728E+03  0.77887458354E+03  0.10738457239E+04  0.13684080773E+04  0.12699999809E+01 0.  1.
       -4    1    3    3    0  502  0.33578087728E+03 -0.77887458354E+03 -0.18291472447E+04  0.20162280798E+04  0.12699999809E+01 0. -1.
</event>
<event>
 5   0  0.9181760E-08  0.3298038E+04  0.7818609E-02  0.8163395E-01
        1   -1    0    0  501    0  0.00000000000E+00  0.00000000000E+00  0.13859485614E+04  0.13859485614E+04  0.50400001928E-02 0. -1.
       -1   -1    0    0    0  501  0.00000000000E+00  0.00000000000E+00 -0.19620239919E+04  0.19620239919E+04  0.50400001928E-02 0.  1.
    10030    2    1    2    0    0  0.00000000000E+00  0.00000000000E+00 -0.57607543045E+03  0.33479725533E+04  0.32980384043E+04 0.  0.
        1    1    3    3  502    0  0.42398278962E+03 -0.15357236026E+04  0.14391137989E+03  0.15996621127E+04  0.50400001928E-02 0. -1.
       -1    1    3    3    0  502 -0.42398278962E+03  0.15357236026E+04 -0.71998681034E+03  0.17483104406E+04  0.50400001928E-02 0.  1.
</event>
<event>
 5   0  0.2875829E-07  0.3318482E+04  0.7818609E-02  0.8158209E-01
        2   -1    0    0  501    0  0.00000000000E+00  0.00000000000E+00  0.14346234533E+04  0.14346234533E+04  0.25500000920E-02 0. -1.
       -2   -1    0    0    0  501  0.00000000000E+00  0.00000000000E+00 -0.19190265931E+04  0.19190265931E+04  0.25500000920E-02 0.  1.
    10030    2    1    2    0    0  0.00000000000E+00  0.00000000000E+00 -0.48440313988E+03  0.33536500464E+04  0.33184819167E+04 0.  0.
        3    1    3    3  502    0  0.79949872588E+03 -0.84490289596E+03  0.95356285468E+03  0.15041081226E+04  0.10100000352E+00 0. -1.
       -3    1    3    3    0  502 -0.79949872588E+03  0.84490289596E+03 -0.14379659946E+04  0.18495419238E+04  0.10100000352E+00 0.  1.
</event>
<event>
 5   0  0.2824402E-07  0.3302345E+04  0.7818609E-02  0.8162299E-01
        2   -1    0    0  501    0  0.00000000000E+00  0.00000000000E+00  0.16664971791E+04  0.16664971791E+04  0.25500000920E-02 0. -1.
       -2   -1    0    0    0  501  0.00000000000E+00  0.00000000000E+00 -0.16359885241E+04  0.16359885241E+04  0.25500000920E-02 0.  1.
    10030    2    1    2    0    0  0.00000000000E+00  0.00000000000E+00  0.30508654965E+02  0.33024857032E+04  0.33023447794E+04 0.  0.
        1    1    3    3  502    0 -0.36750957602E+03  0.10917814159E+04  0.11982335087E+04  0.16621713179E+04  0.50400001928E-02 0. -1.
       -1    1    3    3    0  502  0.36750957602E+03 -0.10917814159E+04 -0.11677248537E+04  0.16403143853E+04  0.50400001928E-02 0.  1.
</event>
<event>
 5   0  0.8805125E-08  0.3298097E+04  0.7818609E-02  0.8163380E-01
        1   -1    0    0  501    0  0.00000000000E+00  0.00000000000E+00  0.13378408452E+04  0.13378408452E+04  0.50400001928E-02 0. -1.
       -1   -1    0    0    0  501  0.00000000000E+00  0.00000000000E+00 -0.20326495518E+04  0.20326495518E+04  0.50400001928E-02 0.  1.
    10030    2    1    2    0    0  0.00000000000E+00  0.00000000000E+00 -0.69480870660E+03  0.33704903971E+04  0.32980973876E+04 0.  0.
        4    1    3    3  502    0 -0.13875599604E+04  0.51745784334E+03 -0.10887758287E+04  0.18380749934E+04  0.12699999809E+01 0.  1.
       -4    1    3    3    0  502  0.13875599604E+04 -0.51745784334E+03  0.39396712208E+03  0.15324154037E+04  0.12699999809E+01 0. -1.
</event>
<event>
 5   0  0.2875829E-07  0.3297799E+04  0.7818609E-02  0.8163456E-01
       -2   -1    0    0    0  501  0.00000000000E+00  0.00000000000E+00  0.11809916437E+04  0.11809916437E+04  0.25500000920E-02 0. -1.
        2   -1    0    0  501    0  0.00000000000E+00  0.00000000000E+00 -0.23021916125E+04  0.23021916125E+04  0.25500000920E-02 0.  1.
    10030    2    1    2    0    0  0.00000000000E+00  0.00000000000E+00 -0.11211999688E+04  0.34831832563E+04  0.32977986941E+04 0.  0.
        3    1    3    3  502    0  0.60444008979E+03 -0.88443753326E+03  0.76337737746E+03  0.13154172733E+04  0.10100000352E+00 0. -1.
       -3    1    3    3    0  502 -0.60444008979E+03  0.88443753326E+03 -0.18845773463E+04  0.21677659829E+04  0.10100000352E+00 0.  1.
</event>
<event>
 5   0  0.2824402E-07  0.3299467E+04  0.7818609E-02  0.8163031E-01
       -2   -1    0    0    0  501  0.00000000000E+00  0.00000000000E+00  0.11201871450E+04  0.11201871450E+04  0.25500000920E-02 0.  1.
        2   -1    0    0  501    0  0.00000000000E+00  0.00000000000E+00 -0.24296120845E+04  0.24296120845E+04  0.25500000920E-02 0. -1.
    10030    2    1    2    0    0  0.00000000000E+00  0.00000000000E+00 -0.13094249395E+04  0.35497992294E+04  0.32994667595E+04 0.  0.
        1    1    3    3  502    0 -0.20438022705E+03 -0.16312964761E+04 -0.50750776132E+03  0.17205997786E+04  0.50400001928E-02 0.  1.
       -1    1    3    3    0  502  0.20438022705E+03  0.16312964761E+04 -0.80191717818E+03  0.18291994508E+04  0.50400001928E-02 0. -1.
</event>
<event>
 5   0  0.9454010E-08  0.3289302E+04  0.7818609E-02  0.8165623E-01
        1   -1    0    0  501    0  0.00000000000E+00  0.00000000000E+00  0.23908648054E+04  0.23908648054E+04  0.50400001928E-02 0.  1.
       -1   -1    0    0    0  501  0.00000000000E+00  0.00000000000E+00 -0.11313384616E+04  0.11313384616E+04  0.50400001928E-02 0. -1.
    10030    2    1    2    0    0  0.00000000000E+00  0.00000000000E+00  0.12595263437E+04  0.35222032670E+04  0.32893022427E+04 0.  0.
        2    1    3    3  502    0 -0.68951937148E+03 -0.74525633110E+03 -0.75569266628E+03  0.12656679535E+04  0.25500000920E-02 0.  1.
       -2    1    3    3    0  502  0.68951937148E+03  0.74525633110E+03  0.20152190100E+04  0.22565353135E+04  0.25500000920E-02 0. -1.
</event>
<event>
 5   0  0.2703956E-07  0.3287319E+04  0.7818609E-02  0.8166130E-01
        2   -1    0    0  501    0  0.00000000000E+00  0.00000000000E+00  0.24724641010E+04  0.24724641010E+04  0.25500000920E-02 0.  1.
       -2   -1    0    0    0  501  0.00000000000E+00  0.00000000000E+00 -0.10926815158E+04  0.10926815158E+04  0.25500000920E-02 0. -1.
    10030    2    1    2    0    0  0.00000000000E+00  0.00000000000E+00  0.13797825852E+04  0.35651456168E+04  0.32873185556E+04 0.  0.
        5    1    3    3  502    0 -0.76899412066E+03 -0.62538207837E+03 -0.73208050211E+03  0.12322413129E+04  0.46999998093E+01 0. -1.
       -5    1    3    3    0  502  0.76899412066E+03  0.62538207837E+03  0.21118630873E+04  0.23329043039E+04  0.46999998093E+01 0.  1.
</event>
<event>
 5   0  0.9181760E-08  0.3300991E+04  0.7818609E-02  0.8162643E-01
       -1   -1    0    0    0  501  0.00000000000E+00  0.00000000000E+00  0.10179171181E+04  0.10179171181E+04  0.50400001928E-02 0.  1.
        1   -1    0    0  501    0  0.00000000000E+00  0.00000000000E+00 -0.26761865501E+04  0.26761865501E+04  0.50400001928E-02 0. -1.
    10030    2    1    2    0    0  0.00000000000E+00  0.00000000000E+00 -0.16582694320E+04  0.36941036682E+04  0.33009914272E+04 0.  0.
        1    1    3    3  502    0 -0.20382536296E+03 -0.61334653641E+03  0.87040668118E+03  0.10841340060E+04  0.50400001928E-02 0.  1.
       -1    1    3    3    0  502  0.20382536296E+03  0.61334653641E+03 -0.25286761131E+04  0.26099696622E+04  0.50400001928E-02 0. -1.
</event>
<event>
 5   0  0.2824402E-07  0.3306446E+04  0.7818609E-02  0.8161257E-01
        2   -1    0    0  501    0  0.00000000000E+00  0.00000000000E+00  0.13703967447E+04  0.13703967447E+04  0.25500000920E-02 0.  1.
       -2   -1    0    0    0  501  0.00000000000E+00  0.00000000000E+00 -0.19944203009E+04  0.19944203009E+04  0.25500000920E-02 0. -1.
    10030    2    1    2    0    0  0.00000000000E+00  0.00000000000E+00 -0.62402355618E+03  0.33648170457E+04  0.33064464841E+04 0.  0.
        1    1    3    3  502    0 -0.52231393440E+03 -0.42514845104E+03 -0.18484947836E+04  0.19673576229E+04  0.50400001928E-02 0. -1.
       -1    1    3    3    0  502  0.52231393440E+03  0.42514845104E+03  0.12244712274E+04  0.13974594227E+04  0.50400001928E-02 0.  1.
</event>
<event>
 5   0  0.2727168E-07  0.3293798E+04  0.7818609E-02  0.8164475E-01
       -2   -1    0    0    0  501  0.00000000000E+00  0.00000000000E+00  0.17686472599E+04  0.17686472599E+04  0.25500000920E-02 0. -1.
        2   -1    0    0  501    0  0.00000000000E+00  0.00000000000E+00 -0.15335312173E+04  0.15335312173E+04  0.25500000920E-02 0.  1.
    10030    2    1    2    0    0  0.00000000000E+00  0.00000000000E+00  0.23511604263E+03  0.33021784773E+04  0.32937976778E+04 0.  0.
        2    1    3    3  502    0 -0.13633240125E+04  0.89263350620E+03  0.35655259600E+03  0.16681057200E+04  0.25500000920E-02 0. -1.
       -2    1    3    3    0  502  0.13633240125E+04 -0.89263350620E+03 -0.12143655336E+03  0.16340727572E+04  0.25500000920E-02 0.  1.
</event>
<event>
 5   0  0.8805125E-08  0.3236533E+04  0.7818609E-02  0.8179235E-01
       -3   -1    0    0    0  501  0.00000000000E+00  0.00000000000E+00  0.15455986029E+04  0.15455986062E+04  0.10100000352E+00 0. -1.
        3   -1    0    0  501    0  0.00000000000E+00  0.00000000000E+00 -0.16943511501E+04  0.16943511531E+04  0.10100000352E+00 0.  1.
    10030    2    1    2    0    0  0.00000000000E+00  0.00000000000E+00 -0.14875254721E+03  0.32399497593E+04  0.32365331950E+04 0.  0.
        4    1    3    3  502    0  0.65385253966E+03  0.10806233413E+04 -0.10871335271E+04  0.16664725825E+04  0.12699999809E+01 0.  1.
       -4    1    3    3    0  502 -0.65385253966E+03 -0.10806233413E+04  0.93838097993E+03  0.15734771768E+04  0.12699999809E+01 0. -1.
</event>
<event>
 5   0  0.9283910E-08  0.3294267E+04  0.7818609E-02  0.8164356E-01
        1   -1    0    0  501    0  0.00000000000E+00  0.00000000000E+00  0.29172184457E+04  0.29172184457E+04  0.50400001928E-02 0. -1.
       -1   -1    0    0    0  501  0.00000000000E+00  0.00000000000E+00 -0.93001227545E+03  0.93001227546E+03  0.50400001928E-02 0.  1.
    10030    2    1    2    0    0  0.00000000000E+00  0.00000000000E+00  0.19872061703E+04  0.38472307212E+04  0.32942671202E+04 0.  0.
        3    1    3    3  502    0  0.13009743615E+04  0.10051418443E+04  0.11115770283E+04  0.19845523214E+04  0.10100000352E+00 0.  1.
       -3    1    3    3    0  502 -0.13009743615E+04 -0.10051418443E+04  0.87562914196E+03  0.18626783998E+04  0.10100000352E+00 0. -1.
</event>
<event>
 5   0  0.2875829E-07  0.3310969E+04  0.7818609E-02  0.8160110E-01
       -2   -1    0    0    0  501  0.00000000000E+00  0.00000000000E+00  0.15778398727E+04  0.15778398727E+04  0.25500000920E-02 0.  1.
        2   -1    0    0  501    0  0.00000000000E+00  0.00000000000E+00 -0.17369496153E+04  0.17369496153E+04  0.25500000920E-02 0. -1.
    10030    2    1    2    0    0  0.00000000000E+00  0.00000000000E+00 -0.15910974261E+03  0.33147894880E+04  0.33109686558E+04 0.  0.
        3    1    3    3  502    0 -0.14282287179E+04 -0.62947728204E+03 -0.63205168690E+03  0.16839145657E+04  0.10100000352E+00 0. -1.
       -3    1    3    3    0  502  0.14282287179E+04  0.62947728204E+03  0.47294194429E+03  0.16308749223E+04  0.10100000352E+00 0.  1.
</event>
<event>
 5   0  0.2703956E-07  0.3303678E+04  0.7818609E-02  0.8161960E-01
       -2   -1    0    0    0  501  0.00000000000E+00  0.00000000000E+00  0.12285011393E+04  0.12285011393E+04  0.25500000920E-02 0. -1.
        2   -1    0    0  501    0  0.00000000000E+00  0.00000000000E+00 -0.22210576839E+04  0.22210576839E+04  0.25500000920E-02 0.  1.
    10030    2    1    2    0    0  0.00000000000E+00  0.00000000000E+00 -0.99255654465E+03  0.34495588232E+04  0.33036778869E+04 0.  0.
        5    1    3    3  502    0  0.15589146798E+04  0.11966043345E+03 -0.10527427169E+04  0.18848933434E+04  0.46999998093E+01 0.  1.
       -5    1    3    3    0  502 -0.15589146798E+04 -0.11966043345E+03  0.60186172238E+02  0.15646654797E+04  0.46999998093E+01 0. -1.
</event>
<event>
 5   0  0.8805125E-08  0.3294229E+04  0.7818609E-02  0.8164365E-01
       -3   -1    0    0    0  501  0.00000000000E+00  0.00000000000E+00  0.17846640749E+04  0.17846640777E+04  0.10100000352E+00 0.  1.
        3   -1    0    0  501    0  0.00000000000E+00  0.00000000000E+00 -0.15201661420E+04  0.15201661454E+04  0.10100000352E+00 0. -1.
    10030    2    1    2    0    0  0.00000000000E+00  0.00000000000E+00  0.26449793283E+03  0.33048302231E+04  0.32942288395E+04 0.  0.
        4    1    3    3  502    0 -0.53455016038E+03  0.10206130397E+04  0.13131477423E+04  0.17469268607E+04  0.12699999809E+01 0.  1.
       -4    1    3    3    0  502  0.53455016038E+03 -0.10206130397E+04 -0.10486498095E+04  0.15579033624E+04  0.12699999809E+01 0. -1.
</event>
<event>
 5   0  0.2824402E-07  0.3260587E+04  0.7818609E-02  0.8172997E-01
       -2   -1    0    0    0  501  0.00000000000E+00  0.00000000000E+00  0.14662905552E+04  0.14662905552E+04  0.25500000920E-02 0.  1.
        2   -1    0    0  501    0  0.00000000000E+00  0.00000000000E+00 -0.18126399434E+04  0.18126399434E+04  0.25500000920E-02 0. -1.
    10030    2    1    2    0    0  0.00000000000E+00  0.00000000000E+00 -0.34634938825E+03  0.32789304986E+04  0.32605869588E+04 0.  0.
        1    1    3    3  502    0  0.84225768109E+03  0.89773046017E+03 -0.12480842210E+04  0.17530066181E+04  0.50400001928E-02 0. -1.
       -1    1    3    3    0  502 -0.84225768109E+03 -0.89773046017E+03  0.90173483274E+03  0.15259238805E+04  0.50400001928E-02 0.  1.
</event>
<event>
 5   0  0.9181760E-08  0.3297767E+04  0.7818609E-02  0.8163464E-01
       -1   -1    0    0    0  501  0.00000000000E+00  0.00000000000E+00  0.13543580088E+04  0.13543580088E+04  0.50400001928E-02 0.  1.
        1   -1    0    0  501    0  0.00000000000E+00  0.00000000000E+00 -0.20074576030E+04  0.20074576030E+04  0.50400001928E-02 0. -1.
    10030    2    1    2    0    0  0.00000000000E+00  0.00000000000E+00 -0.65309959420E+03  0.33618156118E+04  0.32977666879E+04 0.  0.
        1    1    3    3  502    0  0.40151612659E+03  0.10903752656E+04  0.86607923632E+03  0.14492158788E+04  0.50400001928E-02 0.  1.
       -1    1    3    3    0  502 -0.40151612659E+03 -0.10903752656E+04 -0.15191788305E+04  0.19125997330E+04  0.50400001928E-02 0. -1.
</event>
<event>
 5   0  0.2875829E-07  0.3293875E+04  0.7818609E-02  0.8164456E-01
       -2   -1    0    0    0  501  0.00000000000E+00  0.00000000000E+00  0.24341704404E+04  0.24341704404E+04  0.25500000920E-02 0. -1.
        2   -1    0    0  501    0  0.00000000000E+00  0.00000000000E+00 -0.11143029823E+04  0.11143029823E+04  0.25500000920E-02 0.  1.
    10030    2    1    2    0    0  0.00000000000E+00  0.00000000000E+00  0.13198674581E+04  0.35484734227E+04  0.32938751532E+04 0.  0.
        3    1    3    3  502    0  0.15124778612E+03  0.14620513545E+04 -0.14041217595E+03  0.14765451721E+04  0.10100000352E+00 0. -1.
       -3    1    3    3    0  502 -0.15124778612E+03 -0.14620513545E+04  0.14602796340E+04  0.20719282506E+04  0.10100000352E+00 0.  1.
</event>
<event>
 5   0  0.2713815E-07  0.3297875E+04  0.7818609E-02  0.8163436E-01
       -2   -1    0    0    0  501  0.00000000000E+00  0.00000000000E+00  0.26203574170E+04  0.26203574170E+04  0.25500000920E-02 0. -1.
        2   -1    0    0  501    0  0.00000000000E+00  0.00000000000E+00 -0.10376430533E+04  0.10376430533E+04  0.25500000920E-02 0.  1.
    10030    2    1    2    0    0  0.00000000000E+00  0.00000000000E+00  0.15827143637E+04  0.36580004703E+04  0.32978754803E+04 0.  0.
        4    1    3    3  502    0  0.77850993035E+03  0.13816380880E+04  0.29038149861E+03  0.16122420865E+04  0.12699999809E+01 0.  1.
       -4    1    3    3    0  502 -0.77850993035E+03 -0.13816380880E+04  0.12923328651E+04  0.20457583838E+04  0.12699999809E+01 0. -1.
</event>
<event>
 5   0  0.2727168E-07  0.3301610E+04  0.7818609E-02  0.8162486E-01
        2   -1    0    0  501    0  0.00000000000E+00  0.00000000000E+00  0.22028934320E+04  0.22028934320E+04  0.25500000920E-02 0.  1.
       -2   -1    0    0    0  501  0.00000000000E+00  0.00000000000E+00 -0.12370810778E+04  0.12370810778E+04  0.25500000920E-02 0. -1.
    10030    2    1    2    0    0  0.00000000000E+00  0.00000000000E+00  0.96581235429E+03  0.34399745098E+04  0.33016103835E+04 0.  0.
        2    1    3    3  502    0  0.14724349159E+04  0.74458663935E+03  0.53688401495E+03  0.17351421528E+04  0.25500000920E-02 0.  1.
       -2    1    3    3    0  502 -0.14724349159E+04 -0.74458663935E+03  0.42892833934E+03  0.17048323570E+04  0.25500000920E-02 0. -1.
</event>
<event>
 5   0  0.2727168E-07  0.3301315E+04  0.7818609E-02  0.8162561E-01
        2   -1    0    0  501    0  0.00000000000E+00  0.00000000000E+00  0.14272661933E+04  0.14272661933E+04  0.25500000920E-02 0.  1.
       -2   -1    0    0    0  501  0.00000000000E+00  0.00000000000E+00 -0.19090130457E+04  0.19090130457E+04  0.25500000920E-02 0. -1.
    10030    2    1    2    0    0  0.00000000000E+00  0.00000000000E+00 -0.48174685235E+03  0.33362792390E+04  0.33013147579E+04 0.  0.
        2    1    3    3  502    0 -0.12129033668E+04  0.91811639636E+03 -0.88843877822E+03  0.17616457524E+04  0.25500000920E-02 0. -1.
       -2    1    3    3    0  502  0.12129033668E+04 -0.91811639636E+03  0.40669192587E+03  0.15746334865E+04  0.25500000920E-02 0.  1.
</event>
<event>
 5   0  0.2824402E-07  0.3302499E+04  0.7818609E-02  0.8162260E-01
        2   -1    0    0  501    0  0.00000000000E+00  0.00000000000E+00  0.21399453091E+04  0.21399453091E+04  0.25500000920E-02 0. -1.
       -2   -1    0    0    0  501  0.00000000000E+00  0.00000000000E+00 -0.12741563254E+04  0.12741563254E+04  0.25500000920E-02 0.  1.
    10030    2    1    2    0    0  0.00000000000E+00  0.00000000000E+00  0.86578898364E+03  0.34141016345E+04  0.33024989639E+04 0.  0.
        1    1    3    3  502    0 -0.11409413407E+04 -0.11530118936E+03  0.16611451857E+04  0.20185254111E+04  0.50400001928E-02 0. -1.
       -1    1    3    3    0  502  0.11409413407E+04  0.11530118936E+03 -0.79535620205E+03  0.13955762234E+04  0.50400001928E-02 0.  1.
</event>
<event>
 5   0  0.8805125E-08  0.3300228E+04  0.7818609E-02  0.8162837E-01
        3   -1    0    0  501    0  0.00000000000E+00  0.00000000000E+00  0.19477980186E+04  0.19477980212E+04  0.10100000352E+00 0.  1.
       -3   -1    0    0    0  501  0.00000000000E+00  0.00000000000E+00 -0.13979256262E+04  0.13979256298E+04  0.10100000352E+00 0. -1.
    10030    2    1    2    0    0  0.00000000000E+00  0.00000000000E+00  0.54987239238E+03  0.33457236510E+04  0.33002283408E+04 0.  0.
        4    1    3    3  502    0 -0.11168468193E+04  0.10926346307E+04  0.81298599152E+03  0.17612907452E+04  0.12699999809E+01 0.  1.
       -4    1    3    3    0  502  0.11168468193E+04 -0.10926346307E+04 -0.26311359914E+03  0.15844329058E+04  0.12699999809E+01 0. -1.
</event>
<event>
 5   0  0.9181760E-08  0.3308271E+04  0.7818609E-02  0.8160794E-01
       -1   -1    0    0    0  501  0.00000000000E+00  0.00000000000E+00  0.10838434051E+04  0.10838434051E+04  0.50400001928E-02 0. -1.
        1   -1    0    0  501    0  0.00000000000E+00  0.00000000000E+00 -0.25245019490E+04  0.25245019490E+04  0.50400001928E-02 0.  1.
    10030    2    1    2    0    0  0.00000000000E+00  0.00000000000E+00 -0.14406585439E+04  0.36083453541E+04  0.33082713241E+04 0.  0.
        1    1    3    3  502    0 -0.21641039234E+03  0.11156482639E+04  0.59063194246E+03  0.12807617257E+04  0.50400001928E-02 0. -1.
       -1    1    3    3    0  502  0.21641039234E+03 -0.11156482639E+04 -0.20312904864E+04  0.23275836283E+04  0.50400001928E-02 0.  1.
</event>
<event>
 5   0  0.2824402E-07  0.3298241E+04  0.7818609E-02  0.8163343E-01
        2   -1    0    0  501    0  0.00000000000E+00  0.00000000000E+00  0.15928921097E+04  0.15928921097E+04  0.25500000920E-02 0. -1.
       -2   -1    0    0    0  501  0.00000000000E+00  0.00000000000E+00 -0.17073338427E+04  0.17073338427E+04  0.25500000920E-02 0.  1.
    10030    2    1    2    0    0  0.00000000000E+00  0.00000000000E+00 -0.11444173303E+03  0.33002259524E+04  0.32982411111E+04 0.  0.
        1    1    3    3  502    0  0.31878629717E+03  0.51319839793E+03  0.14781735783E+04  0.15968701972E+04  0.50400001928E-02 0. -1.
       -1    1    3    3    0  502 -0.31878629717E+03 -0.51319839793E+03 -0.15926153114E+04  0.17033557553E+04  0.50400001928E-02 0.  1.
</event>
<event>
 5   0  0.9454010E-08  0.3309026E+04  0.7818609E-02  0.8160603E-01
       -1   -1    0    0    0  501  0.00000000000E+00  0.00000000000E+00  0.13602180011E+04  0.13602180012E+04  0.50400001928E-02 0.  1.
        1   -1    0    0  501    0  0.00000000000E+00  0.00000000000E+00 -0.20124808295E+04  0.20124808296E+04  0.50400001928E-02 0. -1.
    10030    2    1    2    0    0  0.00000000000E+00  0.00000000000E+00 -0.65226282840E+03  0.33726988307E+04  0.33090256278E+04 0.  0.
        2    1    3    3  502    0 -0.36742149629E+03 -0.77589459844E+03 -0.17677024084E+04  0.19651419258E+04  0.25500000920E-02 0. -1.
       -2    1    3    3    0  502  0.36742149629E+03  0.77589459844E+03  0.11154395800E+04  0.14075569049E+04  0.25500000920E-02 0.  1.
</event>
<event>
 5   0  0.9283910E-08  0.3297892E+04  0.7818609E-02  0.8163432E-01
       -1   -1    0    0    0  501  0.00000000000E+00  0.00000000000E+00  0.21183252248E+04  0.21183252248E+04  0.50400001928E-02 0.  1.
        1   -1    0    0  501    0  0.00000000000E+00  0.00000000000E+00 -0.12835720597E+04  0.12835720597E+04  0.50400001928E-02 0. -1.
    10030    2    1    2    0    0  0.00000000000E+00  0.00000000000E+00  0.83475316513E+03  0.34018972846E+04  0.32978920977E+04 0.  0.
        3    1    3    3  502    0  0.15189439113E+03 -0.16411805921E+04  0.36603319103E+03  0.16883500671E+04  0.10100000352E+00 0.  1.
       -3    1    3    3    0  502 -0.15189439113E+03  0.16411805921E+04  0.46871997409E+03  0.17135472174E+04  0.10100000352E+00 0. -1.
</event>
<event>
 5   0  0.8805125E-08  0.3284318E+04  0.7818609E-02  0.8166897E-01
        1   -1    0    0  501    0  0.00000000000E+00  0.00000000000E+00  0.15442304423E+04  0.15442304423E+04  0.50400001928E-02 0.  1.
       -1   -1    0    0    0  501  0.00000000000E+00  0.00000000000E+00 -0.17462973144E+04  0.17462973144E+04  0.50400001928E-02 0. -1.
    10030    2    1    2    0    0  0.00000000000E+00  0.00000000000E+00 -0.20206687209E+03  0.32905277567E+04  0.32843175695E+04 0.  0.
        4    1    3    3  502    0  0.32314455110E+03  0.83485521809E+03 -0.14803276092E+04  0.17299644735E+04  0.12699999809E+01 0. -1.
       -4    1    3    3    0  502 -0.32314455110E+03 -0.83485521809E+03  0.12782607371E+04  0.15605632832E+04  0.12699999809E+01 0.  1.
</event>
<event>
 5   0  0.2824402E-07  0.3302335E+04  0.7818609E-02  0.8162302E-01
       -2   -1    0    0    0  501  0.00000000000E+00  0.00000000000E+00  0.14012851976E+04  0.14012851976E+04  0.25500000920E-02 0.  1.
        2   -1    0    0  501    0  0.00000000000E+00  0.00000000000E+00 -0.19456094144E+04  0.19456094144E+04  0.25500000920E-02 0. -1.
    10030    2    1    2    0    0  0.00000000000E+00  0.00000000000E+00 -0.54432421687E+03  0.33468946120E+04  0.33023347333E+04 0.  0.
        1    1    3    3  502    0  0.84935455100E+01 -0.13222681732E+04  0.73006372874E+03  0.15104497046E+04  0.50400001928E-02 0.  1.
       -1    1    3    3    0  502 -0.84935455100E+01  0.13222681732E+04 -0.12743879456E+04  0.18364449074E+04  0.50400001928E-02 0. -1.
</event>
<event>
 5   0  0.9454010E-08  0.3296204E+04  0.7818609E-02  0.8163862E-01
        1   -1    0    0  501    0  0.00000000000E+00  0.00000000000E+00  0.14998140162E+04  0.14998140162E+04  0.50400001928E-02 0. -1.
       -1   -1    0    0    0  501  0.00000000000E+00  0.00000000000E+00 -0.18110510048E+04  0.18110510048E+04  0.50400001928E-02 0.  1.
    10030    2    1    2    0    0  0.00000000000E+00  0.00000000000E+00 -0.31123698851E+03  0.33108650210E+04  0.32962036837E+04 0.  0.
        2    1    3    3  502    0  0.84459837595E+03 -0.13089258395E+03  0.12598195278E+04  0.15223746345E+04  0.25500000920E-02 0. -1.
       -2    1    3    3    0  502 -0.84459837595E+03  0.13089258395E+03 -0.15710565163E+04  0.17884903865E+04  0.25500000920E-02 0.  1.
</event>
<event>
 5   0  0.9810351E-08  0.3302571E+04  0.7818609E-02  0.8162242E-01
       -1   -1    0    0    0  501  0.00000000000E+00  0.00000000000E+00  0.18158588142E+04  0.18158588142E+04  0.50400001928E-02 0.  1.
        1   -1    0    0  501    0  0.00000000000E+00  0.00000000000E+00 -0.15016273492E+04  0.15016273492E+04  0.50400001928E-02 0. -1.
    10030    2    1    2    0    0  0.00000000000E+00  0.00000000000E+00  0.31423146501E+03  0.33174861634E+04  0.33025706700E+04 0.  0.
        5    1    3    3  502    0  0.19211248428E+03  0.16385541878E+04  0.86412233579E+02  0.16520460638E+04  0.46999998093E+01 0.  1.
       -5    1    3    3    0  502 -0.19211248428E+03 -0.16385541878E+04  0.22781923143E+03  0.16654400995E+04  0.46999998093E+01 0. -1.
</event>
<event>
 5   0  0.9810351E-08  0.3288665E+04  0.7818609E-02  0.8165786E-01
        1   -1    0    0  501    0  0.00000000000E+00  0.00000000000E+00  0.16530699115E+04  0.16530699116E+04  0.50400001928E-02 0. -1.
       -1   -1    0    0    0  501  0.00000000000E+00  0.00000000000E+00 -0.16356413549E+04  0.16356413549E+04  0.50400001928E-02 0.  1.
    10030    2    1    2    0    0  0.00000000000E+00  0.00000000000E+00  0.17428556612E+02  0.32887112665E+04  0.32886650848E+04 0.  0.
        5    1    3    3  502    0  0.16365563121E+04 -0.11641200184E+03 -0.10055345847E+03  0.16437765678E+04  0.46999998093E+01 0. -1.
       -5    1    3    3    0  502 -0.16365563121E+04  0.11641200184E+03  0.11798201509E+03  0.16449346987E+04  0.46999998093E+01 0.  1.
</event>
<event>
 5   0  0.2824402E-07  0.3297729E+04  0.7818609E-02  0.8163473E-01
       -2   -1    0    0    0  501  0.00000000000E+00  0.00000000000E+00  0.12625935711E+04  0.12625935711E+04  0.25500000920E-02 0.  1.
        2   -1    0    0  501    0  0.00000000000E+00  0.00000000000E+00 -0.21533094727E+04  0.21533094727E+04  0.25500000920E-02 0. -1.
    10030    2    1    2    0    0  0.00000000000E+00  0.00000000000E+00 -0.89071590159E+03  0.34159030437E+04  0.32977293380E+04 0.  0.
        1    1    3    3  502    0 -0.63393037581E+03 -0.77600795646E+03 -0.18017474763E+04  0.20616377078E+04  0.50400001928E-02 0. -1.
       -1    1    3    3    0  502  0.63393037581E+03  0.77600795646E+03  0.91103157474E+03  0.13542653359E+04  0.50400001928E-02 0.  1.
</event>
<event>
 5   0  0.9810351E-08  0.3297059E+04  0.7818609E-02  0.8163644E-01
        1   -1    0    0  501    0  0.00000000000E+00  0.00000000000E+00  0.19742051549E+04  0.19742051549E+04  0.50400001928E-02 0.  1.
       -1   -1    0    0    0  501  0.00000000000E+00  0.00000000000E+00 -0.13765791057E+04  0.13765791057E+04  0.50400001928E-02 0. -1.
    10030    2    1    2    0    0  0.00000000000E+00  0.00000000000E+00  0.59762604923E+03  0.33507842606E+04  0.32970590329E+04 0.  0.
        5    1    3    3  502    0 -0.14220896211E+04  0.22859957139E+03 -0.51614574753E+03  0.15300409070E+04  0.46999998093E+01 0. -1.
       -5    1    3    3    0  502  0.14220896211E+04 -0.22859957139E+03  0.11137717968E+04  0.18207433536E+04  0.46999998093E+01 0.  1.
</event>
<event>
 5   0  0.2727168E-07  0.3298319E+04  0.7818609E-02  0.8163323E-01
        2   -1    0    0  501    0  0.00000000000E+00  0.00000000000E+00  0.15928943913E+04  0.15928943913E+04  0.25500000920E-02 0. -1.
       -2   -1    0    0    0  501  0.00000000000E+00  0.00000000000E+00 -0.17074120330E+04  0.17074120330E+04  0.25500000920E-02 0.  1.
    10030    2    1    2    0    0  0.00000000000E+00  0.00000000000E+00 -0.11451764166E+03  0.33003064243E+04  0.32983189967E+04 0.  0.
        2    1    3    3  502    0 -0.75367474131E+03 -0.73084289344E+03  0.12153448278E+04  0.16059950190E+04  0.25500000920E-02 0. -1.
       -2    1    3    3    0  502  0.75367474131E+03  0.73084289344E+03 -0.13298624694E+04  0.16943114053E+04  0.25500000920E-02 0.  1.
</event>
<event>
 5   0  0.9454010E-08  0.3290460E+04  0.7818609E-02  0.8165327E-01
        1   -1    0    0  501    0  0.00000000000E+00  0.00000000000E+00  0.14734287572E+04  0.14734287572E+04  0.50400001928E-02 0. -1.
       -1   -1    0    0    0  501  0.00000000000E+00  0.00000000000E+00 -0.18370634873E+04  0.18370634873E+04  0.50400001928E-02 0.  1.
    10030    2    1    2    0    0  0.00000000000E+00  0.00000000000E+00 -0.36363473007E+03  0.33104922446E+04  0.32904602542E+04 0.  0.
        2    1    3    3  502    0  0.89324192330E+03  0.93895528224E+03  0.83789330377E+03  0.15432379415E+04  0.25500000920E-02 0. -1.
       -2    1    3    3    0  502 -0.89324192330E+03 -0.93895528224E+03 -0.12015280338E+04  0.17672543031E+04  0.25500000920E-02 0.  1.
</event>
<event>
 5   0  0.2703956E-07  0.3300555E+04  0.7818609E-02  0.8162754E-01
        2   -1    0    0  501    0  0.00000000000E+00  0.00000000000E+00  0.15886522298E+04  0.15886522298E+04  0.25500000920E-02 0.  1.
       -2   -1    0    0    0  501  0.00000000000E+00  0.00000000000E+00 -0.17142931479E+04  0.17142931479E+04  0.25500000920E-02 0. -1.
    10030    2    1    2    0    0  0.00000000000E+00  0.00000000000E+00 -0.12564091814E+03  0.33029453777E+04  0.33005548818E+04 0.  0.
        5    1    3    3  502    0 -0.10858888244E+04 -0.12130430244E+04 -0.33276687263E+03  0.16617411951E+04  0.46999998093E+01 0. -1.
       -5    1    3    3    0  502  0.10858888244E+04  0.12130430244E+04  0.20712595449E+03  0.16412041826E+04  0.46999998093E+01 0.  1.
</event>
<event>
 5   0  0.2713815E-07  0.3299168E+04  0.7818609E-02  0.8163107E-01
       -2   -1    0    0    0  501  0.00000000000E+00  0.00000000000E+00  0.11977827944E+04  0.11977827944E+04  0.25500000920E-02 0.  1.
        2   -1    0    0  501    0  0.00000000000E+00  0.00000000000E+00 -0.22718036407E+04  0.22718036407E+04  0.25500000920E-02 0. -1.
    10030    2    1    2    0    0  0.00000000000E+00  0.00000000000E+00 -0.10740208463E+04  0.34695864350E+04  0.32991679636E+04 0.  0.
        4    1    3    3  502    0  0.12781015123E+04  0.84015391206E+03  0.11274184835E+03  0.15336604608E+04  0.12699999809E+01 0. -1.
       -4    1    3    3    0  502 -0.12781015123E+04 -0.84015391206E+03 -0.11867626946E+04  0.19359259743E+04  0.12699999809E+01 0.  1.
</event>
<event>
 5   0  0.2713815E-07  0.3304046E+04  0.7818609E-02  0.8161867E-01
       -2   -1    0    0    0  501  0.00000000000E+00  0.00000000000E+00  0.16352905125E+04  0.16352905125E+04  0.25500000920E-02 0.  1.
        2   -1    0    0  501    0  0.00000000000E+00  0.00000000000E+00 -0.16689269645E+04  0.16689269645E+04  0.25500000920E-02 0. -1.
    10030    2    1    2    0    0  0.00000000000E+00  0.00000000000E+00 -0.33636452019E+02  0.33042174770E+04  0.33040462654E+04 0.  0.
        4    1    3    3  502    0  0.32249449412E+02  0.10608678795E+04 -0.12828609730E+04  0.16649968690E+04  0.12699999809E+01 0. -1.
       -4    1    3    3    0  502 -0.32249449412E+02 -0.10608678795E+04  0.12492245210E+04  0.16392206080E+04  0.12699999809E+01 0.  1.
</event>
<event>
 5   0  0.8805125E-08  0.3300792E+04  0.7818609E-02  0.8162694E-01
        3   -1    0    0  501    0  0.00000000000E+00  0.00000000000E+00  0.32475984421E+04  0.32475984437E+04  0.10100000352E+00 0.  1.
       -3   -1    0    0    0  501  0.00000000000E+00  0.00000000000E+00 -0.83871408555E+03  0.83871409163E+03  0.10100000352E+00 0. -1.
    10030    2    1    2    0    0  0.00000000000E+00  0.00000000000E+00  0.24088843566E+04  0.40863125353E+04  0.33007917676E+04 0.  0.
        4    1    3    3  502    0 -0.15090360265E+04 -0.20545544035E+03  0.19917069064E+04  0.25072494254E+04  0.12699999809E+01 0.  1.
       -4    1    3    3    0  502  0.15090360265E+04  0.20545544035E+03  0.41717745018E+03  0.15790631099E+04  0.12699999809E+01 0. -1.
</event>
<event>
 5   0  0.8805125E-08  0.3302323E+04  0.7818609E-02  0.8162304E-01
       -3   -1    0    0    0  501  0.00000000000E+00  0.00000000000E+00  0.15028313699E+04  0.15028313733E+04  0.10100000352E+00 0.  1.
        3   -1    0    0  501    0  0.00000000000E+00  0.00000000000E+00 -0.18141322800E+04  0.18141322828E+04  0.10100000352E+00 0. -1.
    10030    2    1    2    0    0  0.00000000000E+00  0.00000000000E+00 -0.31130091007E+03  0.33169636560E+04  0.33023233698E+04 0.  0.
        5    1    3    3  502    0 -0.88848903326E+03  0.95922636038E+03 -0.11684783353E+04  0.17535369066E+04  0.46999998093E+01 0. -1.
       -5    1    3    3    0  502  0.88848903326E+03 -0.95922636038E+03  0.85717742522E+03  0.15634267495E+04  0.46999998093E+01 0.  1.
</event>
<event>
 5   0  0.9810351E-08  0.3293558E+04  0.7818609E-02  0.8164536E-01
       -1   -1    0    0    0  501  0.00000000000E+00  0.00000000000E+00  0.15475439169E+04  0.15475439169E+04  0.50400001928E-02 0. -1.
        1   -1    0    0  501    0  0.00000000000E+00  0.00000000000E+00 -0.17523778028E+04  0.17523778028E+04  0.50400001928E-02 0.  1.
    10030    2    1    2    0    0  0.00000000000E+00  0.00000000000E+00 -0.20483388592E+03  0.32999217198E+04  0.32935583243E+04 0.  0.
        5    1    3    3  502    0 -0.52907884252E+03  0.11400648102E+04  0.96368178119E+03  0.15837856100E+04  0.46999998093E+01 0. -1.
       -5    1    3    3    0  502  0.52907884252E+03 -0.11400648102E+04 -0.11685156671E+04  0.17161361098E+04  0.46999998093E+01 0.  1.
</event>
<event>
 5   0  0.2713815E-07  0.3296656E+04  0.7818609E-02  0.8163747E-01
       -2   -1    0    0    0  501  0.00000000000E+00  0.00000000000E+00  0.10704105756E+04  0.10704105756E+04  0.25500000920E-02 0.  1.
        2   -1    0    0  501    0  0.00000000000E+00  0.00000000000E+00 -0.25382646228E+04  0.25382646228E+04  0.25500000920E-02 0. -1.
    10030    2    1    2    0    0  0.00000000000E+00  0.00000000000E+00 -0.14678540472E+04  0.36086751984E+04  0.32966560608E+04 0.  0.
        4    1    3    3  502    0  0.11233042811E+04 -0.10023902643E+04  0.69861599533E+00  0.15055234475E+04  0.12699999809E+01 0. -1.
       -4    1    3    3    0  502 -0.11233042811E+04  0.10023902643E+04 -0.14685526632E+04  0.21031517509E+04  0.12699999809E+01 0.  1.
</event>
<event>
 5   0  0.2703956E-07  0.3207472E+04  0.7818609E-02  0.8186847E-01
        2   -1    0    0  501    0  0.00000000000E+00  0.00000000000E+00  0.28077683206E+04  0.28077683206E+04  0.25500000920E-02 0. -1.
       -2   -1    0    0    0  501  0.00000000000E+00  0.00000000000E+00 -0.91601890823E+03  0.91601890823E+03  0.25500000920E-02 0.  1.
    10030    2    1    2    0    0  0.00000000000E+00  0.00000000000E+00  0.18917494123E+04  0.37237872288E+04  0.32074718216E+04 0.  0.
        5    1    3    3  502    0 -0.25251834469E+03  0.93505355164E+03 -0.53810825136E+03  0.11080041692E+04  0.46999998093E+01 0.  1.
       -5    1    3    3    0  502  0.25251834469E+03 -0.93505355164E+03  0.24298576637E+04  0.26157830596E+04  0.46999998093E+01 0. -1.
</event>
<event>
 5   0  0.9810351E-08  0.3297382E+04  0.7818609E-02  0.8163562E-01
        1   -1    0    0  501    0  0.00000000000E+00  0.00000000000E+00  0.16675599275E+04  0.16675599275E+04  0.50400001928E-02 0.  1.
       -1   -1    0    0    0  501  0.00000000000E+00  0.00000000000E+00 -0.16300356360E+04  0.16300356360E+04  0.50400001928E-02 0. -1.
    10030    2    1    2    0    0  0.00000000000E+00  0.00000000000E+00  0.37524291521E+02  0.32975955636E+04  0.32973820568E+04 0.  0.
        5    1    3    3  502    0  0.22450284377E+03  0.15483721416E+04  0.53870176435E+03  0.16547143247E+04  0.46999998093E+01 0.  1.
       -5    1    3    3    0  502 -0.22450284377E+03 -0.15483721416E+04 -0.50117747283E+03  0.16428812388E+04  0.46999998093E+01 0. -1.
</event>
<event>
 5   0  0.2713815E-07  0.3299201E+04  0.7818609E-02  0.8163099E-01
        2   -1    0    0  501    0  0.00000000000E+00  0.00000000000E+00  0.22262094466E+04  0.22262094466E+04  0.25500000920E-02 0.  1.
       -2   -1    0    0    0  501  0.00000000000E+00  0.00000000000E+00 -0.12223387675E+04  0.12223387675E+04  0.25500000920E-02 0. -1.
    10030    2    1    2    0    0  0.00000000000E+00  0.00000000000E+00  0.10038706791E+04  0.34485482141E+04  0.32992011828E+04 0.  0.
        4    1    3    3  502    0 -0.38472121017E+03 -0.10606052009E+03 -0.11711203274E+04  0.12372484301E+04  0.12699999809E+01 0. -1.
       -4    1    3    3    0  502  0.38472121017E+03  0.10606052009E+03  0.21749910066E+04  0.22112997841E+04  0.12699999809E+01 0.  1.
</event>
<event>
 5   0  0.2824402E-07  0.3297245E+04  0.7818609E-02  0.8163597E-01
       -2   -1    0    0    0  501  0.00000000000E+00  0.00000000000E+00  0.13362801340E+04  0.13362801340E+04  0.25500000920E-02 0. -1.
        2   -1    0    0  501    0  0.00000000000E+00  0.00000000000E+00 -0.20339718223E+04  0.20339718223E+04  0.25500000920E-02 0.  1.
    10030    2    1    2    0    0  0.00000000000E+00  0.00000000000E+00 -0.69769168831E+03  0.33702519564E+04  0.32972449951E+04 0.  0.
        1    1    3    3  502    0  0.96674333828E+03  0.10414077533E+04  0.50562640473E+03  0.15082376643E+04  0.50400001928E-02 0. -1.
       -1    1    3    3    0  502 -0.96674333828E+03 -0.10414077533E+04 -0.12033180930E+04  0.18620142921E+04  0.50400001928E-02 0.  1.
</event>
<event>
 5   0  0.9283910E-08  0.3301170E+04  0.7818609E-02  0.8162598E-01
        1   -1    0    0  501    0  0.00000000000E+00  0.00000000000E+00  0.16861912294E+04  0.16861912295E+04  0.50400001928E-02 0.  1.
       -1   -1    0    0    0  501  0.00000000000E+00  0.00000000000E+00 -0.16157310216E+04  0.16157310216E+04  0.50400001928E-02 0. -1.
    10030    2    1    2    0    0  0.00000000000E+00  0.00000000000E+00  0.70460207837E+02  0.33019222511E+04  0.33011703851E+04 0.  0.
        3    1    3    3  502    0  0.65812966326E+03 -0.11438139713E+04  0.10269126281E+04  0.16721227858E+04  0.10100000352E+00 0.  1.
       -3    1    3    3    0  502 -0.65812966326E+03  0.11438139713E+04 -0.95645242026E+03  0.16297994653E+04  0.10100000352E+00 0. -1.
</event>
<event>
 5   0  0.2875829E-07  0.3302058E+04  0.7818609E-02  0.8162372E-01
       -2   -1    0    0    0  501  0.00000000000E+00  0.00000000000E+00  0.12032147972E+04  0.12032147972E+04  0.25500000920E-02 0.  1.
        2   -1    0    0  501    0  0.00000000000E+00  0.00000000000E+00 -0.22655114668E+04  0.22655114668E+04  0.25500000920E-02 0. -1.
    10030    2    1    2    0    0  0.00000000000E+00  0.00000000000E+00 -0.10622966696E+04  0.34687262640E+04  0.33020580977E+04 0.  0.
        3    1    3    3  502    0  0.77569745295E+03 -0.12190691292E+04 -0.13702534347E+04  0.19913388877E+04  0.10100000352E+00 0. -1.
       -3    1    3    3    0  502 -0.77569745295E+03  0.12190691292E+04  0.30795676510E+03  0.14773873763E+04  0.10100000352E+00 0.  1.
</event>
<event>
 5   0  0.9283910E-08  0.3320608E+04  0.7818609E-02  0.8157671E-01
       -1   -1    0    0    0  501  0.00000000000E+00  0.00000000000E+00  0.13537939586E+04  0.13537939586E+04  0.50400001928E-02 0.  1.
        1   -1    0    0  501    0  0.00000000000E+00  0.00000000000E+00 -0.20362104777E+04  0.20362104777E+04  0.50400001928E-02 0. -1.
    10030    2    1    2    0    0  0.00000000000E+00  0.00000000000E+00 -0.68241651905E+03  0.33900044363E+04  0.33206080426E+04 0.  0.
        3    1    3    3  502    0 -0.66272962857E+03 -0.14866718497E+04 -0.67547376071E+03  0.17622907141E+04  0.10100000352E+00 0. -1.
       -3    1    3    3    0  502  0.66272962857E+03  0.14866718497E+04 -0.69427583413E+01  0.16277137222E+04  0.10100000352E+00 0.  1.
</event>
<event>
 5   0  0.9810351E-08  0.3295949E+04  0.7818609E-02  0.8163927E-01
        1   -1    0    0  501    0  0.00000000000E+00  0.00000000000E+00  0.25135079557E+04  0.25135079557E+04  0.50400001928E-02 0.  1.
       -1   -1    0    0    0  501  0.00000000000E+00  0.00000000000E+00 -0.10804901091E+04  0.10804901091E+04  0.50400001928E-02 0. -1.
    10030    2    1    2    0    0  0.00000000000E+00  0.00000000000E+00  0.14330178466E+04  0.35939980649E+04  0.32959493233E+04 0.  0.
        5    1    3    3  502    0 -0.65074230400E+03 -0.14987419986E+04  0.95064729927E+03  0.18903559195E+04  0.46999998093E+01 0. -1.
       -5    1    3    3    0  502  0.65074230400E+03  0.14987419986E+04  0.48237054731E+03  0.17036421454E+04  0.46999998093E+01 0.  1.
</event>
<event>
 5   0  0.9181760E-08  0.3230153E+04  0.7818609E-02  0.8180899E-01
        1   -1    0    0  501    0  0.00000000000E+00  0.00000000000E+00  0.99227443613E+03  0.99227443614E+03  0.50400001928E-02 0.  1.
       -1   -1    0    0    0  501  0.00000000000E+00  0.00000000000E+00 -0.26287808838E+04  0.26287808838E+04  0.50400001928E-02 0. -1.
    10030    2    1    2    0    0  0.00000000000E+00  0.00000000000E+00 -0.16365064476E+04  0.36210553199E+04  0.32301529804E+04 0.  0.
        1    1    3    3  502    0 -0.10952888670E+04 -0.10086974412E+04 -0.15195330072E+04  0.21274653440E+04  0.50400001928E-02 0. -1.
       -1    1    3    3    0  502  0.10952888670E+04  0.10086974412E+04 -0.11697344048E+03  0.14935899759E+04  0.50400001928E-02 0.  1.
</event>
<event>
 5   0  0.9181760E-08  0.3299794E+04  0.7818609E-02  0.8162948E-01
       -1   -1    0    0    0  501  0.00000000000E+00  0.00000000000E+00  0.14464190546E+04  0.14464190546E+04  0.50400001928E-02 0.  1.
        1   -1    0    0  501    0  0.00000000000E+00  0.00000000000E+00 -0.18819998871E+04  0.18819998871E+04  0.50400001928E-02 0. -1.
    10030    2    1    2    0    0  0.00000000000E+00  0.00000000000E+00 -0.43558083249E+03  0.33284189417E+04  0.32997942344E+04 0.  0.
        1    1    3    3  502    0 -0.25685409716E+02 -0.11356532756E+04 -0.14247456188E+04  0.18221603061E+04  0.50400001928E-02 0. -1.
       -1    1    3    3    0  502  0.25685409716E+02  0.11356532756E+04  0.98916478635E+03  0.15062586356E+04  0.50400001928E-02 0.  1.
</event>
<event>
 5   0  0.2875829E-07  0.3304387E+04  0.7818609E-02  0.8161780E-01
        2   -1    0    0  501    0  0.00000000000E+00  0.00000000000E+00  0.15325361989E+04  0.15325361989E+04  0.25500000920E-02 0.  1.
       -2   -1    0    0    0  501  0.00000000000E+00  0.00000000000E+00 -0.17811937199E+04  0.17811937199E+04  0.25500000920E-02 0. -1.
    10030    2    1    2    0    0  0.00000000000E+00  0.00000000000E+00 -0.24865752096E+03  0.33137299188E+04  0.33043872975E+04 0.  0.
        3    1    3    3  502    0 -0.16191788761E+04 -0.19087710016E+03 -0.39260998860E+03  0.16769963964E+04  0.10100000352E+00 0.  1.
       -3    1    3    3    0  502  0.16191788761E+04  0.19087710016E+03  0.14395246764E+03  0.16367335224E+04  0.10100000352E+00 0. -1.
</event>
<event>
 5   0  0.9181760E-08  0.3313461E+04  0.7818609E-02  0.8159479E-01
       -1   -1    0    0    0  501  0.00000000000E+00  0.00000000000E+00  0.11024236112E+04  0.11024236112E+04  0.50400001928E-02 0.  1.
        1   -1    0    0  501    0  0.00000000000E+00  0.00000000000E+00 -0.24897469101E+04  0.24897469101E+04  0.50400001928E-02 0. -1.
    10030    2    1    2    0    0  0.00000000000E+00  0.00000000000E+00 -0.13873232989E+04  0.35921705214E+04  0.33134608974E+04 0.  0.
        1    1    3    3  502    0  0.92427095764E+03  0.13724950046E+04 -0.60468208364E+03  0.17617206825E+04  0.50400001928E-02 0. -1.
       -1    1    3    3    0  502 -0.92427095764E+03 -0.13724950046E+04 -0.78264121525E+03  0.18304498389E+04  0.50400001928E-02 0.  1.
</event>
<event>
 5   0  0.9454010E-08  0.3308408E+04  0.7818609E-02  0.8160759E-01
        1   -1    0    0  501    0  0.00000000000E+00  0.00000000000E+00  0.16740807528E+04  0.16740807528E+04  0.50400001928E-02 0. -1.
       -1   -1    0    0    0  501  0.00000000000E+00  0.00000000000E+00 -0.16345632778E+04  0.16345632778E+04  0.50400001928E-02 0.  1.
    10030    2    1    2    0    0  0.00000000000E+00  0.00000000000E+00  0.39517474947E+02  0.33086440306E+04  0.33084080296E+04 0.  0.
        2    1    3    3  502    0 -0.14000403402E+04 -0.64998079633E+03  0.61461452733E+03  0.16614267986E+04  0.25500000920E-02 0. -1.
       -2    1    3    3    0  502  0.14000403402E+04  0.64998079633E+03 -0.57509705238E+03  0.16472172320E+04  0.25500000920E-02 0.  1.
</event>
<event>
 5   0  0.9810351E-08  0.3301093E+04  0.7818609E-02  0.8162617E-01
       -1   -1    0    0    0  501  0.00000000000E+00  0.00000000000E+00  0.13607406566E+04  0.13607406566E+04  0.50400001928E-02 0.  1.
        1   -1    0    0  501    0  0.00000000000E+00  0.00000000000E+00 -0.20020743077E+04  0.20020743077E+04  0.50400001928E-02 0. -1.
    10030    2    1    2    0    0  0.00000000000E+00  0.00000000000E+00 -0.64133365105E+03  0.33628149643E+04  0.33010930966E+04 0.  0.
        5    1    3    3  502    0  0.25950210571E+03  0.56996429064E+03 -0.18763352300E+04  0.19780941891E+04  0.46999998093E+01 0. -1.
       -5    1    3    3    0  502 -0.25950210571E+03 -0.56996429064E+03  0.12350015789E+04  0.13847207753E+04  0.46999998093E+01 0.  1.
</event>
<event>
 5   0  0.2713815E-07  0.3300001E+04  0.7818609E-02  0.8162895E-01
        2   -1    0    0  501    0  0.00000000000E+00  0.00000000000E+00  0.14131058316E+04  0.14131058316E+04  0.25500000920E-02 0.  1.
       -2   -1    0    0    0  501  0.00000000000E+00  0.00000000000E+00 -0.19266084116E+04  0.19266084116E+04  0.25500000920E-02 0. -1.
    10030    2    1    2    0    0  0.00000000000E+00  0.00000000000E+00 -0.51350258006E+03  0.33397142432E+04  0.33000009585E+04 0.  0.
        4    1    3    3  502    0  0.15612896400E+04  0.67948139631E+02 -0.79251587601E+03  0.17522343782E+04  0.12699999809E+01 0. -1.
       -4    1    3    3    0  502 -0.15612896400E+04 -0.67948139631E+02  0.27901329595E+03  0.15874798650E+04  0.12699999809E+01 0.  1.
</event>
<event>
 5   0  0.2875829E-07  0.3300845E+04  0.7818609E-02  0.8162680E-01
       -2   -1    0    0    0  501  0.00000000000E+00  0.00000000000E+00  0.14201900714E+04  0.14201900714E+04  0.25500000920E-02 0.  1.
        2   -1    0    0  501    0  0.00000000000E+00  0.00000000000E+00 -0.19179793450E+04  0.19179793450E+04  0.25500000920E-02 0. -1.
    10030    2    1    2    0    0  0.00000000000E+00  0.00000000000E+00 -0.49778927366E+03  0.33381694164E+04  0.33008454813E+04 0.  0.
        3    1    3    3  502    0 -0.62790581349E+03  0.11605023400E+04  0.75371033467E+03  0.15195758193E+04  0.10100000352E+00 0.  1.
       -3    1    3    3    0  502  0.62790581349E+03 -0.11605023400E+04 -0.12514996083E+04  0.18185935971E+04  0.10100000352E+00 0. -1.
</event>
<event>
 5   0  0.9181760E-08  0.3308053E+04  0.7818609E-02  0.8160849E-01
        1   -1    0    0  501    0  0.00000000000E+00  0.00000000000E+00  0.19987530122E+04  0.19987530123E+04  0.50400001928E-02 0.  1.
       -1   -1    0    0    0  501  0.00000000000E+00  0.00000000000E+00 -0.13687554624E+04  0.13687554624E+04  0.50400001928E-02 0. -1.
    10030    2    1    2    0    0  0.00000000000E+00  0.00000000000E+00  0.62999754983E+03  0.33675084747E+04  0.33080532665E+04 0.  0.
        1    1    3    3  502    0 -0.94072181994E+03  0.31195796586E+03 -0.10330097959E+04  0.14315671669E+04  0.50400001928E-02 0. -1.
       -1    1    3    3    0  502  0.94072181994E+03 -0.31195796586E+03  0.16630073457E+04  0.19359413077E+04  0.50400001928E-02 0.  1.
</event>
<event>
 5   0  0.9454010E-08  0.3301736E+04  0.7818609E-02  0.8162454E-01
        1   -1    0    0  501    0  0.00000000000E+00  0.00000000000E+00  0.27403497578E+04  0.27403497578E+04  0.50400001928E-02 0.  1.
       -1   -1    0    0    0  501  0.00000000000E+00  0.00000000000E+00 -0.99453194130E+03  0.99453194131E+03  0.50400001928E-02 0. -1.
    10030    2    1    2    0    0  0.00000000000E+00  0.00000000000E+00  0.17458178165E+04  0.37348816991E+04  0.33017361279E+04 0.  0.
        2    1    3    3  502    0 -0.66084134876E+03 -0.95733150578E+02  0.25807728199E+04  0.26657577670E+04  0.25500000920E-02 0.  1.
       -2    1    3    3    0  502  0.66084134876E+03  0.95733150578E+02 -0.83495500344E+03  0.10691239321E+04  0.25500000920E-02 0. -1.
</event>
<event>
 5   0  0.8805125E-08  0.3302856E+04  0.7818609E-02  0.8162169E-01
       -1   -1    0    0    0  501  0.00000000000E+00  0.00000000000E+00  0.16712024726E+04  0.16712024726E+04  0.50400001928E-02 0. -1.
        1   -1    0    0  501    0  0.00000000000E+00  0.00000000000E+00 -0.16318874191E+04  0.16318874191E+04  0.50400001928E-02 0.  1.
    10030    2    1    2    0    0  0.00000000000E+00  0.00000000000E+00  0.39315053521E+02  0.33030898916E+04  0.33028559095E+04 0.  0.
        4    1    3    3  502    0  0.13125162983E+04  0.12362725225E+03  0.10143283818E+04  0.16633840235E+04  0.12699999809E+01 0. -1.
       -4    1    3    3    0  502 -0.13125162983E+04 -0.12362725225E+03 -0.97501332826E+03  0.16397058681E+04  0.12699999809E+01 0.  1.
</event>
<event>
 5   0  0.9283910E-08  0.3309196E+04  0.7818609E-02  0.8160559E-01
       -1   -1    0    0    0  501  0.00000000000E+00  0.00000000000E+00  0.12391312705E+04  0.12391312705E+04  0.50400001928E-02 0.  1.
        1   -1    0    0  501    0  0.00000000000E+00  0.00000000000E+00 -0.22093655393E+04  0.22093655393E+04  0.50400001928E-02 0. -1.
    10030    2    1    2    0    0  0.00000000000E+00  0.00000000000E+00 -0.97023426885E+03  0.34484968098E+04  0.33091956290E+04 0.  0.
        3    1    3    3  502    0  0.13687706241E+04 -0.89069657593E+03 -0.76244077845E+03  0.18022733873E+04  0.10100000352E+00 0. -1.
       -3    1    3    3    0  502 -0.13687706241E+04  0.89069657593E+03 -0.20779349040E+03  0.16462234225E+04  0.10100000352E+00 0.  1.
</event>
<event>
 5   0  0.9181760E-08  0.3301209E+04  0.7818609E-02  0.8162588E-01
        1   -1    0    0  501    0  0.00000000000E+00  0.00000000000E+00  0.23654748705E+04  0.23654748705E+04  0.50400001928E-02 0.  1.
       -1   -1    0    0    0  501  0.00000000000E+00  0.00000000000E+00 -0.11517752449E+04  0.11517752449E+04  0.50400001928E-02 0. -1.
    10030    2    1    2    0    0  0.00000000000E+00  0.00000000000E+00  0.12136996256E+04  0.35172501155E+04  0.33012091108E+04 0.  0.
        1    1    3    3  502    0  0.11218198029E+04 -0.67418778543E+03 -0.46469484480E+03  0.13888664943E+04  0.50400001928E-02 0. -1.
       -1    1    3    3    0  502 -0.11218198029E+04  0.67418778543E+03  0.16783944704E+04  0.21283836211E+04  0.50400001928E-02 0.  1.
</event>
<event>
 5   0  0.2713815E-07  0.3297632E+04  0.7818609E-02  0.8163498E-01
        2   -1    0    0  501    0  0.00000000000E+00  0.00000000000E+00  0.18631561491E+04  0.18631561491E+04  0.25500000920E-02 0. -1.
       -2   -1    0    0    0  501  0.00000000000E+00  0.00000000000E+00 -0.14591341103E+04  0.14591341103E+04  0.25500000920E-02 0.  1.
    10030    2    1    2    0    0  0.00000000000E+00  0.00000000000E+00  0.40402203881E+03  0.33222902595E+04  0.32976322961E+04 0.  0.
        4    1    3    3  502    0 -0.75244851691E+03 -0.53794096357E+03 -0.11731251817E+04  0.14939155115E+04  0.12699999809E+01 0.  1.
       -4    1    3    3    0  502  0.75244851691E+03  0.53794096357E+03  0.15771472205E+04  0.18283747479E+04  0.12699999809E+01 0. -1.
</event>
<event>
 5   0  0.2713815E-07  0.3292821E+04  0.7818609E-02  0.8164724E-01
        2   -1    0    0  501    0  0.00000000000E+00  0.00000000000E+00  0.15741045903E+04  0.15741045903E+04  0.25500000920E-02 0.  1.
       -2   -1    0    0    0  501  0.00000000000E+00  0.00000000000E+00 -0.17220377495E+04  0.17220377495E+04  0.25500000920E-02 0. -1.
    10030    2    1    2    0    0  0.00000000000E+00  0.00000000000E+00 -0.14793315916E+03  0.32961423398E+04  0.32928209950E+04 0.  0.
        4    1    3    3  502    0  0.11747406041E+04 -0.68309489881E+03 -0.10044372656E+04  0.16898313410E+04  0.12699999809E+01 0. -1.
       -4    1    3    3    0  502 -0.11747406041E+04  0.68309489881E+03  0.85650410648E+03  0.16063109988E+04  0.12699999809E+01 0.  1.
</event>
<event>
 5   0  0.9181760E-08  0.3313048E+04  0.7818609E-02  0.8159583E-01
       -1   -1    0    0    0  501  0.00000000000E+00  0.00000000000E+00  0.25909143363E+04  0.25909143363E+04  0.50400001928E-02 0. -1.
        1   -1    0    0  501    0  0.00000000000E+00  0.00000000000E+00 -0.10591131624E+04  0.10591131624E+04  0.50400001928E-02 0.  1.
    10030    2    1    2    0    0  0.00000000000E+00  0.00000000000E+00  0.15318011739E+04  0.36500274987E+04  0.33130478272E+04 0.  0.
        1    1    3    3  502    0  0.17197767495E+03  0.84093866615E+03 -0.79500432190E+03  0.11699512950E+04  0.50400001928E-02 0.  1.
       -1    1    3    3    0  502 -0.17197767495E+03 -0.84093866615E+03  0.23268054958E+04  0.24800762037E+04  0.50400001928E-02 0. -1.
</event>
<event>
 5   0  0.8805125E-08  0.3287280E+04  0.7818609E-02  0.8166140E-01
        1   -1    0    0  501    0  0.00000000000E+00  0.00000000000E+00  0.10680501083E+04  0.10680501083E+04  0.50400001928E-02 0. -1.
       -1   -1    0    0    0  501  0.00000000000E+00  0.00000000000E+00 -0.25294245047E+04  0.25294245047E+04  0.50400001928E-02 0.  1.
    10030    2    1    2    0    0  0.00000000000E+00  0.00000000000E+00 -0.14613743964E+04  0.35974746130E+04  0.32872797972E+04 0.  0.
        4    1    3    3  502    0  0.45731157029E+03  0.15505052992E+03 -0.24500468130E+04  0.24971795165E+04  0.12699999809E+01 0.  1.
       -4    1    3    3    0  502 -0.45731157029E+03 -0.15505052992E+03  0.98867241659E+03  0.11002950965E+04  0.12699999809E+01 0. -1.
</event>
<event>
 5   0  0.2713815E-07  0.3296068E+04  0.7818609E-02  0.8163897E-01
       -2   -1    0    0    0  501  0.00000000000E+00  0.00000000000E+00  0.16866875133E+04  0.16866875133E+04  0.25500000920E-02 0. -1.
        2   -1    0    0  501    0  0.00000000000E+00  0.00000000000E+00 -0.16102664897E+04  0.16102664897E+04  0.25500000920E-02 0.  1.
    10030    2    1    2    0    0  0.00000000000E+00  0.00000000000E+00  0.76421023574E+02  0.32969540030E+04  0.32960681918E+04 0.  0.
        4    1    3    3  502    0 -0.11020763212E+04  0.29442278074E+03 -0.11515450535E+04  0.16208993228E+04  0.12699999809E+01 0.  1.
       -4    1    3    3    0  502  0.11020763212E+04 -0.29442278074E+03  0.12279660771E+04  0.16760546802E+04  0.12699999809E+01 0. -1.
</event>
<event>
 5   0  0.2713815E-07  0.3300458E+04  0.7818609E-02  0.8162779E-01
        2   -1    0    0  501    0  0.00000000000E+00  0.00000000000E+00  0.28111853374E+04  0.28111853374E+04  0.25500000920E-02 0. -1.
       -2   -1    0    0    0  501  0.00000000000E+00  0.00000000000E+00 -0.96872157920E+03  0.96872157920E+03  0.25500000920E-02 0.  1.
    10030    2    1    2    0    0  0.00000000000E+00  0.00000000000E+00  0.18424637582E+04  0.37799069166E+04  0.33004580891E+04 0.  0.
        4    1    3    3  502    0  0.51694247406E+03 -0.13413755216E+04 -0.68845312705E+01  0.14375558498E+04  0.12699999809E+01 0. -1.
       -4    1    3    3    0  502 -0.51694247406E+03  0.13413755216E+04  0.18493482894E+04  0.23423510668E+04  0.12699999809E+01 0.  1.
</event>
<event>
 5   0  0.2703956E-07  0.3303461E+04  0.7818609E-02  0.8162015E-01
       -2   -1    0    0    0  501  0.00000000000E+00  0.00000000000E+00  0.12574654683E+04  0.12574654683E+04  0.25500000920E-02 0.  1.
        2   -1    0    0  501    0  0.00000000000E+00  0.00000000000E+00 -0.21696127090E+04  0.21696127090E+04  0.25500000920E-02 0. -1.
    10030    2    1    2    0    0  0.00000000000E+00  0.00000000000E+00 -0.91214724062E+03  0.34270781773E+04  0.33034606468E+04 0.  0.
        5    1    3    3  502    0 -0.10900788114E+04 -0.97907642644E+03  0.33490671080E+03  0.15030126609E+04  0.46999998093E+01 0.  1.
       -5    1    3    3    0  502  0.10900788114E+04  0.97907642644E+03 -0.12470539514E+04  0.19240655164E+04  0.46999998093E+01 0. -1.
</event>
<event>
 5   0  0.2824402E-07  0.3298806E+04  0.7818609E-02  0.8163199E-01
       -2   -1    0    0    0  501  0.00000000000E+00  0.00000000000E+00  0.11553746063E+04  0.11553746063E+04  0.25500000920E-02 0.  1.
        2   -1    0    0  501    0  0.00000000000E+00  0.00000000000E+00 -0.23546742185E+04  0.23546742185E+04  0.25500000920E-02 0. -1.
    10030    2    1    2    0    0  0.00000000000E+00  0.00000000000E+00 -0.11992996122E+04  0.35100488248E+04  0.32988063284E+04 0.  0.
        1    1    3    3  502    0 -0.10197337415E+03 -0.70482977068E+03  0.98335091815E+03  0.12141509803E+04  0.50400001928E-02 0.  1.
       -1    1    3    3    0  502  0.10197337415E+03  0.70482977068E+03 -0.21826505303E+04  0.22958978445E+04  0.50400001928E-02 0. -1.
</event>
<event>
 5   0  0.8805125E-08  0.3306575E+04  0.7818609E-02  0.8161224E-01
       -3   -1    0    0    0  501  0.00000000000E+00  0.00000000000E+00  0.22051042809E+04  0.22051042832E+04  0.10100000352E+00 0.  1.
        3   -1    0    0  501    0  0.00000000000E+00  0.00000000000E+00 -0.12395602591E+04  0.12395602632E+04  0.10100000352E+00 0. -1.
    10030    2    1    2    0    0  0.00000000000E+00  0.00000000000E+00  0.96554402179E+03  0.34446645464E+04  0.33065750528E+04 0.  0.
        4    1    3    3  502    0  0.82755712815E+03 -0.18292492543E+03  0.19615773191E+04  0.21368433542E+04  0.12699999809E+01 0.  1.
       -4    1    3    3    0  502 -0.82755712815E+03  0.18292492543E+03 -0.99603329729E+03  0.13078211923E+04  0.12699999809E+01 0. -1.
</event>
<event>
 5   0  0.2703956E-07  0.3311679E+04  0.7818609E-02  0.8159930E-01
       -2   -1    0    0    0  501  0.00000000000E+00  0.00000000000E+00  0.89328927437E+03  0.89328927437E+03  0.25500000920E-02 0. -1.
        2   -1    0    0  501    0  0.00000000000E+00  0.00000000000E+00 -0.30693346831E+04  0.30693346831E+04  0.25500000920E-02 0.  1.
    10030    2    1    2    0    0  0.00000000000E+00  0.00000000000E+00 -0.21760454088E+04  0.39626239575E+04  0.33116785785E+04 0.  0.
        5    1    3    3  502    0 -0.13673964984E+03  0.21972749462E+03 -0.30449768266E+04  0.30559587478E+04  0.46999998093E+01 0.  1.
       -5    1    3    3    0  502  0.13673964984E+03 -0.21972749462E+03  0.86893141780E+03  0.90666520974E+03  0.46999998093E+01 0. -1.
</event>
<event>
 5   0  0.9454010E-08  0.3317813E+04  0.7818609E-02  0.8158378E-01
        1   -1    0    0  501    0  0.00000000000E+00  0.00000000000E+00  0.26322160711E+04  0.26322160711E+04  0.50400001928E-02 0.  1.
       -1   -1    0    0    0  501  0.00000000000E+00  0.00000000000E+00 -0.10454959769E+04  0.10454959770E+04  0.50400001928E-02 0. -1.
    10030    2    1    2    0    0  0.00000000000E+00  0.00000000000E+00  0.15867200942E+04  0.36777120481E+04  0.33178133238E+04 0.  0.
        2    1    3    3  502    0 -0.47727778035E+03  0.48215242342E+03 -0.88469132590E+03  0.11148738858E+04  0.25500000920E-02 0. -1.
       -2    1    3    3    0  502  0.47727778035E+03 -0.48215242342E+03  0.24714114201E+04  0.25628381623E+04  0.25500000920E-02 0.  1.
</event>
<event>
 5   0  0.2703956E-07  0.3290716E+04  0.7818609E-02  0.8165262E-01
       -2   -1    0    0    0  501  0.00000000000E+00  0.00000000000E+00  0.15698614253E+04  0.15698614253E+04  0.25500000920E-02 0.  1.
        2   -1    0    0  501    0  0.00000000000E+00  0.00000000000E+00 -0.17244849312E+04  0.17244849312E+04  0.25500000920E-02 0. -1.
    10030    2    1    2    0    0  0.00000000000E+00  0.00000000000E+00 -0.15462350589E+03  0.32943463565E+04  0.32907156498E+04 0.  0.
        5    1    3    3  502    0  0.15489390090E+04 -0.46740419843E+03  0.22218641085E+03  0.16331159265E+04  0.46999998093E+01 0.  1.
       -5    1    3    3    0  502 -0.15489390090E+04  0.46740419843E+03 -0.37680991674E+03  0.16612304300E+04  0.46999998093E+01 0. -1.
</event>
<event>
 5   0  0.9283910E-08  0.3301253E+04  0.7818609E-02  0.8162577E-01
        1   -1    0    0  501    0  0.00000000000E+00  0.00000000000E+00  0.13878566184E+04  0.13878566184E+04  0.50400001928E-02 0.  1.
       -1   -1    0    0    0  501  0.00000000000E+00  0.00000000000E+00 -0.19631478394E+04  0.19631478394E+04  0.50400001928E-02 0. -1.
    10030    2    1    2    0    0  0.00000000000E+00  0.00000000000E+00 -0.57529122102E+03  0.33510044579E+04  0.33012529269E+04 0.  0.
        3    1    3    3  502    0 -0.11348317173E+04 -0.11670431777E+04 -0.10148826535E+02  0.16278623449E+04  0.10100000352E+00 0.  1.
       -3    1    3    3    0  502  0.11348317173E+04  0.11670431777E+04 -0.56514239449E+03  0.17231421129E+04  0.10100000352E+00 0. -1.
</event>
<event>
 5   0  0.8805125E-08  0.3309023E+04  0.7818609E-02  0.8160603E-01
       -1   -1    0    0    0  501  0.00000000000E+00  0.00000000000E+00  0.14814384407E+04  0.14814384408E+04  0.50400001928E-02 0. -1.
        1   -1    0    0  501    0  0.00000000000E+00  0.00000000000E+00 -0.18478038376E+04  0.18478038376E+04  0.50400001928E-02 0.  1.
    10030    2    1    2    0    0  0.00000000000E+00  0.00000000000E+00 -0.36636539681E+03  0.33292422783E+04  0.33090225964E+04 0.  0.
        4    1    3    3  502    0 -0.12939524948E+04  0.73884270922E+03  0.54038101706E+03  0.15849968026E+04  0.12699999809E+01 0. -1.
       -4    1    3    3    0  502  0.12939524948E+04 -0.73884270922E+03 -0.90674641387E+03  0.17442454757E+04  0.12699999809E+01 0.  1.
</event>
<event>
 5   0  0.9283910E-08  0.3291166E+04  0.7818609E-02  0.8165147E-01
        1   -1    0    0  501    0  0.00000000000E+00  0.00000000000E+00  0.23381913354E+04  0.23381913354E+04  0.50400001928E-02 0. -1.
       -1   -1    0    0    0  501  0.00000000000E+00  0.00000000000E+00 -0.11581359427E+04  0.11581359427E+04  0.50400001928E-02 0.  1.
    10030    2    1    2    0    0  0.00000000000E+00  0.00000000000E+00  0.11800553927E+04  0.34963272781E+04  0.32911660100E+04 0.  0.
        3    1    3    3  502    0  0.96224006409E+03 -0.13207582922E+04  0.79611835196E+03  0.18177218841E+04  0.10100000352E+00 0. -1.
       -3    1    3    3    0  502 -0.96224006409E+03  0.13207582922E+04  0.38393704072E+03  0.16786053940E+04  0.10100000352E+00 0.  1.
</event>
<event>
 5   0  0.9283910E-08  0.3293617E+04  0.7818609E-02  0.8164521E-01
       -1   -1    0    0    0  501  0.00000000000E+00  0.00000000000E+00  0.11707948093E+04  0.11707948093E+04  0.50400001928E-02 0. -1.
        1   -1    0    0  501    0  0.00000000000E+00  0.00000000000E+00 -0.23163564740E+04  0.23163564740E+04  0.50400001928E-02 0.  1.
    10030    2    1    2    0    0  0.00000000000E+00  0.00000000000E+00 -0.11455616647E+04  0.34871512834E+04  0.32936169397E+04 0.  0.
        3    1    3    3  502    0 -0.68373733022E+03 -0.73901040187E+03 -0.19525634251E+04  0.21968470703E+04  0.10100000352E+00 0.  1.
       -3    1    3    3    0  502  0.68373733022E+03  0.73901040187E+03  0.80700176042E+03  0.12903042131E+04  0.10100000352E+00 0. -1.
</event>
<event>
 5   0  0.2727168E-07  0.3301797E+04  0.7818609E-02  0.8162438E-01
        2   -1    0    0  501    0  0.00000000000E+00  0.00000000000E+00  0.16177709924E+04  0.16177709924E+04  0.25500000920E-02 0.  1.
       -2   -1    0    0    0  501  0.00000000000E+00  0.00000000000E+00 -0.16847044748E+04  0.16847044748E+04  0.25500000920E-02 0. -1.
    10030    2    1    2    0    0  0.00000000000E+00  0.00000000000E+00 -0.66933482377E+02  0.33024754673E+04  0.33017971047E+04 0.  0.
        2    1    3    3  502    0 -0.10569788490E+04  0.48672112607E+03 -0.12047599781E+04  0.16749771182E+04  0.25500000920E-02 0. -1.
       -2    1    3    3    0  502  0.10569788490E+04 -0.48672112607E+03  0.11378264957E+04  0.16274983490E+04  0.25500000920E-02 0.  1.
</event>
<event>
 5   0  0.9810351E-08  0.3301102E+04  0.7818609E-02  0.8162615E-01
        1   -1    0    0  501    0  0.00000000000E+00  0.00000000000E+00  0.11013965501E+04  0.11013965501E+04  0.50400001928E-02 0.  1.
       -1   -1    0    0    0  501  0.00000000000E+00  0.00000000000E+00 -0.24735129771E+04  0.24735129771E+04  0.50400001928E-02 0. -1.
    10030    2    1    2    0    0  0.00000000000E+00  0.00000000000E+00 -0.13721164270E+04  0.35749095272E+04  0.33011020340E+04 0.  0.
        5    1    3    3  502    0  0.10328281485E+04 -0.16557241861E+03  0.69661539282E+03  0.12567590484E+04  0.46999998093E+01 0.  1.
       -5    1    3    3    0  502 -0.10328281485E+04  0.16557241861E+03 -0.20687318198E+04  0.23181504789E+04  0.46999998093E+01 0. -1.
</event>
<event>
 5   0  0.9454010E-08  0.3298887E+04  0.7818609E-02  0.8163179E-01
        1   -1    0    0  501    0  0.00000000000E+00  0.00000000000E+00  0.19801560677E+04  0.19801560677E+04  0.50400001928E-02 0. -1.
       -1   -1    0    0    0  501  0.00000000000E+00  0.00000000000E+00 -0.13739642890E+04  0.13739642890E+04  0.50400001928E-02 0.  1.
    10030    2    1    2    0    0  0.00000000000E+00  0.00000000000E+00  0.60619177868E+03  0.33541203567E+04  0.32988869176E+04 0.  0.
        2    1    3    3  502    0 -0.76089487000E+03 -0.14549291014E+04  0.14270799829E+03  0.16480731980E+04  0.25500000920E-02 0.  1.
       -2    1    3    3    0  502  0.76089487000E+03  0.14549291014E+04  0.46348378039E+03  0.17060471587E+04  0.25500000920E-02 0. -1.
</event>
<event>
 5   0  0.9283910E-08  0.3297096E+04  0.7818609E-02  0.8163635E-01
        1   -1    0    0  501    0  0.00000000000E+00  0.00000000000E+00  0.21244702800E+04  0.21244702800E+04  0.50400001928E-02 0. -1.
       -1   -1    0    0    0  501  0.00000000000E+00  0.00000000000E+00 -0.12792418165E+04  0.12792418165E+04  0.50400001928E-02 0.  1.
    10030    2    1    2    0    0  0.00000000000E+00  0.00000000000E+00  0.84522846353E+03  0.34037120964E+04  0.32970964317E+04 0.  0.
        3    1    3    3  502    0 -0.55880077945E+03 -0.92442171591E+03 -0.86300600887E+03  0.13826037760E+04  0.10100000352E+00 0.  1.
       -3    1    3    3    0  502  0.55880077945E+03  0.92442171591E+03  0.17082344724E+04  0.20211083204E+04  0.10100000352E+00 0. -1.
</event>
<event>
 5   0  0.2824402E-07  0.3295404E+04  0.7818609E-02  0.8164066E-01
        2   -1    0    0  501    0  0.00000000000E+00  0.00000000000E+00  0.29396522870E+04  0.29396522870E+04  0.25500000920E-02 0.  1.
       -2   -1    0    0    0  501  0.00000000000E+00  0.00000000000E+00 -0.92355195798E+03  0.92355195798E+03  0.25500000920E-02 0. -1.
    10030    2    1    2    0    0  0.00000000000E+00  0.00000000000E+00  0.20161003290E+04  0.38632042450E+04  0.32954038450E+04 0.  0.
        1    1    3    3  502    0  0.70851054888E+03 -0.14571869243E+04  0.13588418221E+04  0.21146706665E+04  0.50400001928E-02 0.  1.
       -1    1    3    3    0  502 -0.70851054888E+03  0.14571869243E+04  0.65725850690E+03  0.17485335785E+04  0.50400001928E-02 0. -1.
</event>
<event>
 5   0  0.2727168E-07  0.3303717E+04  0.7818609E-02  0.8161950E-01
        2   -1    0    0  501    0  0.00000000000E+00  0.00000000000E+00  0.18905407218E+04  0.18905407218E+04  0.25500000920E-02 0. -1.
       -2   -1    0    0    0  501  0.00000000000E+00  0.00000000000E+00 -0.14433104496E+04  0.14433104496E+04  0.25500000920E-02 0.  1.
    10030    2    1    2    0    0  0.00000000000E+00  0.00000000000E+00  0.44723027222E+03  0.33338511715E+04  0.33037174088E+04 0.  0.
        2    1    3    3  502    0 -0.13090094129E+04  0.99301322639E+03  0.39562891447E+03  0.16900009316E+04  0.25500000920E-02 0. -1.
       -2    1    3    3    0  502  0.13090094129E+04 -0.99301322639E+03  0.51601357744E+02  0.16438502398E+04  0.25500000920E-02 0.  1.
</event>
<event>
 5   0  0.9283910E-08  0.3305370E+04  0.7818609E-02  0.8161530E-01
       -1   -1    0    0    0  501  0.00000000000E+00  0.00000000000E+00  0.13923608902E+04  0.13923608902E+04  0.50400001928E-02 0. -1.
        1   -1    0    0  501    0  0.00000000000E+00  0.00000000000E+00 -0.19616807807E+04  0.19616807807E+04  0.50400001928E-02 0.  1.
    10030    2    1    2    0    0  0.00000000000E+00  0.00000000000E+00 -0.56931989048E+03  0.33540416710E+04  0.33053699328E+04 0.  0.
        3    1    3    3  502    0  0.11271551995E+04  0.43328908843E+03  0.86029408806E+03  0.14826746798E+04  0.10100000352E+00 0. -1.
       -3    1    3    3    0  502 -0.11271551995E+04 -0.43328908843E+03 -0.14296139785E+04  0.18713669912E+04  0.10100000352E+00 0.  1.
</event>
<event>
 5   0  0.2824402E-07  0.3301643E+04  0.7818609E-02  0.8162478E-01
       -2   -1    0    0    0  501  0.00000000000E+00  0.00000000000E+00  0.19371737913E+04  0.19371737913E+04  0.25500000920E-02 0.  1.
        2   -1    0    0  501    0  0.00000000000E+00  0.00000000000E+00 -0.14067974277E+04  0.14067974277E+04  0.25500000920E-02 0. -1.
    10030    2    1    2    0    0  0.00000000000E+00  0.00000000000E+00  0.53037636368E+03  0.33439712190E+04  0.33016426861E+04 0.  0.
        1    1    3    3  502    0 -0.14796715672E+03  0.17590233169E+03 -0.13905100166E+04  0.14093807208E+04  0.50400001928E-02 0. -1.
       -1    1    3    3    0  502  0.14796715672E+03 -0.17590233169E+03  0.19208863803E+04  0.19345904982E+04  0.50400001928E-02 0.  1.
</event>
<event>
 5   0  0.9181760E-08  0.3301070E+04  0.7818609E-02  0.8162623E-01
        1   -1    0    0  501    0  0.00000000000E+00  0.00000000000E+00  0.29431802376E+04  0.29431802376E+04  0.50400001928E-02 0.  1.
       -1   -1    0    0    0  501  0.00000000000E+00  0.00000000000E+00 -0.92561968309E+03  0.92561968311E+03  0.50400001928E-02 0. -1.
    10030    2    1    2    0    0  0.00000000000E+00  0.00000000000E+00  0.20175605545E+04  0.38687999208E+04  0.33010698623E+04 0.  0.
        1    1    3    3  502    0 -0.72344374447E+02 -0.16287399245E+04  0.13104109596E+04  0.20916989107E+04  0.50400001928E-02 0.  1.
       -1    1    3    3    0  502  0.72344374447E+02  0.16287399245E+04  0.70714959493E+03  0.17771010100E+04  0.50400001928E-02 0. -1.
</event>
<event>
 5   0  0.9283910E-08  0.3283950E+04  0.7818609E-02  0.8166991E-01
       -1   -1    0    0    0  501  0.00000000000E+00  0.00000000000E+00  0.12814662762E+04  0.12814662762E+04  0.50400001928E-02 0. -1.
        1   -1    0    0  501    0  0.00000000000E+00  0.00000000000E+00 -0.21039035391E+04  0.21039035391E+04  0.50400001928E-02 0.  1.
    10030    2    1    2    0    0  0.00000000000E+00  0.00000000000E+00 -0.82243726285E+03  0.33853698153E+04  0.32839497157E+04 0.  0.
        3    1    3    3  502    0 -0.65106294791E+01 -0.15575367474E+04  0.12456153845E+03  0.15625231822E+04  0.10100000352E+00 0. -1.
       -3    1    3    3    0  502  0.65106294791E+01  0.15575367474E+04 -0.94699880130E+03  0.18228466331E+04  0.10100000352E+00 0.  1.
</event>
<event>
 5   0  0.2713815E-07  0.3297959E+04  0.7818609E-02  0.8163415E-01
       -2   -1    0    0    0  501  0.00000000000E+00  0.00000000000E+00  0.25338254861E+04  0.25338254861E+04  0.25500000920E-02 0. -1.
        2   -1    0    0  501    0  0.00000000000E+00  0.00000000000E+00 -0.10731339535E+04  0.10731339535E+04  0.25500000920E-02 0.  1.
    10030    2    1    2    0    0  0.00000000000E+00  0.00000000000E+00  0.14606915326E+04  0.36069594397E+04  0.32979594670E+04 0.  0.
        4    1    3    3  502    0 -0.35596904726E+03  0.13265122976E+04 -0.26772665594E+03  0.13992955419E+04  0.12699999809E+01 0.  1.
       -4    1    3    3    0  502  0.35596904726E+03 -0.13265122976E+04  0.17284181885E+04  0.22076638978E+04  0.12699999809E+01 0. -1.
</event>
<event>
 5   0  0.9454010E-08  0.3297044E+04  0.7818609E-02  0.8163648E-01
       -1   -1    0    0    0  501  0.00000000000E+00  0.00000000000E+00  0.11873713449E+04  0.11873713449E+04  0.50400001928E-02 0.  1.
        1   -1    0    0  501    0  0.00000000000E+00  0.00000000000E+00 -0.22887738928E+04  0.22887738928E+04  0.50400001928E-02 0. -1.
    10030    2    1    2    0    0  0.00000000000E+00  0.00000000000E+00 -0.11014025479E+04  0.34761452377E+04  0.32970438489E+04 0.  0.
        2    1    3    3  502    0  0.81024413712E+03  0.12738574495E+04  0.14739685391E+03  0.15168830528E+04  0.25500000920E-02 0. -1.
       -2    1    3    3    0  502 -0.81024413712E+03 -0.12738574495E+04 -0.12487994018E+04  0.19592621849E+04  0.25500000920E-02 0.  1.
</event>
<event>
 5   0  0.2824402E-07  0.3301521E+04  0.7818609E-02  0.8162508E-01
       -2   -1    0    0    0  501  0.00000000000E+00  0.00000000000E+00  0.12388058184E+04  0.12388058184E+04  0.25500000920E-02 0. -1.
        2   -1    0    0  501    0  0.00000000000E+00  0.00000000000E+00 -0.21997075952E+04  0.21997075952E+04  0.25500000920E-02 0.  1.
    10030    2    1    2    0    0  0.00000000000E+00  0.00000000000E+00 -0.96090177682E+03  0.34385134136E+04  0.33015212056E+04 0.  0.
        1    1    3    3  502    0  0.76577038150E+02 -0.12734727791E+03  0.12318258882E+04  0.12407563786E+04  0.50400001928E-02 0. -1.
       -1    1    3    3    0  502 -0.76577038150E+02  0.12734727791E+03 -0.21927276651E+04  0.21977570350E+04  0.50400001928E-02 0.  1.
</event>
<event>
 5   0  0.2703956E-07  0.3303087E+04  0.7818609E-02  0.8162110E-01
        2   -1    0    0  501    0  0.00000000000E+00  0.00000000000E+00  0.17166012449E+04  0.17166012449E+04  0.25500000920E-02 0. -1.
       -2   -1    0    0    0  501  0.00000000000E+00  0.00000000000E+00 -0.15889515069E+04  0.15889515069E+04  0.25500000920E-02 0.  1.
    10030    2    1    2    0    0  0.00000000000E+00  0.00000000000E+00  0.12764973798E+03  0.33055527519E+04  0.33030871226E+04 0.  0.
        5    1    3    3  502    0  0.60433885681E+03 -0.29017567650E+03  0.15743046065E+04  0.17111062098E+04  0.46999998093E+01 0. -1.
       -5    1    3    3    0  502 -0.60433885681E+03  0.29017567650E+03 -0.14466548685E+04  0.15944465421E+04  0.46999998093E+01 0.  1.
</event>
<event>
 5   0  0.2713815E-07  0.3306722E+04  0.7818609E-02  0.8161187E-01
        2   -1    0    0  501    0  0.00000000000E+00  0.00000000000E+00  0.15604482737E+04  0.15604482737E+04  0.25500000920E-02 0. -1.
       -2   -1    0    0    0  501  0.00000000000E+00  0.00000000000E+00 -0.17518062068E+04  0.17518062068E+04  0.25500000920E-02 0.  1.
    10030    2    1    2    0    0  0.00000000000E+00  0.00000000000E+00 -0.19135793313E+03  0.33122544805E+04  0.33067222268E+04 0.  0.
        4    1    3    3  502    0 -0.66285327700E+02 -0.75775103956E+03 -0.15661339465E+04  0.17410794163E+04  0.12699999809E+01 0.  1.
       -4    1    3    3    0  502  0.66285327700E+02  0.75775103956E+03  0.13747760134E+04  0.15711750642E+04  0.12699999809E+01 0. -1.
</event>
<event>
 5   0  0.9283910E-08  0.3300823E+04  0.7818609E-02  0.8162686E-01
        1   -1    0    0  501    0  0.00000000000E+00  0.00000000000E+00  0.93993600735E+03  0.93993600736E+03  0.50400001928E-02 0.  1.
       -1   -1    0    0    0  501  0.00000000000E+00  0.00000000000E+00 -0.28979193318E+04  0.28979193318E+04  0.50400001928E-02 0. -1.
    10030    2    1    2    0    0  0.00000000000E+00  0.00000000000E+00 -0.19579833244E+04  0.38378553391E+04  0.33008233678E+04 0.  0.
        3    1    3    3  502    0 -0.10272028295E+04 -0.11871357524E+04 -0.38679013443E+03  0.16168004100E+04  0.10100000352E+00 0.  1.
       -3    1    3    3    0  502  0.10272028295E+04  0.11871357524E+04 -0.15711931900E+04  0.22210549291E+04  0.10100000352E+00 0. -1.
</event>
<event>
 5   0  0.9283910E-08  0.3300330E+04  0.7818609E-02  0.8162812E-01
        1   -1    0    0  501    0  0.00000000000E+00  0.00000000000E+00  0.14728854867E+04  0.14728854867E+04  0.50400001928E-02 0. -1.
       -1   -1    0    0    0  501  0.00000000000E+00  0.00000000000E+00 -0.18487818465E+04  0.18487818465E+04  0.50400001928E-02 0.  1.
    10030    2    1    2    0    0  0.00000000000E+00  0.00000000000E+00 -0.37589635976E+03  0.33216673332E+04  0.33003296500E+04 0.  0.
        3    1    3    3  502    0 -0.16222301594E+04 -0.26947419728E+03 -0.49959961985E+02  0.16452182351E+04  0.10100000352E+00 0. -1.
       -3    1    3    3    0  502  0.16222301594E+04  0.26947419728E+03 -0.32593639778E+03  0.16764490981E+04  0.10100000352E+00 0.  1.
</event>
<event>
 5   0  0.2875829E-07  0.3295424E+04  0.7818609E-02  0.8164061E-01
        2   -1    0    0  501    0  0.00000000000E+00  0.00000000000E+00  0.23183564399E+04  0.23183564399E+04  0.25500000920E-02 0. -1.
       -2   -1    0    0    0  501  0.00000000000E+00  0.00000000000E+00 -0.11710685958E+04  0.11710685958E+04  0.25500000920E-02 0.  1.
    10030    2    1    2    0    0  0.00000000000E+00  0.00000000000E+00  0.11472878441E+04  0.34894250357E+04  0.32954237485E+04 0.  0.
        3    1    3    3  502    0 -0.87691046743E+03 -0.12120723343E+04  0.13048494464E+04  0.19851255375E+04  0.10100000352E+00 0. -1.
       -3    1    3    3    0  502  0.87691046743E+03  0.12120723343E+04 -0.15756160232E+03  0.15042994982E+04  0.10100000352E+00 0.  1.
</event>
<event>
 5   0  0.2713815E-07  0.3307815E+04  0.7818609E-02  0.8160910E-01
        2   -1    0    0  501    0  0.00000000000E+00  0.00000000000E+00  0.22243575260E+04  0.22243575260E+04  0.25500000920E-02 0.  1.
       -2   -1    0    0    0  501  0.00000000000E+00  0.00000000000E+00 -0.12297531723E+04  0.12297531723E+04  0.25500000920E-02 0. -1.
    10030    2    1    2    0    0  0.00000000000E+00  0.00000000000E+00  0.99460435377E+03  0.34541106983E+04  0.33078154265E+04 0.  0.
        4    1    3    3  502    0 -0.21387097894E+03 -0.12768139410E+04  0.15721028628E+04  0.20365420839E+04  0.12699999809E+01 0.  1.
       -4    1    3    3    0  502  0.21387097894E+03  0.12768139410E+04 -0.57749850899E+03  0.14175686144E+04  0.12699999809E+01 0. -1.
</event>
<event>
 5   0  0.8805125E-08  0.3305259E+04  0.7818609E-02  0.8161558E-01
       -1   -1    0    0    0  501  0.00000000000E+00  0.00000000000E+00  0.12413807109E+04  0.12413807109E+04  0.50400001928E-02 0.  1.
        1   -1    0    0  501    0  0.00000000000E+00  0.00000000000E+00 -0.22001185684E+04  0.22001185684E+04  0.50400001928E-02 0. -1.
    10030    2    1    2    0    0  0.00000000000E+00  0.00000000000E+00 -0.95873785751E+03  0.34414992793E+04  0.33052592955E+04 0.  0.
        4    1    3    3  502    0  0.88523967670E+03 -0.64254963072E+03 -0.17692473457E+04  0.20800858387E+04  0.12699999809E+01 0. -1.
       -4    1    3    3    0  502 -0.88523967670E+03  0.64254963072E+03  0.81050948816E+03  0.13614134407E+04  0.12699999809E+01 0.  1.
</event>
<event>
 5   0  0.9181760E-08  0.3275921E+04  0.7818609E-02  0.8169049E-01
       -1   -1    0    0    0  501  0.00000000000E+00  0.00000000000E+00  0.16187380613E+04  0.16187380613E+04  0.50400001928E-02 0. -1.
        1   -1    0    0  501    0  0.00000000000E+00  0.00000000000E+00 -0.16574112688E+04  0.16574112688E+04  0.50400001928E-02 0.  1.
    10030    2    1    2    0    0  0.00000000000E+00  0.00000000000E+00 -0.38673207455E+02  0.32761493301E+04  0.32759210638E+04 0.  0.
        1    1    3    3  502    0  0.84160980535E+03  0.90417801681E+03  0.10564101176E+04  0.16253760448E+04  0.50400001928E-02 0. -1.
       -1    1    3    3    0  502 -0.84160980535E+03 -0.90417801681E+03 -0.10950833251E+04  0.16507732853E+04  0.50400001928E-02 0.  1.
</event>
<event>
 5   0  0.9454010E-08  0.3296387E+04  0.7818609E-02  0.8163815E-01
        1   -1    0    0  501    0  0.00000000000E+00  0.00000000000E+00  0.14615134564E+04  0.14615134564E+04  0.50400001928E-02 0. -1.
       -1   -1    0    0    0  501  0.00000000000E+00  0.00000000000E+00 -0.18587186299E+04  0.18587186299E+04  0.50400001928E-02 0.  1.
    10030    2    1    2    0    0  0.00000000000E+00  0.00000000000E+00 -0.39720517350E+03  0.33202320863E+04  0.32963872887E+04 0.  0.
        2    1    3    3  502    0 -0.36164462201E+03  0.13834982052E+04 -0.10240968550E+04  0.17588713667E+04  0.25500000920E-02 0.  1.
       -2    1    3    3    0  502  0.36164462201E+03 -0.13834982052E+04  0.62689168145E+03  0.15613607196E+04  0.25500000920E-02 0. -1.
</event>
<event>
 5   0  0.2713815E-07  0.3301855E+04  0.7818609E-02  0.8162423E-01
       -2   -1    0    0    0  501  0.00000000000E+00  0.00000000000E+00  0.31345385753E+04  0.31345385753E+04  0.25500000920E-02 0.  1.
        2   -1    0    0  501    0  0.00000000000E+00  0.00000000000E+00 -0.86952575141E+03  0.86952575141E+03  0.25500000920E-02 0. -1.
    10030    2    1    2    0    0  0.00000000000E+00  0.00000000000E+00  0.22650128239E+04  0.40040643267E+04  0.33018552421E+04 0.  0.
        4    1    3    3  502    0 -0.92278341459E+03  0.12308643479E+04  0.40591085909E+03  0.15910127314E+04  0.12699999809E+01 0. -1.
       -4    1    3    3    0  502  0.92278341459E+03 -0.12308643479E+04  0.18591019648E+04  0.24130515953E+04  0.12699999809E+01 0.  1.
</event>
<event>
 5   0  0.2713815E-07  0.3265337E+04  0.7818609E-02  0.8171772E-01
        2   -1    0    0  501    0  0.00000000000E+00  0.00000000000E+00  0.26196002642E+04  0.26196002642E+04  0.25500000920E-02 0.  1.
       -2   -1    0    0    0  501  0.00000000000E+00  0.00000000000E+00 -0.10175620643E+04  0.10175620643E+04  0.25500000920E-02 0. -1.
    10030    2    1    2    0    0  0.00000000000E+00  0.00000000000E+00  0.16020381999E+04  0.36371623284E+04  0.32653366457E+04 0.  0.
        4    1    3    3  502    0 -0.56591575624E+03  0.24130677938E+03  0.24855488618E+04  0.25605554793E+04  0.12699999809E+01 0.  1.
       -4    1    3    3    0  502  0.56591575624E+03 -0.24130677938E+03 -0.88351066198E+03  0.10766068492E+04  0.12699999809E+01 0. -1.
</event>
<event>
 5   0  0.2703956E-07  0.3303627E+04  0.7818609E-02  0.8161973E-01
       -2   -1    0    0    0  501  0.00000000000E+00  0.00000000000E+00  0.18794400657E+04  0.18794400657E+04  0.25500000920E-02 0.  1.
        2   -1    0    0  501    0  0.00000000000E+00  0.00000000000E+00 -0.14517557196E+04  0.14517557196E+04  0.25500000920E-02 0. -1.
    10030    2    1    2    0    0  0.00000000000E+00  0.00000000000E+00  0.42768434613E+03  0.33311957853E+04  0.33036270159E+04 0.  0.
        5    1    3    3  502    0 -0.57797198270E+03  0.10395313969E+04 -0.94192911139E+03  0.15172111517E+04  0.46999998093E+01 0. -1.
       -5    1    3    3    0  502  0.57797198270E+03 -0.10395313969E+04  0.13696134575E+04  0.18139846336E+04  0.46999998093E+01 0.  1.
</event>
<event>
 5   0  0.9283910E-08  0.3299426E+04  0.7818609E-02  0.8163042E-01
        1   -1    0    0  501    0  0.00000000000E+00  0.00000000000E+00  0.18997598153E+04  0.18997598153E+04  0.50400001928E-02 0. -1.
       -1   -1    0    0    0  501  0.00000000000E+00  0.00000000000E+00 -0.14325771193E+04  0.14325771193E+04  0.50400001928E-02 0.  1.
    10030    2    1    2    0    0  0.00000000000E+00  0.00000000000E+00  0.46718269601E+03  0.33323369346E+04  0.32994256734E+04 0.  0.
        3    1    3    3  502    0  0.16091442357E+04 -0.34725579063E+03  0.12471681830E+03  0.16509046157E+04  0.10100000352E+00 0.  1.
       -3    1    3    3    0  502 -0.16091442357E+04  0.34725579063E+03  0.34246587771E+03  0.16814323189E+04  0.10100000352E+00 0. -1.
</event>
<event>
 5   0  0.9454010E-08  0.3293416E+04  0.7818609E-02  0.8164573E-01
       -1   -1    0    0    0  501  0.00000000000E+00  0.00000000000E+00  0.19223239868E+04  0.19223239868E+04  0.50400001928E-02 0.  1.
        1   -1    0    0  501    0  0.00000000000E+00  0.00000000000E+00 -0.14106085163E+04  0.14106085163E+04  0.50400001928E-02 0. -1.
    10030    2    1    2    0    0  0.00000000000E+00  0.00000000000E+00  0.51171547047E+03  0.33329325031E+04  0.32934156051E+04 0.  0.
        2    1    3    3  502    0  0.85931232492E+03 -0.30344726696E+03  0.16438643625E+04  0.18795712165E+04  0.25500000920E-02 0.  1.
       -2    1    3    3    0  502 -0.85931232492E+03  0.30344726696E+03 -0.11321488921E+04  0.14533612866E+04  0.25500000920E-02 0. -1.
</event>
<event>
 5   0  0.2824402E-07  0.3296571E+04  0.7818609E-02  0.8163768E-01
       -2   -1    0    0    0  501  0.00000000000E+00  0.00000000000E+00  0.20611945551E+04  0.20611945551E+04  0.25500000920E-02 0. -1.
        2   -1    0    0  501    0  0.00000000000E+00  0.00000000000E+00 -0.13180928284E+04  0.13180928284E+04  0.25500000920E-02 0.  1.
    10030    2    1    2    0    0  0.00000000000E+00  0.00000000000E+00  0.74310172671E+03  0.33792873834E+04  0.32965714073E+04 0.  0.
        1    1    3    3  502    0  0.84501411000E+03  0.13412967419E+04 -0.91127761040E+02  0.15879011509E+04  0.50400001928E-02 0.  1.
       -1    1    3    3    0  502 -0.84501411000E+03 -0.13412967419E+04  0.83422948775E+03  0.17913862326E+04  0.50400001928E-02 0. -1.
</event>
<event>
 5   0  0.8805125E-08  0.3307835E+04  0.7818609E-02  0.8160905E-01
       -1   -1    0    0    0  501  0.00000000000E+00  0.00000000000E+00  0.29198267931E+04  0.29198267931E+04  0.50400001928E-02 0. -1.
        1   -1    0    0  501    0  0.00000000000E+00  0.00000000000E+00 -0.93685129214E+03  0.93685129215E+03  0.50400001928E-02 0.  1.
    10030    2    1    2    0    0  0.00000000000E+00  0.00000000000E+00  0.19829755010E+04  0.38566780853E+04  0.33078352462E+04 0.  0.
        4    1    3    3  502    0  0.65547909236E+03  0.14834604420E+04  0.61344452523E+03  0.17339617995E+04  0.12699999809E+01 0.  1.
       -4    1    3    3    0  502 -0.65547909236E+03 -0.14834604420E+04  0.13695309758E+04  0.21227162858E+04  0.12699999809E+01 0. -1.
</event>
<event>
 5   0  0.2713815E-07  0.3286534E+04  0.7818609E-02  0.8166330E-01
        2   -1    0    0  501    0  0.00000000000E+00  0.00000000000E+00  0.12731074895E+04  0.12731074895E+04  0.25500000920E-02 0.  1.
       -2   -1    0    0    0  501  0.00000000000E+00  0.00000000000E+00 -0.21210508821E+04  0.21210508821E+04  0.25500000920E-02 0. -1.
    10030    2    1    2    0    0  0.00000000000E+00  0.00000000000E+00 -0.84794339258E+03  0.33941583716E+04  0.32865335925E+04 0.  0.
        4    1    3    3  502    0 -0.36382789376E+03  0.15668798867E+04 -0.77053425462E+02  0.16104105560E+04  0.12699999809E+01 0.  1.
       -4    1    3    3    0  502  0.36382789376E+03 -0.15668798867E+04 -0.77088996712E+03  0.17837478157E+04  0.12699999809E+01 0. -1.
</event>
<event>
 5   0  0.2727168E-07  0.3304422E+04  0.7818609E-02  0.8161771E-01
       -2   -1    0    0    0  501  0.00000000000E+00  0.00000000000E+00  0.19594688124E+04  0.19594688124E+04  0.25500000920E-02 0. -1.
        2   -1    0    0  501    0  0.00000000000E+00  0.00000000000E+00 -0.13931334061E+04  0.13931334061E+04  0.25500000920E-02 0.  1.
    10030    2    1    2    0    0  0.00000000000E+00  0.00000000000E+00  0.56633540632E+03  0.33526022184E+04  0.33044221647E+04 0.  0.
        2    1    3    3  502    0  0.74429874631E+03  0.12437236914E+04  0.10878088409E+04  0.18122244118E+04  0.25500000920E-02 0. -1.
       -2    1    3    3    0  502 -0.74429874631E+03 -0.12437236914E+04 -0.52147343458E+03  0.15403778067E+04  0.25500000920E-02 0.  1.
</event>
<event>
 5   0  0.9181760E-08  0.3309629E+04  0.7818609E-02  0.8160450E-01
       -1   -1    0    0    0  501  0.00000000000E+00  0.00000000000E+00  0.15509794285E+04  0.15509794285E+04  0.50400001928E-02 0. -1.
        1   -1    0    0  501    0  0.00000000000E+00  0.00000000000E+00 -0.17656010985E+04  0.17656010986E+04  0.50400001928E-02 0.  1.
    10030    2    1    2    0    0  0.00000000000E+00  0.00000000000E+00 -0.21462167001E+03  0.33165805271E+04  0.33096289719E+04 0.  0.
        1    1    3    3  502    0  0.13285143939E+04  0.45547996360E+03 -0.98436253337E+03  0.17150457979E+04  0.50400001928E-02 0.  1.
       -1    1    3    3    0  502 -0.13285143939E+04 -0.45547996360E+03  0.76974086336E+03  0.16015347291E+04  0.50400001928E-02 0. -1.
</event>
<event>
 5   0  0.2713815E-07  0.3298437E+04  0.7818609E-02  0.8163293E-01
       -2   -1    0    0    0  501  0.00000000000E+00  0.00000000000E+00  0.18296220961E+04  0.18296220961E+04  0.25500000920E-02 0.  1.
        2   -1    0    0  501    0  0.00000000000E+00  0.00000000000E+00 -0.14866026870E+04  0.14866026870E+04  0.25500000920E-02 0. -1.
    10030    2    1    2    0    0  0.00000000000E+00  0.00000000000E+00  0.34301940906E+03  0.33162247832E+04  0.32984366748E+04 0.  0.
        4    1    3    3  502    0 -0.25744850255E+02 -0.12886910462E+04 -0.86288866309E+03  0.15511176189E+04  0.12699999809E+01 0. -1.
       -4    1    3    3    0  502  0.25744850255E+02  0.12886910462E+04  0.12059080721E+04  0.17651071642E+04  0.12699999809E+01 0.  1.
</event>
<event>
 5   0  0.9283910E-08  0.3300378E+04  0.7818609E-02  0.8162799E-01
       -1   -1    0    0    0  501  0.00000000000E+00  0.00000000000E+00  0.12798275776E+04  0.12798275777E+04  0.50400001928E-02 0. -1.
        1   -1    0    0  501    0  0.00000000000E+00  0.00000000000E+00 -0.21277269198E+04  0.21277269198E+04  0.50400001928E-02 0.  1.
    10030    2    1    2    0    0  0.00000000000E+00  0.00000000000E+00 -0.84789934219E+03  0.34075544975E+04  0.33003779115E+04 0.  0.
        3    1    3    3  502    0 -0.14551906979E+04 -0.76114047630E+03 -0.59109821751E+03  0.17453687017E+04  0.10100000352E+00 0.  1.
       -3    1    3    3    0  502  0.14551906979E+04  0.76114047630E+03 -0.25680112468E+03  0.16621857958E+04  0.10100000352E+00 0. -1.
</event>
<event>
 5   0  0.2703956E-07  0.3276640E+04  0.7818609E-02  0.8168865E-01
        2   -1    0    0  501    0  0.00000000000E+00  0.00000000000E+00  0.19594718222E+04  0.19594718222E+04  0.25500000920E-02 0.  1.
       -2   -1    0    0    0  501  0.00000000000E+00  0.00000000000E+00 -0.13698036631E+04  0.13698036631E+04  0.25500000920E-02 0. -1.
    10030    2    1    2    0    0  0.00000000000E+00  0.00000000000E+00  0.58966815905E+03  0.33292754853E+04  0.32766395467E+04 0.  0.
        5    1    3    3  502    0 -0.15077892155E+04 -0.22493124670E+03 -0.31484428936E+03  0.15566539116E+04  0.46999998093E+01 0.  1.
       -5    1    3    3    0  502  0.15077892155E+04  0.22493124670E+03  0.90451244841E+03  0.17726215737E+04  0.46999998093E+01 0. -1.
</event>
<event>
 5   0  0.2703956E-07  0.3303789E+04  0.7818609E-02  0.8161932E-01
        2   -1    0    0  501    0  0.00000000000E+00  0.00000000000E+00  0.17726760599E+04  0.17726760599E+04  0.25500000920E-02 0. -1.
       -2   -1    0    0    0  501  0.00000000000E+00  0.00000000000E+00 -0.15393425754E+04  0.15393425754E+04  0.25500000920E-02 0.  1.
    10030    2    1    2    0    0  0.00000000000E+00  0.00000000000E+00  0.23333348449E+03  0.33120186352E+04  0.33037891769E+04 0.  0.
        5    1    3    3  502    0  0.24973457561E+03 -0.16305048347E+04  0.20531929331E+03  0.16622549373E+04  0.46999998093E+01 0. -1.
       -5    1    3    3    0  502 -0.24973457561E+03  0.16305048347E+04  0.28014191179E+02  0.16497636980E+04  0.46999998093E+01 0.  1.
</event>
<event>
 5   0  0.2824402E-07  0.3298111E+04  0.7818609E-02  0.8163376E-01
       -2   -1    0    0    0  501  0.00000000000E+00  0.00000000000E+00  0.16131886777E+04  0.16131886777E+04  0.25500000920E-02 0.  1.
        2   -1    0    0  501    0  0.00000000000E+00  0.00000000000E+00 -0.16857200025E+04  0.16857200025E+04  0.25500000920E-02 0. -1.
    10030    2    1    2    0    0  0.00000000000E+00  0.00000000000E+00 -0.72531324740E+02  0.32989086802E+04  0.32981112303E+04 0.  0.
        1    1    3    3  502    0  0.51939844125E+03  0.60642047149E+03  0.14069497622E+04  0.16177231415E+04  0.50400001928E-02 0.  1.
       -1    1    3    3    0  502 -0.51939844125E+03 -0.60642047149E+03 -0.14794810869E+04  0.16811855387E+04  0.50400001928E-02 0. -1.
</event>
<event>
 5   0  0.8805125E-08  0.3301810E+04  0.7818609E-02  0.8162435E-01
        1   -1    0    0  501    0  0.00000000000E+00  0.00000000000E+00  0.26582588194E+04  0.26582588194E+04  0.50400001928E-02 0. -1.
       -1   -1    0    0    0  501  0.00000000000E+00  0.00000000000E+00 -0.10252905744E+04  0.10252905744E+04  0.50400001928E-02 0.  1.
    10030    2    1    2    0    0  0.00000000000E+00  0.00000000000E+00  0.16329682450E+04  0.36835493938E+04  0.33018102379E+04 0.  0.
        4    1    3    3  502    0 -0.14093526745E+03  0.46927652792E+03  0.25752692619E+04  0.26214684041E+04  0.12699999809E+01 0. -1.
       -4    1    3    3    0  502  0.14093526745E+03 -0.46927652792E+03 -0.94230101693E+03  0.10620809897E+04  0.12699999809E+01 0.  1.
</event>
<event>
 5   0  0.9283910E-08  0.3301951E+04  0.7818609E-02  0.8162399E-01
       -1   -1    0    0    0  501  0.00000000000E+00  0.00000000000E+00  0.25069135518E+04  0.25069135518E+04  0.50400001928E-02 0.  1.
        1   -1    0    0  501    0  0.00000000000E+00  0.00000000000E+00 -0.10872809710E+04  0.10872809710E+04  0.50400001928E-02 0. -1.
    10030    2    1    2    0    0  0.00000000000E+00  0.00000000000E+00  0.14196325808E+04  0.35941945228E+04  0.33019505756E+04 0.  0.
        3    1    3    3  502    0 -0.75327299252E+03 -0.53331274477E+03  0.21998686033E+04  0.23856371407E+04  0.10100000352E+00 0.  1.
       -3    1    3    3    0  502  0.75327299252E+03  0.53331274477E+03 -0.78023602249E+03  0.12085573822E+04  0.10100000352E+00 0. -1.
</event>
<event>
 5   0  0.9283910E-08  0.3302670E+04  0.7818609E-02  0.8162216E-01
        1   -1    0    0  501    0  0.00000000000E+00  0.00000000000E+00  0.20335707427E+04  0.20335707427E+04  0.50400001928E-02 0.  1.
       -1   -1    0    0    0  501  0.00000000000E+00  0.00000000000E+00 -0.13409454942E+04  0.13409454942E+04  0.50400001928E-02 0. -1.
    10030    2    1    2    0    0  0.00000000000E+00  0.00000000000E+00  0.69262524853E+03  0.33745162370E+04  0.33026701468E+04 0.  0.
        3    1    3    3  502    0 -0.99139104973E+03  0.83165967044E+03  0.13944914892E+04  0.19023986293E+04  0.10100000352E+00 0.  1.
       -3    1    3    3    0  502  0.99139104973E+03 -0.83165967044E+03 -0.70186624068E+03  0.14721176077E+04  0.10100000352E+00 0. -1.
</event>
<event>
 5   0  0.2713815E-07  0.3299090E+04  0.7818609E-02  0.8163127E-01
       -2   -1    0    0    0  501  0.00000000000E+00  0.00000000000E+00  0.20918392007E+04  0.20918392007E+04  0.25500000920E-02 0.  1.
        2   -1    0    0  501    0  0.00000000000E+00  0.00000000000E+00 -0.13007683747E+04  0.13007683747E+04  0.25500000920E-02 0. -1.
    10030    2    1    2    0    0  0.00000000000E+00  0.00000000000E+00  0.79107082608E+03  0.33926075754E+04  0.32990897394E+04 0.  0.
        4    1    3    3  502    0  0.89370505617E+02 -0.24004496493E+03 -0.12801924538E+04  0.13055661623E+04  0.12699999809E+01 0. -1.
       -4    1    3    3    0  502 -0.89370505617E+02  0.24004496493E+03  0.20712632799E+04  0.20870414131E+04  0.12699999809E+01 0.  1.
</event>
<event>
 5   0  0.9810351E-08  0.3303872E+04  0.7818609E-02  0.8161911E-01
        1   -1    0    0  501    0  0.00000000000E+00  0.00000000000E+00  0.17323299557E+04  0.17323299557E+04  0.50400001928E-02 0. -1.
       -1   -1    0    0    0  501  0.00000000000E+00  0.00000000000E+00 -0.15752727031E+04  0.15752727031E+04  0.50400001928E-02 0.  1.
    10030    2    1    2    0    0  0.00000000000E+00  0.00000000000E+00  0.15705725261E+03  0.33076026587E+04  0.33038717238E+04 0.  0.
        5    1    3    3  502    0 -0.47399774977E+03 -0.31139978078E+03  0.16318045699E+04  0.17275566372E+04  0.46999998093E+01 0. -1.
       -5    1    3    3    0  502  0.47399774977E+03  0.31139978078E+03 -0.14747473173E+04  0.15800460215E+04  0.46999998093E+01 0.  1.
</event>
<event>
 5   0  0.9181760E-08  0.3302596E+04  0.7818609E-02  0.8162235E-01
       -1   -1    0    0    0  501  0.00000000000E+00  0.00000000000E+00  0.17732315432E+04  0.17732315432E+04  0.50400001928E-02 0. -1.
        1   -1    0    0  501    0  0.00000000000E+00  0.00000000000E+00 -0.15377493296E+04  0.15377493296E+04  0.50400001928E-02 0.  1.
    10030    2    1    2    0    0  0.00000000000E+00  0.00000000000E+00  0.23548221360E+03  0.33109808728E+04  0.33025963222E+04 0.  0.
        1    1    3    3  502    0 -0.11763942847E+04 -0.11356489543E+04 -0.11345997720E+03  0.16390470484E+04  0.50400001928E-02 0. -1.
       -1    1    3    3    0  502  0.11763942847E+04  0.11356489543E+04  0.34894219081E+03  0.16719338244E+04  0.50400001928E-02 0.  1.
</event>
<event>
 5   0  0.9454010E-08  0.3300686E+04  0.7818609E-02  0.8162721E-01
        1   -1    0    0  501    0  0.00000000000E+00  0.00000000000E+00  0.19975805342E+04  0.19975805342E+04  0.50400001928E-02 0. -1.
       -1   -1    0    0    0  501  0.00000000000E+00  0.00000000000E+00 -0.13634654400E+04  0.13634654400E+04  0.50400001928E-02 0.  1.
    10030    2    1    2    0    0  0.00000000000E+00  0.00000000000E+00  0.63411509424E+03  0.33610459742E+04  0.33006860026E+04 0.  0.
        2    1    3    3  502    0  0.55773984190E+03  0.54480894821E+02 -0.12636147020E+04  0.13823038791E+04  0.25500000920E-02 0.  1.
       -2    1    3    3    0  502 -0.55773984190E+03 -0.54480894821E+02  0.18977297963E+04  0.19787420951E+04  0.25500000920E-02 0. -1.
</event>
<event>
 5   0  0.2875829E-07  0.3301818E+04  0.7818609E-02  0.8162433E-01
        2   -1    0    0  501    0  0.00000000000E+00  0.00000000000E+00  0.23171703458E+04  0.23171703458E+04  0.25500000920E-02 0.  1.
       -2   -1    0    0    0  501  0.00000000000E+00  0.00000000000E+00 -0.11762193621E+04  0.11762193621E+04  0.25500000920E-02 0. -1.
    10030    2    1    2    0    0  0.00000000000E+00  0.00000000000E+00  0.11409509837E+04  0.34933897078E+04  0.33018180603E+04 0.  0.
        3    1    3    3  502    0  0.11566845857E+04  0.10889652339E+04  0.10456856467E+04  0.19018998379E+04  0.10100000352E+00 0.  1.
       -3    1    3    3    0  502 -0.11566845857E+04 -0.10889652339E+04  0.95265337011E+02  0.15914898699E+04  0.10100000352E+00 0. -1.
</event>
<event>
 5   0  0.2713815E-07  0.3298564E+04  0.7818609E-02  0.8163261E-01
        2   -1    0    0  501    0  0.00000000000E+00  0.00000000000E+00  0.22740568917E+04  0.22740568917E+04  0.25500000920E-02 0.  1.
       -2   -1    0    0    0  501  0.00000000000E+00  0.00000000000E+00 -0.11961577528E+04  0.11961577528E+04  0.25500000920E-02 0. -1.
    10030    2    1    2    0    0  0.00000000000E+00  0.00000000000E+00  0.10778991389E+04  0.34702146446E+04  0.32985637974E+04 0.  0.
        4    1    3    3  502    0  0.64014946878E+03 -0.15019556782E+04  0.29342325473E+03  0.16588432780E+04  0.12699999809E+01 0.  1.
       -4    1    3    3    0  502 -0.64014946878E+03  0.15019556782E+04  0.78447588415E+03  0.18113713665E+04  0.12699999809E+01 0. -1.
</event>
<event>
 5   0  0.2824402E-07  0.3298485E+04  0.7818609E-02  0.8163281E-01
       -2   -1    0    0    0  501  0.00000000000E+00  0.00000000000E+00  0.23068426638E+04  0.23068426638E+04  0.25500000920E-02 0.  1.
        2   -1    0    0  501    0  0.00000000000E+00  0.00000000000E+00 -0.11791012738E+04  0.11791012738E+04  0.25500000920E-02 0. -1.
    10030    2    1    2    0    0  0.00000000000E+00  0.00000000000E+00  0.11277413900E+04  0.34859439376E+04  0.32984851816E+04 0.  0.
        1    1    3    3  502    0  0.12510237425E+04  0.10037701306E+04  0.96959809394E+03  0.18742292664E+04  0.50400001928E-02 0. -1.
       -1    1    3    3    0  502 -0.12510237425E+04 -0.10037701306E+04  0.15814329609E+03  0.16117146712E+04  0.50400001928E-02 0.  1.
</event>
<event>
 5   0  0.2875829E-07  0.3299185E+04  0.7818609E-02  0.8163103E-01
       -2   -1    0    0    0  501  0.00000000000E+00  0.00000000000E+00  0.12613188540E+04  0.12613188540E+04  0.25500000920E-02 0. -1.
        2   -1    0    0  501    0  0.00000000000E+00  0.00000000000E+00 -0.21573885197E+04  0.21573885197E+04  0.25500000920E-02 0.  1.
    10030    2    1    2    0    0  0.00000000000E+00  0.00000000000E+00 -0.89606966575E+03  0.34187073737E+04  0.32991846358E+04 0.  0.
        3    1    3    3  502    0  0.64339619102E+03  0.11371969448E+04  0.59541084043E+03  0.14358584989E+04  0.10100000352E+00 0. -1.
       -3    1    3    3    0  502 -0.64339619102E+03 -0.11371969448E+04 -0.14914805062E+04  0.19828488748E+04  0.10100000352E+00 0.  1.
</event>
<event>
 5   0  0.9810351E-08  0.3294961E+04  0.7818609E-02  0.8164179E-01
        1   -1    0    0  501    0  0.00000000000E+00  0.00000000000E+00  0.21999592691E+04  0.21999592691E+04  0.50400001928E-02 0.  1.
       -1   -1    0    0    0  501  0.00000000000E+00  0.00000000000E+00 -0.12337464308E+04  0.12337464308E+04  0.50400001928E-02 0. -1.
    10030    2    1    2    0    0  0.00000000000E+00  0.00000000000E+00  0.96621283830E+03  0.34337057000E+04  0.32949609383E+04 0.  0.
        5    1    3    3  502    0  0.93414022481E+03  0.66522136213E+03  0.17157192467E+04  0.20636986320E+04  0.46999998093E+01 0.  1.
       -5    1    3    3    0  502 -0.93414022481E+03 -0.66522136213E+03 -0.74950640836E+03  0.13700070680E+04  0.46999998093E+01 0. -1.
</event>
<event>
 5   0  0.8805125E-08  0.3303027E+04  0.7818609E-02  0.8162126E-01
        1   -1    0    0  501    0  0.00000000000E+00  0.00000000000E+00  0.10529715878E+04  0.10529715878E+04  0.50400001928E-02 0.  1.
       -1   -1    0    0    0  501  0.00000000000E+00  0.00000000000E+00 -0.25902851819E+04  0.25902851819E+04  0.50400001928E-02 0. -1.
    10030    2    1    2    0    0  0.00000000000E+00  0.00000000000E+00 -0.15373135941E+04  0.36432567697E+04  0.33030269153E+04 0.  0.
        4    1    3    3  502    0 -0.11531437553E+04  0.59226803562E+03  0.35995721600E+03  0.13453968770E+04  0.12699999809E+01 0.  1.
       -4    1    3    3    0  502  0.11531437553E+04 -0.59226803562E+03 -0.18972708101E+04  0.22978598926E+04  0.12699999809E+01 0. -1.
</event>
<event>
 5   0  0.9810351E-08  0.3272386E+04  0.7818609E-02  0.8169957E-01
        1   -1    0    0  501    0  0.00000000000E+00  0.00000000000E+00  0.13159308565E+04  0.13159308565E+04  0.50400001928E-02 0.  1.
       -1   -1    0    0    0  501  0.00000000000E+00  0.00000000000E+00 -0.20343987808E+04  0.20343987808E+04  0.50400001928E-02 0. -1.
    10030    2    1    2    0    0  0.00000000000E+00  0.00000000000E+00 -0.71846792431E+03  0.33503296373E+04  0.32723863648E+04 0.  0.
        5    1    3    3  502    0  0.16132781298E+04 -0.26750074099E+03 -0.41420710017E+03  0.16869536396E+04  0.46999998093E+01 0.  1.
       -5    1    3    3    0  502 -0.16132781298E+04  0.26750074099E+03 -0.30426082415E+03  0.16633759977E+04  0.46999998093E+01 0. -1.
</event>
<event>
 5   0  0.9283910E-08  0.3292831E+04  0.7818609E-02  0.8164722E-01
        1   -1    0    0  501    0  0.00000000000E+00  0.00000000000E+00  0.28211167460E+04  0.28211167460E+04  0.50400001928E-02 0. -1.
       -1   -1    0    0    0  501  0.00000000000E+00  0.00000000000E+00 -0.96085518361E+03  0.96085518362E+03  0.50400001928E-02 0.  1.
    10030    2    1    2    0    0  0.00000000000E+00  0.00000000000E+00  0.18602615623E+04  0.37819719296E+04  0.32928313950E+04 0.  0.
        3    1    3    3  502    0  0.15383320215E+04 -0.23528802615E+03  0.15474241192E+04  0.21946177978E+04  0.10100000352E+00 0. -1.
       -3    1    3    3    0  502 -0.15383320215E+04  0.23528802615E+03  0.31283744313E+03  0.15873541318E+04  0.10100000352E+00 0.  1.
</event>
<event>
 5   0  0.2713815E-07  0.3294172E+04  0.7818609E-02  0.8164380E-01
       -2   -1    0    0    0  501  0.00000000000E+00  0.00000000000E+00  0.15104145593E+04  0.15104145593E+04  0.25500000920E-02 0.  1.
        2   -1    0    0  501    0  0.00000000000E+00  0.00000000000E+00 -0.17961247877E+04  0.17961247877E+04  0.25500000920E-02 0. -1.
    10030    2    1    2    0    0  0.00000000000E+00  0.00000000000E+00 -0.28571022839E+03  0.33065393470E+04  0.32941724482E+04 0.  0.
        4    1    3    3  502    0 -0.44614604698E+03 -0.14910392399E+04 -0.68399602281E+03  0.17000283769E+04  0.12699999809E+01 0. -1.
       -4    1    3    3    0  502  0.44614604698E+03  0.14910392399E+04  0.39828579441E+03  0.16065109701E+04  0.12699999809E+01 0.  1.
</event>
<event>
 5   0  0.2824402E-07  0.3298930E+04  0.7818609E-02  0.8163168E-01
        2   -1    0    0  501    0  0.00000000000E+00  0.00000000000E+00  0.12442234988E+04  0.12442234988E+04  0.25500000920E-02 0. -1.
       -2   -1    0    0    0  501  0.00000000000E+00  0.00000000000E+00 -0.21866936102E+04  0.21866936102E+04  0.25500000920E-02 0.  1.
    10030    2    1    2    0    0  0.00000000000E+00  0.00000000000E+00 -0.94247011133E+03  0.34309171090E+04  0.32989304779E+04 0.  0.
        1    1    3    3  502    0 -0.14091260145E+04  0.38103251851E+03  0.32755250360E+03  0.14960322682E+04  0.50400001928E-02 0. -1.
       -1    1    3    3    0  502  0.14091260145E+04 -0.38103251851E+03 -0.12700226149E+04  0.19348848408E+04  0.50400001928E-02 0.  1.
</event>
<event>
 5   0  0.2727168E-07  0.3294685E+04  0.7818609E-02  0.8164249E-01
        2   -1    0    0  501    0  0.00000000000E+00  0.00000000000E+00  0.20294577678E+04  0.20294577678E+04  0.25500000920E-02 0.  1.
       -2   -1    0    0    0  501  0.00000000000E+00  0.00000000000E+00 -0.13371733292E+04  0.13371733292E+04  0.25500000920E-02 0. -1.
    10030    2    1    2    0    0  0.00000000000E+00  0.00000000000E+00  0.69228443858E+03  0.33666310971E+04  0.32946846890E+04 0.  0.
        2    1    3    3  502    0 -0.15006116346E+03 -0.15974614462E+04  0.72757004179E+03  0.17617490146E+04  0.25500000920E-02 0.  1.
       -2    1    3    3    0  502  0.15006116346E+03  0.15974614462E+04 -0.35285603213E+02  0.16048820824E+04  0.25500000920E-02 0. -1.
</event>
<event>
 5   0  0.9283910E-08  0.3283411E+04  0.7818609E-02  0.8167129E-01
       -1   -1    0    0    0  501  0.00000000000E+00  0.00000000000E+00  0.16733061506E+04  0.16733061506E+04  0.50400001928E-02 0.  1.
        1   -1    0    0  501    0  0.00000000000E+00  0.00000000000E+00 -0.16107016920E+04  0.16107016920E+04  0.50400001928E-02 0. -1.
    10030    2    1    2    0    0  0.00000000000E+00  0.00000000000E+00  0.62604458639E+02  0.32840078426E+04  0.32834110604E+04 0.  0.
        3    1    3    3  502    0  0.62109025377E+03 -0.12935272589E+04 -0.76648374730E+03  0.16267953830E+04  0.10100000352E+00 0. -1.
       -3    1    3    3    0  502 -0.62109025377E+03  0.12935272589E+04  0.82908820594E+03  0.16572124596E+04  0.10100000352E+00 0.  1.
</event>
<event>
 5   0  0.2875829E-07  0.3297459E+04  0.7818609E-02  0.8163542E-01
        2   -1    0    0  501    0  0.00000000000E+00  0.00000000000E+00  0.15321105007E+04  0.15321105007E+04  0.25500000920E-02 0.  1.
       -2   -1    0    0    0  501  0.00000000000E+00  0.00000000000E+00 -0.17742247757E+04  0.17742247757E+04  0.25500000920E-02 0. -1.
    10030    2    1    2    0    0  0.00000000000E+00  0.00000000000E+00 -0.24211427502E+03  0.33063352765E+04  0.32974586636E+04 0.  0.
        3    1    3    3  502    0  0.42611988801E+03  0.15010711731E+04 -0.65495230598E+03  0.16922633835E+04  0.10100000352E+00 0. -1.
       -3    1    3    3    0  502 -0.42611988801E+03 -0.15010711731E+04  0.41283803096E+03  0.16140718930E+04  0.10100000352E+00 0.  1.
</event>
<event>
 5   0  0.2703956E-07  0.3301684E+04  0.7818609E-02  0.8162467E-01
       -2   -1    0    0    0  501  0.00000000000E+00  0.00000000000E+00  0.11767626252E+04  0.11767626252E+04  0.25500000920E-02 0.  1.
        2   -1    0    0  501    0  0.00000000000E+00  0.00000000000E+00 -0.23159125271E+04  0.23159125271E+04  0.25500000920E-02 0. -1.
    10030    2    1    2    0    0  0.00000000000E+00  0.00000000000E+00 -0.11391499019E+04  0.34926751523E+04  0.33016839976E+04 0.  0.
        5    1    3    3  502    0 -0.88938394930E+03  0.12550418386E+04  0.64359764538E+02  0.15395772456E+04  0.46999998093E+01 0.  1.
       -5    1    3    3    0  502  0.88938394930E+03 -0.12550418386E+04 -0.12035096664E+04  0.19530979067E+04  0.46999998093E+01 0. -1.
</event>
<event>
 5   0  0.2824402E-07  0.3302246E+04  0.7818609E-02  0.8162324E-01
        2   -1    0    0  501    0  0.00000000000E+00  0.00000000000E+00  0.17506256553E+04  0.17506256553E+04  0.25500000920E-02 0.  1.
       -2   -1    0    0    0  501  0.00000000000E+00  0.00000000000E+00 -0.15572762855E+04  0.15572762855E+04  0.25500000920E-02 0. -1.
    10030    2    1    2    0    0  0.00000000000E+00  0.00000000000E+00  0.19334936979E+03  0.33079019408E+04  0.33022463977E+04 0.  0.
        1    1    3    3  502    0 -0.62672471567E+03 -0.24770905042E+03 -0.14132436152E+04  0.15656951040E+04  0.50400001928E-02 0. -1.
       -1    1    3    3    0  502  0.62672471567E+03  0.24770905042E+03  0.16065929850E+04  0.17422068368E+04  0.50400001928E-02 0.  1.
</event>
<event>
 5   0  0.9283910E-08  0.3247523E+04  0.7818609E-02  0.8176378E-01
        1   -1    0    0  501    0  0.00000000000E+00  0.00000000000E+00  0.17773521692E+04  0.17773521692E+04  0.50400001928E-02 0.  1.
       -1   -1    0    0    0  501  0.00000000000E+00  0.00000000000E+00 -0.14834431132E+04  0.14834431132E+04  0.50400001928E-02 0. -1.
    10030    2    1    2    0    0  0.00000000000E+00  0.00000000000E+00  0.29390905597E+03  0.32607952824E+04  0.32475226467E+04 0.  0.
        3    1    3    3  502    0  0.52806150960E+02 -0.95683023418E+03  0.14631468541E+04  0.17490315359E+04  0.10100000352E+00 0.  1.
       -3    1    3    3    0  502 -0.52806150960E+02  0.95683023418E+03 -0.11692377981E+04  0.15117637465E+04  0.10100000352E+00 0. -1.
</event>
<event>
 5   0  0.8805125E-08  0.3298277E+04  0.7818609E-02  0.8163334E-01
       -1   -1    0    0    0  501  0.00000000000E+00  0.00000000000E+00  0.16196957104E+04  0.16196957104E+04  0.50400001928E-02 0. -1.
        1   -1    0    0  501    0  0.00000000000E+00  0.00000000000E+00 -0.16791160648E+04  0.16791160648E+04  0.50400001928E-02 0.  1.
    10030    2    1    2    0    0  0.00000000000E+00  0.00000000000E+00 -0.59420354361E+02  0.32988117752E+04  0.32982765727E+04 0.  0.
        4    1    3    3  502    0 -0.35570108727E+03 -0.33116459914E+03 -0.16058663415E+04  0.16777966429E+04  0.12699999809E+01 0.  1.
       -4    1    3    3    0  502  0.35570108727E+03  0.33116459914E+03  0.15464459871E+04  0.16210151323E+04  0.12699999809E+01 0. -1.
</event>
<event>
 5   0  0.9283910E-08  0.3302816E+04  0.7818609E-02  0.8162179E-01
       -1   -1    0    0    0  501  0.00000000000E+00  0.00000000000E+00  0.14377473559E+04  0.14377473559E+04  0.50400001928E-02 0.  1.
        1   -1    0    0  501    0  0.00000000000E+00  0.00000000000E+00 -0.18968200503E+04  0.18968200503E+04  0.50400001928E-02 0. -1.
    10030    2    1    2    0    0  0.00000000000E+00  0.00000000000E+00 -0.45907269439E+03  0.33345674063E+04  0.33028157757E+04 0.  0.
        3    1    3    3  502    0 -0.29764310784E+03  0.96880775966E+03 -0.15458989551E+04  0.18485084485E+04  0.10100000352E+00 0. -1.
       -3    1    3    3    0  502  0.29764310784E+03 -0.96880775966E+03  0.10868262607E+04  0.14860589577E+04  0.10100000352E+00 0.  1.
</event>
<event>
 5   0  0.2713815E-07  0.3298193E+04  0.7818609E-02  0.8163355E-01
       -2   -1    0    0    0  501  0.00000000000E+00  0.00000000000E+00  0.13610518105E+04  0.13610518105E+04  0.25500000920E-02 0. -1.
        2   -1    0    0  501    0  0.00000000000E+00  0.00000000000E+00 -0.19981008610E+04  0.19981008610E+04  0.25500000920E-02 0.  1.
    10030    2    1    2    0    0  0.00000000000E+00  0.00000000000E+00 -0.63704905049E+03  0.33591526715E+04  0.32981927139E+04 0.  0.
        4    1    3    3  502    0 -0.89523058311E+03  0.24987054546E+03  0.10688734513E+04  0.14164621966E+04  0.12699999809E+01 0. -1.
       -4    1    3    3    0  502  0.89523058311E+03 -0.24987054546E+03 -0.17059225018E+04  0.19426904750E+04  0.12699999809E+01 0.  1.
</event>
<event>
 5   0  0.2703956E-07  0.3310324E+04  0.7818609E-02  0.8160273E-01
       -2   -1    0    0    0  501  0.00000000000E+00  0.00000000000E+00  0.11643163033E+04  0.11643163033E+04  0.25500000920E-02 0.  1.
        2   -1    0    0  501    0  0.00000000000E+00  0.00000000000E+00 -0.23529358842E+04  0.23529358842E+04  0.25500000920E-02 0. -1.
    10030    2    1    2    0    0  0.00000000000E+00  0.00000000000E+00 -0.11886195809E+04  0.35172521874E+04  0.33103242201E+04 0.  0.
        5    1    3    3  502    0  0.10407370806E+04  0.12779768026E+04 -0.75608068474E+03  0.18132949211E+04  0.46999998093E+01 0.  1.
       -5    1    3    3    0  502 -0.10407370806E+04 -0.12779768026E+04 -0.43253889612E+03  0.17039572664E+04  0.46999998093E+01 0. -1.
</event>
<event>
 5   0  0.2727168E-07  0.3292933E+04  0.7818609E-02  0.8164696E-01
        2   -1    0    0  501    0  0.00000000000E+00  0.00000000000E+00  0.24881832437E+04  0.24881832437E+04  0.25500000920E-02 0.  1.
       -2   -1    0    0    0  501  0.00000000000E+00  0.00000000000E+00 -0.10894902884E+04  0.10894902884E+04  0.25500000920E-02 0. -1.
    10030    2    1    2    0    0  0.00000000000E+00  0.00000000000E+00  0.13986929553E+04  0.35776735321E+04  0.32929327231E+04 0.  0.
        2    1    3    3  502    0 -0.76652571397E+03  0.13580241125E+04  0.12540594860E+03  0.15644544775E+04  0.25500000920E-02 0. -1.
       -2    1    3    3    0  502  0.76652571397E+03 -0.13580241125E+04  0.12732870067E+04  0.20132190546E+04  0.25500000920E-02 0.  1.
</event>
<event>
 5   0  0.2875829E-07  0.3301441E+04  0.7818609E-02  0.8162529E-01
       -2   -1    0    0    0  501  0.00000000000E+00  0.00000000000E+00  0.29485330542E+04  0.29485330542E+04  0.25500000920E-02 0.  1.
        2   -1    0    0  501    0  0.00000000000E+00  0.00000000000E+00 -0.92414719996E+03  0.92414719997E+03  0.25500000920E-02 0. -1.
    10030    2    1    2    0    0  0.00000000000E+00  0.00000000000E+00  0.20243858543E+04  0.38726802542E+04  0.33014412405E+04 0.  0.
        3    1    3    3  502    0  0.60815636846E+03 -0.77610605390E+03  0.25651514372E+04  0.27481260308E+04  0.10100000352E+00 0.  1.
       -3    1    3    3    0  502 -0.60815636846E+03  0.77610605390E+03 -0.54076558293E+03  0.11245542234E+04  0.10100000352E+00 0. -1.
</event>
<event>
 5   0  0.2727168E-07  0.3302106E+04  0.7818609E-02  0.8162360E-01
        2   -1    0    0  501    0  0.00000000000E+00  0.00000000000E+00  0.15849692088E+04  0.15849692088E+04  0.25500000920E-02 0.  1.
       -2   -1    0    0    0  501  0.00000000000E+00  0.00000000000E+00 -0.17198919174E+04  0.17198919174E+04  0.25500000920E-02 0. -1.
    10030    2    1    2    0    0  0.00000000000E+00  0.00000000000E+00 -0.13492270860E+03  0.33048611262E+04  0.33021058321E+04 0.  0.
        2    1    3    3  502    0  0.43326297683E+03  0.11470572247E+04  0.10391368793E+04  0.16072531032E+04  0.25500000920E-02 0.  1.
       -2    1    3    3    0  502 -0.43326297683E+03 -0.11470572247E+04 -0.11740595879E+04  0.16976080230E+04  0.25500000920E-02 0. -1.
</event>
<event>
 5   0  0.2875829E-07  0.3295768E+04  0.7818609E-02  0.8163973E-01
       -2   -1    0    0    0  501  0.00000000000E+00  0.00000000000E+00  0.19683751037E+04  0.19683751037E+04  0.25500000920E-02 0.  1.
        2   -1    0    0  501    0  0.00000000000E+00  0.00000000000E+00 -0.13795749225E+04  0.13795749225E+04  0.25500000920E-02 0. -1.
    10030    2    1    2    0    0  0.00000000000E+00  0.00000000000E+00  0.58880018120E+03  0.33479500261E+04  0.32957675470E+04 0.  0.
        3    1    3    3  502    0 -0.56371802425E+03  0.85743881239E+03 -0.10154109697E+04  0.14436200246E+04  0.10100000352E+00 0. -1.
       -3    1    3    3    0  502  0.56371802425E+03 -0.85743881239E+03  0.16042111509E+04  0.19043300015E+04  0.10100000352E+00 0.  1.
</event>
<event>
 5   0  0.2875829E-07  0.3304127E+04  0.7818609E-02  0.8161846E-01
       -2   -1    0    0    0  501  0.00000000000E+00  0.00000000000E+00  0.19306531145E+04  0.19306531145E+04  0.25500000920E-02 0. -1.
        2   -1    0    0  501    0  0.00000000000E+00  0.00000000000E+00 -0.14136739961E+04  0.14136739961E+04  0.25500000920E-02 0.  1.
    10030    2    1    2    0    0  0.00000000000E+00  0.00000000000E+00  0.51697911833E+03  0.33443271106E+04  0.33041271788E+04 0.  0.
        3    1    3    3  502    0  0.11749098839E+04  0.55004700988E+03 -0.77686787438E+03  0.15121139682E+04  0.10100000352E+00 0.  1.
       -3    1    3    3    0  502 -0.11749098839E+04 -0.55004700988E+03  0.12938469927E+04  0.18322131424E+04  0.10100000352E+00 0. -1.
</event>
<event>
 5   0  0.2713815E-07  0.3280664E+04  0.7818609E-02  0.8167833E-01
        2   -1    0    0  501    0  0.00000000000E+00  0.00000000000E+00  0.16112261341E+04  0.16112261341E+04  0.25500000920E-02 0.  1.
       -2   -1    0    0    0  501  0.00000000000E+00  0.00000000000E+00 -0.16699632380E+04  0.16699632380E+04  0.25500000920E-02 0. -1.
    10030    2    1    2    0    0  0.00000000000E+00  0.00000000000E+00 -0.58737103861E+02  0.32811893721E+04  0.32806635987E+04 0.  0.
        4    1    3    3  502    0 -0.98377240973E+03  0.91853097362E+02 -0.13389452870E+04  0.16640376319E+04  0.12699999809E+01 0. -1.
       -4    1    3    3    0  502  0.98377240973E+03 -0.91853097362E+02  0.12802081832E+04  0.16171517402E+04  0.12699999809E+01 0.  1.
</event>
<event>
 5   0  0.9810351E-08  0.3303486E+04  0.7818609E-02  0.8162009E-01
        1   -1    0    0  501    0  0.00000000000E+00  0.00000000000E+00  0.14274320061E+04  0.14274320061E+04  0.50400001928E-02 0. -1.
       -1   -1    0    0    0  501  0.00000000000E+00  0.00000000000E+00 -0.19113034098E+04  0.19113034098E+04  0.50400001928E-02 0.  1.
    10030    2    1    2    0    0  0.00000000000E+00  0.00000000000E+00 -0.48387140368E+03  0.33387354159E+04  0.33034864374E+04 0.  0.
        5    1    3    3  502    0  0.46592021888E+03  0.15677051003E+04 -0.82704948123E+01  0.16355034158E+04  0.46999998093E+01 0. -1.
       -5    1    3    3    0  502 -0.46592021888E+03 -0.15677051003E+04 -0.47560090887E+03  0.17032320002E+04  0.46999998093E+01 0.  1.
</event>
<event>
 5   0  0.8805125E-08  0.3298324E+04  0.7818609E-02  0.8163322E-01
        1   -1    0    0  501    0  0.00000000000E+00  0.00000000000E+00  0.17178568281E+04  0.17178568281E+04  0.50400001928E-02 0.  1.
       -1   -1    0    0    0  501  0.00000000000E+00  0.00000000000E+00 -0.15832140470E+04  0.15832140471E+04  0.50400001928E-02 0. -1.
    10030    2    1    2    0    0  0.00000000000E+00  0.00000000000E+00  0.13464278105E+03  0.33010708752E+04  0.32983238538E+04 0.  0.
        4    1    3    3  502    0  0.10260400965E+04 -0.12769218662E+04 -0.12374521923E+03  0.16427422878E+04  0.12699999809E+01 0.  1.
       -4    1    3    3    0  502 -0.10260400965E+04  0.12769218662E+04  0.25838800028E+03  0.16583285873E+04  0.12699999809E+01 0. -1.
</event>
<event>
 5   0  0.9454010E-08  0.3300792E+04  0.7818609E-02  0.8162694E-01
        1   -1    0    0  501    0  0.00000000000E+00  0.00000000000E+00  0.98755511930E+03  0.98755511932E+03  0.50400001928E-02 0.  1.
       -1   -1    0    0    0  501  0.00000000000E+00  0.00000000000E+00 -0.27581311453E+04  0.27581311453E+04  0.50400001928E-02 0. -1.
    10030    2    1    2    0    0  0.00000000000E+00  0.00000000000E+00 -0.17705760260E+04  0.37456862646E+04  0.33007917427E+04 0.  0.
        2    1    3    3  502    0  0.78476180932E+03  0.11129929087E+04 -0.19432588284E+04  0.23729431486E+04  0.25500000920E-02 0. -1.
       -2    1    3    3    0  502 -0.78476180932E+03 -0.11129929087E+04  0.17268280243E+03  0.13727431160E+04  0.25500000920E-02 0.  1.
</event>
<event>
 5   0  0.9283910E-08  0.3308709E+04  0.7818609E-02  0.8160683E-01
        1   -1    0    0  501    0  0.00000000000E+00  0.00000000000E+00  0.14515890652E+04  0.14515890652E+04  0.50400001928E-02 0.  1.
       -1   -1    0    0    0  501  0.00000000000E+00  0.00000000000E+00 -0.18854427886E+04  0.18854427886E+04  0.50400001928E-02 0. -1.
    10030    2    1    2    0    0  0.00000000000E+00  0.00000000000E+00 -0.43385372344E+03  0.33370318539E+04  0.33087085910E+04 0.  0.
        3    1    3    3  502    0  0.17229340452E+03 -0.35976812625E+03 -0.18362141849E+04  0.18790424862E+04  0.10100000352E+00 0. -1.
       -3    1    3    3    0  502 -0.17229340452E+03  0.35976812625E+03  0.14023604615E+04  0.14579893676E+04  0.10100000352E+00 0.  1.
</event>
<event>
 5   0  0.2824402E-07  0.3307993E+04  0.7818609E-02  0.8160864E-01
       -2   -1    0    0    0  501  0.00000000000E+00  0.00000000000E+00  0.17921494367E+04  0.17921494367E+04  0.25500000920E-02 0. -1.
        2   -1    0    0  501    0  0.00000000000E+00  0.00000000000E+00 -0.15264938972E+04  0.15264938972E+04  0.25500000920E-02 0.  1.
    10030    2    1    2    0    0  0.00000000000E+00  0.00000000000E+00  0.26565553957E+03  0.33186433339E+04  0.33079934570E+04 0.  0.
        1    1    3    3  502    0  0.34609767663E+03  0.28890918904E+03 -0.14636638373E+04  0.15315234082E+04  0.50400001928E-02 0.  1.
       -1    1    3    3    0  502 -0.34609767663E+03 -0.28890918904E+03  0.17293193769E+04  0.17871199256E+04  0.50400001928E-02 0. -1.
</event>
<event>
 5   0  0.9283910E-08  0.3284086E+04  0.7818609E-02  0.8166956E-01
        1   -1    0    0  501    0  0.00000000000E+00  0.00000000000E+00  0.14440473310E+04  0.14440473310E+04  0.50400001928E-02 0. -1.
       -1   -1    0    0    0  501  0.00000000000E+00  0.00000000000E+00 -0.18671863498E+04  0.18671863498E+04  0.50400001928E-02 0.  1.
    10030    2    1    2    0    0  0.00000000000E+00  0.00000000000E+00 -0.42313901881E+03  0.33112336808E+04  0.32840861529E+04 0.  0.
        3    1    3    3  502    0 -0.57607825185E+03  0.10364265421E+04 -0.13568550892E+04  0.18019716626E+04  0.10100000352E+00 0.  1.
       -3    1    3    3    0  502  0.57607825185E+03 -0.10364265421E+04  0.93371607039E+03  0.15092620183E+04  0.10100000352E+00 0. -1.
</event>
<event>
 5   0  0.2875829E-07  0.3304524E+04  0.7818609E-02  0.8161745E-01
       -2   -1    0    0    0  501  0.00000000000E+00  0.00000000000E+00  0.21934182086E+04  0.21934182086E+04  0.25500000920E-02 0. -1.
        2   -1    0    0  501    0  0.00000000000E+00  0.00000000000E+00 -0.12446185885E+04  0.12446185885E+04  0.25500000920E-02 0.  1.
    10030    2    1    2    0    0  0.00000000000E+00  0.00000000000E+00  0.94879962016E+03  0.34380367971E+04  0.33045236115E+04 0.  0.
        3    1    3    3  502    0 -0.33675979921E+03  0.60214471233E+03 -0.10875858473E+04  0.12879551244E+04  0.10100000352E+00 0.  1.
       -3    1    3    3    0  502  0.33675979921E+03 -0.60214471233E+03  0.20363854675E+04  0.21500816727E+04  0.10100000352E+00 0. -1.
</event>
<event>
 5   0  0.9181760E-08  0.3283218E+04  0.7818609E-02  0.8167179E-01
       -1   -1    0    0    0  501  0.00000000000E+00  0.00000000000E+00  0.12537443624E+04  0.12537443624E+04  0.50400001928E-02 0. -1.
        1   -1    0    0  501    0  0.00000000000E+00  0.00000000000E+00 -0.21494652847E+04  0.21494652847E+04  0.50400001928E-02 0.  1.
    10030    2    1    2    0    0  0.00000000000E+00  0.00000000000E+00 -0.89572092225E+03  0.34032096471E+04  0.32832179233E+04 0.  0.
        1    1    3    3  502    0 -0.27203003445E+03 -0.14892607665E+04  0.21014852488E+03  0.15284176042E+04  0.50400001928E-02 0. -1.
       -1    1    3    3    0  502  0.27203003445E+03  0.14892607665E+04 -0.11058694471E+04  0.18747920430E+04  0.50400001928E-02 0.  1.
</event>
<event>
 5   0  0.2713815E-07  0.3306958E+04  0.7818609E-02  0.8161127E-01
       -2   -1    0    0    0  501  0.00000000000E+00  0.00000000000E+00  0.14596164791E+04  0.14596164791E+04  0.25500000920E-02 0.  1.
        2   -1    0    0  501    0  0.00000000000E+00  0.00000000000E+00 -0.18730903145E+04  0.18730903145E+04  0.25500000920E-02 0. -1.
    10030    2    1    2    0    0  0.00000000000E+00  0.00000000000E+00 -0.41347383543E+03  0.33327067936E+04  0.33069584152E+04 0.  0.
        4    1    3    3  502    0 -0.94641082588E+03  0.13402781509E+04 -0.41315578336E+03  0.16919628504E+04  0.12699999809E+01 0. -1.
       -4    1    3    3    0  502  0.94641082588E+03 -0.13402781509E+04 -0.31805207768E+00  0.16407439432E+04  0.12699999809E+01 0.  1.
</event>
<event>
 5   0  0.2713815E-07  0.3289211E+04  0.7818609E-02  0.8165646E-01
       -2   -1    0    0    0  501  0.00000000000E+00  0.00000000000E+00  0.11059877658E+04  0.11059877658E+04  0.25500000920E-02 0.  1.
        2   -1    0    0  501    0  0.00000000000E+00  0.00000000000E+00 -0.24455314420E+04  0.24455314420E+04  0.25500000920E-02 0. -1.
    10030    2    1    2    0    0  0.00000000000E+00  0.00000000000E+00 -0.13395436762E+04  0.35515192078E+04  0.32892113679E+04 0.  0.
        4    1    3    3  502    0 -0.72558714096E+03  0.14468130674E+04 -0.98453547892E+03  0.18944805286E+04  0.12699999809E+01 0. -1.
       -4    1    3    3    0  502  0.72558714096E+03 -0.14468130674E+04 -0.35500819724E+03  0.16570386791E+04  0.12699999809E+01 0.  1.
</event>
<event>
 5   0  0.9810351E-08  0.3292833E+04  0.7818609E-02  0.8164721E-01
        1   -1    0    0  501    0  0.00000000000E+00  0.00000000000E+00  0.21769575321E+04  0.21769575321E+04  0.50400001928E-02 0. -1.
       -1   -1    0    0    0  501  0.00000000000E+00  0.00000000000E+00 -0.12451725199E+04  0.12451725199E+04  0.50400001928E-02 0.  1.
    10030    2    1    2    0    0  0.00000000000E+00  0.00000000000E+00  0.93178501217E+03  0.34221300520E+04  0.32928332457E+04 0.  0.
        5    1    3    3  502    0 -0.31089878229E+03 -0.59220355801E+03  0.20293931833E+04  0.21367783903E+04  0.46999998093E+01 0. -1.
       -5    1    3    3    0  502  0.31089878229E+03  0.59220355801E+03 -0.10976081711E+04  0.12853516617E+04  0.46999998093E+01 0.  1.
</event>
<event>
 5   0  0.9283910E-08  0.3296005E+04  0.7818609E-02  0.8163913E-01
        1   -1    0    0  501    0  0.00000000000E+00  0.00000000000E+00  0.17679767364E+04  0.17679767364E+04  0.50400001928E-02 0.  1.
       -1   -1    0    0    0  501  0.00000000000E+00  0.00000000000E+00 -0.15361693164E+04  0.15361693164E+04  0.50400001928E-02 0. -1.
    10030    2    1    2    0    0  0.00000000000E+00  0.00000000000E+00  0.23180742002E+03  0.33041460528E+04  0.32960046204E+04 0.  0.
        3    1    3    3  502    0 -0.54909460821E+03 -0.91341020651E+02  0.16708842909E+04  0.17611650674E+04  0.10100000352E+00 0.  1.
       -3    1    3    3    0  502  0.54909460821E+03  0.91341020651E+02 -0.14390768709E+04  0.15429809854E+04  0.10100000352E+00 0. -1.
</event>
<event>
 5   0  0.9454010E-08  0.3302707E+04  0.7818609E-02  0.8162207E-01
       -1   -1    0    0    0  501  0.00000000000E+00  0.00000000000E+00  0.11808186421E+04  0.11808186421E+04  0.50400001928E-02 0.  1.
        1   -1    0    0  501    0  0.00000000000E+00  0.00000000000E+00 -0.23093881076E+04  0.23093881076E+04  0.50400001928E-02 0. -1.
    10030    2    1    2    0    0  0.00000000000E+00  0.00000000000E+00 -0.11285694655E+04  0.34902067497E+04  0.33027070892E+04 0.  0.
        2    1    3    3  502    0 -0.18293425322E+03 -0.12084533585E+04 -0.17377980017E+04  0.21245626269E+04  0.25500000920E-02 0. -1.
       -2    1    3    3    0  502  0.18293425322E+03  0.12084533585E+04  0.60922853620E+03  0.13656441228E+04  0.25500000920E-02 0.  1.
</event>
<event>
 5   0  0.2713815E-07  0.3299483E+04  0.7818609E-02  0.8163027E-01
       -2   -1    0    0    0  501  0.00000000000E+00  0.00000000000E+00  0.13740276717E+04  0.13740276717E+04  0.25500000920E-02 0. -1.
        2   -1    0    0  501    0  0.00000000000E+00  0.00000000000E+00 -0.19807807924E+04  0.19807807924E+04  0.25500000920E-02 0.  1.
    10030    2    1    2    0    0  0.00000000000E+00  0.00000000000E+00 -0.60675312070E+03  0.33548084641E+04  0.32994833658E+04 0.  0.
        4    1    3    3  502    0  0.92109112587E+03  0.13569772824E+04 -0.12191896809E+03  0.16445856788E+04  0.12699999809E+01 0. -1.
       -4    1    3    3    0  502 -0.92109112587E+03 -0.13569772824E+04 -0.48483415261E+03  0.17102227853E+04  0.12699999809E+01 0.  1.
</event>
<event>
 5   0  0.9283910E-08  0.3266497E+04  0.7818609E-02  0.8171473E-01
       -1   -1    0    0    0  501  0.00000000000E+00  0.00000000000E+00  0.15496153280E+04  0.15496153280E+04  0.50400001928E-02 0.  1.
        1   -1    0    0  501    0  0.00000000000E+00  0.00000000000E+00 -0.17213954168E+04  0.17213954168E+04  0.50400001928E-02 0. -1.
    10030    2    1    2    0    0  0.00000000000E+00  0.00000000000E+00 -0.17178008884E+03  0.32710107449E+04  0.32664970372E+04 0.  0.
        3    1    3    3  502    0 -0.42467939304E+03  0.11605314175E+04  0.98344084473E+03  0.15793484933E+04  0.10100000352E+00 0.  1.
       -3    1    3    3    0  502  0.42467939304E+03 -0.11605314175E+04 -0.11552209336E+04  0.16916622516E+04  0.10100000352E+00 0. -1.
</event>
<event>
 5   0  0.2727168E-07  0.3297100E+04  0.7818609E-02  0.8163634E-01
        2   -1    0    0  501    0  0.00000000000E+00  0.00000000000E+00  0.16403843457E+04  0.16403843457E+04  0.25500000920E-02 0.  1.
       -2   -1    0    0    0  501  0.00000000000E+00  0.00000000000E+00 -0.16567564094E+04  0.16567564094E+04  0.25500000920E-02 0. -1.
    10030    2    1    2    0    0  0.00000000000E+00  0.00000000000E+00 -0.16372063681E+02  0.32971407552E+04  0.32971001069E+04 0.  0.
        2    1    3    3  502    0  0.14342328270E+04 -0.71501676534E+03 -0.39477132246E+03  0.16504899799E+04  0.25500000920E-02 0. -1.
       -2    1    3    3    0  502 -0.14342328270E+04  0.71501676534E+03  0.37839925878E+03  0.16466507753E+04  0.25500000920E-02 0.  1.
</event>
<event>
 5   0  0.2713815E-07  0.3277540E+04  0.7818609E-02  0.8168634E-01
        2   -1    0    0  501    0  0.00000000000E+00  0.00000000000E+00  0.26400506895E+04  0.26400506895E+04  0.25500000920E-02 0.  1.
       -2   -1    0    0    0  501  0.00000000000E+00  0.00000000000E+00 -0.10172404626E+04  0.10172404626E+04  0.25500000920E-02 0. -1.
    10030    2    1    2    0    0  0.00000000000E+00  0.00000000000E+00  0.16228102269E+04  0.36572911521E+04  0.32775395556E+04 0.  0.
        4    1    3    3  502    0  0.49716359016E+03 -0.15451082140E+04  0.10634862261E+04  0.19404988003E+04  0.12699999809E+01 0.  1.
       -4    1    3    3    0  502 -0.49716359016E+03  0.15451082140E+04  0.55932400078E+03  0.17167923517E+04  0.12699999809E+01 0. -1.
</event>
<event>
 5   0  0.9810351E-08  0.3297256E+04  0.7818609E-02  0.8163594E-01
        1   -1    0    0  501    0  0.00000000000E+00  0.00000000000E+00  0.18289987821E+04  0.18289987821E+04  0.50400001928E-02 0. -1.
       -1   -1    0    0    0  501  0.00000000000E+00  0.00000000000E+00 -0.14860444600E+04  0.14860444600E+04  0.50400001928E-02 0.  1.
    10030    2    1    2    0    0  0.00000000000E+00  0.00000000000E+00  0.34295432204E+03  0.33150432421E+04  0.32972555300E+04 0.  0.
        5    1    3    3  502    0 -0.35080158185E+03 -0.16088705915E+04  0.25206622689E+03  0.16658588784E+04  0.46999998093E+01 0. -1.
       -5    1    3    3    0  502  0.35080158185E+03  0.16088705915E+04  0.90888095142E+02  0.16491843638E+04  0.46999998093E+01 0.  1.
</event>
<event>
 5   0  0.9454010E-08  0.3296097E+04  0.7818609E-02  0.8163889E-01
       -1   -1    0    0    0  501  0.00000000000E+00  0.00000000000E+00  0.99420374534E+03  0.99420374536E+03  0.50400001928E-02 0. -1.
        1   -1    0    0  501    0  0.00000000000E+00  0.00000000000E+00 -0.27318984177E+04  0.27318984177E+04  0.50400001928E-02 0.  1.
    10030    2    1    2    0    0  0.00000000000E+00  0.00000000000E+00 -0.17376946723E+04  0.37261021630E+04  0.32960968668E+04 0.  0.
        2    1    3    3  502    0  0.49891104385E+03 -0.65843112186E+03  0.74324413329E+03  0.11112405741E+04  0.25500000920E-02 0. -1.
       -2    1    3    3    0  502 -0.49891104385E+03  0.65843112186E+03 -0.24809388056E+04  0.26148615889E+04  0.25500000920E-02 0.  1.
</event>
<event>
 5   0  0.2727168E-07  0.3299286E+04  0.7818609E-02  0.8163077E-01
        2   -1    0    0  501    0  0.00000000000E+00  0.00000000000E+00  0.11780161794E+04  0.11780161794E+04  0.25500000920E-02 0. -1.
       -2   -1    0    0    0  501  0.00000000000E+00  0.00000000000E+00 -0.23100891743E+04  0.23100891743E+04  0.25500000920E-02 0.  1.
    10030    2    1    2    0    0  0.00000000000E+00  0.00000000000E+00 -0.11320729948E+04  0.34881053537E+04  0.32992862399E+04 0.  0.
        2    1    3    3  502    0  0.62643320468E+03  0.99682274303E+03  0.65562422743E+03  0.13475597458E+04  0.25500000920E-02 0. -1.
       -2    1    3    3    0  502 -0.62643320468E+03 -0.99682274303E+03 -0.17876972223E+04  0.21405456079E+04  0.25500000920E-02 0.  1.
</event>
<event>
 5   0  0.2875829E-07  0.3303358E+04  0.7818609E-02  0.8162042E-01
        2   -1    0    0  501    0  0.00000000000E+00  0.00000000000E+00  0.21606358902E+04  0.21606358902E+04  0.25500000920E-02 0. -1.
       -2   -1    0    0    0  501  0.00000000000E+00  0.00000000000E+00 -0.12626113137E+04  0.12626113137E+04  0.25500000920E-02 0.  1.
    10030    2    1    2    0    0  0.00000000000E+00  0.00000000000E+00  0.89802457656E+03  0.34232472039E+04  0.33033578793E+04 0.  0.
        3    1    3    3  502    0  0.10081258908E+04 -0.20450865886E+03  0.17881587848E+04  0.20629235210E+04  0.10100000352E+00 0. -1.
       -3    1    3    3    0  502 -0.10081258908E+04  0.20450865886E+03 -0.89013420828E+03  0.13603236829E+04  0.10100000352E+00 0.  1.
</event>
<event>
 5   0  0.2703956E-07  0.3298106E+04  0.7818609E-02  0.8163377E-01
       -2   -1    0    0    0  501  0.00000000000E+00  0.00000000000E+00  0.12356709940E+04  0.12356709940E+04  0.25500000920E-02 0. -1.
        2   -1    0    0  501    0  0.00000000000E+00  0.00000000000E+00 -0.22007282247E+04  0.22007282247E+04  0.25500000920E-02 0.  1.
    10030    2    1    2    0    0  0.00000000000E+00  0.00000000000E+00 -0.96505723071E+03  0.34363992188E+04  0.32981061433E+04 0.  0.
        5    1    3    3  502    0  0.79362532077E+03 -0.12089583106E+04 -0.13081776877E+04  0.19500698190E+04  0.46999998093E+01 0.  1.
       -5    1    3    3    0  502 -0.79362532077E+03  0.12089583106E+04  0.34312045699E+03  0.14863293997E+04  0.46999998093E+01 0. -1.
</event>
<event>
 5   0  0.9454010E-08  0.3288919E+04  0.7818609E-02  0.8165721E-01
        1   -1    0    0  501    0  0.00000000000E+00  0.00000000000E+00  0.26301720029E+04  0.26301720029E+04  0.50400001928E-02 0.  1.
       -1   -1    0    0    0  501  0.00000000000E+00  0.00000000000E+00 -0.10281636768E+04  0.10281636768E+04  0.50400001928E-02 0. -1.
    10030    2    1    2    0    0  0.00000000000E+00  0.00000000000E+00  0.16020083261E+04  0.36583356797E+04  0.32889191642E+04 0.  0.
        2    1    3    3  502    0 -0.35679128874E+03  0.13558946466E+04  0.17568871263E+04  0.22477550336E+04  0.25500000920E-02 0.  1.
       -2    1    3    3    0  502  0.35679128874E+03 -0.13558946466E+04 -0.15487880023E+03  0.14105806461E+04  0.25500000920E-02 0. -1.
</event>
<event>
 5   0  0.2727168E-07  0.3300395E+04  0.7818609E-02  0.8162795E-01
        2   -1    0    0  501    0  0.00000000000E+00  0.00000000000E+00  0.12797100955E+04  0.12797100955E+04  0.25500000920E-02 0.  1.
       -2   -1    0    0    0  501  0.00000000000E+00  0.00000000000E+00 -0.21279445481E+04  0.21279445481E+04  0.25500000920E-02 0. -1.
    10030    2    1    2    0    0  0.00000000000E+00  0.00000000000E+00 -0.84823445260E+03  0.34076546435E+04  0.33003952010E+04 0.  0.
        2    1    3    3  502    0  0.31454373842E+03 -0.95693915638E+03  0.92545088005E+03  0.13678924094E+04  0.25500000920E-02 0.  1.
       -2    1    3    3    0  502 -0.31454373842E+03  0.95693915638E+03 -0.17736853326E+04  0.20397622341E+04  0.25500000920E-02 0. -1.
</event>
<event>
 5   0  0.9454010E-08  0.3300401E+04  0.7818609E-02  0.8162793E-01
        1   -1    0    0  501    0  0.00000000000E+00  0.00000000000E+00  0.18746248294E+04  0.18746248294E+04  0.50400001928E-02 0.  1.
       -1   -1    0    0    0  501  0.00000000000E+00  0.00000000000E+00 -0.14526432372E+04  0.14526432372E+04  0.50400001928E-02 0. -1.
    10030    2    1    2    0    0  0.00000000000E+00  0.00000000000E+00  0.42198159225E+03  0.33272680666E+04  0.33004006307E+04 0.  0.
        2    1    3    3  502    0  0.15607006978E+04 -0.51741424444E+03  0.35233525209E+03  0.16815600788E+04  0.25500000920E-02 0.  1.
       -2    1    3    3    0  502 -0.15607006978E+04  0.51741424444E+03  0.69646340159E+02  0.16457079879E+04  0.25500000920E-02 0. -1.
</event>
<event>
 5   0  0.2703956E-07  0.3297814E+04  0.7818609E-02  0.8163452E-01
       -2   -1    0    0    0  501  0.00000000000E+00  0.00000000000E+00  0.12900938248E+04  0.12900938248E+04  0.25500000920E-02 0. -1.
        2   -1    0    0  501    0  0.00000000000E+00  0.00000000000E+00 -0.21075171804E+04  0.21075171804E+04  0.25500000920E-02 0.  1.
    10030    2    1    2    0    0  0.00000000000E+00  0.00000000000E+00 -0.81742335560E+03  0.33976110051E+04  0.32978143671E+04 0.  0.
        5    1    3    3  502    0  0.14299453430E+03 -0.12252047481E+04  0.71861219563E+03  0.14275852651E+04  0.46999998093E+01 0. -1.
       -5    1    3    3    0  502 -0.14299453430E+03  0.12252047481E+04 -0.15360355512E+04  0.19700257400E+04  0.46999998093E+01 0.  1.
</event>
<event>
 5   0  0.9181760E-08  0.3286872E+04  0.7818609E-02  0.8166244E-01
       -1   -1    0    0    0  501  0.00000000000E+00  0.00000000000E+00  0.11133570173E+04  0.11133570173E+04  0.50400001928E-02 0. -1.
        1   -1    0    0  501    0  0.00000000000E+00  0.00000000000E+00 -0.24258907928E+04  0.24258907928E+04  0.50400001928E-02 0.  1.
    10030    2    1    2    0    0  0.00000000000E+00  0.00000000000E+00 -0.13125337755E+04  0.35392478100E+04  0.32868723962E+04 0.  0.
        1    1    3    3  502    0 -0.69591733861E+03  0.18342126235E+02  0.94674605221E+03  0.11751448690E+04  0.50400001928E-02 0. -1.
       -1    1    3    3    0  502  0.69591733861E+03 -0.18342126235E+02 -0.22592798277E+04  0.23641029410E+04  0.50400001928E-02 0.  1.
</event>
<event>
 5   0  0.8805125E-08  0.3295489E+04  0.7818609E-02  0.8164044E-01
       -1   -1    0    0    0  501  0.00000000000E+00  0.00000000000E+00  0.11036815806E+04  0.11036815806E+04  0.50400001928E-02 0.  1.
        1   -1    0    0  501    0  0.00000000000E+00  0.00000000000E+00 -0.24600047250E+04  0.24600047250E+04  0.50400001928E-02 0. -1.
    10030    2    1    2    0    0  0.00000000000E+00  0.00000000000E+00 -0.13563231445E+04  0.35636863056E+04  0.32954889793E+04 0.  0.
        4    1    3    3  502    0  0.12561665203E+04  0.19629155020E+03  0.45526809809E+03  0.13504648656E+04  0.12699999809E+01 0.  1.
       -4    1    3    3    0  502 -0.12561665203E+04 -0.19629155020E+03 -0.18115912425E+04  0.22132214400E+04  0.12699999809E+01 0. -1.
</event>
<event>
 5   0  0.9181760E-08  0.3332492E+04  0.7818609E-02  0.8154677E-01
       -1   -1    0    0    0  501  0.00000000000E+00  0.00000000000E+00  0.17464879202E+04  0.17464879202E+04  0.50400001928E-02 0.  1.
        1   -1    0    0  501    0  0.00000000000E+00  0.00000000000E+00 -0.15896905464E+04  0.15896905464E+04  0.50400001928E-02 0. -1.
    10030    2    1    2    0    0  0.00000000000E+00  0.00000000000E+00  0.15679737373E+03  0.33361784666E+04  0.33324917621E+04 0.  0.
        1    1    3    3  502    0  0.34281191766E+03  0.16157682834E+04  0.29806837122E+03  0.16784135100E+04  0.50400001928E-02 0.  1.
       -1    1    3    3    0  502 -0.34281191766E+03 -0.16157682834E+04 -0.14127099749E+03  0.16577649566E+04  0.50400001928E-02 0. -1.
</event>
<event>
 5   0  0.2703956E-07  0.3294596E+04  0.7818609E-02  0.8164272E-01
       -2   -1    0    0    0  501  0.00000000000E+00  0.00000000000E+00  0.17622239449E+04  0.17622239449E+04  0.25500000920E-02 0.  1.
        2   -1    0    0  501    0  0.00000000000E+00  0.00000000000E+00 -0.15398670796E+04  0.15398670796E+04  0.25500000920E-02 0. -1.
    10030    2    1    2    0    0  0.00000000000E+00  0.00000000000E+00  0.22235686531E+03  0.33020910244E+04  0.32945959628E+04 0.  0.
        5    1    3    3  502    0 -0.30183135911E+03  0.79724943980E+03 -0.13015883675E+04  0.15559123391E+04  0.46999998093E+01 0. -1.
       -5    1    3    3    0  502  0.30183135911E+03 -0.79724943980E+03  0.15239452328E+04  0.17461786853E+04  0.46999998093E+01 0.  1.
</event>
<event>
 5   0  0.9810351E-08  0.3295296E+04  0.7818609E-02  0.8164093E-01
        1   -1    0    0  501    0  0.00000000000E+00  0.00000000000E+00  0.22071153106E+04  0.22071153106E+04  0.50400001928E-02 0. -1.
       -1   -1    0    0    0  501  0.00000000000E+00  0.00000000000E+00 -0.12299965079E+04  0.12299965079E+04  0.50400001928E-02 0.  1.
    10030    2    1    2    0    0  0.00000000000E+00  0.00000000000E+00  0.97711880268E+03  0.34371118184E+04  0.32952961169E+04 0.  0.
        5    1    3    3  502    0 -0.84132803967E+03 -0.54162584362E+03  0.18539130271E+04  0.21067052539E+04  0.46999998093E+01 0. -1.
       -5    1    3    3    0  502  0.84132803967E+03  0.54162584362E+03 -0.87679422446E+03  0.13304065645E+04  0.46999998093E+01 0.  1.
</event>
<event>
 5   0  0.9283910E-08  0.3309149E+04  0.7818609E-02  0.8160571E-01
       -1   -1    0    0    0  501  0.00000000000E+00  0.00000000000E+00  0.13141510808E+04  0.13141510808E+04  0.50400001928E-02 0.  1.
        1   -1    0    0  501    0  0.00000000000E+00  0.00000000000E+00 -0.20831825516E+04  0.20831825516E+04  0.50400001928E-02 0. -1.
    10030    2    1    2    0    0  0.00000000000E+00  0.00000000000E+00 -0.76903147082E+03  0.33973336324E+04  0.33091488947E+04 0.  0.
        3    1    3    3  502    0  0.12931602918E+04  0.10383902218E+02 -0.14441272965E+04  0.19385239293E+04  0.10100000352E+00 0.  1.
       -3    1    3    3    0  502 -0.12931602918E+04 -0.10383902218E+02  0.67509582570E+03  0.14588097031E+04  0.10100000352E+00 0. -1.
</event>
<event>
 5   0  0.2824402E-07  0.3298710E+04  0.7818609E-02  0.8163224E-01
        2   -1    0    0  501    0  0.00000000000E+00  0.00000000000E+00  0.22483210878E+04  0.22483210878E+04  0.25500000920E-02 0. -1.
       -2   -1    0    0    0  501  0.00000000000E+00  0.00000000000E+00 -0.12099573429E+04  0.12099573429E+04  0.25500000920E-02 0.  1.
    10030    2    1    2    0    0  0.00000000000E+00  0.00000000000E+00  0.10383637450E+04  0.34582784307E+04  0.32987104203E+04 0.  0.
        1    1    3    3  502    0  0.23971891262E+03  0.16134726065E+04  0.77515150169E+03  0.18059952546E+04  0.50400001928E-02 0.  1.
       -1    1    3    3    0  502 -0.23971891262E+03 -0.16134726065E+04  0.26321224326E+03  0.16522831761E+04  0.50400001928E-02 0. -1.
</event>
<event>
 5   0  0.9283910E-08  0.3297723E+04  0.7818609E-02  0.8163475E-01
       -1   -1    0    0    0  501  0.00000000000E+00  0.00000000000E+00  0.17593533599E+04  0.17593533599E+04  0.50400001928E-02 0. -1.
        1   -1    0    0  501    0  0.00000000000E+00  0.00000000000E+00 -0.15453086223E+04  0.15453086223E+04  0.50400001928E-02 0.  1.
    10030    2    1    2    0    0  0.00000000000E+00  0.00000000000E+00  0.21404473768E+03  0.33046619822E+04  0.32977228002E+04 0.  0.
        3    1    3    3  502    0  0.11700292479E+04 -0.10376411638E+04 -0.41664424545E+03  0.16184128223E+04  0.10100000352E+00 0.  1.
       -3    1    3    3    0  502 -0.11700292479E+04  0.10376411638E+04  0.63068898314E+03  0.16862491599E+04  0.10100000352E+00 0. -1.
</event>
<event>
 5   0  0.2875829E-07  0.3289330E+04  0.7818609E-02  0.8165616E-01
        2   -1    0    0  501    0  0.00000000000E+00  0.00000000000E+00  0.20471673802E+04  0.20471673802E+04  0.25500000920E-02 0.  1.
       -2   -1    0    0    0  501  0.00000000000E+00  0.00000000000E+00 -0.13213006471E+04  0.13213006471E+04  0.25500000920E-02 0. -1.
    10030    2    1    2    0    0  0.00000000000E+00  0.00000000000E+00  0.72586673306E+03  0.33684680273E+04  0.32893303782E+04 0.  0.
        3    1    3    3  502    0  0.59396477128E+03  0.90654154830E+03 -0.90388661120E+03  0.14112486473E+04  0.10100000352E+00 0. -1.
       -3    1    3    3    0  502 -0.59396477128E+03 -0.90654154830E+03  0.16297533443E+04  0.19572193801E+04  0.10100000352E+00 0.  1.
</event>
<event>
 5   0  0.9181760E-08  0.3307849E+04  0.7818609E-02  0.8160901E-01
       -1   -1    0    0    0  501  0.00000000000E+00  0.00000000000E+00  0.10767985256E+04  0.10767985256E+04  0.50400001928E-02 0.  1.
        1   -1    0    0  501    0  0.00000000000E+00  0.00000000000E+00 -0.25403699313E+04  0.25403699313E+04  0.50400001928E-02 0. -1.
    10030    2    1    2    0    0  0.00000000000E+00  0.00000000000E+00 -0.14635714057E+04  0.36171684569E+04  0.33078492085E+04 0.  0.
        1    1    3    3  502    0  0.88599023047E+03 -0.12908823945E+04 -0.14892239995E+03  0.15727472544E+04  0.50400001928E-02 0.  1.
       -1    1    3    3    0  502 -0.88599023047E+03  0.12908823945E+04 -0.13146490057E+04  0.20444212025E+04  0.50400001928E-02 0. -1.
</event>
<event>
 5   0  0.9181760E-08  0.3306278E+04  0.7818609E-02  0.8161300E-01
        1   -1    0    0  501    0  0.00000000000E+00  0.00000000000E+00  0.23415433747E+04  0.23415433747E+04  0.50400001928E-02 0. -1.
       -1   -1    0    0    0  501  0.00000000000E+00  0.00000000000E+00 -0.11671224538E+04  0.11671224538E+04  0.50400001928E-02 0.  1.
    10030    2    1    2    0    0  0.00000000000E+00  0.00000000000E+00  0.11744209209E+04  0.35086658285E+04  0.33062775740E+04 0.  0.
        1    1    3    3  502    0 -0.10430315300E+04  0.51288484180E+02 -0.77276767503E+03  0.12991209185E+04  0.50400001928E-02 0.  1.
       -1    1    3    3    0  502  0.10430315300E+04 -0.51288484180E+02  0.19471885959E+04  0.22095449100E+04  0.50400001928E-02 0. -1.
</event>
<event>
 5   0  0.2824402E-07  0.3300530E+04  0.7818609E-02  0.8162761E-01
       -2   -1    0    0    0  501  0.00000000000E+00  0.00000000000E+00  0.15057013610E+04  0.15057013610E+04  0.25500000920E-02 0. -1.
        2   -1    0    0  501    0  0.00000000000E+00  0.00000000000E+00 -0.18087083049E+04  0.18087083049E+04  0.25500000920E-02 0.  1.
    10030    2    1    2    0    0  0.00000000000E+00  0.00000000000E+00 -0.30300694393E+03  0.33144096659E+04  0.33005299915E+04 0.  0.
        1    1    3    3  502    0  0.95840795525E+03 -0.41153956808E+03 -0.14357339975E+04  0.17746105872E+04  0.50400001928E-02 0.  1.
       -1    1    3    3    0  502 -0.95840795525E+03  0.41153956808E+03  0.11327270535E+04  0.15397990786E+04  0.50400001928E-02 0. -1.
</event>
<event>
 5   0  0.9283910E-08  0.3302632E+04  0.7818609E-02  0.8162226E-01
       -1   -1    0    0    0  501  0.00000000000E+00  0.00000000000E+00  0.15449465588E+04  0.15449465588E+04  0.50400001928E-02 0.  1.
        1   -1    0    0  501    0  0.00000000000E+00  0.00000000000E+00 -0.17650091070E+04  0.17650091070E+04  0.50400001928E-02 0. -1.
    10030    2    1    2    0    0  0.00000000000E+00  0.00000000000E+00 -0.22006254822E+03  0.33099556659E+04  0.33026321298E+04 0.  0.
        3    1    3    3  502    0  0.12406604301E+04  0.22150167228E+03  0.95936035019E+03  0.15838792837E+04  0.10100000352E+00 0.  1.
       -3    1    3    3    0  502 -0.12406604301E+04 -0.22150167228E+03 -0.11794228984E+04  0.17260763822E+04  0.10100000352E+00 0. -1.
</event>
<event>
 5   0  0.9181760E-08  0.3293706E+04  0.7818609E-02  0.8164499E-01
       -1   -1    0    0    0  501  0.00000000000E+00  0.00000000000E+00  0.13751188573E+04  0.13751188573E+04  0.50400001928E-02 0.  1.
        1   -1    0    0  501    0  0.00000000000E+00  0.00000000000E+00 -0.19722836661E+04  0.19722836661E+04  0.50400001928E-02 0. -1.
    10030    2    1    2    0    0  0.00000000000E+00  0.00000000000E+00 -0.59716480882E+03  0.33474025234E+04  0.32937057921E+04 0.  0.
        1    1    3    3  502    0  0.20444807836E+03  0.69096996039E+03  0.12063990872E+04  0.14052178694E+04  0.50400001928E-02 0.  1.
       -1    1    3    3    0  502 -0.20444807836E+03 -0.69096996039E+03 -0.18035638960E+04  0.19421846539E+04  0.50400001928E-02 0. -1.
</event>
<event>
 5   0  0.2875829E-07  0.3287053E+04  0.7818609E-02  0.8166198E-01
       -2   -1    0    0    0  501  0.00000000000E+00  0.00000000000E+00  0.10715323167E+04  0.10715323167E+04  0.25500000920E-02 0. -1.
        2   -1    0    0  501    0  0.00000000000E+00  0.00000000000E+00 -0.25208569787E+04  0.25208569787E+04  0.25500000920E-02 0.  1.
    10030    2    1    2    0    0  0.00000000000E+00  0.00000000000E+00 -0.14493246620E+04  0.35923892954E+04  0.32870532205E+04 0.  0.
        3    1    3    3  502    0  0.12851444386E+04  0.35782055588E+03 -0.17738075885E+04  0.22194650593E+04  0.10100000352E+00 0.  1.
       -3    1    3    3    0  502 -0.12851444386E+04 -0.35782055588E+03  0.32448292652E+03  0.13729242361E+04  0.10100000352E+00 0. -1.
</event>
<event>
 5   0  0.2703956E-07  0.3341429E+04  0.7818609E-02  0.8152433E-01
        2   -1    0    0  501    0  0.00000000000E+00  0.00000000000E+00  0.14646436477E+04  0.14646436477E+04  0.25500000920E-02 0. -1.
       -2   -1    0    0    0  501  0.00000000000E+00  0.00000000000E+00 -0.19057793925E+04  0.19057793925E+04  0.25500000920E-02 0.  1.
    10030    2    1    2    0    0  0.00000000000E+00  0.00000000000E+00 -0.44113574487E+03  0.33704230402E+04  0.33414294433E+04 0.  0.
        5    1    3    3  502    0  0.13212154117E+04  0.77157137345E+03  0.45632357509E+03  0.15966169997E+04  0.46999998093E+01 0.  1.
       -5    1    3    3    0  502 -0.13212154117E+04 -0.77157137345E+03 -0.89745931995E+03  0.17738060405E+04  0.46999998093E+01 0. -1.
</event>
<event>
 5   0  0.2727168E-07  0.3287799E+04  0.7818609E-02  0.8166007E-01
        2   -1    0    0  501    0  0.00000000000E+00  0.00000000000E+00  0.15787439943E+04  0.15787439943E+04  0.25500000920E-02 0. -1.
       -2   -1    0    0    0  501  0.00000000000E+00  0.00000000000E+00 -0.17117443084E+04  0.17117443084E+04  0.25500000920E-02 0.  1.
    10030    2    1    2    0    0  0.00000000000E+00  0.00000000000E+00 -0.13300031406E+03  0.32904883027E+04  0.32877992924E+04 0.  0.
        2    1    3    3  502    0 -0.12983529258E+04  0.22201977432E+03  0.91786563257E+03  0.16054564521E+04  0.25500000920E-02 0. -1.
       -2    1    3    3    0  502  0.12983529258E+04 -0.22201977432E+03 -0.10508659466E+04  0.16850318507E+04  0.25500000920E-02 0.  1.
</event>
<event>
 5   0  0.2727168E-07  0.3299924E+04  0.7818609E-02  0.8162915E-01
        2   -1    0    0  501    0  0.00000000000E+00  0.00000000000E+00  0.23129328599E+04  0.23129328599E+04  0.25500000920E-02 0.  1.
       -2   -1    0    0    0  501  0.00000000000E+00  0.00000000000E+00 -0.11770227962E+04  0.11770227962E+04  0.25500000920E-02 0. -1.
    10030    2    1    2    0    0  0.00000000000E+00  0.00000000000E+00  0.11359100637E+04  0.34899556562E+04  0.32999240611E+04 0.  0.
        2    1    3    3  502    0  0.39144207001E+03  0.10742025020E+04  0.18260995168E+04  0.21544784415E+04  0.25500000920E-02 0.  1.
       -2    1    3    3    0  502 -0.39144207001E+03 -0.10742025020E+04 -0.69018945317E+03  0.13354772146E+04  0.25500000920E-02 0. -1.
</event>
<event>
 5   0  0.2875829E-07  0.3285192E+04  0.7818609E-02  0.8166673E-01
        2   -1    0    0  501    0  0.00000000000E+00  0.00000000000E+00  0.20824213202E+04  0.20824213202E+04  0.25500000920E-02 0. -1.
       -2   -1    0    0    0  501  0.00000000000E+00  0.00000000000E+00 -0.12956656879E+04  0.12956656879E+04  0.25500000920E-02 0.  1.
    10030    2    1    2    0    0  0.00000000000E+00  0.00000000000E+00  0.78675563234E+03  0.33780870081E+04  0.32851921419E+04 0.  0.
        3    1    3    3  502    0  0.44942757490E+03  0.14027016205E+04  0.11409604425E+04  0.18631553136E+04  0.10100000352E+00 0. -1.
       -3    1    3    3    0  502 -0.44942757490E+03 -0.14027016205E+04 -0.35420481012E+03  0.15149316945E+04  0.10100000352E+00 0.  1.
</event>
<event>
 5   0  0.9454010E-08  0.3299948E+04  0.7818609E-02  0.8162909E-01
        1   -1    0    0  501    0  0.00000000000E+00  0.00000000000E+00  0.19593339865E+04  0.19593339865E+04  0.50400001928E-02 0.  1.
       -1   -1    0    0    0  501  0.00000000000E+00  0.00000000000E+00 -0.13894588362E+04  0.13894588362E+04  0.50400001928E-02 0. -1.
    10030    2    1    2    0    0  0.00000000000E+00  0.00000000000E+00  0.56987515033E+03  0.33487928226E+04  0.32999478302E+04 0.  0.
        2    1    3    3  502    0  0.82333585663E+03  0.11458579370E+04  0.11528995773E+04  0.18221003759E+04  0.25500000920E-02 0.  1.
       -2    1    3    3    0  502 -0.82333585663E+03 -0.11458579370E+04 -0.58302442694E+03  0.15266924468E+04  0.25500000920E-02 0. -1.
</event>
<event>
 5   0  0.2824402E-07  0.3294116E+04  0.7818609E-02  0.8164394E-01
       -2   -1    0    0    0  501  0.00000000000E+00  0.00000000000E+00  0.17133403859E+04  0.17133403859E+04  0.25500000920E-02 0.  1.
        2   -1    0    0  501    0  0.00000000000E+00  0.00000000000E+00 -0.15833402907E+04  0.15833402907E+04  0.25500000920E-02 0. -1.
    10030    2    1    2    0    0  0.00000000000E+00  0.00000000000E+00  0.13000009522E+03  0.32966806766E+04  0.32941164914E+04 0.  0.
        1    1    3    3  502    0 -0.80427053691E+03  0.11390904684E+04 -0.81227952008E+03  0.16137460180E+04  0.50400001928E-02 0. -1.
       -1    1    3    3    0  502  0.80427053691E+03 -0.11390904684E+04  0.94227961530E+03  0.16829346586E+04  0.50400001928E-02 0.  1.
</event>
<event>
 5   0  0.9283910E-08  0.3300351E+04  0.7818609E-02  0.8162806E-01
       -1   -1    0    0    0  501  0.00000000000E+00  0.00000000000E+00  0.26812875071E+04  0.26812875071E+04  0.50400001928E-02 0.  1.
        1   -1    0    0  501    0  0.00000000000E+00  0.00000000000E+00 -0.10155861927E+04  0.10155861927E+04  0.50400001928E-02 0. -1.
    10030    2    1    2    0    0  0.00000000000E+00  0.00000000000E+00  0.16657013144E+04  0.36968736998E+04  0.33003506304E+04 0.  0.
        3    1    3    3  502    0  0.15516532972E+04 -0.52044879570E+03  0.59633364926E+03  0.17418693220E+04  0.10100000352E+00 0. -1.
       -3    1    3    3    0  502 -0.15516532972E+04  0.52044879570E+03  0.10693676651E+04  0.19550043777E+04  0.10100000352E+00 0.  1.
</event>
<event>
 5   0  0.9283910E-08  0.3283269E+04  0.7818609E-02  0.8167166E-01
        1   -1    0    0  501    0  0.00000000000E+00  0.00000000000E+00  0.25397370075E+04  0.25397370075E+04  0.50400001928E-02 0. -1.
       -1   -1    0    0    0  501  0.00000000000E+00  0.00000000000E+00 -0.10611194982E+04  0.10611194983E+04  0.50400001928E-02 0.  1.
    10030    2    1    2    0    0  0.00000000000E+00  0.00000000000E+00  0.14786175093E+04  0.36008565058E+04  0.32832693823E+04 0.  0.
        3    1    3    3  502    0 -0.34668171518E+03 -0.89861067597E+03 -0.71867060706E+03  0.12017390774E+04  0.10100000352E+00 0.  1.
       -3    1    3    3    0  502  0.34668171518E+03  0.89861067597E+03  0.21972881163E+04  0.23991174283E+04  0.10100000352E+00 0. -1.
</event>
<event>
 5   0  0.8805125E-08  0.3304838E+04  0.7818609E-02  0.8161666E-01
       -1   -1    0    0    0  501  0.00000000000E+00  0.00000000000E+00  0.15275464193E+04  0.15275464193E+04  0.50400001928E-02 0.  1.
        1   -1    0    0  501    0  0.00000000000E+00  0.00000000000E+00 -0.17874991916E+04  0.17874991916E+04  0.50400001928E-02 0. -1.
    10030    2    1    2    0    0  0.00000000000E+00  0.00000000000E+00 -0.25995277223E+03  0.33150456109E+04  0.33048376599E+04 0.  0.
        4    1    3    3  502    0  0.21330647232E+03 -0.15707717224E+04  0.33800825970E+03  0.16208252995E+04  0.12699999809E+01 0. -1.
       -4    1    3    3    0  502 -0.21330647232E+03  0.15707717224E+04 -0.59796103193E+03  0.16942203114E+04  0.12699999809E+01 0.  1.
</event>
<event>
 5   0  0.2713815E-07  0.3311508E+04  0.7818609E-02  0.8159973E-01
       -2   -1    0    0    0  501  0.00000000000E+00  0.00000000000E+00  0.87836679454E+03  0.87836679455E+03  0.25500000920E-02 0.  1.
        2   -1    0    0  501    0  0.00000000000E+00  0.00000000000E+00 -0.31211568256E+04  0.31211568256E+04  0.25500000920E-02 0. -1.
    10030    2    1    2    0    0  0.00000000000E+00  0.00000000000E+00 -0.22427900311E+04  0.39995236202E+04  0.33115075215E+04 0.  0.
        4    1    3    3  502    0  0.75175613558E+03  0.14312258856E+04 -0.15534544859E+04  0.22420453331E+04  0.12699999809E+01 0. -1.
       -4    1    3    3    0  502 -0.75175613558E+03 -0.14312258856E+04 -0.68933554514E+03  0.17574782871E+04  0.12699999809E+01 0.  1.
</event>
<event>
 5   0  0.9283910E-08  0.3299616E+04  0.7818609E-02  0.8162993E-01
        1   -1    0    0  501    0  0.00000000000E+00  0.00000000000E+00  0.18331266713E+04  0.18331266713E+04  0.50400001928E-02 0.  1.
       -1   -1    0    0    0  501  0.00000000000E+00  0.00000000000E+00 -0.14848218567E+04  0.14848218567E+04  0.50400001928E-02 0. -1.
    10030    2    1    2    0    0  0.00000000000E+00  0.00000000000E+00  0.34830481463E+03  0.33179485280E+04  0.32996160671E+04 0.  0.
        3    1    3    3  502    0 -0.22944140582E+03  0.66829536656E+03  0.16732756156E+04  0.18163461541E+04  0.10100000352E+00 0.  1.
       -3    1    3    3    0  502  0.22944140582E+03 -0.66829536656E+03 -0.13249708010E+04  0.15016023739E+04  0.10100000352E+00 0. -1.
</event>
<event>
 5   0  0.2703956E-07  0.3298963E+04  0.7818609E-02  0.8163159E-01
       -2   -1    0    0    0  501  0.00000000000E+00  0.00000000000E+00  0.98770791080E+03  0.98770791080E+03  0.25500000920E-02 0.  1.
        2   -1    0    0  501    0  0.00000000000E+00  0.00000000000E+00 -0.27546488521E+04  0.27546488521E+04  0.25500000920E-02 0. -1.
    10030    2    1    2    0    0  0.00000000000E+00  0.00000000000E+00 -0.17669409413E+04  0.37423567629E+04  0.32989625416E+04 0.  0.
        5    1    3    3  502    0  0.67729281201E+03  0.14791769346E+04 -0.11922210508E+04  0.20169539115E+04  0.46999998093E+01 0. -1.
       -5    1    3    3    0  502 -0.67729281201E+03 -0.14791769346E+04 -0.57471989050E+03  0.17254028514E+04  0.46999998093E+01 0.  1.
</event>
<event>
 5   0  0.9283910E-08  0.3300169E+04  0.7818609E-02  0.8162852E-01
        1   -1    0    0  501    0  0.00000000000E+00  0.00000000000E+00  0.24676815813E+04  0.24676815813E+04  0.50400001928E-02 0. -1.
       -1   -1    0    0    0  501  0.00000000000E+00  0.00000000000E+00 -0.11033753952E+04  0.11033753952E+04  0.50400001928E-02 0.  1.
    10030    2    1    2    0    0  0.00000000000E+00  0.00000000000E+00  0.13643061861E+04  0.35710569765E+04  0.33001691714E+04 0.  0.
        3    1    3    3  502    0 -0.15884378064E+04  0.25362268106E+03  0.10802067077E+04  0.19376030736E+04  0.10100000352E+00 0.  1.
       -3    1    3    3    0  502  0.15884378064E+04 -0.25362268106E+03  0.28409947843E+03  0.16334539029E+04  0.10100000352E+00 0. -1.
</event>
<event>
 5   0  0.2824402E-07  0.3301601E+04  0.7818609E-02  0.8162488E-01
       -2   -1    0    0    0  501  0.00000000000E+00  0.00000000000E+00  0.10287058654E+04  0.10287058655E+04  0.25500000920E-02 0. -1.
        2   -1    0    0  501    0  0.00000000000E+00  0.00000000000E+00 -0.26490971227E+04  0.26490971227E+04  0.25500000920E-02 0.  1.
    10030    2    1    2    0    0  0.00000000000E+00  0.00000000000E+00 -0.16203912572E+04  0.36778029881E+04  0.33016006713E+04 0.  0.
        1    1    3    3  502    0  0.12400211632E+04 -0.10896690080E+04 -0.79847450539E+03  0.18337373225E+04  0.50400001928E-02 0.  1.
       -1    1    3    3    0  502 -0.12400211632E+04  0.10896690080E+04 -0.82191675184E+03  0.18440656656E+04  0.50400001928E-02 0. -1.
</event>
<event>
 5   0  0.9283910E-08  0.3276360E+04  0.7818609E-02  0.8168937E-01
        1   -1    0    0  501    0  0.00000000000E+00  0.00000000000E+00  0.20310325611E+04  0.20310325611E+04  0.50400001928E-02 0.  1.
       -1   -1    0    0    0  501  0.00000000000E+00  0.00000000000E+00 -0.13213147607E+04  0.13213147607E+04  0.50400001928E-02 0. -1.
    10030    2    1    2    0    0  0.00000000000E+00  0.00000000000E+00  0.70971780044E+03  0.33523473218E+04  0.32763597498E+04 0.  0.
        3    1    3    3  502    0  0.67934459444E+03  0.11884053324E+04 -0.56591047253E+03  0.14812396785E+04  0.10100000352E+00 0. -1.
       -3    1    3    3    0  502 -0.67934459444E+03 -0.11884053324E+04  0.12756282730E+04  0.18711076433E+04  0.10100000352E+00 0.  1.
</event>
<event>
 5   0  0.2703956E-07  0.3287425E+04  0.7818609E-02  0.8166103E-01
       -2   -1    0    0    0  501  0.00000000000E+00  0.00000000000E+00  0.13654700234E+04  0.13654700234E+04  0.25500000920E-02 0. -1.
        2   -1    0    0  501    0  0.00000000000E+00  0.00000000000E+00 -0.19786520200E+04  0.19786520200E+04  0.25500000920E-02 0.  1.
    10030    2    1    2    0    0  0.00000000000E+00  0.00000000000E+00 -0.61318199657E+03  0.33441220434E+04  0.32874245360E+04 0.  0.
        5    1    3    3  502    0  0.12985204511E+04  0.49001039526E+03 -0.12024050985E+04  0.18363185073E+04  0.46999998093E+01 0.  1.
       -5    1    3    3    0  502 -0.12985204511E+04 -0.49001039526E+03  0.58922310191E+03  0.15078035360E+04  0.46999998093E+01 0. -1.
</event>
<event>
 5   0  0.2875829E-07  0.3302254E+04  0.7818609E-02  0.8162322E-01
        2   -1    0    0  501    0  0.00000000000E+00  0.00000000000E+00  0.13541273046E+04  0.13541273046E+04  0.25500000920E-02 0.  1.
       -2   -1    0    0    0  501  0.00000000000E+00  0.00000000000E+00 -0.20132674401E+04  0.20132674401E+04  0.25500000920E-02 0. -1.
    10030    2    1    2    0    0  0.00000000000E+00  0.00000000000E+00 -0.65914013551E+03  0.33673947448E+04  0.33022540255E+04 0.  0.
        3    1    3    3  502    0 -0.11022659831E+03  0.13113675639E+04  0.68728947185E+03  0.14846553873E+04  0.10100000352E+00 0.  1.
       -3    1    3    3    0  502  0.11022659831E+03 -0.13113675639E+04 -0.13464296074E+04  0.18827393575E+04  0.10100000352E+00 0. -1.
</event>
<event>
 5   0  0.2875829E-07  0.3298325E+04  0.7818609E-02  0.8163322E-01
       -2   -1    0    0    0  501  0.00000000000E+00  0.00000000000E+00  0.30141413801E+04  0.30141413801E+04  0.25500000920E-02 0. -1.
        2   -1    0    0  501    0  0.00000000000E+00  0.00000000000E+00 -0.90232562031E+03  0.90232562031E+03  0.25500000920E-02 0.  1.
    10030    2    1    2    0    0  0.00000000000E+00  0.00000000000E+00  0.21118157598E+04  0.39164670004E+04  0.32983250237E+04 0.  0.
        3    1    3    3  502    0  0.13733991812E+04 -0.88927430443E+03  0.81053327738E+03  0.18259239588E+04  0.10100000352E+00 0.  1.
       -3    1    3    3    0  502 -0.13733991812E+04  0.88927430443E+03  0.13012824824E+04  0.20905430416E+04  0.10100000352E+00 0. -1.
</event>
<event>
 5   0  0.9181760E-08  0.3313365E+04  0.7818609E-02  0.8159503E-01
        1   -1    0    0  501    0  0.00000000000E+00  0.00000000000E+00  0.19053695401E+04  0.19053695401E+04  0.50400001928E-02 0. -1.
       -1   -1    0    0    0  501  0.00000000000E+00  0.00000000000E+00 -0.14404541913E+04  0.14404541913E+04  0.50400001928E-02 0.  1.
    10030    2    1    2    0    0  0.00000000000E+00  0.00000000000E+00  0.46491534879E+03  0.33458237313E+04  0.33133653827E+04 0.  0.
        1    1    3    3  502    0  0.88871669897E+03 -0.85235024767E+03  0.13515921630E+04  0.18284199985E+04  0.50400001928E-02 0. -1.
       -1    1    3    3    0  502 -0.88871669897E+03  0.85235024767E+03 -0.88667681417E+03  0.15174037329E+04  0.50400001928E-02 0.  1.
</event>
<event>
 5   0  0.8805125E-08  0.3306271E+04  0.7818609E-02  0.8161302E-01
        1   -1    0    0  501    0  0.00000000000E+00  0.00000000000E+00  0.14962476267E+04  0.14962476267E+04  0.50400001928E-02 0.  1.
       -1   -1    0    0    0  501  0.00000000000E+00  0.00000000000E+00 -0.18264735105E+04  0.18264735105E+04  0.50400001928E-02 0. -1.
    10030    2    1    2    0    0  0.00000000000E+00  0.00000000000E+00 -0.33022588375E+03  0.33227211372E+04  0.33062708028E+04 0.  0.
        4    1    3    3  502    0 -0.14713054895E+04  0.53662170362E+03 -0.69704063893E+03  0.17142257615E+04  0.12699999809E+01 0. -1.
       -4    1    3    3    0  502  0.14713054895E+04 -0.53662170362E+03  0.36681475518E+03  0.16084953757E+04  0.12699999809E+01 0.  1.
</event>
<event>
 5   0  0.9181760E-08  0.3300732E+04  0.7818609E-02  0.8162709E-01
        1   -1    0    0  501    0  0.00000000000E+00  0.00000000000E+00  0.14520009470E+04  0.14520009470E+04  0.50400001928E-02 0. -1.
       -1   -1    0    0    0  501  0.00000000000E+00  0.00000000000E+00 -0.18758309935E+04  0.18758309935E+04  0.50400001928E-02 0.  1.
    10030    2    1    2    0    0  0.00000000000E+00  0.00000000000E+00 -0.42383004655E+03  0.33278319405E+04  0.33007322696E+04 0.  0.
        1    1    3    3  502    0  0.24509164939E+03  0.31221285426E+03  0.14031614369E+04  0.14582211084E+04  0.50400001928E-02 0. -1.
       -1    1    3    3    0  502 -0.24509164939E+03 -0.31221285426E+03 -0.18269914834E+04  0.18696108321E+04  0.50400001928E-02 0.  1.
</event>
<event>
 5   0  0.8805125E-08  0.3322180E+04  0.7818609E-02  0.8157275E-01
        3   -1    0    0  501    0  0.00000000000E+00  0.00000000000E+00  0.13549036345E+04  0.13549036383E+04  0.10100000352E+00 0.  1.
       -3   -1    0    0    0  501  0.00000000000E+00  0.00000000000E+00 -0.20364695858E+04  0.20364695883E+04  0.10100000352E+00 0. -1.
    10030    2    1    2    0    0  0.00000000000E+00  0.00000000000E+00 -0.68156595132E+03  0.33913732266E+04  0.33221800397E+04 0.  0.
        5    1    3    3  502    0 -0.50258654090E+03 -0.13867024188E+04 -0.11206720034E+04  0.18524212961E+04  0.46999998093E+01 0. -1.
       -5    1    3    3    0  502  0.50258654090E+03  0.13867024188E+04  0.43910605204E+03  0.15389519304E+04  0.46999998093E+01 0.  1.
</event>
<event>
 5   0  0.9810351E-08  0.3304687E+04  0.7818609E-02  0.8161704E-01
        1   -1    0    0  501    0  0.00000000000E+00  0.00000000000E+00  0.21491552680E+04  0.21491552680E+04  0.50400001928E-02 0. -1.
       -1   -1    0    0    0  501  0.00000000000E+00  0.00000000000E+00 -0.12703778327E+04  0.12703778327E+04  0.50400001928E-02 0.  1.
    10030    2    1    2    0    0  0.00000000000E+00  0.00000000000E+00  0.87877743530E+03  0.34195331006E+04  0.33046871025E+04 0.  0.
        5    1    3    3  502    0  0.11974882248E+04 -0.43429940483E+03 -0.64962278940E+03  0.14299041507E+04  0.46999998093E+01 0.  1.
       -5    1    3    3    0  502 -0.11974882248E+04  0.43429940483E+03  0.15284002247E+04  0.19896289499E+04  0.46999998093E+01 0. -1.
</event>
<event>
 5   0  0.8805125E-08  0.3301637E+04  0.7818609E-02  0.8162479E-01
       -1   -1    0    0    0  501  0.00000000000E+00  0.00000000000E+00  0.26056238717E+04  0.26056238717E+04  0.50400001928E-02 0. -1.
        1   -1    0    0  501    0  0.00000000000E+00  0.00000000000E+00 -0.10458920241E+04  0.10458920241E+04  0.50400001928E-02 0.  1.
    10030    2    1    2    0    0  0.00000000000E+00  0.00000000000E+00  0.15597318476E+04  0.36515158958E+04  0.33016367003E+04 0.  0.
        4    1    3    3  502    0 -0.90469718157E+03 -0.66755870263E+03  0.21167141347E+04  0.23967878405E+04  0.12699999809E+01 0. -1.
       -4    1    3    3    0  502  0.90469718157E+03  0.66755870263E+03 -0.55698228700E+03  0.12547280553E+04  0.12699999809E+01 0.  1.
</event>
<event>
 5   0  0.9454010E-08  0.3206598E+04  0.7818609E-02  0.8187077E-01
        1   -1    0    0  501    0  0.00000000000E+00  0.00000000000E+00  0.16487079854E+04  0.16487079855E+04  0.50400001928E-02 0. -1.
       -1   -1    0    0    0  501  0.00000000000E+00  0.00000000000E+00 -0.15591403711E+04  0.15591403711E+04  0.50400001928E-02 0.  1.
    10030    2    1    2    0    0  0.00000000000E+00  0.00000000000E+00  0.89567614309E+02  0.32078483566E+04  0.32065976862E+04 0.  0.
        2    1    3    3  502    0 -0.39524181448E+03 -0.13403760709E+04  0.83105669113E+03  0.16258780173E+04  0.25500000920E-02 0. -1.
       -2    1    3    3    0  502  0.39524181448E+03  0.13403760709E+04 -0.74148907682E+03  0.15819703393E+04  0.25500000920E-02 0.  1.
</event>
<event>
 5   0  0.2727168E-07  0.3300621E+04  0.7818609E-02  0.8162737E-01
       -2   -1    0    0    0  501  0.00000000000E+00  0.00000000000E+00  0.15097671645E+04  0.15097671645E+04  0.25500000920E-02 0. -1.
        2   -1    0    0  501    0  0.00000000000E+00  0.00000000000E+00 -0.18039372230E+04  0.18039372230E+04  0.25500000920E-02 0.  1.
    10030    2    1    2    0    0  0.00000000000E+00  0.00000000000E+00 -0.29417005853E+03  0.33137043875E+04  0.33006212664E+04 0.  0.
        2    1    3    3  502    0  0.52537656353E+03 -0.10634144542E+04  0.10049188952E+04  0.15545844528E+04  0.25500000920E-02 0. -1.
       -2    1    3    3    0  502 -0.52537656353E+03  0.10634144542E+04 -0.12990889537E+04  0.17591199347E+04  0.25500000920E-02 0.  1.
</event>
<event>
 5   0  0.9810351E-08  0.3302193E+04  0.7818609E-02  0.8162338E-01
       -1   -1    0    0    0  501  0.00000000000E+00  0.00000000000E+00  0.11634536025E+04  0.11634536025E+04  0.50400001928E-02 0. -1.
        1   -1    0    0  501    0  0.00000000000E+00  0.00000000000E+00 -0.23431276169E+04  0.23431276169E+04  0.50400001928E-02 0.  1.
    10030    2    1    2    0    0  0.00000000000E+00  0.00000000000E+00 -0.11796740144E+04  0.35065812193E+04  0.33021933722E+04 0.  0.
        5    1    3    3  502    0  0.10672741495E+04 -0.11134414435E+04 -0.12156094324E+04  0.19638111774E+04  0.46999998093E+01 0.  1.
       -5    1    3    3    0  502 -0.10672741495E+04  0.11134414435E+04  0.35935418052E+02  0.15427700420E+04  0.46999998093E+01 0. -1.
</event>
<event>
 5   0  0.9283910E-08  0.3305548E+04  0.7818609E-02  0.8161485E-01
        1   -1    0    0  501    0  0.00000000000E+00  0.00000000000E+00  0.17802096412E+04  0.17802096412E+04  0.50400001928E-02 0. -1.
       -1   -1    0    0    0  501  0.00000000000E+00  0.00000000000E+00 -0.15344606288E+04  0.15344606288E+04  0.50400001928E-02 0.  1.
    10030    2    1    2    0    0  0.00000000000E+00  0.00000000000E+00  0.24574901242E+03  0.33146702700E+04  0.33055478248E+04 0.  0.
        3    1    3    3  502    0 -0.15729220707E+04 -0.84277679400E+02  0.62473048751E+03  0.16945426403E+04  0.10100000352E+00 0. -1.
       -3    1    3    3    0  502  0.15729220707E+04  0.84277679400E+02 -0.37898147508E+03  0.16201276297E+04  0.10100000352E+00 0.  1.
</event>
<event>
 5   0  0.2727168E-07  0.3274585E+04  0.7818609E-02  0.8169392E-01
        2   -1    0    0  501    0  0.00000000000E+00  0.00000000000E+00  0.13414389725E+04  0.13414389725E+04  0.25500000920E-02 0.  1.
       -2   -1    0    0    0  501  0.00000000000E+00  0.00000000000E+00 -0.19983967662E+04  0.19983967662E+04  0.25500000920E-02 0. -1.
    10030    2    1    2    0    0  0.00000000000E+00  0.00000000000E+00 -0.65695779379E+03  0.33398357387E+04  0.32745853506E+04 0.  0.
        2    1    3    3  502    0  0.12413697311E+03 -0.95978464145E+03  0.10184923143E+04  0.14049637505E+04  0.25500000920E-02 0.  1.
       -2    1    3    3    0  502 -0.12413697311E+03  0.95978464145E+03 -0.16754501081E+04  0.19348719882E+04  0.25500000920E-02 0. -1.
</event>
<event>
 5   0  0.9454010E-08  0.3300889E+04  0.7818609E-02  0.8162669E-01
        1   -1    0    0  501    0  0.00000000000E+00  0.00000000000E+00  0.23696051699E+04  0.23696051699E+04  0.50400001928E-02 0.  1.
       -1   -1    0    0    0  501  0.00000000000E+00  0.00000000000E+00 -0.11495448130E+04  0.11495448130E+04  0.50400001928E-02 0. -1.
    10030    2    1    2    0    0  0.00000000000E+00  0.00000000000E+00  0.12200603569E+04  0.35191499829E+04  0.33008891723E+04 0.  0.
        2    1    3    3  502    0 -0.91964792133E+03 -0.11702713840E+04  0.13704074568E+04  0.20231915404E+04  0.25500000920E-02 0.  1.
       -2    1    3    3    0  502  0.91964792133E+03  0.11702713840E+04 -0.15034709988E+03  0.14959584425E+04  0.25500000920E-02 0. -1.
</event>
<event>
 5   0  0.9810351E-08  0.3300969E+04  0.7818609E-02  0.8162649E-01
        1   -1    0    0  501    0  0.00000000000E+00  0.00000000000E+00  0.17706727649E+04  0.17706727649E+04  0.50400001928E-02 0.  1.
       -1   -1    0    0    0  501  0.00000000000E+00  0.00000000000E+00 -0.15384541540E+04  0.15384541540E+04  0.50400001928E-02 0. -1.
    10030    2    1    2    0    0  0.00000000000E+00  0.00000000000E+00  0.23221861089E+03  0.33091269189E+04  0.33009688702E+04 0.  0.
        5    1    3    3  502    0  0.69820707145E+03 -0.14938446660E+04  0.45140419746E+02  0.16495832044E+04  0.46999998093E+01 0. -1.
       -5    1    3    3    0  502 -0.69820707145E+03  0.14938446660E+04  0.18707819115E+03  0.16595437145E+04  0.46999998093E+01 0.  1.
</event>
<event>
 5   0  0.2824402E-07  0.3300929E+04  0.7818609E-02  0.8162659E-01
       -2   -1    0    0    0  501  0.00000000000E+00  0.00000000000E+00  0.13894601133E+04  0.13894601133E+04  0.25500000920E-02 0.  1.
        2   -1    0    0  501    0  0.00000000000E+00  0.00000000000E+00 -0.19604975792E+04  0.19604975792E+04  0.25500000920E-02 0. -1.
    10030    2    1    2    0    0  0.00000000000E+00  0.00000000000E+00 -0.57103746587E+03  0.33499576925E+04  0.33009290744E+04 0.  0.
        1    1    3    3  502    0  0.47858704373E+03  0.93664993844E+03 -0.15762882550E+04  0.18950048360E+04  0.50400001928E-02 0. -1.
       -1    1    3    3    0  502 -0.47858704373E+03 -0.93664993844E+03  0.10052507891E+04  0.14549528565E+04  0.50400001928E-02 0.  1.
</event>
<event>
 5   0  0.2727168E-07  0.3294972E+04  0.7818609E-02  0.8164176E-01
       -2   -1    0    0    0  501  0.00000000000E+00  0.00000000000E+00  0.10676770701E+04  0.10676770701E+04  0.25500000920E-02 0.  1.
        2   -1    0    0  501    0  0.00000000000E+00  0.00000000000E+00 -0.25421637819E+04  0.25421637819E+04  0.25500000920E-02 0. -1.
    10030    2    1    2    0    0  0.00000000000E+00  0.00000000000E+00 -0.14744867118E+04  0.36098408520E+04  0.32949719139E+04 0.  0.
        2    1    3    3  502    0  0.59236505357E+03  0.91358701343E+03 -0.20917887047E+04  0.23582021908E+04  0.25500000920E-02 0. -1.
       -2    1    3    3    0  502 -0.59236505357E+03 -0.91358701343E+03  0.61730199287E+03  0.12516386612E+04  0.25500000920E-02 0.  1.
</event>
<event>
 5   0  0.2713815E-07  0.3297444E+04  0.7818609E-02  0.8163546E-01
        2   -1    0    0  501    0  0.00000000000E+00  0.00000000000E+00  0.14437513440E+04  0.14437513440E+04  0.25500000920E-02 0.  1.
       -2   -1    0    0    0  501  0.00000000000E+00  0.00000000000E+00 -0.18827928915E+04  0.18827928915E+04  0.25500000920E-02 0. -1.
    10030    2    1    2    0    0  0.00000000000E+00  0.00000000000E+00 -0.43904154747E+03  0.33265442355E+04  0.32974443241E+04 0.  0.
        4    1    3    3  502    0 -0.42504338781E+03  0.94955539765E+03 -0.15098571609E+04  0.18335723585E+04  0.12699999809E+01 0. -1.
       -4    1    3    3    0  502  0.42504338781E+03 -0.94955539765E+03  0.10708156134E+04  0.14929718770E+04  0.12699999809E+01 0.  1.
</event>
<event>
 5   0  0.2703956E-07  0.3324080E+04  0.7818609E-02  0.8156795E-01
        2   -1    0    0  501    0  0.00000000000E+00  0.00000000000E+00  0.25147931136E+04  0.25147931136E+04  0.25500000920E-02 0. -1.
       -2   -1    0    0    0  501  0.00000000000E+00  0.00000000000E+00 -0.10984507825E+04  0.10984507825E+04  0.25500000920E-02 0.  1.
    10030    2    1    2    0    0  0.00000000000E+00  0.00000000000E+00  0.14163423312E+04  0.36132438961E+04  0.33240797003E+04 0.  0.
        5    1    3    3  502    0  0.10944595214E+04 -0.12039062640E+04  0.33935849171E+03  0.16620524096E+04  0.46999998093E+01 0. -1.
       -5    1    3    3    0  502 -0.10944595214E+04  0.12039062640E+04  0.10769838394E+04  0.19511914865E+04  0.46999998093E+01 0.  1.
</event>
<event>
 5   0  0.2713815E-07  0.3301987E+04  0.7818609E-02  0.8162390E-01
       -2   -1    0    0    0  501  0.00000000000E+00  0.00000000000E+00  0.15263364935E+04  0.15263364936E+04  0.25500000920E-02 0. -1.
        2   -1    0    0  501    0  0.00000000000E+00  0.00000000000E+00 -0.17858310463E+04  0.17858310463E+04  0.25500000920E-02 0.  1.
    10030    2    1    2    0    0  0.00000000000E+00  0.00000000000E+00 -0.25949455277E+03  0.33121675399E+04  0.33019867337E+04 0.  0.
        4    1    3    3  502    0 -0.89976295748E+03  0.34662221131E+03  0.12145553530E+04  0.15507632493E+04  0.12699999809E+01 0. -1.
       -4    1    3    3    0  502  0.89976295748E+03 -0.34662221131E+03 -0.14740499058E+04  0.17614042905E+04  0.12699999809E+01 0.  1.
</event>
<event>
 5   0  0.2824402E-07  0.3288013E+04  0.7818609E-02  0.8165952E-01
        2   -1    0    0  501    0  0.00000000000E+00  0.00000000000E+00  0.11469407272E+04  0.11469407272E+04  0.25500000920E-02 0.  1.
       -2   -1    0    0    0  501  0.00000000000E+00  0.00000000000E+00 -0.23564927260E+04  0.23564927260E+04  0.25500000920E-02 0. -1.
    10030    2    1    2    0    0  0.00000000000E+00  0.00000000000E+00 -0.12095519988E+04  0.35034334532E+04  0.32880130661E+04 0.  0.
        1    1    3    3  502    0  0.15587106355E+03  0.22647862591E+03  0.11222717838E+04  0.11554576207E+04  0.50400001928E-02 0.  1.
       -1    1    3    3    0  502 -0.15587106355E+03 -0.22647862591E+03 -0.23318237827E+04  0.23479758325E+04  0.50400001928E-02 0. -1.
</event>
<event>
 5   0  0.8805125E-08  0.3300722E+04  0.7818609E-02  0.8162712E-01
       -1   -1    0    0    0  501  0.00000000000E+00  0.00000000000E+00  0.15788739745E+04  0.15788739745E+04  0.50400001928E-02 0.  1.
        1   -1    0    0  501    0  0.00000000000E+00  0.00000000000E+00 -0.17250845920E+04  0.17250845920E+04  0.50400001928E-02 0. -1.
    10030    2    1    2    0    0  0.00000000000E+00  0.00000000000E+00 -0.14621061750E+03  0.33039585666E+04  0.33007218400E+04 0.  0.
        4    1    3    3  502    0  0.75658175373E+03  0.14609436801E+04 -0.20329886319E+03  0.16577407599E+04  0.12699999809E+01 0. -1.
       -4    1    3    3    0  502 -0.75658175373E+03 -0.14609436801E+04  0.57088245687E+02  0.16462178067E+04  0.12699999809E+01 0.  1.
</event>
<event>
 5   0  0.2727168E-07  0.3299718E+04  0.7818609E-02  0.8162967E-01
       -2   -1    0    0    0  501  0.00000000000E+00  0.00000000000E+00  0.16706910938E+04  0.16706910938E+04  0.25500000920E-02 0. -1.
        2   -1    0    0  501    0  0.00000000000E+00  0.00000000000E+00 -0.16292863894E+04  0.16292863894E+04  0.25500000920E-02 0.  1.
    10030    2    1    2    0    0  0.00000000000E+00  0.00000000000E+00  0.41404704362E+02  0.32999774832E+04  0.32997177213E+04 0.  0.
        2    1    3    3  502    0  0.41948244734E+03 -0.10896337895E+04  0.11864557054E+04  0.16646154090E+04  0.25500000920E-02 0. -1.
       -2    1    3    3    0  502 -0.41948244734E+03  0.10896337895E+04 -0.11450510011E+04  0.16353620742E+04  0.25500000920E-02 0.  1.
</event>
<event>
 5   0  0.2875829E-07  0.3299720E+04  0.7818609E-02  0.8162967E-01
        2   -1    0    0  501    0  0.00000000000E+00  0.00000000000E+00  0.15687302765E+04  0.15687302765E+04  0.25500000920E-02 0.  1.
       -2   -1    0    0    0  501  0.00000000000E+00  0.00000000000E+00 -0.17351855829E+04  0.17351855829E+04  0.25500000920E-02 0. -1.
    10030    2    1    2    0    0  0.00000000000E+00  0.00000000000E+00 -0.16645530640E+03  0.33039158593E+04  0.32997200846E+04 0.  0.
        3    1    3    3  502    0 -0.15823224126E+04 -0.45027512066E+03  0.41615481443E+02  0.16456681804E+04  0.10100000352E+00 0.  1.
       -3    1    3    3    0  502  0.15823224126E+04  0.45027512066E+03 -0.20807078785E+03  0.16582476789E+04  0.10100000352E+00 0. -1.
</event>
<event>
 5   0  0.9454010E-08  0.3304748E+04  0.7818609E-02  0.8161688E-01
        1   -1    0    0  501    0  0.00000000000E+00  0.00000000000E+00  0.17802839703E+04  0.17802839704E+04  0.50400001928E-02 0.  1.
       -1   -1    0    0    0  501  0.00000000000E+00  0.00000000000E+00 -0.15336542816E+04  0.15336542816E+04  0.50400001928E-02 0. -1.
    10030    2    1    2    0    0  0.00000000000E+00  0.00000000000E+00  0.24662968872E+03  0.33139382520E+04  0.33047481802E+04 0.  0.
        2    1    3    3  502    0  0.98549068517E+03 -0.66167690124E+03 -0.10293737700E+04  0.15711838118E+04  0.25500000920E-02 0. -1.
       -2    1    3    3    0  502 -0.98549068517E+03  0.66167690124E+03  0.12760034587E+04  0.17427544402E+04  0.25500000920E-02 0.  1.
</event>
<event>
 5   0  0.2824402E-07  0.3296590E+04  0.7818609E-02  0.8163764E-01
       -2   -1    0    0    0  501  0.00000000000E+00  0.00000000000E+00  0.13622965742E+04  0.13622965742E+04  0.25500000920E-02 0. -1.
        2   -1    0    0  501    0  0.00000000000E+00  0.00000000000E+00 -0.19943358960E+04  0.19943358960E+04  0.25500000920E-02 0.  1.
    10030    2    1    2    0    0  0.00000000000E+00  0.00000000000E+00 -0.63203932178E+03  0.33566324702E+04  0.32965903349E+04 0.  0.
        1    1    3    3  502    0 -0.15663684589E+04  0.33903061813E+03 -0.70829626961E+03  0.17521802175E+04  0.50400001928E-02 0.  1.
       -1    1    3    3    0  502  0.15663684589E+04 -0.33903061813E+03  0.76256947828E+02  0.16044522527E+04  0.50400001928E-02 0. -1.
</event>
<event>
 5   0  0.9181760E-08  0.3303782E+04  0.7818609E-02  0.8161934E-01
        1   -1    0    0  501    0  0.00000000000E+00  0.00000000000E+00  0.16818190944E+04  0.16818190944E+04  0.50400001928E-02 0.  1.
       -1   -1    0    0    0  501  0.00000000000E+00  0.00000000000E+00 -0.16224955985E+04  0.16224955985E+04  0.50400001928E-02 0. -1.
    10030    2    1    2    0    0  0.00000000000E+00  0.00000000000E+00  0.59323495981E+02  0.33043146929E+04  0.33037821224E+04 0.  0.
        1    1    3    3  502    0 -0.17073028536E+03 -0.15895558926E+04 -0.38622653279E+03  0.16446907614E+04  0.50400001928E-02 0. -1.
       -1    1    3    3    0  502  0.17073028536E+03  0.15895558926E+04  0.44555002877E+03  0.16596239315E+04  0.50400001928E-02 0.  1.
</event>
<event>
 5   0  0.2727168E-07  0.3304882E+04  0.7818609E-02  0.8161654E-01
       -2   -1    0    0    0  501  0.00000000000E+00  0.00000000000E+00  0.15999626493E+04  0.15999626493E+04  0.25500000920E-02 0.  1.
        2   -1    0    0  501    0  0.00000000000E+00  0.00000000000E+00 -0.17066407846E+04  0.17066407846E+04  0.25500000920E-02 0. -1.
    10030    2    1    2    0    0  0.00000000000E+00  0.00000000000E+00 -0.10667813531E+03  0.33066034338E+04  0.33048821528E+04 0.  0.
        2    1    3    3  502    0 -0.17707580951E+03 -0.20027373033E+03  0.15781837473E+04  0.16006652835E+04  0.25500000920E-02 0.  1.
       -2    1    3    3    0  502  0.17707580951E+03  0.20027373033E+03 -0.16848618826E+04  0.17059381504E+04  0.25500000920E-02 0. -1.
</event>
<event>
 5   0  0.9810351E-08  0.3300504E+04  0.7818609E-02  0.8162767E-01
        1   -1    0    0  501    0  0.00000000000E+00  0.00000000000E+00  0.15618920922E+04  0.15618920922E+04  0.50400001928E-02 0.  1.
       -1   -1    0    0    0  501  0.00000000000E+00  0.00000000000E+00 -0.17436102644E+04  0.17436102644E+04  0.50400001928E-02 0. -1.
    10030    2    1    2    0    0  0.00000000000E+00  0.00000000000E+00 -0.18171817226E+03  0.33055023566E+04  0.33005036488E+04 0.  0.
        5    1    3    3  502    0  0.40123106104E+03  0.10815918218E+04  0.10909627541E+04  0.15877811733E+04  0.46999998093E+01 0.  1.
       -5    1    3    3    0  502 -0.40123106104E+03 -0.10815918218E+04 -0.12726809264E+04  0.17177211833E+04  0.46999998093E+01 0. -1.
</event>
<event>
 5   0  0.2703956E-07  0.3303142E+04  0.7818609E-02  0.8162096E-01
        2   -1    0    0  501    0  0.00000000000E+00  0.00000000000E+00  0.15149176471E+04  0.15149176471E+04  0.25500000920E-02 0. -1.
       -2   -1    0    0    0  501  0.00000000000E+00  0.00000000000E+00 -0.18005512554E+04  0.18005512554E+04  0.25500000920E-02 0.  1.
    10030    2    1    2    0    0  0.00000000000E+00  0.00000000000E+00 -0.28563360824E+03  0.33154689025E+04  0.33031420625E+04 0.  0.
        5    1    3    3  502    0 -0.11339042200E+04  0.40449047307E+03 -0.12776613822E+04  0.17555033525E+04  0.46999998093E+01 0.  1.
       -5    1    3    3    0  502  0.11339042200E+04 -0.40449047307E+03  0.99202777398E+03  0.15599655500E+04  0.46999998093E+01 0. -1.
</event>
<event>
 5   0  0.8805125E-08  0.3310406E+04  0.7818609E-02  0.8160253E-01
        1   -1    0    0  501    0  0.00000000000E+00  0.00000000000E+00  0.15045976762E+04  0.15045976762E+04  0.50400001928E-02 0. -1.
       -1   -1    0    0    0  501  0.00000000000E+00  0.00000000000E+00 -0.18208832678E+04  0.18208832678E+04  0.50400001928E-02 0.  1.
    10030    2    1    2    0    0  0.00000000000E+00  0.00000000000E+00 -0.31628559159E+03  0.33254809440E+04  0.33104058563E+04 0.  0.
        4    1    3    3  502    0 -0.20811018402E+03 -0.10001205162E+04  0.11501489788E+04  0.15383091958E+04  0.12699999809E+01 0. -1.
       -4    1    3    3    0  502  0.20811018402E+03  0.10001205162E+04 -0.14664345704E+04  0.17871717482E+04  0.12699999809E+01 0.  1.
</event>
<event>
 5   0  0.2713815E-07  0.3307375E+04  0.7818609E-02  0.8161021E-01
       -2   -1    0    0    0  501  0.00000000000E+00  0.00000000000E+00  0.12894992323E+04  0.12894992323E+04  0.25500000920E-02 0.  1.
        2   -1    0    0  501    0  0.00000000000E+00  0.00000000000E+00 -0.21207319993E+04  0.21207319993E+04  0.25500000920E-02 0. -1.
    10030    2    1    2    0    0  0.00000000000E+00  0.00000000000E+00 -0.83123276700E+03  0.34102312316E+04  0.33073749622E+04 0.  0.
        4    1    3    3  502    0  0.46771405815E+03  0.13100687438E+04 -0.13376542704E+04  0.19298593508E+04  0.12699999809E+01 0. -1.
       -4    1    3    3    0  502 -0.46771405815E+03 -0.13100687438E+04  0.50642150343E+03  0.14803718809E+04  0.12699999809E+01 0.  1.
</event>
<event>
 5   0  0.9181760E-08  0.3298236E+04  0.7818609E-02  0.8163344E-01
       -1   -1    0    0    0  501  0.00000000000E+00  0.00000000000E+00  0.14389978196E+04  0.14389978196E+04  0.50400001928E-02 0.  1.
        1   -1    0    0  501    0  0.00000000000E+00  0.00000000000E+00 -0.18899201002E+04  0.18899201002E+04  0.50400001928E-02 0. -1.
    10030    2    1    2    0    0  0.00000000000E+00  0.00000000000E+00 -0.45092228059E+03  0.33289179198E+04  0.32982364399E+04 0.  0.
        1    1    3    3  502    0  0.16216817274E+04 -0.22180291985E+03 -0.22235796736E+02  0.16369308449E+04  0.50400001928E-02 0. -1.
       -1    1    3    3    0  502 -0.16216817274E+04  0.22180291985E+03 -0.42868648386E+03  0.16919870749E+04  0.50400001928E-02 0.  1.
</event>
<event>
 5   0  0.2824402E-07  0.3308152E+04  0.7818609E-02  0.8160824E-01
        2   -1    0    0  501    0  0.00000000000E+00  0.00000000000E+00  0.12188810172E+04  0.12188810172E+04  0.25500000920E-02 0.  1.
       -2   -1    0    0    0  501  0.00000000000E+00  0.00000000000E+00 -0.22446546632E+04  0.22446546632E+04  0.25500000920E-02 0. -1.
    10030    2    1    2    0    0  0.00000000000E+00  0.00000000000E+00 -0.10257736461E+04  0.34635356804E+04  0.33081517252E+04 0.  0.
        1    1    3    3  502    0 -0.10673481519E+04 -0.84461717153E+03 -0.14969031482E+04  0.20231977855E+04  0.50400001928E-02 0. -1.
       -1    1    3    3    0  502  0.10673481519E+04  0.84461717153E+03  0.47112950215E+03  0.14403378950E+04  0.50400001928E-02 0.  1.
</event>
<event>
 5   0  0.8805125E-08  0.3306997E+04  0.7818609E-02  0.8161117E-01
        1   -1    0    0  501    0  0.00000000000E+00  0.00000000000E+00  0.18454980389E+04  0.18454980389E+04  0.50400001928E-02 0.  1.
       -1   -1    0    0    0  501  0.00000000000E+00  0.00000000000E+00 -0.14814735706E+04  0.14814735707E+04  0.50400001928E-02 0. -1.
    10030    2    1    2    0    0  0.00000000000E+00  0.00000000000E+00  0.36402446820E+03  0.33269716095E+04  0.33069965644E+04 0.  0.
        4    1    3    3  502    0  0.26633084827E+03 -0.13124546387E+04  0.11577082397E+04  0.17702427180E+04  0.12699999809E+01 0.  1.
       -4    1    3    3    0  502 -0.26633084827E+03  0.13124546387E+04 -0.79368377154E+03  0.15567288915E+04  0.12699999809E+01 0. -1.
</event>
<event>
 5   0  0.2875829E-07  0.3317748E+04  0.7818609E-02  0.8158394E-01
        2   -1    0    0  501    0  0.00000000000E+00  0.00000000000E+00  0.21322070986E+04  0.21322070986E+04  0.25500000920E-02 0. -1.
       -2   -1    0    0    0  501  0.00000000000E+00  0.00000000000E+00 -0.12906169817E+04  0.12906169817E+04  0.25500000920E-02 0.  1.
    10030    2    1    2    0    0  0.00000000000E+00  0.00000000000E+00  0.84159011689E+03  0.34228240803E+04  0.33177478446E+04 0.  0.
        3    1    3    3  502    0 -0.13135531965E+04  0.97331859709E+03  0.13065589703E+03  0.16400737987E+04  0.10100000352E+00 0.  1.
       -3    1    3    3    0  502  0.13135531965E+04 -0.97331859709E+03  0.71093421986E+03  0.17827502816E+04  0.10100000352E+00 0. -1.
</event>
<event>
 5   0  0.9283910E-08  0.3303815E+04  0.7818609E-02  0.8161925E-01
       -1   -1    0    0    0  501  0.00000000000E+00  0.00000000000E+00  0.95074389294E+03  0.95074389296E+03  0.50400001928E-02 0.  1.
        1   -1    0    0  501    0  0.00000000000E+00  0.00000000000E+00 -0.28701716646E+04  0.28701716646E+04  0.50400001928E-02 0. -1.
    10030    2    1    2    0    0  0.00000000000E+00  0.00000000000E+00 -0.19194277716E+04  0.38209155575E+04  0.33038148748E+04 0.  0.
        3    1    3    3  502    0 -0.16030468555E+04 -0.88784026455E+02 -0.14093538762E+04  0.21363333501E+04  0.10100000352E+00 0. -1.
       -3    1    3    3    0  502  0.16030468555E+04  0.88784026455E+02 -0.51007389546E+03  0.16845822074E+04  0.10100000352E+00 0.  1.
</event>
<event>
 5   0  0.2824402E-07  0.3298186E+04  0.7818609E-02  0.8163357E-01
       -2   -1    0    0    0  501  0.00000000000E+00  0.00000000000E+00  0.10267969006E+04  0.10267969006E+04  0.25500000920E-02 0.  1.
        2   -1    0    0  501    0  0.00000000000E+00  0.00000000000E+00 -0.26485347001E+04  0.26485347001E+04  0.25500000920E-02 0. -1.
    10030    2    1    2    0    0  0.00000000000E+00  0.00000000000E+00 -0.16217377995E+04  0.36753316007E+04  0.32981856960E+04 0.  0.
        1    1    3    3  502    0  0.11398977144E+04  0.74767845097E+03 -0.18449452270E+04  0.22939513413E+04  0.50400001928E-02 0. -1.
       -1    1    3    3    0  502 -0.11398977144E+04 -0.74767845097E+03  0.22320742756E+03  0.13813802594E+04  0.50400001928E-02 0.  1.
</event>
<event>
 5   0  0.8805125E-08  0.3299605E+04  0.7818609E-02  0.8162996E-01
        1   -1    0    0  501    0  0.00000000000E+00  0.00000000000E+00  0.12485678795E+04  0.12485678795E+04  0.50400001928E-02 0. -1.
       -1   -1    0    0    0  501  0.00000000000E+00  0.00000000000E+00 -0.21799763338E+04  0.21799763338E+04  0.50400001928E-02 0.  1.
    10030    2    1    2    0    0  0.00000000000E+00  0.00000000000E+00 -0.93140845431E+03  0.34285442133E+04  0.32996050845E+04 0.  0.
        4    1    3    3  502    0 -0.44681484298E+03  0.99787404988E+03  0.81807155976E+03  0.13655177821E+04  0.12699999809E+01 0. -1.
       -4    1    3    3    0  502  0.44681484298E+03 -0.99787404988E+03 -0.17494800141E+04  0.20630264312E+04  0.12699999809E+01 0.  1.
</event>
<event>
 5   0  0.2875829E-07  0.3295027E+04  0.7818609E-02  0.8164162E-01
        2   -1    0    0  501    0  0.00000000000E+00  0.00000000000E+00  0.19012793532E+04  0.19012793532E+04  0.25500000920E-02 0.  1.
       -2   -1    0    0    0  501  0.00000000000E+00  0.00000000000E+00 -0.14276177095E+04  0.14276177095E+04  0.25500000920E-02 0. -1.
    10030    2    1    2    0    0  0.00000000000E+00  0.00000000000E+00  0.47366164378E+03  0.33288970627E+04  0.32950266010E+04 0.  0.
        3    1    3    3  502    0  0.17060201836E+03  0.13771191139E+04 -0.66040749724E+03  0.15367824098E+04  0.10100000352E+00 0. -1.
       -3    1    3    3    0  502 -0.17060201836E+03 -0.13771191139E+04  0.11340691410E+04  0.17921146529E+04  0.10100000352E+00 0.  1.
</event>
<event>
 5   0  0.8805125E-08  0.3298704E+04  0.7818609E-02  0.8163225E-01
        1   -1    0    0  501    0  0.00000000000E+00  0.00000000000E+00  0.15541262119E+04  0.15541262119E+04  0.50400001928E-02 0. -1.
       -1   -1    0    0    0  501  0.00000000000E+00  0.00000000000E+00 -0.17504122710E+04  0.17504122710E+04  0.50400001928E-02 0.  1.
    10030    2    1    2    0    0  0.00000000000E+00  0.00000000000E+00 -0.19628605911E+03  0.33045384830E+04  0.32987037406E+04 0.  0.
        4    1    3    3  502    0 -0.98403811969E+03  0.15317857166E+03 -0.14152176891E+04  0.17305020706E+04  0.12699999809E+01 0.  1.
       -4    1    3    3    0  502  0.98403811969E+03 -0.15317857166E+03  0.12189316300E+04  0.15740364124E+04  0.12699999809E+01 0. -1.
</event>
<event>
 5   0  0.8805125E-08  0.3298971E+04  0.7818609E-02  0.8163157E-01
       -1   -1    0    0    0  501  0.00000000000E+00  0.00000000000E+00  0.17226820037E+04  0.17226820038E+04  0.50400001928E-02 0. -1.
        1   -1    0    0  501    0  0.00000000000E+00  0.00000000000E+00 -0.15793989225E+04  0.15793989225E+04  0.50400001928E-02 0.  1.
    10030    2    1    2    0    0  0.00000000000E+00  0.00000000000E+00  0.14328308126E+03  0.33020809262E+04  0.32989708095E+04 0.  0.
        4    1    3    3  502    0 -0.10031332992E+04 -0.71579861811E+03  0.11691041382E+04  0.16986612895E+04  0.12699999809E+01 0. -1.
       -4    1    3    3    0  502  0.10031332992E+04  0.71579861811E+03 -0.10258210570E+04  0.16034196367E+04  0.12699999809E+01 0.  1.
</event>
<event>
 5   0  0.9810351E-08  0.3322234E+04  0.7818609E-02  0.8157261E-01
        1   -1    0    0  501    0  0.00000000000E+00  0.00000000000E+00  0.13749672550E+04  0.13749672550E+04  0.50400001928E-02 0.  1.
       -1   -1    0    0    0  501  0.00000000000E+00  0.00000000000E+00 -0.20068189051E+04  0.20068189051E+04  0.50400001928E-02 0. -1.
    10030    2    1    2    0    0  0.00000000000E+00  0.00000000000E+00 -0.63185165013E+03  0.33817861601E+04  0.33222343573E+04 0.  0.
        5    1    3    3  502    0 -0.10659182689E+04 -0.43883167972E+03 -0.15334142663E+04  0.19183681610E+04  0.46999998093E+01 0. -1.
       -5    1    3    3    0  502  0.10659182689E+04  0.43883167972E+03  0.90156261613E+03  0.14634179991E+04  0.46999998093E+01 0.  1.
</event>
<event>
 5   0  0.2727168E-07  0.3271456E+04  0.7818609E-02  0.8170197E-01
        2   -1    0    0  501    0  0.00000000000E+00  0.00000000000E+00  0.15689785759E+04  0.15689785759E+04  0.25500000920E-02 0. -1.
       -2   -1    0    0    0  501  0.00000000000E+00  0.00000000000E+00 -0.17053172988E+04  0.17053172988E+04  0.25500000920E-02 0.  1.
    10030    2    1    2    0    0  0.00000000000E+00  0.00000000000E+00 -0.13633872298E+03  0.32742958747E+04  0.32714561326E+04 0.  0.
        2    1    3    3  502    0  0.13209937795E+04  0.72721982806E+03 -0.70254370159E+03  0.16635627119E+04  0.25500000920E-02 0.  1.
       -2    1    3    3    0  502 -0.13209937795E+04 -0.72721982806E+03  0.56620497862E+03  0.16107331628E+04  0.25500000920E-02 0. -1.
</event>
<event>
 5   0  0.2713815E-07  0.3317625E+04  0.7818609E-02  0.8158425E-01
       -2   -1    0    0    0  501  0.00000000000E+00  0.00000000000E+00  0.12604624293E+04  0.12604624293E+04  0.25500000920E-02 0.  1.
        2   -1    0    0  501    0  0.00000000000E+00  0.00000000000E+00 -0.21830553912E+04  0.21830553912E+04  0.25500000920E-02 0. -1.
    10030    2    1    2    0    0  0.00000000000E+00  0.00000000000E+00 -0.92259296187E+03  0.34435178205E+04  0.33176252360E+04 0.  0.
        4    1    3    3  502    0  0.96373084364E+03 -0.12500718985E+03  0.93405808070E+03  0.13479132196E+04  0.12699999809E+01 0.  1.
       -4    1    3    3    0  502 -0.96373084364E+03  0.12500718985E+03 -0.18566510426E+04  0.20956046009E+04  0.12699999809E+01 0. -1.
</event>
<event>
 5   0  0.2703956E-07  0.3295059E+04  0.7818609E-02  0.8164154E-01
       -2   -1    0    0    0  501  0.00000000000E+00  0.00000000000E+00  0.17123534256E+04  0.17123534256E+04  0.25500000920E-02 0. -1.
        2   -1    0    0  501    0  0.00000000000E+00  0.00000000000E+00 -0.15851593979E+04  0.15851593979E+04  0.25500000920E-02 0.  1.
    10030    2    1    2    0    0  0.00000000000E+00  0.00000000000E+00  0.12719402766E+03  0.32975128235E+04  0.32950588007E+04 0.  0.
        5    1    3    3  502    0  0.49595757243E+03 -0.15385067535E+04 -0.25500166127E+03  0.16364671953E+04  0.46999998093E+01 0. -1.
       -5    1    3    3    0  502 -0.49595757243E+03  0.15385067535E+04  0.38219568893E+03  0.16610456281E+04  0.46999998093E+01 0.  1.
</event>
<event>
 5   0  0.8805125E-08  0.3303419E+04  0.7818609E-02  0.8162026E-01
        4   -1    0    0  501    0  0.00000000000E+00  0.00000000000E+00  0.13873317686E+04  0.13873323499E+04  0.12699999809E+01 0.  1.
       -4   -1    0    0    0  501  0.00000000000E+00  0.00000000000E+00 -0.19664668297E+04  0.19664672398E+04  0.12699999809E+01 0. -1.
    10030    2    1    2    0    0  0.00000000000E+00  0.00000000000E+00 -0.57913506110E+03  0.33537995897E+04  0.33034185731E+04 0.  0.
        4    1    3    3  502    0  0.57920456320E+03 -0.89807334434E+02  0.12781981377E+04  0.14061775761E+04  0.12699999809E+01 0.  1.
       -4    1    3    3    0  502 -0.57920456320E+03  0.89807334434E+02 -0.18573331988E+04  0.19476220136E+04  0.12699999809E+01 0. -1.
</event>
<event>
 5   0  0.8805125E-08  0.3298715E+04  0.7818609E-02  0.8163222E-01
        1   -1    0    0  501    0  0.00000000000E+00  0.00000000000E+00  0.15787272806E+04  0.15787272806E+04  0.50400001928E-02 0.  1.
       -1   -1    0    0    0  501  0.00000000000E+00  0.00000000000E+00 -0.17231476503E+04  0.17231476503E+04  0.50400001928E-02 0. -1.
    10030    2    1    2    0    0  0.00000000000E+00  0.00000000000E+00 -0.14442036970E+03  0.33018749308E+04  0.32987150249E+04 0.  0.
        4    1    3    3  502    0 -0.33234504470E+03 -0.18716035419E+03 -0.16783956715E+04  0.17211902480E+04  0.12699999809E+01 0. -1.
       -4    1    3    3    0  502  0.33234504470E+03  0.18716035419E+03  0.15339753018E+04  0.15806846828E+04  0.12699999809E+01 0.  1.
</event>
<event>
 5   0  0.9181760E-08  0.3306195E+04  0.7818609E-02  0.8161321E-01
        1   -1    0    0  501    0  0.00000000000E+00  0.00000000000E+00  0.22127591420E+04  0.22127591420E+04  0.50400001928E-02 0.  1.
       -1   -1    0    0    0  501  0.00000000000E+00  0.00000000000E+00 -0.12349883638E+04  0.12349883638E+04  0.50400001928E-02 0. -1.
    10030    2    1    2    0    0  0.00000000000E+00  0.00000000000E+00  0.97777077816E+03  0.34477475058E+04  0.33061952709E+04 0.  0.
        1    1    3    3  502    0 -0.87416592904E+03  0.13411624114E+04  0.59112924881E+02  0.16019915803E+04  0.50400001928E-02 0. -1.
       -1    1    3    3    0  502  0.87416592904E+03 -0.13411624114E+04  0.91865785328E+03  0.18457559256E+04  0.50400001928E-02 0.  1.
</event>
<event>
 5   0  0.2875829E-07  0.3298918E+04  0.7818609E-02  0.8163171E-01
        2   -1    0    0  501    0  0.00000000000E+00  0.00000000000E+00  0.19818852046E+04  0.19818852046E+04  0.25500000920E-02 0. -1.
       -2   -1    0    0    0  501  0.00000000000E+00  0.00000000000E+00 -0.13727914723E+04  0.13727914723E+04  0.25500000920E-02 0.  1.
    10030    2    1    2    0    0  0.00000000000E+00  0.00000000000E+00  0.60909373226E+03  0.33546766769E+04  0.32989180699E+04 0.  0.
        3    1    3    3  502    0  0.18062274478E+03 -0.15672718771E+04 -0.18499341704E+03  0.15884546853E+04  0.10100000352E+00 0.  1.
       -3    1    3    3    0  502 -0.18062274478E+03  0.15672718771E+04  0.79408714929E+03  0.17662219916E+04  0.10100000352E+00 0. -1.
</event>
<event>
 5   0  0.2824402E-07  0.3300480E+04  0.7818609E-02  0.8162773E-01
        2   -1    0    0  501    0  0.00000000000E+00  0.00000000000E+00  0.19074197012E+04  0.19074197012E+04  0.25500000920E-02 0. -1.
       -2   -1    0    0    0  501  0.00000000000E+00  0.00000000000E+00 -0.14277359465E+04  0.14277359466E+04  0.25500000920E-02 0.  1.
    10030    2    1    2    0    0  0.00000000000E+00  0.00000000000E+00  0.47968375465E+03  0.33351556478E+04  0.33004797667E+04 0.  0.
        1    1    3    3  502    0  0.12425153083E+04  0.78803786564E+03 -0.51530030623E+03  0.15589683687E+04  0.50400001928E-02 0.  1.
       -1    1    3    3    0  502 -0.12425153083E+04 -0.78803786564E+03  0.99498406088E+03  0.17761872791E+04  0.50400001928E-02 0. -1.
</event>
<event>
 5   0  0.2703956E-07  0.3302061E+04  0.7818609E-02  0.8162371E-01
       -2   -1    0    0    0  501  0.00000000000E+00  0.00000000000E+00  0.12898434280E+04  0.12898434280E+04  0.25500000920E-02 0.  1.
        2   -1    0    0  501    0  0.00000000000E+00  0.00000000000E+00 -0.21133583626E+04  0.21133583626E+04  0.25500000920E-02 0. -1.
    10030    2    1    2    0    0  0.00000000000E+00  0.00000000000E+00 -0.82351493464E+03  0.34032017906E+04  0.33020608080E+04 0.  0.
        5    1    3    3  502    0 -0.12482674111E+04  0.54824469331E+03 -0.13714809594E+04  0.19338370886E+04  0.46999998093E+01 0. -1.
       -5    1    3    3    0  502  0.12482674111E+04 -0.54824469331E+03  0.54796602472E+03  0.14693647020E+04  0.46999998093E+01 0.  1.
</event>
<event>
 5   0  0.9283910E-08  0.3298750E+04  0.7818609E-02  0.8163214E-01
       -1   -1    0    0    0  501  0.00000000000E+00  0.00000000000E+00  0.26081861925E+04  0.26081861925E+04  0.50400001928E-02 0.  1.
        1   -1    0    0  501    0  0.00000000000E+00  0.00000000000E+00 -0.10430379373E+04  0.10430379373E+04  0.50400001928E-02 0. -1.
    10030    2    1    2    0    0  0.00000000000E+00  0.00000000000E+00  0.15651482553E+04  0.36512241298E+04  0.32987495487E+04 0.  0.
        3    1    3    3  502    0 -0.13453297540E+03  0.16269669933E+04  0.52224895096E+03  0.17140200394E+04  0.10100000352E+00 0. -1.
       -3    1    3    3    0  502  0.13453297540E+03 -0.16269669933E+04  0.10428993043E+04  0.19372040904E+04  0.10100000352E+00 0.  1.
</event>
<event>
 5   0  0.2727168E-07  0.3299674E+04  0.7818609E-02  0.8162978E-01
       -2   -1    0    0    0  501  0.00000000000E+00  0.00000000000E+00  0.14611089368E+04  0.14611089368E+04  0.25500000920E-02 0.  1.
        2   -1    0    0  501    0  0.00000000000E+00  0.00000000000E+00 -0.18629430675E+04  0.18629430675E+04  0.25500000920E-02 0. -1.
    10030    2    1    2    0    0  0.00000000000E+00  0.00000000000E+00 -0.40183413072E+03  0.33240520042E+04  0.32996743867E+04 0.  0.
        2    1    3    3  502    0  0.98875905888E+01 -0.16247524426E+04  0.87633189158E+02  0.16271440747E+04  0.25500000920E-02 0.  1.
       -2    1    3    3    0  502 -0.98875905888E+01  0.16247524426E+04 -0.48946731988E+03  0.16969079295E+04  0.25500000920E-02 0. -1.
</event>
<event>
 5   0  0.9181760E-08  0.3291578E+04  0.7818609E-02  0.8165042E-01
        1   -1    0    0  501    0  0.00000000000E+00  0.00000000000E+00  0.16959164198E+04  0.16959164198E+04  0.50400001928E-02 0. -1.
       -1   -1    0    0    0  501  0.00000000000E+00  0.00000000000E+00 -0.15971430288E+04  0.15971430288E+04  0.50400001928E-02 0.  1.
    10030    2    1    2    0    0  0.00000000000E+00  0.00000000000E+00  0.98773390954E+02  0.32930594486E+04  0.32915777903E+04 0.  0.
        1    1    3    3  502    0 -0.81647190060E+03 -0.10331821162E+04  0.10370136378E+04  0.16761530165E+04  0.50400001928E-02 0. -1.
       -1    1    3    3    0  502  0.81647190060E+03  0.10331821162E+04 -0.93824024680E+03  0.16169064322E+04  0.50400001928E-02 0.  1.
</event>
<event>
 5   0  0.2875829E-07  0.3288764E+04  0.7818609E-02  0.8165760E-01
       -2   -1    0    0    0  501  0.00000000000E+00  0.00000000000E+00  0.11400710262E+04  0.11400710262E+04  0.25500000920E-02 0.  1.
        2   -1    0    0  501    0  0.00000000000E+00  0.00000000000E+00 -0.23717749971E+04  0.23717749971E+04  0.25500000920E-02 0. -1.
    10030    2    1    2    0    0  0.00000000000E+00  0.00000000000E+00 -0.12317039710E+04  0.35118460233E+04  0.32887638740E+04 0.  0.
        3    1    3    3  502    0 -0.11558136309E+04 -0.96886763202E+03  0.83868913171E+02  0.15105110535E+04  0.10100000352E+00 0.  1.
       -3    1    3    3    0  502  0.11558136309E+04  0.96886763202E+03 -0.13155728841E+04  0.20013349698E+04  0.10100000352E+00 0. -1.
</event>
<event>
 5   0  0.2727168E-07  0.3328391E+04  0.7818609E-02  0.8155709E-01
        2   -1    0    0  501    0  0.00000000000E+00  0.00000000000E+00  0.13110642023E+04  0.13110642023E+04  0.25500000920E-02 0. -1.
       -2   -1    0    0    0  501  0.00000000000E+00  0.00000000000E+00 -0.21124419774E+04  0.21124419774E+04  0.25500000920E-02 0.  1.
    10030    2    1    2    0    0  0.00000000000E+00  0.00000000000E+00 -0.80137777511E+03  0.34235061798E+04  0.33283912367E+04 0.  0.
        2    1    3    3  502    0 -0.11757458943E+04 -0.56603403930E+03 -0.14630519953E+04  0.19604321163E+04  0.25500000920E-02 0. -1.
       -2    1    3    3    0  502  0.11757458943E+04  0.56603403930E+03  0.66167422016E+03  0.14630740635E+04  0.25500000920E-02 0.  1.
</event>
<event>
 5   0  0.9181760E-08  0.3298187E+04  0.7818609E-02  0.8163357E-01
       -1   -1    0    0    0  501  0.00000000000E+00  0.00000000000E+00  0.16303757376E+04  0.16303757376E+04  0.50400001928E-02 0.  1.
        1   -1    0    0  501    0  0.00000000000E+00  0.00000000000E+00 -0.16680257580E+04  0.16680257580E+04  0.50400001928E-02 0. -1.
    10030    2    1    2    0    0  0.00000000000E+00  0.00000000000E+00 -0.37650020411E+02  0.32984014955E+04  0.32981866081E+04 0.  0.
        1    1    3    3  502    0 -0.82055927334E+03 -0.66310241819E+03 -0.12863800306E+04  0.16636694146E+04  0.50400001928E-02 0. -1.
       -1    1    3    3    0  502  0.82055927334E+03  0.66310241819E+03  0.12487300102E+04  0.16347320809E+04  0.50400001928E-02 0.  1.
</event>
<event>
 5   0  0.2703956E-07  0.3349966E+04  0.7818609E-02  0.8150297E-01
       -2   -1    0    0    0  501  0.00000000000E+00  0.00000000000E+00  0.11907784158E+04  0.11907784159E+04  0.25500000920E-02 0. -1.
        2   -1    0    0  501    0  0.00000000000E+00  0.00000000000E+00 -0.23560793577E+04  0.23560793577E+04  0.25500000920E-02 0.  1.
    10030    2    1    2    0    0  0.00000000000E+00  0.00000000000E+00 -0.11653009419E+04  0.35468577736E+04  0.33499662358E+04 0.  0.
        5    1    3    3  502    0 -0.91501209807E+03 -0.11032114910E+04  0.33502254580E+03  0.14719323795E+04  0.46999998093E+01 0. -1.
       -5    1    3    3    0  502  0.91501209807E+03  0.11032114910E+04 -0.15003234877E+04  0.20749253941E+04  0.46999998093E+01 0.  1.
</event>
<event>
 5   0  0.2727168E-07  0.3297635E+04  0.7818609E-02  0.8163497E-01
        2   -1    0    0  501    0  0.00000000000E+00  0.00000000000E+00  0.19660587844E+04  0.19660587844E+04  0.25500000920E-02 0. -1.
       -2   -1    0    0    0  501  0.00000000000E+00  0.00000000000E+00 -0.13827661077E+04  0.13827661077E+04  0.25500000920E-02 0.  1.
    10030    2    1    2    0    0  0.00000000000E+00  0.00000000000E+00  0.58329267669E+03  0.33488248921E+04  0.32976351847E+04 0.  0.
        2    1    3    3  502    0  0.91671285640E+03 -0.13450795674E+04  0.55839848444E+03  0.17208748854E+04  0.25500000920E-02 0. -1.
       -2    1    3    3    0  502 -0.91671285640E+03  0.13450795674E+04  0.24894192255E+02  0.16279500067E+04  0.25500000920E-02 0.  1.
</event>
<event>
 5   0  0.2703956E-07  0.3296598E+04  0.7818609E-02  0.8163761E-01
        2   -1    0    0  501    0  0.00000000000E+00  0.00000000000E+00  0.18425287312E+04  0.18425287312E+04  0.25500000920E-02 0. -1.
       -2   -1    0    0    0  501  0.00000000000E+00  0.00000000000E+00 -0.14745443878E+04  0.14745443878E+04  0.25500000920E-02 0.  1.
    10030    2    1    2    0    0  0.00000000000E+00  0.00000000000E+00  0.36798434335E+03  0.33170731190E+04  0.32965984894E+04 0.  0.
        5    1    3    3  502    0  0.90003034059E+03  0.77828094325E+03 -0.96374664877E+03  0.15312104799E+04  0.46999998093E+01 0.  1.
       -5    1    3    3    0  502 -0.90003034059E+03 -0.77828094325E+03  0.13317309921E+04  0.17858626392E+04  0.46999998093E+01 0. -1.
</event>
<event>
 5   0  0.9181760E-08  0.3290035E+04  0.7818609E-02  0.8165436E-01
       -1   -1    0    0    0  501  0.00000000000E+00  0.00000000000E+00  0.19990930905E+04  0.19990930905E+04  0.50400001928E-02 0. -1.
        1   -1    0    0  501    0  0.00000000000E+00  0.00000000000E+00 -0.13536550073E+04  0.13536550073E+04  0.50400001928E-02 0.  1.
    10030    2    1    2    0    0  0.00000000000E+00  0.00000000000E+00  0.64543808326E+03  0.33527480978E+04  0.32900348764E+04 0.  0.
        1    1    3    3  502    0  0.13907550917E+04 -0.87743022184E+03  0.36827978864E+03  0.16851449558E+04  0.50400001928E-02 0. -1.
       -1    1    3    3    0  502 -0.13907550917E+04  0.87743022184E+03  0.27715829462E+03  0.16676031421E+04  0.50400001928E-02 0.  1.
</event>
<event>
 5   0  0.2713815E-07  0.3297914E+04  0.7818609E-02  0.8163426E-01
        2   -1    0    0  501    0  0.00000000000E+00  0.00000000000E+00  0.17931175051E+04  0.17931175051E+04  0.25500000920E-02 0. -1.
       -2   -1    0    0    0  501  0.00000000000E+00  0.00000000000E+00 -0.15163867455E+04  0.15163867455E+04  0.25500000920E-02 0.  1.
    10030    2    1    2    0    0  0.00000000000E+00  0.00000000000E+00  0.27673075960E+03  0.33095042506E+04  0.32979142607E+04 0.  0.
        4    1    3    3  502    0 -0.14064491672E+04 -0.60573203566E+03  0.75210891329E+03  0.17060715077E+04  0.12699999809E+01 0. -1.
       -4    1    3    3    0  502  0.14064491672E+04  0.60573203566E+03 -0.47537815368E+03  0.16034327429E+04  0.12699999809E+01 0.  1.
</event>
<event>
 5   0  0.2875829E-07  0.3309252E+04  0.7818609E-02  0.8160545E-01
        2   -1    0    0  501    0  0.00000000000E+00  0.00000000000E+00  0.23156392371E+04  0.23156392371E+04  0.25500000920E-02 0.  1.
       -2   -1    0    0    0  501  0.00000000000E+00  0.00000000000E+00 -0.11823027839E+04  0.11823027839E+04  0.25500000920E-02 0. -1.
    10030    2    1    2    0    0  0.00000000000E+00  0.00000000000E+00  0.11333364533E+04  0.34979420210E+04  0.33092517078E+04 0.  0.
        3    1    3    3  502    0 -0.13299653857E+04 -0.90357108423E+03  0.15383757467E+03  0.16152134970E+04  0.10100000352E+00 0. -1.
       -3    1    3    3    0  502  0.13299653857E+04  0.90357108423E+03  0.97949887859E+03  0.18827285239E+04  0.10100000352E+00 0.  1.
</event>
<event>
 5   0  0.2703956E-07  0.3292809E+04  0.7818609E-02  0.8164727E-01
       -2   -1    0    0    0  501  0.00000000000E+00  0.00000000000E+00  0.15140811819E+04  0.15140811819E+04  0.25500000920E-02 0. -1.
        2   -1    0    0  501    0  0.00000000000E+00  0.00000000000E+00 -0.17902924698E+04  0.17902924698E+04  0.25500000920E-02 0.  1.
    10030    2    1    2    0    0  0.00000000000E+00  0.00000000000E+00 -0.27621128794E+03  0.33043736517E+04  0.32928092192E+04 0.  0.
        5    1    3    3  502    0  0.16277431610E+04  0.23185586026E+03 -0.22396963238E+03  0.16593641627E+04  0.46999998093E+01 0.  1.
       -5    1    3    3    0  502 -0.16277431610E+04 -0.23185586026E+03 -0.52241655565E+02  0.16450094890E+04  0.46999998093E+01 0. -1.
</event>
<event>
 5   0  0.2875829E-07  0.3360931E+04  0.7818609E-02  0.8147562E-01
       -2   -1    0    0    0  501  0.00000000000E+00  0.00000000000E+00  0.26814299900E+04  0.26814299900E+04  0.25500000920E-02 0.  1.
        2   -1    0    0  501    0  0.00000000000E+00  0.00000000000E+00 -0.10531562593E+04  0.10531562593E+04  0.25500000920E-02 0. -1.
    10030    2    1    2    0    0  0.00000000000E+00  0.00000000000E+00  0.16282737307E+04  0.37345862494E+04  0.33609312864E+04 0.  0.
        3    1    3    3  502    0 -0.18385284500E+03  0.13004666712E+04 -0.35071767237E+03  0.13594183784E+04  0.10100000352E+00 0. -1.
       -3    1    3    3    0  502  0.18385284500E+03 -0.13004666712E+04  0.19789914031E+04  0.23751678710E+04  0.10100000352E+00 0.  1.
</event>
<event>
 5   0  0.9283910E-08  0.3298549E+04  0.7818609E-02  0.8163265E-01
        1   -1    0    0  501    0  0.00000000000E+00  0.00000000000E+00  0.15054372335E+04  0.15054372335E+04  0.50400001928E-02 0.  1.
       -1   -1    0    0    0  501  0.00000000000E+00  0.00000000000E+00 -0.18068542487E+04  0.18068542487E+04  0.50400001928E-02 0. -1.
    10030    2    1    2    0    0  0.00000000000E+00  0.00000000000E+00 -0.30141701520E+03  0.33122914822E+04  0.32985485666E+04 0.  0.
        3    1    3    3  502    0 -0.88351523746E+03 -0.23315172511E+03  0.12280183849E+04  0.15306822223E+04  0.10100000352E+00 0.  1.
       -3    1    3    3    0  502  0.88351523746E+03  0.23315172511E+03 -0.15294354001E+04  0.17816092599E+04  0.10100000352E+00 0. -1.
</event>
<event>
 5   0  0.9283910E-08  0.3336526E+04  0.7818609E-02  0.8153663E-01
        1   -1    0    0  501    0  0.00000000000E+00  0.00000000000E+00  0.19879115799E+04  0.19879115800E+04  0.50400001928E-02 0.  1.
       -1   -1    0    0    0  501  0.00000000000E+00  0.00000000000E+00 -0.14000129594E+04  0.14000129594E+04  0.50400001928E-02 0. -1.
    10030    2    1    2    0    0  0.00000000000E+00  0.00000000000E+00  0.58789862056E+03  0.33879245393E+04  0.33365263218E+04 0.  0.
        3    1    3    3  502    0 -0.72412974211E+02  0.29769232012E+02 -0.13981464325E+04  0.14003368534E+04  0.10100000352E+00 0. -1.
       -3    1    3    3    0  502  0.72412974211E+02 -0.29769232012E+02  0.19860450531E+04  0.19875876859E+04  0.10100000352E+00 0.  1.
</event>
<event>
 5   0  0.2713815E-07  0.3301032E+04  0.7818609E-02  0.8162633E-01
        2   -1    0    0  501    0  0.00000000000E+00  0.00000000000E+00  0.23620159974E+04  0.23620159974E+04  0.25500000920E-02 0. -1.
       -2   -1    0    0    0  501  0.00000000000E+00  0.00000000000E+00 -0.11533377775E+04  0.11533377775E+04  0.25500000920E-02 0.  1.
    10030    2    1    2    0    0  0.00000000000E+00  0.00000000000E+00  0.12086782199E+04  0.35153537749E+04  0.33010315241E+04 0.  0.
        4    1    3    3  502    0  0.62034141308E+03  0.11528881341E+04 -0.46601792762E+03  0.13896578141E+04  0.12699999809E+01 0.  1.
       -4    1    3    3    0  502 -0.62034141308E+03 -0.11528881341E+04  0.16746961475E+04  0.21256959608E+04  0.12699999809E+01 0. -1.
</event>
<event>
 5   0  0.9810351E-08  0.3299500E+04  0.7818609E-02  0.8163023E-01
       -1   -1    0    0    0  501  0.00000000000E+00  0.00000000000E+00  0.20273703362E+04  0.20273703362E+04  0.50400001928E-02 0. -1.
        1   -1    0    0  501    0  0.00000000000E+00  0.00000000000E+00 -0.13424654987E+04  0.13424654987E+04  0.50400001928E-02 0.  1.
    10030    2    1    2    0    0  0.00000000000E+00  0.00000000000E+00  0.68490483748E+03  0.33698358350E+04  0.32994997982E+04 0.  0.
        5    1    3    3  502    0  0.60301325408E+03  0.11438433763E+04 -0.70391182413E+03  0.14722488241E+04  0.46999998093E+01 0.  1.
       -5    1    3    3    0  502 -0.60301325408E+03 -0.11438433763E+04  0.13888166616E+04  0.18975870108E+04  0.46999998093E+01 0. -1.
</event>
<event>
 5   0  0.9810351E-08  0.3297138E+04  0.7818609E-02  0.8163624E-01
       -1   -1    0    0    0  501  0.00000000000E+00  0.00000000000E+00  0.10444010061E+04  0.10444010061E+04  0.50400001928E-02 0. -1.
        1   -1    0    0  501    0  0.00000000000E+00  0.00000000000E+00 -0.26022384749E+04  0.26022384749E+04  0.50400001928E-02 0.  1.
    10030    2    1    2    0    0  0.00000000000E+00  0.00000000000E+00 -0.15578374688E+04  0.36466394810E+04  0.32971384450E+04 0.  0.
        5    1    3    3  502    0 -0.58749190048E+03 -0.20674490381E+03 -0.24671087348E+04  0.25445113063E+04  0.46999998093E+01 0.  1.
       -5    1    3    3    0  502  0.58749190048E+03  0.20674490381E+03  0.90927126603E+03  0.11021281748E+04  0.46999998093E+01 0. -1.
</event>
<event>
 5   0  0.9283910E-08  0.3301770E+04  0.7818609E-02  0.8162445E-01
        1   -1    0    0  501    0  0.00000000000E+00  0.00000000000E+00  0.18413372359E+04  0.18413372359E+04  0.50400001928E-02 0.  1.
       -1   -1    0    0    0  501  0.00000000000E+00  0.00000000000E+00 -0.14801318175E+04  0.14801318175E+04  0.50400001928E-02 0. -1.
    10030    2    1    2    0    0  0.00000000000E+00  0.00000000000E+00  0.36120541837E+03  0.33214690535E+04  0.33017703310E+04 0.  0.
        3    1    3    3  502    0 -0.85547984798E+03 -0.52846021917E+03  0.14977292550E+04  0.18039703171E+04  0.10100000352E+00 0.  1.
       -3    1    3    3    0  502  0.85547984798E+03  0.52846021917E+03 -0.11365238366E+04  0.15174987364E+04  0.10100000352E+00 0. -1.
</event>
<event>
 5   0  0.2824402E-07  0.3323059E+04  0.7818609E-02  0.8157053E-01
       -2   -1    0    0    0  501  0.00000000000E+00  0.00000000000E+00  0.10659552488E+04  0.10659552488E+04  0.25500000920E-02 0. -1.
        2   -1    0    0  501    0  0.00000000000E+00  0.00000000000E+00 -0.25898648796E+04  0.25898648796E+04  0.25500000920E-02 0.  1.
    10030    2    1    2    0    0  0.00000000000E+00  0.00000000000E+00 -0.15239096308E+04  0.36558201285E+04  0.33230588693E+04 0.  0.
        1    1    3    3  502    0 -0.11876843283E+03 -0.12749273439E+04  0.40291025242E+03  0.13423421115E+04  0.50400001928E-02 0. -1.
       -1    1    3    3    0  502  0.11876843283E+03  0.12749273439E+04 -0.19268198832E+04  0.23134780170E+04  0.50400001928E-02 0.  1.
</event>
<event>
 5   0  0.9454010E-08  0.3295086E+04  0.7818609E-02  0.8164147E-01
        1   -1    0    0  501    0  0.00000000000E+00  0.00000000000E+00  0.19024455647E+04  0.19024455647E+04  0.50400001928E-02 0. -1.
       -1   -1    0    0    0  501  0.00000000000E+00  0.00000000000E+00 -0.14267941182E+04  0.14267941182E+04  0.50400001928E-02 0.  1.
    10030    2    1    2    0    0  0.00000000000E+00  0.00000000000E+00  0.47565144652E+03  0.33292396829E+04  0.32950861245E+04 0.  0.
        2    1    3    3  502    0  0.14757232675E+04  0.31777599932E+03  0.90471055092E+03  0.17598982723E+04  0.25500000920E-02 0. -1.
       -2    1    3    3    0  502 -0.14757232675E+04 -0.31777599932E+03 -0.42905910440E+03  0.15693414106E+04  0.25500000920E-02 0.  1.
</event>
<event>
 5   0  0.9283910E-08  0.3308741E+04  0.7818609E-02  0.8160675E-01
        1   -1    0    0  501    0  0.00000000000E+00  0.00000000000E+00  0.21573475599E+04  0.21573475599E+04  0.50400001928E-02 0. -1.
       -1   -1    0    0    0  501  0.00000000000E+00  0.00000000000E+00 -0.12686601829E+04  0.12686601829E+04  0.50400001928E-02 0.  1.
    10030    2    1    2    0    0  0.00000000000E+00  0.00000000000E+00  0.88868737693E+03  0.34260077428E+04  0.33087405156E+04 0.  0.
        3    1    3    3  502    0  0.13010754162E+04  0.61367423203E+03  0.12903366747E+04  0.19324497525E+04  0.10100000352E+00 0. -1.
       -3    1    3    3    0  502 -0.13010754162E+04 -0.61367423203E+03 -0.40164929777E+03  0.14935579903E+04  0.10100000352E+00 0.  1.
</event>
<event>
 5   0  0.9454010E-08  0.3309872E+04  0.7818609E-02  0.8160388E-01
       -1   -1    0    0    0  501  0.00000000000E+00  0.00000000000E+00  0.11226005925E+04  0.11226005925E+04  0.50400001928E-02 0.  1.
        1   -1    0    0  501    0  0.00000000000E+00  0.00000000000E+00 -0.24397034869E+04  0.24397034869E+04  0.50400001928E-02 0. -1.
    10030    2    1    2    0    0  0.00000000000E+00  0.00000000000E+00 -0.13171028944E+04  0.35623040794E+04  0.33098716470E+04 0.  0.
        2    1    3    3  502    0 -0.91814483234E+03 -0.42000138525E+03 -0.20698243727E+04  0.23029468145E+04  0.25500000920E-02 0. -1.
       -2    1    3    3    0  502  0.91814483234E+03  0.42000138525E+03  0.75272147828E+03  0.12593572649E+04  0.25500000920E-02 0.  1.
</event>
<event>
 5   0  0.9283910E-08  0.3290171E+04  0.7818609E-02  0.8165401E-01
        1   -1    0    0  501    0  0.00000000000E+00  0.00000000000E+00  0.27352020074E+04  0.27352020074E+04  0.50400001928E-02 0. -1.
       -1   -1    0    0    0  501  0.00000000000E+00  0.00000000000E+00 -0.98943557674E+03  0.98943557675E+03  0.50400001928E-02 0.  1.
    10030    2    1    2    0    0  0.00000000000E+00  0.00000000000E+00  0.17457664306E+04  0.37246375841E+04  0.32901709230E+04 0.  0.
        3    1    3    3  502    0  0.10981098629E+04 -0.10926552364E+04  0.24608586724E+03  0.15685340293E+04  0.10100000352E+00 0.  1.
       -3    1    3    3    0  502 -0.10981098629E+04  0.10926552364E+04  0.14996805634E+04  0.21561035548E+04  0.10100000352E+00 0. -1.
</event>
<event>
 5   0  0.2703956E-07  0.3298339E+04  0.7818609E-02  0.8163318E-01
       -2   -1    0    0    0  501  0.00000000000E+00  0.00000000000E+00  0.16105765859E+04  0.16105765859E+04  0.25500000920E-02 0.  1.
        2   -1    0    0  501    0  0.00000000000E+00  0.00000000000E+00 -0.16886869938E+04  0.16886869938E+04  0.25500000920E-02 0. -1.
    10030    2    1    2    0    0  0.00000000000E+00  0.00000000000E+00 -0.78110407899E+02  0.32992635797E+04  0.32983388141E+04 0.  0.
        5    1    3    3  502    0 -0.12315899691E+04  0.10116624058E+04 -0.46280467627E+03  0.16596641026E+04  0.46999998093E+01 0. -1.
       -5    1    3    3    0  502  0.12315899691E+04 -0.10116624058E+04  0.38469426837E+03  0.16395994771E+04  0.46999998093E+01 0.  1.
</event>
<event>
 5   0  0.2824402E-07  0.3275426E+04  0.7818609E-02  0.8169176E-01
       -2   -1    0    0    0  501  0.00000000000E+00  0.00000000000E+00  0.11846057739E+04  0.11846057739E+04  0.25500000920E-02 0. -1.
        2   -1    0    0  501    0  0.00000000000E+00  0.00000000000E+00 -0.22641324139E+04  0.22641324139E+04  0.25500000920E-02 0.  1.
    10030    2    1    2    0    0  0.00000000000E+00  0.00000000000E+00 -0.10795266400E+04  0.34487381879E+04  0.32754262810E+04 0.  0.
        1    1    3    3  502    0 -0.58508053440E+03 -0.45252028770E+03  0.99871862198E+03  0.12427923111E+04  0.50400001928E-02 0. -1.
       -1    1    3    3    0  502  0.58508053440E+03  0.45252028770E+03 -0.20782452620E+04  0.22059458768E+04  0.50400001928E-02 0.  1.
</event>
<event>
 5   0  0.9181760E-08  0.3297343E+04  0.7818609E-02  0.8163572E-01
        1   -1    0    0  501    0  0.00000000000E+00  0.00000000000E+00  0.12772361891E+04  0.12772361891E+04  0.50400001928E-02 0. -1.
       -1   -1    0    0    0  501  0.00000000000E+00  0.00000000000E+00 -0.21281243730E+04  0.21281243730E+04  0.50400001928E-02 0.  1.
    10030    2    1    2    0    0  0.00000000000E+00  0.00000000000E+00 -0.85088818394E+03  0.34053605621E+04  0.32973428479E+04 0.  0.
        1    1    3    3  502    0 -0.21743256105E+03 -0.77525217172E+03 -0.19112626203E+04  0.20739377165E+04  0.50400001928E-02 0.  1.
       -1    1    3    3    0  502  0.21743256105E+03  0.77525217172E+03  0.10603744364E+04  0.13314228456E+04  0.50400001928E-02 0. -1.
</event>
<event>
 5   0  0.2727168E-07  0.3226087E+04  0.7818609E-02  0.8181961E-01
        2   -1    0    0  501    0  0.00000000000E+00  0.00000000000E+00  0.16449810717E+04  0.16449810717E+04  0.25500000920E-02 0.  1.
       -2   -1    0    0    0  501  0.00000000000E+00  0.00000000000E+00 -0.15817263698E+04  0.15817263698E+04  0.25500000920E-02 0. -1.
    10030    2    1    2    0    0  0.00000000000E+00  0.00000000000E+00  0.63254701976E+02  0.32267074415E+04  0.32260873757E+04 0.  0.
        2    1    3    3  502    0  0.39410788090E+03  0.46080904209E+03  0.15266533996E+04  0.16426614373E+04  0.25500000920E-02 0.  1.
       -2    1    3    3    0  502 -0.39410788090E+03 -0.46080904209E+03 -0.14633986977E+04  0.15840460042E+04  0.25500000920E-02 0. -1.
</event>
<event>
 5   0  0.2703956E-07  0.3293514E+04  0.7818609E-02  0.8164548E-01
       -2   -1    0    0    0  501  0.00000000000E+00  0.00000000000E+00  0.10774970355E+04  0.10774970355E+04  0.25500000920E-02 0.  1.
        2   -1    0    0  501    0  0.00000000000E+00  0.00000000000E+00 -0.25167665148E+04  0.25167665148E+04  0.25500000920E-02 0. -1.
    10030    2    1    2    0    0  0.00000000000E+00  0.00000000000E+00 -0.14392694793E+04  0.35942635503E+04  0.32935139039E+04 0.  0.
        5    1    3    3  502    0 -0.59212228968E+03 -0.86650605501E+03  0.66523797194E+03  0.12425800572E+04  0.46999998093E+01 0.  1.
       -5    1    3    3    0  502  0.59212228968E+03  0.86650605501E+03 -0.21045074512E+04  0.23516834931E+04  0.46999998093E+01 0. -1.
</event>
<event>
 5   0  0.9454010E-08  0.3306077E+04  0.7818609E-02  0.8161351E-01
        1   -1    0    0  501    0  0.00000000000E+00  0.00000000000E+00  0.27001167173E+04  0.27001167173E+04  0.50400001928E-02 0.  1.
       -1   -1    0    0    0  501  0.00000000000E+00  0.00000000000E+00 -0.10120068841E+04  0.10120068841E+04  0.50400001928E-02 0. -1.
    10030    2    1    2    0    0  0.00000000000E+00  0.00000000000E+00  0.16881098332E+04  0.37121236015E+04  0.33060772561E+04 0.  0.
        2    1    3    3  502    0 -0.10549634270E+04  0.11830703773E+04  0.31748628886E+03  0.16166016497E+04  0.25500000920E-02 0. -1.
       -2    1    3    3    0  502  0.10549634270E+04 -0.11830703773E+04  0.13706235444E+04  0.20955219518E+04  0.25500000920E-02 0.  1.
</event>
<event>
 5   0  0.2727168E-07  0.3393968E+04  0.7818609E-02  0.8139388E-01
       -2   -1    0    0    0  501  0.00000000000E+00  0.00000000000E+00  0.15448936254E+04  0.15448936254E+04  0.25500000920E-02 0.  1.
        2   -1    0    0  501    0  0.00000000000E+00  0.00000000000E+00 -0.18640471030E+04  0.18640471030E+04  0.25500000920E-02 0. -1.
    10030    2    1    2    0    0  0.00000000000E+00  0.00000000000E+00 -0.31915347754E+03  0.34089407284E+04  0.33939678766E+04 0.  0.
        2    1    3    3  502    0  0.78098531994E+03  0.57011113612E+03 -0.15602861499E+04  0.18356082499E+04  0.25500000920E-02 0. -1.
       -2    1    3    3    0  502 -0.78098531994E+03 -0.57011113612E+03  0.12411326723E+04  0.15733324785E+04  0.25500000920E-02 0.  1.
</event>
<event>
 5   0  0.2875829E-07  0.3304611E+04  0.7818609E-02  0.8161723E-01
        2   -1    0    0  501    0  0.00000000000E+00  0.00000000000E+00  0.23747736772E+04  0.23747736772E+04  0.25500000920E-02 0.  1.
       -2   -1    0    0    0  501  0.00000000000E+00  0.00000000000E+00 -0.11496309639E+04  0.11496309639E+04  0.25500000920E-02 0. -1.
    10030    2    1    2    0    0  0.00000000000E+00  0.00000000000E+00  0.12251427132E+04  0.35244046411E+04  0.33046109312E+04 0.  0.
        3    1    3    3  502    0  0.15168226424E+04 -0.79376585102E+02 -0.81121657142E+02  0.15210628864E+04  0.10100000352E+00 0. -1.
       -3    1    3    3    0  502 -0.15168226424E+04  0.79376585102E+02  0.13062643704E+04  0.20033417548E+04  0.10100000352E+00 0.  1.
</event>
<event>
 5   0  0.8805125E-08  0.3299377E+04  0.7818609E-02  0.8163054E-01
        3   -1    0    0  501    0  0.00000000000E+00  0.00000000000E+00  0.11438308240E+04  0.11438308284E+04  0.10100000352E+00 0.  1.
       -3   -1    0    0    0  501  0.00000000000E+00  0.00000000000E+00 -0.23792610638E+04  0.23792610659E+04  0.10100000352E+00 0. -1.
    10030    2    1    2    0    0  0.00000000000E+00  0.00000000000E+00 -0.12354302398E+04  0.35230918943E+04  0.32993770046E+04 0.  0.
        5    1    3    3  502    0 -0.46906028297E+03 -0.15429251119E+04 -0.24656315490E+03  0.16313953934E+04  0.46999998093E+01 0.  1.
       -5    1    3    3    0  502  0.46906028297E+03  0.15429251119E+04 -0.98886708489E+03  0.18916965010E+04  0.46999998093E+01 0. -1.
</event>
<event>
 5   0  0.9810351E-08  0.3288085E+04  0.7818609E-02  0.8165934E-01
       -1   -1    0    0    0  501  0.00000000000E+00  0.00000000000E+00  0.20895880881E+04  0.20895880881E+04  0.50400001928E-02 0.  1.
        1   -1    0    0  501    0  0.00000000000E+00  0.00000000000E+00 -0.12934966729E+04  0.12934966729E+04  0.50400001928E-02 0. -1.
    10030    2    1    2    0    0  0.00000000000E+00  0.00000000000E+00  0.79609141521E+03  0.33830847610E+04  0.32880846946E+04 0.  0.
        5    1    3    3  502    0  0.38320769823E+03  0.15918750158E+04  0.24564824312E+03  0.16556809340E+04  0.46999998093E+01 0. -1.
       -5    1    3    3    0  502 -0.38320769823E+03 -0.15918750158E+04  0.55044317210E+03  0.17274038270E+04  0.46999998093E+01 0.  1.
</event>
<event>
 5   0  0.2824402E-07  0.3299123E+04  0.7818609E-02  0.8163119E-01
       -2   -1    0    0    0  501  0.00000000000E+00  0.00000000000E+00  0.20854173579E+04  0.20854173579E+04  0.25500000920E-02 0.  1.
        2   -1    0    0  501    0  0.00000000000E+00  0.00000000000E+00 -0.13048001699E+04  0.13048001699E+04  0.25500000920E-02 0. -1.
    10030    2    1    2    0    0  0.00000000000E+00  0.00000000000E+00  0.78061718798E+03  0.33902175278E+04  0.32991228670E+04 0.  0.
        1    1    3    3  502    0  0.27265335425E+03 -0.15657257335E+04  0.84434092377E+03  0.17996523331E+04  0.50400001928E-02 0. -1.
       -1    1    3    3    0  502 -0.27265335425E+03  0.15657257335E+04 -0.63723735787E+02  0.15905651948E+04  0.50400001928E-02 0.  1.
</event>
<event>
 5   0  0.8805125E-08  0.3300744E+04  0.7818609E-02  0.8162706E-01
        1   -1    0    0  501    0  0.00000000000E+00  0.00000000000E+00  0.17142160546E+04  0.17142160546E+04  0.50400001928E-02 0. -1.
       -1   -1    0    0    0  501  0.00000000000E+00  0.00000000000E+00 -0.15889053297E+04  0.15889053297E+04  0.50400001928E-02 0.  1.
    10030    2    1    2    0    0  0.00000000000E+00  0.00000000000E+00  0.12531072485E+03  0.33031213843E+04  0.33007435680E+04 0.  0.
        4    1    3    3  502    0  0.70562138199E+03  0.57278974820E+03  0.14412310692E+04  0.17038598059E+04  0.12699999809E+01 0. -1.
       -4    1    3    3    0  502 -0.70562138199E+03 -0.57278974820E+03 -0.13159203444E+04  0.15992615784E+04  0.12699999809E+01 0.  1.
</event>
<event>
 5   0  0.9454010E-08  0.3297965E+04  0.7818609E-02  0.8163413E-01
        1   -1    0    0  501    0  0.00000000000E+00  0.00000000000E+00  0.14779088229E+04  0.14779088229E+04  0.50400001928E-02 0.  1.
       -1   -1    0    0    0  501  0.00000000000E+00  0.00000000000E+00 -0.18398585526E+04  0.18398585526E+04  0.50400001928E-02 0. -1.
    10030    2    1    2    0    0  0.00000000000E+00  0.00000000000E+00 -0.36194972967E+03  0.33177673755E+04  0.32979649409E+04 0.  0.
        2    1    3    3  502    0  0.13686213639E+04  0.27752273130E+03 -0.10631667017E+04  0.17551258472E+04  0.25500000920E-02 0. -1.
       -2    1    3    3    0  502 -0.13686213639E+04 -0.27752273130E+03  0.70121697202E+03  0.15626415283E+04  0.25500000920E-02 0.  1.
</event>
<event>
 5   0  0.2713815E-07  0.3311055E+04  0.7818609E-02  0.8160088E-01
       -2   -1    0    0    0  501  0.00000000000E+00  0.00000000000E+00  0.12658053880E+04  0.12658053880E+04  0.25500000920E-02 0. -1.
        2   -1    0    0  501    0  0.00000000000E+00  0.00000000000E+00 -0.21652388881E+04  0.21652388881E+04  0.25500000920E-02 0.  1.
    10030    2    1    2    0    0  0.00000000000E+00  0.00000000000E+00 -0.89943350018E+03  0.34310442761E+04  0.33110548475E+04 0.  0.
        4    1    3    3  502    0 -0.61549179428E+02 -0.23087342785E+03 -0.21472770064E+04  0.21605302581E+04  0.12699999809E+01 0.  1.
       -4    1    3    3    0  502  0.61549179428E+02  0.23087342785E+03  0.12478435062E+04  0.12705140180E+04  0.12699999809E+01 0. -1.
</event>
<event>
 5   0  0.2727168E-07  0.3297225E+04  0.7818609E-02  0.8163602E-01
       -2   -1    0    0    0  501  0.00000000000E+00  0.00000000000E+00  0.13521636810E+04  0.13521636810E+04  0.25500000920E-02 0.  1.
        2   -1    0    0  501    0  0.00000000000E+00  0.00000000000E+00 -0.20100551395E+04  0.20100551395E+04  0.25500000920E-02 0. -1.
    10030    2    1    2    0    0  0.00000000000E+00  0.00000000000E+00 -0.65789145848E+03  0.33622188205E+04  0.32972252313E+04 0.  0.
        2    1    3    3  502    0 -0.56881145108E+03  0.23944607566E+03 -0.18878185350E+04  0.19861368812E+04  0.25500000920E-02 0. -1.
       -2    1    3    3    0  502  0.56881145108E+03 -0.23944607566E+03  0.12299270765E+04  0.13760819392E+04  0.25500000920E-02 0.  1.
</event>
<event>
 5   0  0.2703956E-07  0.3303392E+04  0.7818609E-02  0.8162033E-01
       -2   -1    0    0    0  501  0.00000000000E+00  0.00000000000E+00  0.37382761381E+04  0.37382761381E+04  0.25500000920E-02 0. -1.
        2   -1    0    0  501    0  0.00000000000E+00  0.00000000000E+00 -0.72977499140E+03  0.72977499140E+03  0.25500000920E-02 0.  1.
    10030    2    1    2    0    0  0.00000000000E+00  0.00000000000E+00  0.30085011467E+04  0.44680511295E+04  0.33033924602E+04 0.  0.
        5    1    3    3  502    0 -0.82145993547E+03 -0.13579291529E+04  0.21230548395E+04  0.26506889579E+04  0.46999998093E+01 0. -1.
       -5    1    3    3    0  502  0.82145993547E+03  0.13579291529E+04  0.88544630724E+03  0.18173621717E+04  0.46999998093E+01 0.  1.
</event>
<event>
 5   0  0.9454010E-08  0.3301550E+04  0.7818609E-02  0.8162501E-01
        1   -1    0    0  501    0  0.00000000000E+00  0.00000000000E+00  0.27232484752E+04  0.27232484752E+04  0.50400001928E-02 0. -1.
       -1   -1    0    0    0  501  0.00000000000E+00  0.00000000000E+00 -0.10006642480E+04  0.10006642480E+04  0.50400001928E-02 0.  1.
    10030    2    1    2    0    0  0.00000000000E+00  0.00000000000E+00  0.17225842272E+04  0.37239127233E+04  0.33015495681E+04 0.  0.
        2    1    3    3  502    0  0.63205252732E+03  0.92053144610E+03  0.22326368142E+04  0.24963044054E+04  0.25500000920E-02 0. -1.
       -2    1    3    3    0  502 -0.63205252732E+03 -0.92053144610E+03 -0.51005258698E+03  0.12276083178E+04  0.25500000920E-02 0.  1.
</event>
<event>
 5   0  0.2713815E-07  0.3288483E+04  0.7818609E-02  0.8165832E-01
        2   -1    0    0  501    0  0.00000000000E+00  0.00000000000E+00  0.18011577242E+04  0.18011577242E+04  0.25500000920E-02 0.  1.
       -2   -1    0    0    0  501  0.00000000000E+00  0.00000000000E+00 -0.15009958271E+04  0.15009958271E+04  0.25500000920E-02 0. -1.
    10030    2    1    2    0    0  0.00000000000E+00  0.00000000000E+00  0.30016189714E+03  0.33021535513E+04  0.32884830716E+04 0.  0.
        4    1    3    3  502    0  0.24608543968E+01 -0.31810123249E+03 -0.14698003273E+04  0.15038314616E+04  0.12699999809E+01 0. -1.
       -4    1    3    3    0  502 -0.24608543968E+01  0.31810123249E+03  0.17699622244E+04  0.17983220898E+04  0.12699999809E+01 0.  1.
</event>
<event>
 5   0  0.2875829E-07  0.3317414E+04  0.7818609E-02  0.8158479E-01
       -2   -1    0    0    0  501  0.00000000000E+00  0.00000000000E+00  0.21126028638E+04  0.21126028638E+04  0.25500000920E-02 0.  1.
        2   -1    0    0  501    0  0.00000000000E+00  0.00000000000E+00 -0.13023311663E+04  0.13023311663E+04  0.25500000920E-02 0. -1.
    10030    2    1    2    0    0  0.00000000000E+00  0.00000000000E+00  0.81027169751E+03  0.34149340301E+04  0.33174137828E+04 0.  0.
        3    1    3    3  502    0 -0.26340004282E+03 -0.44474321815E+03 -0.12173093846E+04  0.13225045409E+04  0.10100000352E+00 0. -1.
       -3    1    3    3    0  502  0.26340004282E+03  0.44474321815E+03  0.20275810821E+04  0.20924294892E+04  0.10100000352E+00 0.  1.
</event>
<event>
 5   0  0.9283910E-08  0.3294447E+04  0.7818609E-02  0.8164310E-01
        1   -1    0    0  501    0  0.00000000000E+00  0.00000000000E+00  0.18168860099E+04  0.18168860099E+04  0.50400001928E-02 0.  1.
       -1   -1    0    0    0  501  0.00000000000E+00  0.00000000000E+00 -0.14934045485E+04  0.14934045485E+04  0.50400001928E-02 0. -1.
    10030    2    1    2    0    0  0.00000000000E+00  0.00000000000E+00  0.32348146137E+03  0.33102905584E+04  0.32944473474E+04 0.  0.
        3    1    3    3  502    0  0.15201540848E+04  0.43955917247E+03  0.62139570143E+03  0.17000627446E+04  0.10100000352E+00 0.  1.
       -3    1    3    3    0  502 -0.15201540848E+04 -0.43955917247E+03 -0.29791424006E+03  0.16102278138E+04  0.10100000352E+00 0. -1.
</event>
<event>
 5   0  0.2875829E-07  0.3302994E+04  0.7818609E-02  0.8162134E-01
       -2   -1    0    0    0  501  0.00000000000E+00  0.00000000000E+00  0.18898590608E+04  0.18898590608E+04  0.25500000920E-02 0. -1.
        2   -1    0    0  501    0  0.00000000000E+00  0.00000000000E+00 -0.14431985876E+04  0.14431985876E+04  0.25500000920E-02 0.  1.
    10030    2    1    2    0    0  0.00000000000E+00  0.00000000000E+00  0.44666047321E+03  0.33330576484E+04  0.33029937495E+04 0.  0.
        3    1    3    3  502    0 -0.13377298598E+04  0.60726525068E+03  0.98461705797E+03  0.17685482814E+04  0.10100000352E+00 0. -1.
       -3    1    3    3    0  502  0.13377298598E+04 -0.60726525068E+03 -0.53795658477E+03  0.15645093671E+04  0.10100000352E+00 0.  1.
</event>
<event>
 5   0  0.9454010E-08  0.3301871E+04  0.7818609E-02  0.8162420E-01
        1   -1    0    0  501    0  0.00000000000E+00  0.00000000000E+00  0.15000052254E+04  0.15000052254E+04  0.50400001928E-02 0. -1.
       -1   -1    0    0    0  501  0.00000000000E+00  0.00000000000E+00 -0.18170521438E+04  0.18170521438E+04  0.50400001928E-02 0.  1.
    10030    2    1    2    0    0  0.00000000000E+00  0.00000000000E+00 -0.31704691838E+03  0.33170573692E+04  0.33018708094E+04 0.  0.
        2    1    3    3  502    0 -0.43951034071E+03 -0.15865648277E+04 -0.34544261042E+02  0.16466786566E+04  0.25500000920E-02 0. -1.
       -2    1    3    3    0  502  0.43951034071E+03  0.15865648277E+04 -0.28250265734E+03  0.16703787126E+04  0.25500000920E-02 0.  1.
</event>
<event>
 5   0  0.9181760E-08  0.3301021E+04  0.7818609E-02  0.8162636E-01
       -1   -1    0    0    0  501  0.00000000000E+00  0.00000000000E+00  0.11635237130E+04  0.11635237130E+04  0.50400001928E-02 0.  1.
        1   -1    0    0  501    0  0.00000000000E+00  0.00000000000E+00 -0.23413232940E+04  0.23413232940E+04  0.50400001928E-02 0. -1.
    10030    2    1    2    0    0  0.00000000000E+00  0.00000000000E+00 -0.11777995810E+04  0.35048470071E+04  0.33010211586E+04 0.  0.
        1    1    3    3  502    0  0.95053104238E+03 -0.12214669283E+04 -0.11976189122E+04  0.19569828252E+04  0.50400001928E-02 0.  1.
       -1    1    3    3    0  502 -0.95053104238E+03  0.12214669283E+04  0.19819331115E+02  0.15478641818E+04  0.50400001928E-02 0. -1.
</event>
<event>
 5   0  0.2713815E-07  0.3232065E+04  0.7818609E-02  0.8180400E-01
       -2   -1    0    0    0  501  0.00000000000E+00  0.00000000000E+00  0.15983146766E+04  0.15983146766E+04  0.25500000920E-02 0.  1.
        2   -1    0    0  501    0  0.00000000000E+00  0.00000000000E+00 -0.16339468923E+04  0.16339468923E+04  0.25500000920E-02 0. -1.
    10030    2    1    2    0    0  0.00000000000E+00  0.00000000000E+00 -0.35632215741E+02  0.32322615689E+04  0.32320651595E+04 0.  0.
        4    1    3    3  502    0 -0.35008736879E+03  0.70122620362E+01 -0.15955524165E+04  0.16335236344E+04  0.12699999809E+01 0. -1.
       -4    1    3    3    0  502  0.35008736879E+03 -0.70122620362E+01  0.15599202007E+04  0.15987379345E+04  0.12699999809E+01 0.  1.
</event>
<event>
 5   0  0.2713815E-07  0.3286850E+04  0.7818609E-02  0.8166250E-01
       -2   -1    0    0    0  501  0.00000000000E+00  0.00000000000E+00  0.20334051860E+04  0.20334051860E+04  0.25500000920E-02 0.  1.
        2   -1    0    0  501    0  0.00000000000E+00  0.00000000000E+00 -0.13282376200E+04  0.13282376200E+04  0.25500000920E-02 0. -1.
    10030    2    1    2    0    0  0.00000000000E+00  0.00000000000E+00  0.70516756597E+03  0.33616428061E+04  0.32868497166E+04 0.  0.
        4    1    3    3  502    0  0.13437353936E+04 -0.81364966813E+03  0.84647298346E+03  0.17844239169E+04  0.12699999809E+01 0. -1.
       -4    1    3    3    0  502 -0.13437353936E+04  0.81364966813E+03 -0.14130541749E+03  0.15772188892E+04  0.12699999809E+01 0.  1.
</event>
<event>
 5   0  0.2713815E-07  0.3299660E+04  0.7818609E-02  0.8162982E-01
        2   -1    0    0  501    0  0.00000000000E+00  0.00000000000E+00  0.22010650507E+04  0.22010650507E+04  0.25500000920E-02 0.  1.
       -2   -1    0    0    0  501  0.00000000000E+00  0.00000000000E+00 -0.12366466141E+04  0.12366466141E+04  0.25500000920E-02 0. -1.
    10030    2    1    2    0    0  0.00000000000E+00  0.00000000000E+00  0.96441843662E+03  0.34377116647E+04  0.32996603718E+04 0.  0.
        4    1    3    3  502    0 -0.12938206686E+04  0.86604806014E+03 -0.86453870404E+02  0.15593226253E+04  0.12699999809E+01 0. -1.
       -4    1    3    3    0  502  0.12938206686E+04 -0.86604806014E+03  0.10508723070E+04  0.18783890395E+04  0.12699999809E+01 0.  1.
</event>
<event>
 5   0  0.9181760E-08  0.3303306E+04  0.7818609E-02  0.8162055E-01
       -1   -1    0    0    0  501  0.00000000000E+00  0.00000000000E+00  0.24948103694E+04  0.24948103694E+04  0.50400001928E-02 0. -1.
        1   -1    0    0  501    0  0.00000000000E+00  0.00000000000E+00 -0.10934525736E+04  0.10934525737E+04  0.50400001928E-02 0.  1.
    10030    2    1    2    0    0  0.00000000000E+00  0.00000000000E+00  0.14013577958E+04  0.35882629431E+04  0.33033055077E+04 0.  0.
        1    1    3    3  502    0  0.12712510765E+04  0.33786108372E+03  0.17857082076E+04  0.22178780882E+04  0.50400001928E-02 0. -1.
       -1    1    3    3    0  502 -0.12712510765E+04 -0.33786108372E+03 -0.38435041184E+03  0.13703848549E+04  0.50400001928E-02 0.  1.
</event>
<event>
 5   0  0.2875829E-07  0.3303092E+04  0.7818609E-02  0.8162109E-01
       -2   -1    0    0    0  501  0.00000000000E+00  0.00000000000E+00  0.14064647135E+04  0.14064647135E+04  0.25500000920E-02 0.  1.
        2   -1    0    0  501    0  0.00000000000E+00  0.00000000000E+00 -0.19393340576E+04  0.19393340576E+04  0.25500000920E-02 0. -1.
    10030    2    1    2    0    0  0.00000000000E+00  0.00000000000E+00 -0.53286934416E+03  0.33457987711E+04  0.33030924417E+04 0.  0.
        3    1    3    3  502    0 -0.58634857930E+03  0.10060652942E+04  0.91987489337E+03  0.14839615434E+04  0.10100000352E+00 0.  1.
       -3    1    3    3    0  502  0.58634857930E+03 -0.10060652942E+04 -0.14527442375E+04  0.18618372277E+04  0.10100000352E+00 0. -1.
</event>
<event>
 5   0  0.2824402E-07  0.3300540E+04  0.7818609E-02  0.8162758E-01
       -2   -1    0    0    0  501  0.00000000000E+00  0.00000000000E+00  0.18559309009E+04  0.18559309009E+04  0.25500000920E-02 0.  1.
        2   -1    0    0  501    0  0.00000000000E+00  0.00000000000E+00 -0.14673987139E+04  0.14673987139E+04  0.25500000920E-02 0. -1.
    10030    2    1    2    0    0  0.00000000000E+00  0.00000000000E+00  0.38853218696E+03  0.33233296148E+04  0.33005397238E+04 0.  0.
        1    1    3    3  502    0 -0.87145277890E+03  0.10722613147E+04  0.11028360282E+04  0.17678861892E+04  0.50400001928E-02 0.  1.
       -1    1    3    3    0  502  0.87145277890E+03 -0.10722613147E+04 -0.71430384120E+03  0.15554434256E+04  0.50400001928E-02 0. -1.
</event>
<event>
 5   0  0.9454010E-08  0.3303942E+04  0.7818609E-02  0.8161893E-01
        1   -1    0    0  501    0  0.00000000000E+00  0.00000000000E+00  0.19110607826E+04  0.19110607827E+04  0.50400001928E-02 0.  1.
       -1   -1    0    0    0  501  0.00000000000E+00  0.00000000000E+00 -0.14280068198E+04  0.14280068198E+04  0.50400001928E-02 0. -1.
    10030    2    1    2    0    0  0.00000000000E+00  0.00000000000E+00  0.48305396289E+03  0.33390676024E+04  0.33039417856E+04 0.  0.
        2    1    3    3  502    0 -0.79438661409E+03 -0.88213659173E+03 -0.91950905041E+03  0.15015698295E+04  0.25500000920E-02 0. -1.
       -2    1    3    3    0  502  0.79438661409E+03  0.88213659173E+03  0.14025630133E+04  0.18374977729E+04  0.25500000920E-02 0.  1.
</event>
<event>
 5   0  0.9181760E-08  0.3299957E+04  0.7818609E-02  0.8162906E-01
       -1   -1    0    0    0  501  0.00000000000E+00  0.00000000000E+00  0.11587959675E+04  0.11587959675E+04  0.50400001928E-02 0.  1.
        1   -1    0    0  501    0  0.00000000000E+00  0.00000000000E+00 -0.23493599119E+04  0.23493599119E+04  0.50400001928E-02 0. -1.
    10030    2    1    2    0    0  0.00000000000E+00  0.00000000000E+00 -0.11905639444E+04  0.35081558793E+04  0.32999568434E+04 0.  0.
        1    1    3    3  502    0  0.68699682554E+02 -0.12815157006E+04  0.50717340545E+03  0.13799373176E+04  0.50400001928E-02 0.  1.
       -1    1    3    3    0  502 -0.68699682554E+02  0.12815157006E+04 -0.16977373498E+04  0.21282185617E+04  0.50400001928E-02 0. -1.
</event>
<event>
 5   0  0.9454010E-08  0.3298969E+04  0.7818609E-02  0.8163158E-01
        1   -1    0    0  501    0  0.00000000000E+00  0.00000000000E+00  0.23403947644E+04  0.23403947644E+04  0.50400001928E-02 0. -1.
       -1   -1    0    0    0  501  0.00000000000E+00  0.00000000000E+00 -0.11625382923E+04  0.11625382923E+04  0.50400001928E-02 0.  1.
    10030    2    1    2    0    0  0.00000000000E+00  0.00000000000E+00  0.11778564722E+04  0.35029330567E+04  0.32989686465E+04 0.  0.
        2    1    3    3  502    0  0.14370649687E+04  0.11704305913E+03  0.14396785748E+04  0.20375301717E+04  0.25500000920E-02 0. -1.
       -2    1    3    3    0  502 -0.14370649687E+04 -0.11704305913E+03 -0.26182210263E+03  0.14654028850E+04  0.25500000920E-02 0.  1.
</event>
<event>
 5   0  0.2875829E-07  0.3305175E+04  0.7818609E-02  0.8161580E-01
       -2   -1    0    0    0  501  0.00000000000E+00  0.00000000000E+00  0.12730757035E+04  0.12730757035E+04  0.25500000920E-02 0. -1.
        2   -1    0    0  501    0  0.00000000000E+00  0.00000000000E+00 -0.21452345991E+04  0.21452345991E+04  0.25500000920E-02 0.  1.
    10030    2    1    2    0    0  0.00000000000E+00  0.00000000000E+00 -0.87215889566E+03  0.34183103026E+04  0.33051753638E+04 0.  0.
        3    1    3    3  502    0 -0.10786449082E+03  0.21120831793E+03  0.12553848045E+04  0.12775894174E+04  0.10100000352E+00 0. -1.
       -3    1    3    3    0  502  0.10786449082E+03 -0.21120831793E+03 -0.21275437002E+04  0.21407208852E+04  0.10100000352E+00 0.  1.
</event>
<event>
 5   0  0.9454010E-08  0.3300165E+04  0.7818609E-02  0.8162853E-01
        1   -1    0    0  501    0  0.00000000000E+00  0.00000000000E+00  0.18234301701E+04  0.18234301701E+04  0.50400001928E-02 0.  1.
       -1   -1    0    0    0  501  0.00000000000E+00  0.00000000000E+00 -0.14932147696E+04  0.14932147696E+04  0.50400001928E-02 0. -1.
    10030    2    1    2    0    0  0.00000000000E+00  0.00000000000E+00  0.33021540054E+03  0.33166449397E+04  0.33001653663E+04 0.  0.
        2    1    3    3  502    0 -0.84457109295E+03  0.13734024298E+04  0.51791382915E+03  0.16934489363E+04  0.25500000920E-02 0.  1.
       -2    1    3    3    0  502  0.84457109295E+03 -0.13734024298E+04 -0.18769842861E+03  0.16231960034E+04  0.25500000920E-02 0. -1.
</event>
<event>
 5   0  0.2713815E-07  0.3278301E+04  0.7818609E-02  0.8168439E-01
       -2   -1    0    0    0  501  0.00000000000E+00  0.00000000000E+00  0.19520423911E+04  0.19520423911E+04  0.25500000920E-02 0.  1.
        2   -1    0    0  501    0  0.00000000000E+00  0.00000000000E+00 -0.13764117134E+04  0.13764117134E+04  0.25500000920E-02 0. -1.
    10030    2    1    2    0    0  0.00000000000E+00  0.00000000000E+00  0.57563067768E+03  0.33284541045E+04  0.32783007868E+04 0.  0.
        4    1    3    3  502    0 -0.13233386311E+04  0.82854473288E+03 -0.21892026175E+03  0.15765910062E+04  0.12699999809E+01 0. -1.
       -4    1    3    3    0  502  0.13233386311E+04 -0.82854473288E+03  0.79455093944E+03  0.17518630983E+04  0.12699999809E+01 0.  1.
</event>
<event>
 5   0  0.9283910E-08  0.3303900E+04  0.7818609E-02  0.8161904E-01
        1   -1    0    0  501    0  0.00000000000E+00  0.00000000000E+00  0.19609096325E+04  0.19609096326E+04  0.50400001928E-02 0.  1.
       -1   -1    0    0    0  501  0.00000000000E+00  0.00000000000E+00 -0.13916700929E+04  0.13916700930E+04  0.50400001928E-02 0. -1.
    10030    2    1    2    0    0  0.00000000000E+00  0.00000000000E+00  0.56923953960E+03  0.33525797255E+04  0.33039002955E+04 0.  0.
        3    1    3    3  502    0 -0.13806179166E+03 -0.94223008094E+03 -0.10851134387E+04  0.14437208070E+04  0.10100000352E+00 0. -1.
       -3    1    3    3    0  502  0.13806179166E+03  0.94223008094E+03  0.16543529783E+04  0.19088589185E+04  0.10100000352E+00 0.  1.
</event>
<event>
 5   0  0.9181760E-08  0.3289115E+04  0.7818609E-02  0.8165671E-01
       -1   -1    0    0    0  501  0.00000000000E+00  0.00000000000E+00  0.97958701743E+03  0.97958701744E+03  0.50400001928E-02 0.  1.
        1   -1    0    0  501    0  0.00000000000E+00  0.00000000000E+00 -0.27609277123E+04  0.27609277123E+04  0.50400001928E-02 0. -1.
    10030    2    1    2    0    0  0.00000000000E+00  0.00000000000E+00 -0.17813406948E+04  0.37405147297E+04  0.32891147399E+04 0.  0.
        1    1    3    3  502    0  0.14977430494E+04  0.35115957728E+03 -0.15518578032E+04  0.21851338476E+04  0.50400001928E-02 0. -1.
       -1    1    3    3    0  502 -0.14977430494E+04 -0.35115957728E+03 -0.22948289168E+03  0.15553808821E+04  0.50400001928E-02 0.  1.
</event>
<event>
 5   0  0.2713815E-07  0.3313022E+04  0.7818609E-02  0.8159590E-01
       -2   -1    0    0    0  501  0.00000000000E+00  0.00000000000E+00  0.11251465604E+04  0.11251465604E+04  0.25500000920E-02 0. -1.
        2   -1    0    0  501    0  0.00000000000E+00  0.00000000000E+00 -0.24388181976E+04  0.24388181976E+04  0.25500000920E-02 0.  1.
    10030    2    1    2    0    0  0.00000000000E+00  0.00000000000E+00 -0.13136716372E+04  0.35639647581E+04  0.33130215252E+04 0.  0.
        4    1    3    3  502    0 -0.16578254237E+03 -0.13096168410E+04  0.41968627858E+03  0.13851780777E+04  0.12699999809E+01 0. -1.
       -4    1    3    3    0  502  0.16578254237E+03  0.13096168410E+04 -0.17333579158E+04  0.21787866804E+04  0.12699999809E+01 0.  1.
</event>
<event>
 5   0  0.2703956E-07  0.3297211E+04  0.7818609E-02  0.8163606E-01
       -2   -1    0    0    0  501  0.00000000000E+00  0.00000000000E+00  0.19319057005E+04  0.19319057005E+04  0.25500000920E-02 0.  1.
        2   -1    0    0  501    0  0.00000000000E+00  0.00000000000E+00 -0.14068488669E+04  0.14068488669E+04  0.25500000920E-02 0. -1.
    10030    2    1    2    0    0  0.00000000000E+00  0.00000000000E+00  0.52505683358E+03  0.33387545674E+04  0.32972105457E+04 0.  0.
        5    1    3    3  502    0  0.64569005743E+03  0.66906281404E+03 -0.11159901431E+04  0.14525896836E+04  0.46999998093E+01 0. -1.
       -5    1    3    3    0  502 -0.64569005743E+03 -0.66906281404E+03  0.16410469766E+04  0.18861648838E+04  0.46999998093E+01 0.  1.
</event>
<event>
 5   0  0.9454010E-08  0.3306773E+04  0.7818609E-02  0.8161174E-01
       -1   -1    0    0    0  501  0.00000000000E+00  0.00000000000E+00  0.12815539980E+04  0.12815539980E+04  0.50400001928E-02 0.  1.
        1   -1    0    0  501    0  0.00000000000E+00  0.00000000000E+00 -0.21331027984E+04  0.21331027984E+04  0.50400001928E-02 0. -1.
    10030    2    1    2    0    0  0.00000000000E+00  0.00000000000E+00 -0.85154880037E+03  0.34146567964E+04  0.33067726983E+04 0.  0.
        2    1    3    3  502    0  0.68186075641E+03 -0.81864934968E+03 -0.17313677941E+04  0.20329179244E+04  0.25500000920E-02 0. -1.
       -2    1    3    3    0  502 -0.68186075641E+03  0.81864934968E+03  0.87981899372E+03  0.13817388721E+04  0.25500000920E-02 0.  1.
</event>
<event>
 5   0  0.8805125E-08  0.3294042E+04  0.7818609E-02  0.8164413E-01
        1   -1    0    0  501    0  0.00000000000E+00  0.00000000000E+00  0.80875772752E+03  0.80875772754E+03  0.50400001928E-02 0. -1.
       -1   -1    0    0    0  501  0.00000000000E+00  0.00000000000E+00 -0.33541287489E+04  0.33541287489E+04  0.50400001928E-02 0.  1.
    10030    2    1    2    0    0  0.00000000000E+00  0.00000000000E+00 -0.25453710214E+04  0.41628864765E+04  0.32940416177E+04 0.  0.
        4    1    3    3  502    0 -0.68474640852E+03 -0.14872659352E+04 -0.14981824226E+04  0.22193219213E+04  0.12699999809E+01 0.  1.
       -4    1    3    3    0  502  0.68474640852E+03  0.14872659352E+04 -0.10471885988E+04  0.19435645552E+04  0.12699999809E+01 0. -1.
</event>
<event>
 5   0  0.9181760E-08  0.3279979E+04  0.7818609E-02  0.8168009E-01
       -1   -1    0    0    0  501  0.00000000000E+00  0.00000000000E+00  0.28802042848E+04  0.28802042848E+04  0.50400001928E-02 0.  1.
        1   -1    0    0  501    0  0.00000000000E+00  0.00000000000E+00 -0.93381057901E+03  0.93381057902E+03  0.50400001928E-02 0. -1.
    10030    2    1    2    0    0  0.00000000000E+00  0.00000000000E+00  0.19463937058E+04  0.38140148638E+04  0.32799787992E+04 0.  0.
        1    1    3    3  502    0 -0.12975212797E+04 -0.33446255107E+03  0.20727437496E+04  0.24681355961E+04  0.50400001928E-02 0.  1.
       -1    1    3    3    0  502  0.12975212797E+04  0.33446255107E+03 -0.12635004384E+03  0.13458792676E+04  0.50400001928E-02 0. -1.
</event>
<event>
 5   0  0.9810351E-08  0.3309553E+04  0.7818609E-02  0.8160469E-01
       -1   -1    0    0    0  501  0.00000000000E+00  0.00000000000E+00  0.11234470578E+04  0.11234470578E+04  0.50400001928E-02 0.  1.
        1   -1    0    0  501    0  0.00000000000E+00  0.00000000000E+00 -0.24373964582E+04  0.24373964582E+04  0.50400001928E-02 0. -1.
    10030    2    1    2    0    0  0.00000000000E+00  0.00000000000E+00 -0.13139494005E+04  0.35608435160E+04  0.33095533715E+04 0.  0.
        5    1    3    3  502    0  0.57313901820E+03  0.10967465800E+04 -0.18389902027E+04  0.22165848620E+04  0.46999998093E+01 0.  1.
       -5    1    3    3    0  502 -0.57313901820E+03 -0.10967465800E+04  0.52504080220E+03  0.13442586540E+04  0.46999998093E+01 0. -1.
</event>
<event>
 5   0  0.9283910E-08  0.3307392E+04  0.7818609E-02  0.8161017E-01
        1   -1    0    0  501    0  0.00000000000E+00  0.00000000000E+00  0.18499621917E+04  0.18499621917E+04  0.50400001928E-02 0.  1.
       -1   -1    0    0    0  501  0.00000000000E+00  0.00000000000E+00 -0.14782516919E+04  0.14782516919E+04  0.50400001928E-02 0. -1.
    10030    2    1    2    0    0  0.00000000000E+00  0.00000000000E+00  0.37171049984E+03  0.33282138837E+04  0.33073915643E+04 0.  0.
        3    1    3    3  502    0 -0.14911985239E+04 -0.67520962221E+03 -0.50417874363E+02  0.16377188537E+04  0.10100000352E+00 0. -1.
       -3    1    3    3    0  502  0.14911985239E+04  0.67520962221E+03  0.42212837420E+03  0.16904950299E+04  0.10100000352E+00 0.  1.
</event>
<event>
 5   0  0.2824402E-07  0.3300093E+04  0.7818609E-02  0.8162872E-01
       -2   -1    0    0    0  501  0.00000000000E+00  0.00000000000E+00  0.13048162011E+04  0.13048162011E+04  0.25500000920E-02 0. -1.
        2   -1    0    0  501    0  0.00000000000E+00  0.00000000000E+00 -0.20866183730E+04  0.20866183730E+04  0.25500000920E-02 0.  1.
    10030    2    1    2    0    0  0.00000000000E+00  0.00000000000E+00 -0.78180217185E+03  0.33914345741E+04  0.33000930039E+04 0.  0.
        1    1    3    3  502    0 -0.76819600958E+03 -0.10975050937E+04  0.59909575067E+03  0.14675006843E+04  0.50400001928E-02 0. -1.
       -1    1    3    3    0  502  0.76819600958E+03  0.10975050937E+04 -0.13808979225E+04  0.19239338898E+04  0.50400001928E-02 0.  1.
</event>
<event>
 5   0  0.9810351E-08  0.3285952E+04  0.7818609E-02  0.8166479E-01
       -1   -1    0    0    0  501  0.00000000000E+00  0.00000000000E+00  0.22225992566E+04  0.22225992566E+04  0.50400001928E-02 0. -1.
        1   -1    0    0  501    0  0.00000000000E+00  0.00000000000E+00 -0.12145104426E+04  0.12145104426E+04  0.50400001928E-02 0.  1.
    10030    2    1    2    0    0  0.00000000000E+00  0.00000000000E+00  0.10080888140E+04  0.34371096992E+04  0.32859519211E+04 0.  0.
        5    1    3    3  502    0  0.37884256889E+03 -0.10365227545E+04  0.17771816403E+04  0.20919602733E+04  0.46999998093E+01 0. -1.
       -5    1    3    3    0  502 -0.37884256889E+03  0.10365227545E+04 -0.76909282629E+03  0.13451494259E+04  0.46999998093E+01 0.  1.
</event>
<event>
 5   0  0.9181760E-08  0.3301339E+04  0.7818609E-02  0.8162555E-01
        1   -1    0    0  501    0  0.00000000000E+00  0.00000000000E+00  0.13503304619E+04  0.13503304619E+04  0.50400001928E-02 0. -1.
       -1   -1    0    0    0  501  0.00000000000E+00  0.00000000000E+00 -0.20178091212E+04  0.20178091212E+04  0.50400001928E-02 0.  1.
    10030    2    1    2    0    0  0.00000000000E+00  0.00000000000E+00 -0.66747865931E+03  0.33681395831E+04  0.33013385907E+04 0.  0.
        1    1    3    3  502    0  0.88100244509E+03 -0.37192120528E+03 -0.17064073125E+04  0.19560972899E+04  0.50400001928E-02 0.  1.
       -1    1    3    3    0  502 -0.88100244509E+03  0.37192120528E+03  0.10389286532E+04  0.14120422932E+04  0.50400001928E-02 0. -1.
</event>
<event>
 5   0  0.9283910E-08  0.3302118E+04  0.7818609E-02  0.8162357E-01
       -1   -1    0    0    0  501  0.00000000000E+00  0.00000000000E+00  0.25860107458E+04  0.25860107458E+04  0.50400001928E-02 0. -1.
        1   -1    0    0  501    0  0.00000000000E+00  0.00000000000E+00 -0.10541318956E+04  0.10541318956E+04  0.50400001928E-02 0.  1.
    10030    2    1    2    0    0  0.00000000000E+00  0.00000000000E+00  0.15318788502E+04  0.36401426414E+04  0.33021183561E+04 0.  0.
        3    1    3    3  502    0  0.89721628994E+03 -0.47622873003E+03 -0.66891821176E+03  0.12162411186E+04  0.10100000352E+00 0.  1.
       -3    1    3    3    0  502 -0.89721628994E+03  0.47622873003E+03  0.22007970620E+04  0.24239015229E+04  0.10100000352E+00 0. -1.
</event>
<event>
 5   0  0.8805125E-08  0.3302636E+04  0.7818609E-02  0.8162225E-01
       -1   -1    0    0    0  501  0.00000000000E+00  0.00000000000E+00  0.20558755119E+04  0.20558755119E+04  0.50400001928E-02 0.  1.
        1   -1    0    0  501    0  0.00000000000E+00  0.00000000000E+00 -0.13263697281E+04  0.13263697281E+04  0.50400001928E-02 0. -1.
    10030    2    1    2    0    0  0.00000000000E+00  0.00000000000E+00  0.72950578374E+03  0.33822452400E+04  0.33026359435E+04 0.  0.
        4    1    3    3  502    0  0.36158341634E+03 -0.42119739032E+03  0.19574579508E+04  0.20346481392E+04  0.12699999809E+01 0.  1.
       -4    1    3    3    0  502 -0.36158341634E+03  0.42119739032E+03 -0.12279521670E+04  0.13475971008E+04  0.12699999809E+01 0. -1.
</event>
<event>
 5   0  0.9283910E-08  0.3337520E+04  0.7818609E-02  0.8153414E-01
       -1   -1    0    0    0  501  0.00000000000E+00  0.00000000000E+00  0.16419924335E+04  0.16419924335E+04  0.50400001928E-02 0. -1.
        1   -1    0    0  501    0  0.00000000000E+00  0.00000000000E+00 -0.16959638100E+04  0.16959638100E+04  0.50400001928E-02 0.  1.
    10030    2    1    2    0    0  0.00000000000E+00  0.00000000000E+00 -0.53971376561E+02  0.33379562435E+04  0.33375198837E+04 0.  0.
        3    1    3    3  502    0 -0.14823861404E+04  0.74232826930E+03 -0.21737812949E+03  0.16720565750E+04  0.10100000352E+00 0.  1.
       -3    1    3    3    0  502  0.14823861404E+04 -0.74232826930E+03  0.16340675293E+03  0.16658996685E+04  0.10100000352E+00 0. -1.
</event>
<event>
 5   0  0.2824402E-07  0.3336931E+04  0.7818609E-02  0.8153561E-01
        2   -1    0    0  501    0  0.00000000000E+00  0.00000000000E+00  0.27782774807E+04  0.27782774807E+04  0.25500000920E-02 0.  1.
       -2   -1    0    0    0  501  0.00000000000E+00  0.00000000000E+00 -0.10019793050E+04  0.10019793050E+04  0.25500000920E-02 0. -1.
    10030    2    1    2    0    0  0.00000000000E+00  0.00000000000E+00  0.17762981757E+04  0.37802567857E+04  0.33369306491E+04 0.  0.
        1    1    3    3  502    0 -0.11199823522E+04  0.63719854629E+03 -0.31256660506E+03  0.13259262194E+04  0.50400001928E-02 0. -1.
       -1    1    3    3    0  502  0.11199823522E+04 -0.63719854629E+03  0.20888647807E+04  0.24543305663E+04  0.50400001928E-02 0.  1.
</event>
<event>
 5   0  0.2703956E-07  0.3302961E+04  0.7818609E-02  0.8162142E-01
       -2   -1    0    0    0  501  0.00000000000E+00  0.00000000000E+00  0.10535962608E+04  0.10535962608E+04  0.25500000920E-02 0.  1.
        2   -1    0    0  501    0  0.00000000000E+00  0.00000000000E+00 -0.25886461437E+04  0.25886461437E+04  0.25500000920E-02 0. -1.
    10030    2    1    2    0    0  0.00000000000E+00  0.00000000000E+00 -0.15350498829E+04  0.36422424045E+04  0.33029610336E+04 0.  0.
        5    1    3    3  502    0 -0.15320735850E+04  0.11863660018E+03 -0.10036390472E+03  0.15399412703E+04  0.46999998093E+01 0.  1.
       -5    1    3    3    0  502  0.15320735850E+04 -0.11863660018E+03 -0.14346859782E+04  0.21023011342E+04  0.46999998093E+01 0. -1.
</event>
<event>
 5   0  0.9283910E-08  0.3301989E+04  0.7818609E-02  0.8162389E-01
        1   -1    0    0  501    0  0.00000000000E+00  0.00000000000E+00  0.29112613926E+04  0.29112613926E+04  0.50400001928E-02 0. -1.
       -1   -1    0    0    0  501  0.00000000000E+00  0.00000000000E+00 -0.93628928041E+03  0.93628928042E+03  0.50400001928E-02 0.  1.
    10030    2    1    2    0    0  0.00000000000E+00  0.00000000000E+00  0.19749721122E+04  0.38475506730E+04  0.33019889972E+04 0.  0.
        3    1    3    3  502    0  0.75523140758E+03 -0.20222967069E+03  0.26818775119E+04  0.27935171948E+04  0.10100000352E+00 0. -1.
       -3    1    3    3    0  502 -0.75523140758E+03  0.20222967069E+03 -0.70690539975E+03  0.10540334782E+04  0.10100000352E+00 0.  1.
</event>
<event>
 5   0  0.9454010E-08  0.3300882E+04  0.7818609E-02  0.8162671E-01
        1   -1    0    0  501    0  0.00000000000E+00  0.00000000000E+00  0.11250838118E+04  0.11250838118E+04  0.50400001928E-02 0.  1.
       -1   -1    0    0    0  501  0.00000000000E+00  0.00000000000E+00 -0.24211133196E+04  0.24211133196E+04  0.50400001928E-02 0. -1.
    10030    2    1    2    0    0  0.00000000000E+00  0.00000000000E+00 -0.12960295078E+04  0.35461971314E+04  0.33008819442E+04 0.  0.
        2    1    3    3  502    0  0.36961980786E+03 -0.15559584282E+04 -0.20986947539E+03  0.16129695067E+04  0.25500000920E-02 0.  1.
       -2    1    3    3    0  502 -0.36961980786E+03  0.15559584282E+04 -0.10861600324E+04  0.19332276247E+04  0.25500000920E-02 0. -1.
</event>
<event>
 5   0  0.8805125E-08  0.3341563E+04  0.7818609E-02  0.8152399E-01
       -1   -1    0    0    0  501  0.00000000000E+00  0.00000000000E+00  0.15422819548E+04  0.15422819548E+04  0.50400001928E-02 0.  1.
        1   -1    0    0  501    0  0.00000000000E+00  0.00000000000E+00 -0.18099877980E+04  0.18099877981E+04  0.50400001928E-02 0. -1.
    10030    2    1    2    0    0  0.00000000000E+00  0.00000000000E+00 -0.26770584322E+03  0.33522697529E+04  0.33415634182E+04 0.  0.
        4    1    3    3  502    0  0.54613366374E+03 -0.87508554652E+03 -0.14523977863E+04  0.17814313445E+04  0.12699999809E+01 0. -1.
       -4    1    3    3    0  502 -0.54613366374E+03  0.87508554652E+03  0.11846919431E+04  0.15708384084E+04  0.12699999809E+01 0.  1.
</event>
<event>
 5   0  0.9454010E-08  0.3295029E+04  0.7818609E-02  0.8164161E-01
        1   -1    0    0  501    0  0.00000000000E+00  0.00000000000E+00  0.17792266949E+04  0.17792266949E+04  0.50400001928E-02 0. -1.
       -1   -1    0    0    0  501  0.00000000000E+00  0.00000000000E+00 -0.15255526825E+04  0.15255526825E+04  0.50400001928E-02 0.  1.
    10030    2    1    2    0    0  0.00000000000E+00  0.00000000000E+00  0.25367401239E+03  0.33047793774E+04  0.32950290179E+04 0.  0.
        2    1    3    3  502    0 -0.13218299948E+04 -0.63383698060E+02 -0.85741906772E+03  0.15768384464E+04  0.25500000920E-02 0.  1.
       -2    1    3    3    0  502  0.13218299948E+04  0.63383698060E+02  0.11110930801E+04  0.17279409310E+04  0.25500000920E-02 0. -1.
</event>
<event>
 5   0  0.9181760E-08  0.3301090E+04  0.7818609E-02  0.8162618E-01
        1   -1    0    0  501    0  0.00000000000E+00  0.00000000000E+00  0.11019392071E+04  0.11019392071E+04  0.50400001928E-02 0. -1.
       -1   -1    0    0    0  501  0.00000000000E+00  0.00000000000E+00 -0.24722763375E+04  0.24722763375E+04  0.50400001928E-02 0.  1.
    10030    2    1    2    0    0  0.00000000000E+00  0.00000000000E+00 -0.13703371305E+04  0.35742155446E+04  0.33010896547E+04 0.  0.
        1    1    3    3  502    0  0.60475287043E+03  0.34693168920E+03 -0.23050151830E+04  0.24081492115E+04  0.50400001928E-02 0.  1.
       -1    1    3    3    0  502 -0.60475287043E+03 -0.34693168920E+03  0.93467805252E+03  0.11660663331E+04  0.50400001928E-02 0. -1.
</event>
<event>
 5   0  0.9810351E-08  0.3303360E+04  0.7818609E-02  0.8162041E-01
        1   -1    0    0  501    0  0.00000000000E+00  0.00000000000E+00  0.15164894507E+04  0.15164894507E+04  0.50400001928E-02 0.  1.
       -1   -1    0    0    0  501  0.00000000000E+00  0.00000000000E+00 -0.17989220096E+04  0.17989220096E+04  0.50400001928E-02 0. -1.
    10030    2    1    2    0    0  0.00000000000E+00  0.00000000000E+00 -0.28243255883E+03  0.33154114603E+04  0.33033596536E+04 0.  0.
        5    1    3    3  502    0  0.89726166265E+03 -0.11832258775E+04  0.58455555578E+03  0.15958788351E+04  0.46999998093E+01 0.  1.
       -5    1    3    3    0  502 -0.89726166265E+03  0.11832258775E+04 -0.86698811461E+03  0.17195326252E+04  0.46999998093E+01 0. -1.
</event>
<event>
 5   0  0.2703956E-07  0.3297706E+04  0.7818609E-02  0.8163479E-01
        2   -1    0    0  501    0  0.00000000000E+00  0.00000000000E+00  0.26781716818E+04  0.26781716818E+04  0.25500000920E-02 0.  1.
       -2   -1    0    0    0  501  0.00000000000E+00  0.00000000000E+00 -0.10151391496E+04  0.10151391496E+04  0.25500000920E-02 0. -1.
    10030    2    1    2    0    0  0.00000000000E+00  0.00000000000E+00  0.16630325322E+04  0.36933108314E+04  0.32977064293E+04 0.  0.
        5    1    3    3  502    0  0.14395440599E+04  0.63430841970E+03  0.27822645575E+03  0.15975188019E+04  0.46999998093E+01 0.  1.
       -5    1    3    3    0  502 -0.14395440599E+04 -0.63430841970E+03  0.13848060765E+04  0.20957920295E+04  0.46999998093E+01 0. -1.
</event>
<event>
 5   0  0.2713815E-07  0.3293217E+04  0.7818609E-02  0.8164624E-01
       -2   -1    0    0    0  501  0.00000000000E+00  0.00000000000E+00  0.14340916544E+04  0.14340916544E+04  0.25500000920E-02 0. -1.
        2   -1    0    0  501    0  0.00000000000E+00  0.00000000000E+00 -0.18906175818E+04  0.18906175818E+04  0.25500000920E-02 0.  1.
    10030    2    1    2    0    0  0.00000000000E+00  0.00000000000E+00 -0.45652592744E+03  0.33247092362E+04  0.32932166013E+04 0.  0.
        4    1    3    3  502    0  0.50209012777E+02  0.69251520319E+03  0.12790719023E+04  0.14553778876E+04  0.12699999809E+01 0. -1.
       -4    1    3    3    0  502 -0.50209012777E+02 -0.69251520319E+03 -0.17355978297E+04  0.18693313486E+04  0.12699999809E+01 0.  1.
</event>
<event>
 5   0  0.9810351E-08  0.3296242E+04  0.7818609E-02  0.8163852E-01
        1   -1    0    0  501    0  0.00000000000E+00  0.00000000000E+00  0.24292281239E+04  0.24292281239E+04  0.50400001928E-02 0.  1.
       -1   -1    0    0    0  501  0.00000000000E+00  0.00000000000E+00 -0.11181755447E+04  0.11181755447E+04  0.50400001928E-02 0. -1.
    10030    2    1    2    0    0  0.00000000000E+00  0.00000000000E+00  0.13110525792E+04  0.35474036685E+04  0.32962423943E+04 0.  0.
        5    1    3    3  502    0 -0.48793184522E+03 -0.32633791909E+03 -0.10018534692E+04  0.11611659600E+04  0.46999998093E+01 0. -1.
       -5    1    3    3    0  502  0.48793184522E+03  0.32633791909E+03  0.23129060484E+04  0.23862377085E+04  0.46999998093E+01 0.  1.
</event>
<event>
 5   0  0.2824402E-07  0.3305885E+04  0.7818609E-02  0.8161400E-01
        2   -1    0    0  501    0  0.00000000000E+00  0.00000000000E+00  0.17225326484E+04  0.17225326484E+04  0.25500000920E-02 0.  1.
       -2   -1    0    0    0  501  0.00000000000E+00  0.00000000000E+00 -0.15861637832E+04  0.15861637832E+04  0.25500000920E-02 0. -1.
    10030    2    1    2    0    0  0.00000000000E+00  0.00000000000E+00  0.13636886522E+03  0.33086964317E+04  0.33058849964E+04 0.  0.
        1    1    3    3  502    0 -0.14260434810E+03  0.76451168365E+03 -0.13916185537E+04  0.15941820202E+04  0.50400001928E-02 0. -1.
       -1    1    3    3    0  502  0.14260434810E+03 -0.76451168365E+03  0.15279874190E+04  0.17145144114E+04  0.50400001928E-02 0.  1.
</event>
<event>
 5   0  0.2713815E-07  0.3287503E+04  0.7818609E-02  0.8166083E-01
       -2   -1    0    0    0  501  0.00000000000E+00  0.00000000000E+00  0.16719244688E+04  0.16719244688E+04  0.25500000920E-02 0. -1.
        2   -1    0    0  501    0  0.00000000000E+00  0.00000000000E+00 -0.16160529202E+04  0.16160529202E+04  0.25500000920E-02 0.  1.
    10030    2    1    2    0    0  0.00000000000E+00  0.00000000000E+00  0.55871548617E+02  0.32879773890E+04  0.32875026511E+04 0.  0.
        4    1    3    3  502    0  0.61407837368E+03 -0.84695993076E+03 -0.12401130145E+04  0.16224411468E+04  0.12699999809E+01 0.  1.
       -4    1    3    3    0  502 -0.61407837368E+03  0.84695993076E+03  0.12959845631E+04  0.16655362422E+04  0.12699999809E+01 0. -1.
</event>
<event>
 5   0  0.2713815E-07  0.3309826E+04  0.7818609E-02  0.8160400E-01
        2   -1    0    0  501    0  0.00000000000E+00  0.00000000000E+00  0.89765286285E+03  0.89765286285E+03  0.25500000920E-02 0. -1.
       -2   -1    0    0    0  501  0.00000000000E+00  0.00000000000E+00 -0.30509970235E+04  0.30509970235E+04  0.25500000920E-02 0.  1.
    10030    2    1    2    0    0  0.00000000000E+00  0.00000000000E+00 -0.21533441606E+04  0.39486498863E+04  0.33098255016E+04 0.  0.
        4    1    3    3  502    0 -0.43266112085E+03  0.15522633417E+04 -0.15262597788E+04  0.22195016676E+04  0.12699999809E+01 0.  1.
       -4    1    3    3    0  502  0.43266112085E+03 -0.15522633417E+04 -0.62708438184E+03  0.17291482187E+04  0.12699999809E+01 0. -1.
</event>
<event>
 5   0  0.9181760E-08  0.3297883E+04  0.7818609E-02  0.8163434E-01
       -1   -1    0    0    0  501  0.00000000000E+00  0.00000000000E+00  0.12918259860E+04  0.12918259860E+04  0.50400001928E-02 0. -1.
        1   -1    0    0  501    0  0.00000000000E+00  0.00000000000E+00 -0.21047789501E+04  0.21047789501E+04  0.50400001928E-02 0.  1.
    10030    2    1    2    0    0  0.00000000000E+00  0.00000000000E+00 -0.81295296410E+03  0.33966049362E+04  0.32978830438E+04 0.  0.
        1    1    3    3  502    0 -0.38518621391E+03  0.12511001208E+03 -0.20527581863E+04  0.20923281544E+04  0.50400001928E-02 0.  1.
       -1    1    3    3    0  502  0.38518621391E+03 -0.12511001208E+03  0.12398052222E+04  0.13042767818E+04  0.50400001928E-02 0. -1.
</event>
<event>
 5   0  0.9810351E-08  0.3285818E+04  0.7818609E-02  0.8166513E-01
        1   -1    0    0  501    0  0.00000000000E+00  0.00000000000E+00  0.19858177638E+04  0.19858177638E+04  0.50400001928E-02 0. -1.
       -1   -1    0    0    0  501  0.00000000000E+00  0.00000000000E+00 -0.13592136782E+04  0.13592136782E+04  0.50400001928E-02 0.  1.
    10030    2    1    2    0    0  0.00000000000E+00  0.00000000000E+00  0.62660408560E+03  0.33450314420E+04  0.32858184167E+04 0.  0.
        5    1    3    3  502    0  0.69490729606E+03  0.14582936647E+04  0.61804927140E+03  0.17296021376E+04  0.46999998093E+01 0. -1.
       -5    1    3    3    0  502 -0.69490729606E+03 -0.14582936647E+04  0.85548142004E+01  0.16154293044E+04  0.46999998093E+01 0.  1.
</event>
<event>
 5   0  0.9283910E-08  0.3297999E+04  0.7818609E-02  0.8163405E-01
       -1   -1    0    0    0  501  0.00000000000E+00  0.00000000000E+00  0.18722745965E+04  0.18722745965E+04  0.50400001928E-02 0. -1.
        1   -1    0    0  501    0  0.00000000000E+00  0.00000000000E+00 -0.14523505652E+04  0.14523505652E+04  0.50400001928E-02 0.  1.
    10030    2    1    2    0    0  0.00000000000E+00  0.00000000000E+00  0.41992403133E+03  0.33246251618E+04  0.32979988287E+04 0.  0.
        3    1    3    3  502    0  0.13356156362E+04  0.74048062175E+03  0.83709260600E+03  0.17415236777E+04  0.10100000352E+00 0. -1.
       -3    1    3    3    0  502 -0.13356156362E+04 -0.74048062175E+03 -0.41716857467E+03  0.15831014840E+04  0.10100000352E+00 0.  1.
</event>
<event>
 5   0  0.2713815E-07  0.3301624E+04  0.7818609E-02  0.8162482E-01
       -2   -1    0    0    0  501  0.00000000000E+00  0.00000000000E+00  0.17052356686E+04  0.17052356686E+04  0.25500000920E-02 0.  1.
        2   -1    0    0  501    0  0.00000000000E+00  0.00000000000E+00 -0.15981253952E+04  0.15981253952E+04  0.25500000920E-02 0. -1.
    10030    2    1    2    0    0  0.00000000000E+00  0.00000000000E+00  0.10711027337E+03  0.33033610638E+04  0.33016241015E+04 0.  0.
        4    1    3    3  502    0 -0.63436417292E+03 -0.35457018186E+03 -0.14294665089E+04  0.16035940979E+04  0.12699999809E+01 0. -1.
       -4    1    3    3    0  502  0.63436417292E+03  0.35457018186E+03  0.15365767823E+04  0.16997669659E+04  0.12699999809E+01 0.  1.
</event>
<event>
 5   0  0.8805125E-08  0.3301362E+04  0.7818609E-02  0.8162549E-01
       -1   -1    0    0    0  501  0.00000000000E+00  0.00000000000E+00  0.19594167991E+04  0.19594167991E+04  0.50400001928E-02 0.  1.
        1   -1    0    0  501    0  0.00000000000E+00  0.00000000000E+00 -0.13905913878E+04  0.13905913878E+04  0.50400001928E-02 0. -1.
    10030    2    1    2    0    0  0.00000000000E+00  0.00000000000E+00  0.56882541135E+03  0.33500081869E+04  0.33013622194E+04 0.  0.
        4    1    3    3  502    0 -0.11096480385E+04 -0.20176036675E+03  0.15074613307E+04  0.18826755672E+04  0.12699999809E+01 0.  1.
       -4    1    3    3    0  502  0.11096480385E+04  0.20176036675E+03 -0.93863591935E+03  0.14673326197E+04  0.12699999809E+01 0. -1.
</event>
<event>
 5   0  0.2875829E-07  0.3232015E+04  0.7818609E-02  0.8180413E-01
        2   -1    0    0  501    0  0.00000000000E+00  0.00000000000E+00  0.10085959944E+04  0.10085959944E+04  0.25500000920E-02 0.  1.
       -2   -1    0    0    0  501  0.00000000000E+00  0.00000000000E+00 -0.25892236553E+04  0.25892236553E+04  0.25500000920E-02 0. -1.
    10030    2    1    2    0    0  0.00000000000E+00  0.00000000000E+00 -0.15806276609E+04  0.35978196497E+04  0.32320152273E+04 0.  0.
        3    1    3    3  502    0  0.97971157749E+02  0.16079623841E+04 -0.64802144518E+03  0.17363966080E+04  0.10100000352E+00 0.  1.
       -3    1    3    3    0  502 -0.97971157749E+02 -0.16079623841E+04 -0.93260621577E+03  0.18614230418E+04  0.10100000352E+00 0. -1.
</event>
<event>
 5   0  0.9810351E-08  0.3299055E+04  0.7818609E-02  0.8163136E-01
       -1   -1    0    0    0  501  0.00000000000E+00  0.00000000000E+00  0.16307264368E+04  0.16307264368E+04  0.50400001928E-02 0. -1.
        1   -1    0    0  501    0  0.00000000000E+00  0.00000000000E+00 -0.16685456841E+04  0.16685456841E+04  0.50400001928E-02 0.  1.
    10030    2    1    2    0    0  0.00000000000E+00  0.00000000000E+00 -0.37819247310E+02  0.32992721209E+04  0.32990553545E+04 0.  0.
        5    1    3    3  502    0 -0.37168876363E+03 -0.81319858852E+03 -0.14051734868E+04  0.16655266733E+04  0.46999998093E+01 0.  1.
       -5    1    3    3    0  502  0.37168876363E+03  0.81319858852E+03  0.13673542395E+04  0.16337454476E+04  0.46999998093E+01 0. -1.
</event>
<event>
 5   0  0.2875829E-07  0.3302878E+04  0.7818609E-02  0.8162163E-01
        2   -1    0    0  501    0  0.00000000000E+00  0.00000000000E+00  0.20775406374E+04  0.20775406374E+04  0.25500000920E-02 0. -1.
       -2   -1    0    0    0  501  0.00000000000E+00  0.00000000000E+00 -0.13127306960E+04  0.13127306960E+04  0.25500000920E-02 0.  1.
    10030    2    1    2    0    0  0.00000000000E+00  0.00000000000E+00  0.76480994137E+03  0.33902713334E+04  0.33028783610E+04 0.  0.
        3    1    3    3  502    0 -0.12051466602E+04  0.66958292579E+02  0.15393435960E+04  0.19561289841E+04  0.10100000352E+00 0. -1.
       -3    1    3    3    0  502  0.12051466602E+04 -0.66958292579E+02 -0.77453365463E+03  0.14341423493E+04  0.10100000352E+00 0.  1.
</event>
<event>
 5   0  0.2824402E-07  0.3303806E+04  0.7818609E-02  0.8161928E-01
       -2   -1    0    0    0  501  0.00000000000E+00  0.00000000000E+00  0.12904204213E+04  0.12904204213E+04  0.25500000920E-02 0.  1.
        2   -1    0    0  501    0  0.00000000000E+00  0.00000000000E+00 -0.21146465421E+04  0.21146465421E+04  0.25500000920E-02 0. -1.
    10030    2    1    2    0    0  0.00000000000E+00  0.00000000000E+00 -0.82422612082E+03  0.34050669634E+04  0.33038057339E+04 0.  0.
        1    1    3    3  502    0 -0.97830031117E+03 -0.13233615874E+04 -0.26481414749E+03  0.16668784967E+04  0.50400001928E-02 0. -1.
       -1    1    3    3    0  502  0.97830031117E+03  0.13233615874E+04 -0.55941197332E+03  0.17381884667E+04  0.50400001928E-02 0.  1.
</event>
<event>
 5   0  0.9810351E-08  0.3296756E+04  0.7818609E-02  0.8163721E-01
       -1   -1    0    0    0  501  0.00000000000E+00  0.00000000000E+00  0.14791515962E+04  0.14791515962E+04  0.50400001928E-02 0. -1.
        1   -1    0    0  501    0  0.00000000000E+00  0.00000000000E+00 -0.18369649062E+04  0.18369649062E+04  0.50400001928E-02 0.  1.
    10030    2    1    2    0    0  0.00000000000E+00  0.00000000000E+00 -0.35781331001E+03  0.33161165024E+04  0.32967557223E+04 0.  0.
        5    1    3    3  502    0  0.12361049227E+04  0.61899817239E+03  0.72414820232E+03  0.15606174504E+04  0.46999998093E+01 0. -1.
       -5    1    3    3    0  502 -0.12361049227E+04 -0.61899817239E+03 -0.10819615123E+04  0.17554990520E+04  0.46999998093E+01 0.  1.
</event>
<event>
 5   0  0.9454010E-08  0.3294236E+04  0.7818609E-02  0.8164364E-01
       -1   -1    0    0    0  501  0.00000000000E+00  0.00000000000E+00  0.26694957742E+04  0.26694957742E+04  0.50400001928E-02 0. -1.
        1   -1    0    0  501    0  0.00000000000E+00  0.00000000000E+00 -0.10162957196E+04  0.10162957196E+04  0.50400001928E-02 0.  1.
    10030    2    1    2    0    0  0.00000000000E+00  0.00000000000E+00  0.16532000546E+04  0.36857914938E+04  0.32942356496E+04 0.  0.
        2    1    3    3  502    0 -0.87351478375E+02 -0.85573044612E+03 -0.74502811264E+03  0.11379682622E+04  0.25500000920E-02 0.  1.
       -2    1    3    3    0  502  0.87351478375E+02  0.85573044612E+03  0.23982281672E+04  0.25478232316E+04  0.25500000920E-02 0. -1.
</event>
<event>
 5   0  0.2727168E-07  0.3302776E+04  0.7818609E-02  0.8162189E-01
        2   -1    0    0  501    0  0.00000000000E+00  0.00000000000E+00  0.26798906199E+04  0.26798906199E+04  0.25500000920E-02 0. -1.
       -2   -1    0    0    0  501  0.00000000000E+00  0.00000000000E+00 -0.10176096310E+04  0.10176096310E+04  0.25500000920E-02 0.  1.
    10030    2    1    2    0    0  0.00000000000E+00  0.00000000000E+00  0.16622809889E+04  0.36975002509E+04  0.33027761080E+04 0.  0.
        2    1    3    3  502    0 -0.15433451183E+04  0.41469320994E+03  0.36523226745E+03  0.16392922929E+04  0.25500000920E-02 0.  1.
       -2    1    3    3    0  502  0.15433451183E+04 -0.41469320994E+03  0.12970487214E+04  0.20582079580E+04  0.25500000920E-02 0. -1.
</event>
<event>
 5   0  0.2727168E-07  0.3301033E+04  0.7818609E-02  0.8162633E-01
       -2   -1    0    0    0  501  0.00000000000E+00  0.00000000000E+00  0.12201372203E+04  0.12201372203E+04  0.25500000920E-02 0.  1.
        2   -1    0    0  501    0  0.00000000000E+00  0.00000000000E+00 -0.22327040100E+04  0.22327040100E+04  0.25500000920E-02 0. -1.
    10030    2    1    2    0    0  0.00000000000E+00  0.00000000000E+00 -0.10125667897E+04  0.34528412303E+04  0.33010333319E+04 0.  0.
        2    1    3    3  502    0  0.52921129415E+03  0.11894034639E+04  0.55500020383E+03  0.14151927148E+04  0.25500000920E-02 0.  1.
       -2    1    3    3    0  502 -0.52921129415E+03 -0.11894034639E+04 -0.15675669935E+04  0.20376485155E+04  0.25500000920E-02 0. -1.
</event>
<event>
 5   0  0.9283910E-08  0.3306949E+04  0.7818609E-02  0.8161129E-01
        1   -1    0    0  501    0  0.00000000000E+00  0.00000000000E+00  0.13994556430E+04  0.13994556430E+04  0.50400001928E-02 0.  1.
       -1   -1    0    0    0  501  0.00000000000E+00  0.00000000000E+00 -0.19536013642E+04  0.19536013642E+04  0.50400001928E-02 0. -1.
    10030    2    1    2    0    0  0.00000000000E+00  0.00000000000E+00 -0.55414572119E+03  0.33530570072E+04  0.33069493212E+04 0.  0.
        3    1    3    3  502    0  0.13752441029E+04  0.91405658666E+03 -0.36300506579E+03  0.16907301601E+04  0.10100000352E+00 0. -1.
       -3    1    3    3    0  502 -0.13752441029E+04 -0.91405658666E+03 -0.19114065540E+03  0.16623268471E+04  0.10100000352E+00 0.  1.
</event>
<event>
 5   0  0.9454010E-08  0.3365651E+04  0.7818609E-02  0.8146389E-01
        1   -1    0    0  501    0  0.00000000000E+00  0.00000000000E+00  0.15405895597E+04  0.15405895597E+04  0.50400001928E-02 0.  1.
       -1   -1    0    0    0  501  0.00000000000E+00  0.00000000000E+00 -0.18381933951E+04  0.18381933951E+04  0.50400001928E-02 0. -1.
    10030    2    1    2    0    0  0.00000000000E+00  0.00000000000E+00 -0.29760383537E+03  0.33787829548E+04  0.33656509345E+04 0.  0.
        2    1    3    3  502    0 -0.14569909055E+04  0.80787259062E+03 -0.38725961755E+03  0.17103948763E+04  0.25500000920E-02 0. -1.
       -2    1    3    3    0  502  0.14569909055E+04 -0.80787259062E+03  0.89655782184E+02  0.16683880786E+04  0.25500000920E-02 0.  1.
</event>
<event>
 5   0  0.2824402E-07  0.3300318E+04  0.7818609E-02  0.8162815E-01
        2   -1    0    0  501    0  0.00000000000E+00  0.00000000000E+00  0.18278197188E+04  0.18278197188E+04  0.25500000920E-02 0. -1.
       -2   -1    0    0    0  501  0.00000000000E+00  0.00000000000E+00 -0.14897661445E+04  0.14897661445E+04  0.25500000920E-02 0.  1.
    10030    2    1    2    0    0  0.00000000000E+00  0.00000000000E+00  0.33805357437E+03  0.33175858633E+04  0.33003175213E+04 0.  0.
        1    1    3    3  502    0  0.63011313236E+03  0.13023937734E+04  0.96674804882E+03  0.17400787024E+04  0.50400001928E-02 0. -1.
       -1    1    3    3    0  502 -0.63011313236E+03 -0.13023937734E+04 -0.62869447446E+03  0.15775071609E+04  0.50400001928E-02 0.  1.
</event>
<event>
 5   0  0.8805125E-08  0.3234864E+04  0.7818609E-02  0.8179670E-01
        1   -1    0    0  501    0  0.00000000000E+00  0.00000000000E+00  0.18451260308E+04  0.18451260308E+04  0.50400001928E-02 0. -1.
       -1   -1    0    0    0  501  0.00000000000E+00  0.00000000000E+00 -0.14178357889E+04  0.14178357889E+04  0.50400001928E-02 0.  1.
    10030    2    1    2    0    0  0.00000000000E+00  0.00000000000E+00  0.42729024194E+03  0.32629618197E+04  0.32348636581E+04 0.  0.
        4    1    3    3  502    0 -0.12589756281E+04 -0.83886655584E+03  0.79077520212E+03  0.17070570476E+04  0.12699999809E+01 0. -1.
       -4    1    3    3    0  502  0.12589756281E+04  0.83886655584E+03 -0.36348496019E+03  0.15559047721E+04  0.12699999809E+01 0.  1.
</event>
<event>
 5   0  0.2824402E-07  0.3300816E+04  0.7818609E-02  0.8162688E-01
       -2   -1    0    0    0  501  0.00000000000E+00  0.00000000000E+00  0.14845813135E+04  0.14845813135E+04  0.25500000920E-02 0. -1.
        2   -1    0    0  501    0  0.00000000000E+00  0.00000000000E+00 -0.18347570397E+04  0.18347570397E+04  0.25500000920E-02 0.  1.
    10030    2    1    2    0    0  0.00000000000E+00  0.00000000000E+00 -0.35017572622E+03  0.33193383533E+04  0.33008156665E+04 0.  0.
        1    1    3    3  502    0 -0.34058665049E+02 -0.50534307666E+03  0.14044953100E+04  0.14930300378E+04  0.50400001928E-02 0. -1.
       -1    1    3    3    0  502  0.34058665049E+02  0.50534307666E+03 -0.17546710362E+04  0.18263083155E+04  0.50400001928E-02 0.  1.
</event>
<event>
 5   0  0.9181760E-08  0.3290388E+04  0.7818609E-02  0.8165346E-01
        1   -1    0    0  501    0  0.00000000000E+00  0.00000000000E+00  0.16190120289E+04  0.16190120289E+04  0.50400001928E-02 0.  1.
       -1   -1    0    0    0  501  0.00000000000E+00  0.00000000000E+00 -0.16717989803E+04  0.16717989803E+04  0.50400001928E-02 0. -1.
    10030    2    1    2    0    0  0.00000000000E+00  0.00000000000E+00 -0.52786951361E+02  0.32908110092E+04  0.32903876118E+04 0.  0.
        1    1    3    3  502    0 -0.27384832920E+03  0.14646849727E+04  0.67109692513E+03  0.16342172620E+04  0.50400001928E-02 0.  1.
       -1    1    3    3    0  502  0.27384832920E+03 -0.14646849727E+04 -0.72388387649E+03  0.16565937472E+04  0.50400001928E-02 0. -1.
</event>
<event>
 5   0  0.2713815E-07  0.3299566E+04  0.7818609E-02  0.8163006E-01
       -2   -1    0    0    0  501  0.00000000000E+00  0.00000000000E+00  0.16752650625E+04  0.16752650625E+04  0.25500000920E-02 0.  1.
        2   -1    0    0  501    0  0.00000000000E+00  0.00000000000E+00 -0.16246880883E+04  0.16246880883E+04  0.25500000920E-02 0. -1.
    10030    2    1    2    0    0  0.00000000000E+00  0.00000000000E+00  0.50576974231E+02  0.32999531508E+04  0.32995655422E+04 0.  0.
        4    1    3    3  502    0  0.12691938258E+04 -0.15044309310E+03  0.10686250541E+04  0.16659673499E+04  0.12699999809E+01 0.  1.
       -4    1    3    3    0  502 -0.12691938258E+04  0.15044309310E+03 -0.10180480798E+04  0.16339858009E+04  0.12699999809E+01 0. -1.
</event>
<event>
 5   0  0.2875829E-07  0.3308600E+04  0.7818609E-02  0.8160711E-01
        2   -1    0    0  501    0  0.00000000000E+00  0.00000000000E+00  0.17585226501E+04  0.17585226501E+04  0.25500000920E-02 0. -1.
       -2   -1    0    0    0  501  0.00000000000E+00  0.00000000000E+00 -0.15562545319E+04  0.15562545319E+04  0.25500000920E-02 0.  1.
    10030    2    1    2    0    0  0.00000000000E+00  0.00000000000E+00  0.20226811818E+03  0.33147771821E+04  0.33086002139E+04 0.  0.
        3    1    3    3  502    0  0.12470757217E+04 -0.91045811145E+03  0.69602456706E+03  0.16936888842E+04  0.10100000352E+00 0. -1.
       -3    1    3    3    0  502 -0.12470757217E+04  0.91045811145E+03 -0.49375644888E+03  0.16210882978E+04  0.10100000352E+00 0.  1.
</event>
<event>
 5   0  0.2727168E-07  0.3296832E+04  0.7818609E-02  0.8163702E-01
        2   -1    0    0  501    0  0.00000000000E+00  0.00000000000E+00  0.17554429507E+04  0.17554429507E+04  0.25500000920E-02 0.  1.
       -2   -1    0    0    0  501  0.00000000000E+00  0.00000000000E+00 -0.15479140075E+04  0.15479140075E+04  0.25500000920E-02 0. -1.
    10030    2    1    2    0    0  0.00000000000E+00  0.00000000000E+00  0.20752894321E+03  0.33033569581E+04  0.32968316503E+04 0.  0.
        2    1    3    3  502    0  0.12992799571E+04 -0.32919389255E+03  0.10652353461E+04  0.17120815893E+04  0.25500000920E-02 0.  1.
       -2    1    3    3    0  502 -0.12992799571E+04  0.32919389255E+03 -0.85770640286E+03  0.15912753688E+04  0.25500000920E-02 0. -1.
</event>
<event>
 5   0  0.2824402E-07  0.3303204E+04  0.7818609E-02  0.8162081E-01
        2   -1    0    0  501    0  0.00000000000E+00  0.00000000000E+00  0.19061472899E+04  0.19061472899E+04  0.25500000920E-02 0.  1.
       -2   -1    0    0    0  501  0.00000000000E+00  0.00000000000E+00 -0.14310483781E+04  0.14310483781E+04  0.25500000920E-02 0. -1.
    10030    2    1    2    0    0  0.00000000000E+00  0.00000000000E+00  0.47509891176E+03  0.33371956680E+04  0.33032038917E+04 0.  0.
        1    1    3    3  502    0  0.40486971935E+03 -0.88877441131E+03  0.15831523767E+04  0.18601642110E+04  0.50400001928E-02 0.  1.
       -1    1    3    3    0  502 -0.40486971935E+03  0.88877441131E+03 -0.11080534649E+04  0.14770314570E+04  0.50400001928E-02 0. -1.
</event>
<event>
 5   0  0.8805125E-08  0.3298603E+04  0.7818609E-02  0.8163251E-01
        1   -1    0    0  501    0  0.00000000000E+00  0.00000000000E+00  0.12916018070E+04  0.12916018070E+04  0.50400001928E-02 0. -1.
       -1   -1    0    0    0  501  0.00000000000E+00  0.00000000000E+00 -0.21060634315E+04  0.21060634316E+04  0.50400001928E-02 0.  1.
    10030    2    1    2    0    0  0.00000000000E+00  0.00000000000E+00 -0.81446162457E+03  0.33976652385E+04  0.32986029369E+04 0.  0.
        4    1    3    3  502    0 -0.77952175550E+03  0.28328599437E+03  0.10611653339E+04  0.13468402284E+04  0.12699999809E+01 0. -1.
       -4    1    3    3    0  502  0.77952175550E+03 -0.28328599437E+03 -0.18756269585E+04  0.20508250102E+04  0.12699999809E+01 0.  1.
</event>
<event>
 5   0  0.2727168E-07  0.3297861E+04  0.7818609E-02  0.8163440E-01
        2   -1    0    0  501    0  0.00000000000E+00  0.00000000000E+00  0.24023192479E+04  0.24023192479E+04  0.25500000920E-02 0.  1.
       -2   -1    0    0    0  501  0.00000000000E+00  0.00000000000E+00 -0.11318112189E+04  0.11318112189E+04  0.25500000920E-02 0. -1.
    10030    2    1    2    0    0  0.00000000000E+00  0.00000000000E+00  0.12705080290E+04  0.35341304669E+04  0.32978610500E+04 0.  0.
        2    1    3    3  502    0 -0.72452740968E+03 -0.14782672387E+04  0.53496584153E+03  0.17310119722E+04  0.25500000920E-02 0. -1.
       -2    1    3    3    0  502  0.72452740968E+03  0.14782672387E+04  0.73554218745E+03  0.18031184947E+04  0.25500000920E-02 0.  1.
</event>
<event>
 5   0  0.9810351E-08  0.3334028E+04  0.7818609E-02  0.8154291E-01
       -1   -1    0    0    0  501  0.00000000000E+00  0.00000000000E+00  0.21616801052E+04  0.21616801052E+04  0.50400001928E-02 0.  1.
        1   -1    0    0  501    0  0.00000000000E+00  0.00000000000E+00 -0.12855441113E+04  0.12855441113E+04  0.50400001928E-02 0. -1.
    10030    2    1    2    0    0  0.00000000000E+00  0.00000000000E+00  0.87613599391E+03  0.34472242166E+04  0.33340276723E+04 0.  0.
        5    1    3    3  502    0  0.14857440594E+02  0.36391154977E+03 -0.12438958003E+04  0.12961293190E+04  0.46999998093E+01 0. -1.
       -5    1    3    3    0  502 -0.14857440594E+02 -0.36391154977E+03  0.21200317942E+04  0.21510948975E+04  0.46999998093E+01 0.  1.
</event>
<event>
 5   0  0.8805125E-08  0.3322681E+04  0.7818609E-02  0.8157148E-01
       -1   -1    0    0    0  501  0.00000000000E+00  0.00000000000E+00  0.20129398861E+04  0.20129398861E+04  0.50400001928E-02 0. -1.
        1   -1    0    0  501    0  0.00000000000E+00  0.00000000000E+00 -0.13711544615E+04  0.13711544615E+04  0.50400001928E-02 0.  1.
    10030    2    1    2    0    0  0.00000000000E+00  0.00000000000E+00  0.64178542455E+03  0.33840943476E+04  0.33226805478E+04 0.  0.
        4    1    3    3  502    0 -0.55167706740E+03 -0.11019055423E+04  0.14557163394E+04  0.19072637690E+04  0.12699999809E+01 0. -1.
       -4    1    3    3    0  502  0.55167706740E+03  0.11019055423E+04 -0.81393091487E+03  0.14768305786E+04  0.12699999809E+01 0.  1.
</event>
<event>
 5   0  0.8805125E-08  0.3300123E+04  0.7818609E-02  0.8162864E-01
       -1   -1    0    0    0  501  0.00000000000E+00  0.00000000000E+00  0.95785134629E+03  0.95785134630E+03  0.50400001928E-02 0. -1.
        1   -1    0    0  501    0  0.00000000000E+00  0.00000000000E+00 -0.28425110871E+04  0.28425110871E+04  0.50400001928E-02 0.  1.
    10030    2    1    2    0    0  0.00000000000E+00  0.00000000000E+00 -0.18846597408E+04  0.38003624334E+04  0.33001230714E+04 0.  0.
        4    1    3    3  502    0 -0.14922493616E+04 -0.37526512166E+02 -0.17521181159E+04  0.23017679947E+04  0.12699999809E+01 0.  1.
       -4    1    3    3    0  502  0.14922493616E+04  0.37526512166E+02 -0.13254162483E+03  0.14985944387E+04  0.12699999809E+01 0. -1.
</event>
<event>
 5   0  0.9810351E-08  0.3298599E+04  0.7818609E-02  0.8163252E-01
       -1   -1    0    0    0  501  0.00000000000E+00  0.00000000000E+00  0.13796440470E+04  0.13796440470E+04  0.50400001928E-02 0.  1.
        1   -1    0    0  501    0  0.00000000000E+00  0.00000000000E+00 -0.19716597215E+04  0.19716597215E+04  0.50400001928E-02 0. -1.
    10030    2    1    2    0    0  0.00000000000E+00  0.00000000000E+00 -0.59201567444E+03  0.33513037685E+04  0.32985988525E+04 0.  0.
        5    1    3    3  502    0 -0.86283401531E+02 -0.11251314815E+04  0.92604129269E+03  0.14597740379E+04  0.46999998093E+01 0.  1.
       -5    1    3    3    0  502  0.86283401531E+02  0.11251314815E+04 -0.15180569671E+04  0.18915297305E+04  0.46999998093E+01 0. -1.
</event>
<event>
 5   0  0.2875829E-07  0.3301638E+04  0.7818609E-02  0.8162479E-01
        2   -1    0    0  501    0  0.00000000000E+00  0.00000000000E+00  0.14854767427E+04  0.14854767427E+04  0.25500000920E-02 0. -1.
       -2   -1    0    0    0  501  0.00000000000E+00  0.00000000000E+00 -0.18345650231E+04  0.18345650231E+04  0.25500000920E-02 0.  1.
    10030    2    1    2    0    0  0.00000000000E+00  0.00000000000E+00 -0.34908828034E+03  0.33200417658E+04  0.33016381842E+04 0.  0.
        3    1    3    3  502    0 -0.21535989496E+03  0.13594589333E+04  0.74196102340E+03  0.15636542604E+04  0.10100000352E+00 0. -1.
       -3    1    3    3    0  502  0.21535989496E+03 -0.13594589333E+04 -0.10910493037E+04  0.17563875054E+04  0.10100000352E+00 0.  1.
</event>
<event>
 5   0  0.2713815E-07  0.3300514E+04  0.7818609E-02  0.8162765E-01
        2   -1    0    0  501    0  0.00000000000E+00  0.00000000000E+00  0.20705069163E+04  0.20705069163E+04  0.25500000920E-02 0.  1.
       -2   -1    0    0    0  501  0.00000000000E+00  0.00000000000E+00 -0.13153048671E+04  0.13153048671E+04  0.25500000920E-02 0. -1.
    10030    2    1    2    0    0  0.00000000000E+00  0.00000000000E+00  0.75520204918E+03  0.33858117835E+04  0.33005137930E+04 0.  0.
        4    1    3    3  502    0 -0.13315965507E+04  0.44084894417E+03  0.12694653547E+04  0.18918353694E+04  0.12699999809E+01 0.  1.
       -4    1    3    3    0  502  0.13315965507E+04 -0.44084894417E+03 -0.51426330550E+03  0.14939764140E+04  0.12699999809E+01 0. -1.
</event>
<event>
 5   0  0.2703956E-07  0.3321386E+04  0.7818609E-02  0.8157475E-01
        2   -1    0    0  501    0  0.00000000000E+00  0.00000000000E+00  0.24072277350E+04  0.24072277350E+04  0.25500000920E-02 0.  1.
       -2   -1    0    0    0  501  0.00000000000E+00  0.00000000000E+00 -0.11456750294E+04  0.11456750294E+04  0.25500000920E-02 0. -1.
    10030    2    1    2    0    0  0.00000000000E+00  0.00000000000E+00  0.12615527057E+04  0.35529027644E+04  0.33213856784E+04 0.  0.
        5    1    3    3  502    0 -0.49574222727E+03 -0.11879884403E+03 -0.10599007585E+04  0.11761314676E+04  0.46999998093E+01 0. -1.
       -5    1    3    3    0  502  0.49574222727E+03  0.11879884403E+03  0.23214534641E+04  0.23767712968E+04  0.46999998093E+01 0.  1.
</event>
<event>
 5   0  0.9454010E-08  0.3296917E+04  0.7818609E-02  0.8163680E-01
        1   -1    0    0  501    0  0.00000000000E+00  0.00000000000E+00  0.18243220596E+04  0.18243220596E+04  0.50400001928E-02 0.  1.
       -1   -1    0    0    0  501  0.00000000000E+00  0.00000000000E+00 -0.14895484730E+04  0.14895484730E+04  0.50400001928E-02 0. -1.
    10030    2    1    2    0    0  0.00000000000E+00  0.00000000000E+00  0.33477358657E+03  0.33138705326E+04  0.32969174318E+04 0.  0.
        2    1    3    3  502    0  0.39251131172E+03  0.53417606073E+03 -0.13496809991E+04  0.15036781547E+04  0.25500000920E-02 0. -1.
       -2    1    3    3    0  502 -0.39251131172E+03 -0.53417606073E+03  0.16844545856E+04  0.18101923778E+04  0.25500000920E-02 0.  1.
</event>
<event>
 5   0  0.9454010E-08  0.3299892E+04  0.7818609E-02  0.8162923E-01
       -1   -1    0    0    0  501  0.00000000000E+00  0.00000000000E+00  0.13243638437E+04  0.13243638437E+04  0.50400001928E-02 0.  1.
        1   -1    0    0  501    0  0.00000000000E+00  0.00000000000E+00 -0.20555689189E+04  0.20555689190E+04  0.50400001928E-02 0. -1.
    10030    2    1    2    0    0  0.00000000000E+00  0.00000000000E+00 -0.73120507521E+03  0.33799327627E+04  0.32998916071E+04 0.  0.
        2    1    3    3  502    0  0.14960262103E+04  0.85148994476E+02 -0.10729891291E+04  0.18430003918E+04  0.25500000920E-02 0. -1.
       -2    1    3    3    0  502 -0.14960262103E+04 -0.85148994476E+02  0.34178405384E+03  0.15369323709E+04  0.25500000920E-02 0.  1.
</event>
<event>
 5   0  0.8805125E-08  0.3305618E+04  0.7818609E-02  0.8161467E-01
        1   -1    0    0  501    0  0.00000000000E+00  0.00000000000E+00  0.12802683186E+04  0.12802683186E+04  0.50400001928E-02 0.  1.
       -1   -1    0    0    0  501  0.00000000000E+00  0.00000000000E+00 -0.21337544014E+04  0.21337544014E+04  0.50400001928E-02 0. -1.
    10030    2    1    2    0    0  0.00000000000E+00  0.00000000000E+00 -0.85348608276E+03  0.34140227200E+04  0.33056183445E+04 0.  0.
        4    1    3    3  502    0  0.12765782594E+04 -0.20788163325E+03  0.63603644880E+03  0.14413225880E+04  0.12699999809E+01 0.  1.
       -4    1    3    3    0  502 -0.12765782594E+04  0.20788163325E+03 -0.14895225316E+04  0.19727001320E+04  0.12699999809E+01 0. -1.
</event>
<event>
 5   0  0.9283910E-08  0.3303910E+04  0.7818609E-02  0.8161901E-01
       -1   -1    0    0    0  501  0.00000000000E+00  0.00000000000E+00  0.11862872313E+04  0.11862872314E+04  0.50400001928E-02 0. -1.
        1   -1    0    0  501    0  0.00000000000E+00  0.00000000000E+00 -0.23004168892E+04  0.23004168892E+04  0.50400001928E-02 0.  1.
    10030    2    1    2    0    0  0.00000000000E+00  0.00000000000E+00 -0.11141296579E+04  0.34867041206E+04  0.33039099155E+04 0.  0.
        3    1    3    3  502    0 -0.58483601396E+03 -0.15339716335E+04 -0.75123643136E+03  0.18053969983E+04  0.10100000352E+00 0. -1.
       -3    1    3    3    0  502  0.58483601396E+03  0.15339716335E+04 -0.36289322654E+03  0.16813071223E+04  0.10100000352E+00 0.  1.
</event>
<event>
 5   0  0.2713815E-07  0.3305698E+04  0.7818609E-02  0.8161447E-01
       -2   -1    0    0    0  501  0.00000000000E+00  0.00000000000E+00  0.16917745552E+04  0.16917745552E+04  0.25500000920E-02 0. -1.
        2   -1    0    0  501    0  0.00000000000E+00  0.00000000000E+00 -0.16148186873E+04  0.16148186873E+04  0.25500000920E-02 0.  1.
    10030    2    1    2    0    0  0.00000000000E+00  0.00000000000E+00  0.76955867916E+02  0.33065932426E+04  0.33056976066E+04 0.  0.
        4    1    3    3  502    0  0.70223220841E+03 -0.31612802118E+03  0.15013517128E+04  0.16873427567E+04  0.12699999809E+01 0. -1.
       -4    1    3    3    0  502 -0.70223220841E+03  0.31612802118E+03 -0.14243958448E+04  0.16192504859E+04  0.12699999809E+01 0.  1.
</event>
<event>
 5   0  0.2703956E-07  0.3307582E+04  0.7818609E-02  0.8160969E-01
       -2   -1    0    0    0  501  0.00000000000E+00  0.00000000000E+00  0.19307702152E+04  0.19307702152E+04  0.25500000920E-02 0.  1.
        2   -1    0    0  501    0  0.00000000000E+00  0.00000000000E+00 -0.14165458505E+04  0.14165458505E+04  0.25500000920E-02 0. -1.
    10030    2    1    2    0    0  0.00000000000E+00  0.00000000000E+00  0.51422436470E+03  0.33473160657E+04  0.33075819183E+04 0.  0.
        5    1    3    3  502    0  0.13114226940E+04  0.68385738000E+03 -0.49171733153E+03  0.15586206795E+04  0.46999998093E+01 0. -1.
       -5    1    3    3    0  502 -0.13114226940E+04 -0.68385738000E+03  0.10059416962E+04  0.17886953862E+04  0.46999998093E+01 0.  1.
</event>
<event>
 5   0  0.9810351E-08  0.3301530E+04  0.7818609E-02  0.8162506E-01
        1   -1    0    0  501    0  0.00000000000E+00  0.00000000000E+00  0.11059441822E+04  0.11059441822E+04  0.50400001928E-02 0.  1.
       -1   -1    0    0    0  501  0.00000000000E+00  0.00000000000E+00 -0.24639799381E+04  0.24639799381E+04  0.50400001928E-02 0. -1.
    10030    2    1    2    0    0  0.00000000000E+00  0.00000000000E+00 -0.13580357559E+04  0.35699241203E+04  0.33015295108E+04 0.  0.
        5    1    3    3  502    0 -0.71278309559E+03 -0.49837167235E+03  0.83809895029E+03  0.12078352560E+04  0.46999998093E+01 0.  1.
       -5    1    3    3    0  502  0.71278309559E+03  0.49837167235E+03 -0.21961347062E+04  0.23620888643E+04  0.46999998093E+01 0. -1.
</event>
<event>
 5   0  0.2824402E-07  0.3289152E+04  0.7818609E-02  0.8165661E-01
        2   -1    0    0  501    0  0.00000000000E+00  0.00000000000E+00  0.26476189922E+04  0.26476189922E+04  0.25500000920E-02 0.  1.
       -2   -1    0    0    0  501  0.00000000000E+00  0.00000000000E+00 -0.10215333119E+04  0.10215333119E+04  0.25500000920E-02 0. -1.
    10030    2    1    2    0    0  0.00000000000E+00  0.00000000000E+00  0.16260856803E+04  0.36691523042E+04  0.32891524731E+04 0.  0.
        1    1    3    3  502    0 -0.15162156143E+04 -0.24676458495E+03  0.15797952737E+03  0.15442668424E+04  0.50400001928E-02 0. -1.
       -1    1    3    3    0  502  0.15162156143E+04  0.24676458495E+03  0.14681061529E+04  0.21248854618E+04  0.50400001928E-02 0.  1.
</event>
<event>
 5   0  0.2727168E-07  0.3301428E+04  0.7818609E-02  0.8162532E-01
       -2   -1    0    0    0  501  0.00000000000E+00  0.00000000000E+00  0.13339449415E+04  0.13339449415E+04  0.25500000920E-02 0. -1.
        2   -1    0    0  501    0  0.00000000000E+00  0.00000000000E+00 -0.20427054487E+04  0.20427054487E+04  0.25500000920E-02 0.  1.
    10030    2    1    2    0    0  0.00000000000E+00  0.00000000000E+00 -0.70876050727E+03  0.33766503902E+04  0.33014279336E+04 0.  0.
        2    1    3    3  502    0 -0.10992178939E+04 -0.32819823616E+03  0.85961946638E+03  0.14335060821E+04  0.25500000920E-02 0. -1.
       -2    1    3    3    0  502  0.10992178939E+04  0.32819823616E+03 -0.15683799736E+04  0.19431443081E+04  0.25500000920E-02 0.  1.
</event>
<event>
 5   0  0.2727168E-07  0.3302817E+04  0.7818609E-02  0.8162179E-01
       -2   -1    0    0    0  501  0.00000000000E+00  0.00000000000E+00  0.17191395105E+04  0.17191395105E+04  0.25500000920E-02 0.  1.
        2   -1    0    0  501    0  0.00000000000E+00  0.00000000000E+00 -0.15863454979E+04  0.15863454979E+04  0.25500000920E-02 0. -1.
    10030    2    1    2    0    0  0.00000000000E+00  0.00000000000E+00  0.13279401261E+03  0.33054850083E+04  0.33028165088E+04 0.  0.
        2    1    3    3  502    0 -0.43136330354E+03 -0.11596972982E+04  0.11609794723E+04  0.16967160806E+04  0.25500000920E-02 0.  1.
       -2    1    3    3    0  502  0.43136330354E+03  0.11596972982E+04 -0.10281854597E+04  0.16087689277E+04  0.25500000920E-02 0. -1.
</event>
<event>
 5   0  0.8805125E-08  0.3300158E+04  0.7818609E-02  0.8162855E-01
       -1   -1    0    0    0  501  0.00000000000E+00  0.00000000000E+00  0.11664691742E+04  0.11664691742E+04  0.50400001928E-02 0. -1.
        1   -1    0    0  501    0  0.00000000000E+00  0.00000000000E+00 -0.23341906779E+04  0.23341906779E+04  0.50400001928E-02 0.  1.
    10030    2    1    2    0    0  0.00000000000E+00  0.00000000000E+00 -0.11677215037E+04  0.35006598521E+04  0.33001584644E+04 0.  0.
        4    1    3    3  502    0  0.76272453032E+02 -0.16403798147E+04 -0.75521927896E+03  0.18074903031E+04  0.12699999809E+01 0.  1.
       -4    1    3    3    0  502 -0.76272453032E+02  0.16403798147E+04 -0.41250222473E+03  0.16931695490E+04  0.12699999809E+01 0. -1.
</event>
<event>
 5   0  0.9181760E-08  0.3326961E+04  0.7818609E-02  0.8156069E-01
       -1   -1    0    0    0  501  0.00000000000E+00  0.00000000000E+00  0.98719561271E+03  0.98719561272E+03  0.50400001928E-02 0. -1.
        1   -1    0    0  501    0  0.00000000000E+00  0.00000000000E+00 -0.28030591613E+04  0.28030591613E+04  0.50400001928E-02 0.  1.
    10030    2    1    2    0    0  0.00000000000E+00  0.00000000000E+00 -0.18158635486E+04  0.37902547741E+04  0.33269611998E+04 0.  0.
        1    1    3    3  502    0  0.30677967998E+03  0.16085133748E+04 -0.12415186888E+04  0.20549446960E+04  0.50400001928E-02 0.  1.
       -1    1    3    3    0  502 -0.30677967998E+03 -0.16085133748E+04 -0.57434485986E+03  0.17353100781E+04  0.50400001928E-02 0. -1.
</event>
<event>
 5   0  0.2703956E-07  0.3295023E+04  0.7818609E-02  0.8164163E-01
        2   -1    0    0  501    0  0.00000000000E+00  0.00000000000E+00  0.19178954007E+04  0.19178954007E+04  0.25500000920E-02 0. -1.
       -2   -1    0    0    0  501  0.00000000000E+00  0.00000000000E+00 -0.14152462380E+04  0.14152462380E+04  0.25500000920E-02 0.  1.
    10030    2    1    2    0    0  0.00000000000E+00  0.00000000000E+00  0.50264916270E+03  0.33331416387E+04  0.32950230656E+04 0.  0.
        5    1    3    3  502    0  0.14559494001E+03 -0.87077063760E+03 -0.11557497071E+04  0.14543792027E+04  0.46999998093E+01 0.  1.
       -5    1    3    3    0  502 -0.14559494001E+03  0.87077063760E+03  0.16583988698E+04  0.18787624360E+04  0.46999998093E+01 0. -1.
</event>
<event>
 5   0  0.9810351E-08  0.3302929E+04  0.7818609E-02  0.8162150E-01
       -1   -1    0    0    0  501  0.00000000000E+00  0.00000000000E+00  0.21347840509E+04  0.21347840509E+04  0.50400001928E-02 0.  1.
        1   -1    0    0  501    0  0.00000000000E+00  0.00000000000E+00 -0.12775696661E+04  0.12775696661E+04  0.50400001928E-02 0. -1.
    10030    2    1    2    0    0  0.00000000000E+00  0.00000000000E+00  0.85721438487E+03  0.34123537170E+04  0.33029292134E+04 0.  0.
        5    1    3    3  502    0  0.14242227858E+02  0.11519297039E+04  0.16510960473E+04  0.20132772117E+04  0.46999998093E+01 0.  1.
       -5    1    3    3    0  502 -0.14242227858E+02 -0.11519297039E+04 -0.79388166239E+03  0.13990765053E+04  0.46999998093E+01 0. -1.
</event>
<event>
 5   0  0.2727168E-07  0.3297597E+04  0.7818609E-02  0.8163507E-01
        2   -1    0    0  501    0  0.00000000000E+00  0.00000000000E+00  0.26750929162E+04  0.26750929162E+04  0.25500000920E-02 0. -1.
       -2   -1    0    0    0  501  0.00000000000E+00  0.00000000000E+00 -0.10162398624E+04  0.10162398624E+04  0.25500000920E-02 0.  1.
    10030    2    1    2    0    0  0.00000000000E+00  0.00000000000E+00  0.16588530538E+04  0.36913327786E+04  0.32975967353E+04 0.  0.
        2    1    3    3  502    0 -0.42594351191E+03  0.15519163417E+04  0.42790029198E+03  0.16652239690E+04  0.25500000920E-02 0.  1.
       -2    1    3    3    0  502  0.42594351191E+03 -0.15519163417E+04  0.12309527618E+04  0.20261088097E+04  0.25500000920E-02 0. -1.
</event>
<event>
 5   0  0.2713815E-07  0.3296607E+04  0.7818609E-02  0.8163759E-01
       -2   -1    0    0    0  501  0.00000000000E+00  0.00000000000E+00  0.12790487814E+04  0.12790487814E+04  0.25500000920E-02 0.  1.
        2   -1    0    0  501    0  0.00000000000E+00  0.00000000000E+00 -0.21241605595E+04  0.21241605595E+04  0.25500000920E-02 0. -1.
    10030    2    1    2    0    0  0.00000000000E+00  0.00000000000E+00 -0.84511177808E+03  0.34032093409E+04  0.32966073318E+04 0.  0.
        4    1    3    3  502    0 -0.20106272035E+03  0.15579404665E+04  0.92888012463E+02  0.15736055765E+04  0.12699999809E+01 0.  1.
       -4    1    3    3    0  502  0.20106272035E+03 -0.15579404665E+04 -0.93799979054E+03  0.18296037644E+04  0.12699999809E+01 0. -1.
</event>
<event>
 5   0  0.8805125E-08  0.3299968E+04  0.7818609E-02  0.8162903E-01
        1   -1    0    0  501    0  0.00000000000E+00  0.00000000000E+00  0.11302177445E+04  0.11302177445E+04  0.50400001928E-02 0.  1.
       -1   -1    0    0    0  501  0.00000000000E+00  0.00000000000E+00 -0.24087817079E+04  0.24087817079E+04  0.50400001928E-02 0. -1.
    10030    2    1    2    0    0  0.00000000000E+00  0.00000000000E+00 -0.12785639635E+04  0.35389994525E+04  0.32999683810E+04 0.  0.
        4    1    3    3  502    0 -0.52155809042E+03 -0.32818634408E+03  0.10021792894E+04  0.11764752692E+04  0.12699999809E+01 0.  1.
       -4    1    3    3    0  502  0.52155809042E+03  0.32818634408E+03 -0.22807432528E+04  0.23625241832E+04  0.12699999809E+01 0. -1.
</event>
<event>
 5   0  0.2703956E-07  0.3292353E+04  0.7818609E-02  0.8164844E-01
        2   -1    0    0  501    0  0.00000000000E+00  0.00000000000E+00  0.22035400090E+04  0.22035400090E+04  0.25500000920E-02 0. -1.
       -2   -1    0    0    0  501  0.00000000000E+00  0.00000000000E+00 -0.12297929034E+04  0.12297929034E+04  0.25500000920E-02 0.  1.
    10030    2    1    2    0    0  0.00000000000E+00  0.00000000000E+00  0.97374710555E+03  0.34333329124E+04  0.32923534837E+04 0.  0.
        5    1    3    3  502    0 -0.15660505304E+04  0.40533319993E+03  0.80500468454E+03  0.18068934387E+04  0.46999998093E+01 0.  1.
       -5    1    3    3    0  502  0.15660505304E+04 -0.40533319993E+03  0.16874242101E+03  0.16264394737E+04  0.46999998093E+01 0. -1.
</event>
<event>
 5   0  0.2875829E-07  0.3296364E+04  0.7818609E-02  0.8163821E-01
        2   -1    0    0  501    0  0.00000000000E+00  0.00000000000E+00  0.15237169772E+04  0.15237169772E+04  0.25500000920E-02 0. -1.
       -2   -1    0    0    0  501  0.00000000000E+00  0.00000000000E+00 -0.17828137122E+04  0.17828137122E+04  0.25500000920E-02 0.  1.
    10030    2    1    2    0    0  0.00000000000E+00  0.00000000000E+00 -0.25909673504E+03  0.33065306894E+04  0.32963637666E+04 0.  0.
        3    1    3    3  502    0  0.24455598839E+01 -0.15312278749E+03  0.15165648816E+04  0.15242774089E+04  0.10100000352E+00 0. -1.
       -3    1    3    3    0  502 -0.24455598839E+01  0.15312278749E+03 -0.17756616167E+04  0.17822532805E+04  0.10100000352E+00 0.  1.
</event>
<event>
 5   0  0.2713815E-07  0.3301618E+04  0.7818609E-02  0.8162484E-01
       -2   -1    0    0    0  501  0.00000000000E+00  0.00000000000E+00  0.11747889592E+04  0.11747889592E+04  0.25500000920E-02 0.  1.
        2   -1    0    0  501    0  0.00000000000E+00  0.00000000000E+00 -0.23197101537E+04  0.23197101537E+04  0.25500000920E-02 0. -1.
    10030    2    1    2    0    0  0.00000000000E+00  0.00000000000E+00 -0.11449211944E+04  0.34944991129E+04  0.33016177108E+04 0.  0.
        4    1    3    3  502    0 -0.10396409958E+04 -0.10563546831E+04  0.19693861436E+03  0.14951672305E+04  0.12699999809E+01 0.  1.
       -4    1    3    3    0  502  0.10396409958E+04  0.10563546831E+04 -0.13418598088E+04  0.19993318824E+04  0.12699999809E+01 0. -1.
</event>
<event>
 5   0  0.9454010E-08  0.3299481E+04  0.7818609E-02  0.8163027E-01
        1   -1    0    0  501    0  0.00000000000E+00  0.00000000000E+00  0.21551279929E+04  0.21551279929E+04  0.50400001928E-02 0.  1.
       -1   -1    0    0    0  501  0.00000000000E+00  0.00000000000E+00 -0.12628686494E+04  0.12628686494E+04  0.50400001928E-02 0. -1.
    10030    2    1    2    0    0  0.00000000000E+00  0.00000000000E+00  0.89225934350E+03  0.34179966424E+04  0.32994809154E+04 0.  0.
        2    1    3    3  502    0  0.70202348988E+03  0.11495792784E+04  0.14328526977E+04  0.19665798613E+04  0.25500000920E-02 0.  1.
       -2    1    3    3    0  502 -0.70202348988E+03 -0.11495792784E+04 -0.54059335418E+03  0.14514167810E+04  0.25500000920E-02 0. -1.
</event>
<event>
 5   0  0.2703956E-07  0.3297599E+04  0.7818609E-02  0.8163507E-01
       -2   -1    0    0    0  501  0.00000000000E+00  0.00000000000E+00  0.13753929015E+04  0.13753929015E+04  0.25500000920E-02 0. -1.
        2   -1    0    0  501    0  0.00000000000E+00  0.00000000000E+00 -0.19765550494E+04  0.19765550494E+04  0.25500000920E-02 0.  1.
    10030    2    1    2    0    0  0.00000000000E+00  0.00000000000E+00 -0.60116214789E+03  0.33519479509E+04  0.32975989959E+04 0.  0.
        5    1    3    3  502    0  0.37775906841E+03 -0.12560083579E+04 -0.13161771041E+04  0.18581181793E+04  0.46999998093E+01 0.  1.
       -5    1    3    3    0  502 -0.37775906841E+03  0.12560083579E+04  0.71501495626E+03  0.14938297716E+04  0.46999998093E+01 0. -1.
</event>
<event>
 5   0  0.9810351E-08  0.3300586E+04  0.7818609E-02  0.8162746E-01
        1   -1    0    0  501    0  0.00000000000E+00  0.00000000000E+00  0.23752276335E+04  0.23752276335E+04  0.50400001928E-02 0.  1.
       -1   -1    0    0    0  501  0.00000000000E+00  0.00000000000E+00 -0.11466130054E+04  0.11466130054E+04  0.50400001928E-02 0. -1.
    10030    2    1    2    0    0  0.00000000000E+00  0.00000000000E+00  0.12286146281E+04  0.35218406390E+04  0.33005859452E+04 0.  0.
        5    1    3    3  502    0 -0.28314016297E+03  0.16154295492E+04  0.41853089247E+03  0.16926225740E+04  0.46999998093E+01 0. -1.
       -5    1    3    3    0  502  0.28314016297E+03 -0.16154295492E+04  0.81008373568E+03  0.18292180649E+04  0.46999998093E+01 0.  1.
</event>
<event>
 5   0  0.2713815E-07  0.3305616E+04  0.7818609E-02  0.8161468E-01
        2   -1    0    0  501    0  0.00000000000E+00  0.00000000000E+00  0.18879583042E+04  0.18879583042E+04  0.25500000920E-02 0.  1.
       -2   -1    0    0    0  501  0.00000000000E+00  0.00000000000E+00 -0.14469462102E+04  0.14469462102E+04  0.25500000920E-02 0. -1.
    10030    2    1    2    0    0  0.00000000000E+00  0.00000000000E+00  0.44101209400E+03  0.33349045145E+04  0.33056158963E+04 0.  0.
        4    1    3    3  502    0  0.50493521027E+03  0.11019098561E+04 -0.91310799125E+03  0.15175416680E+04  0.12699999809E+01 0. -1.
       -4    1    3    3    0  502 -0.50493521027E+03 -0.11019098561E+04  0.13541200852E+04  0.18173628465E+04  0.12699999809E+01 0.  1.
</event>
<event>
 5   0  0.9181760E-08  0.3304069E+04  0.7818609E-02  0.8161861E-01
       -1   -1    0    0    0  501  0.00000000000E+00  0.00000000000E+00  0.12769511553E+04  0.12769511553E+04  0.50400001928E-02 0. -1.
        1   -1    0    0  501    0  0.00000000000E+00  0.00000000000E+00 -0.21372928604E+04  0.21372928604E+04  0.50400001928E-02 0.  1.
    10030    2    1    2    0    0  0.00000000000E+00  0.00000000000E+00 -0.86034170504E+03  0.34142440157E+04  0.33040693621E+04 0.  0.
        1    1    3    3  502    0 -0.15452866646E+04 -0.27559020328E+03 -0.96247676503E+03  0.18412556475E+04  0.50400001928E-02 0.  1.
       -1    1    3    3    0  502  0.15452866646E+04  0.27559020328E+03  0.10213505999E+03  0.15729883682E+04  0.50400001928E-02 0. -1.
</event>
<event>
 5   0  0.2703956E-07  0.3301602E+04  0.7818609E-02  0.8162488E-01
       -2   -1    0    0    0  501  0.00000000000E+00  0.00000000000E+00  0.16743428924E+04  0.16743428924E+04  0.25500000920E-02 0.  1.
        2   -1    0    0  501    0  0.00000000000E+00  0.00000000000E+00 -0.16275896434E+04  0.16275896434E+04  0.25500000920E-02 0. -1.
    10030    2    1    2    0    0  0.00000000000E+00  0.00000000000E+00  0.46753249077E+02  0.33019325358E+04  0.33016015212E+04 0.  0.
        5    1    3    3  502    0 -0.79003695970E+03 -0.11678525829E+04  0.88199808579E+03  0.16631237977E+04  0.46999998093E+01 0.  1.
       -5    1    3    3    0  502  0.79003695970E+03  0.11678525829E+04 -0.83524483671E+03  0.16388087382E+04  0.46999998093E+01 0. -1.
</event>
<event>
 5   0  0.9810351E-08  0.3311383E+04  0.7818609E-02  0.8160005E-01
       -1   -1    0    0    0  501  0.00000000000E+00  0.00000000000E+00  0.16329520668E+04  0.16329520668E+04  0.50400001928E-02 0. -1.
        1   -1    0    0  501    0  0.00000000000E+00  0.00000000000E+00 -0.16787473596E+04  0.16787473596E+04  0.50400001928E-02 0.  1.
    10030    2    1    2    0    0  0.00000000000E+00  0.00000000000E+00 -0.45795292799E+02  0.33116994264E+04  0.33113827749E+04 0.  0.
        5    1    3    3  502    0  0.99374452843E+03 -0.74991342970E+02  0.12994012379E+04  0.16375645198E+04  0.46999998093E+01 0. -1.
       -5    1    3    3    0  502 -0.99374452843E+03  0.74991342970E+02 -0.13451965307E+04  0.16741349066E+04  0.46999998093E+01 0.  1.
</event>
<event>
 5   0  0.9810351E-08  0.3298261E+04  0.7818609E-02  0.8163338E-01
       -1   -1    0    0    0  501  0.00000000000E+00  0.00000000000E+00  0.89724908596E+03  0.89724908598E+03  0.50400001928E-02 0.  1.
        1   -1    0    0  501    0  0.00000000000E+00  0.00000000000E+00 -0.30310774656E+04  0.30310774656E+04  0.50400001928E-02 0. -1.
    10030    2    1    2    0    0  0.00000000000E+00  0.00000000000E+00 -0.21338283797E+04  0.39283265516E+04  0.32982610482E+04 0.  0.
        5    1    3    3  502    0 -0.59786635928E+03  0.29595186925E+03  0.72936130547E+03  0.98844407853E+03  0.46999998093E+01 0.  1.
       -5    1    3    3    0  502  0.59786635928E+03 -0.29595186925E+03 -0.28631896851E+04  0.29398824731E+04  0.46999998093E+01 0. -1.
</event>
<event>
 5   0  0.2703956E-07  0.3294155E+04  0.7818609E-02  0.8164384E-01
        2   -1    0    0  501    0  0.00000000000E+00  0.00000000000E+00  0.26152862398E+04  0.26152862398E+04  0.25500000920E-02 0.  1.
       -2   -1    0    0    0  501  0.00000000000E+00  0.00000000000E+00 -0.10373109431E+04  0.10373109431E+04  0.25500000920E-02 0. -1.
    10030    2    1    2    0    0  0.00000000000E+00  0.00000000000E+00  0.15779752967E+04  0.36525971829E+04  0.32941554523E+04 0.  0.
        5    1    3    3  502    0 -0.68346041305E+03 -0.71854953217E+03  0.22471532407E+04  0.24562474109E+04  0.46999998093E+01 0.  1.
       -5    1    3    3    0  502  0.68346041305E+03  0.71854953217E+03 -0.66917794397E+03  0.11963497720E+04  0.46999998093E+01 0. -1.
</event>
<event>
 5   0  0.9181760E-08  0.3304333E+04  0.7818609E-02  0.8161794E-01
       -1   -1    0    0    0  501  0.00000000000E+00  0.00000000000E+00  0.17139056003E+04  0.17139056003E+04  0.50400001928E-02 0. -1.
        1   -1    0    0  501    0  0.00000000000E+00  0.00000000000E+00 -0.15926516508E+04  0.15926516508E+04  0.50400001928E-02 0.  1.
    10030    2    1    2    0    0  0.00000000000E+00  0.00000000000E+00  0.12125394944E+03  0.33065572511E+04  0.33043332663E+04 0.  0.
        1    1    3    3  502    0 -0.27804584393E+02 -0.14884005688E+04  0.77773000257E+03  0.16795753347E+04  0.50400001928E-02 0. -1.
       -1    1    3    3    0  502  0.27804584393E+02  0.14884005688E+04 -0.65647605313E+03  0.16269819164E+04  0.50400001928E-02 0.  1.
</event>
<event>
 5   0  0.8805125E-08  0.3301998E+04  0.7818609E-02  0.8162387E-01
        1   -1    0    0  501    0  0.00000000000E+00  0.00000000000E+00  0.24002228876E+04  0.24002228876E+04  0.50400001928E-02 0. -1.
       -1   -1    0    0    0  501  0.00000000000E+00  0.00000000000E+00 -0.11356438953E+04  0.11356438953E+04  0.50400001928E-02 0.  1.
    10030    2    1    2    0    0  0.00000000000E+00  0.00000000000E+00  0.12645789923E+04  0.35358667829E+04  0.33019984674E+04 0.  0.
        4    1    3    3  502    0 -0.15336766158E+04  0.34522971449E+03  0.92132891651E+02  0.15747500120E+04  0.12699999809E+01 0.  1.
       -4    1    3    3    0  502  0.15336766158E+04 -0.34522971449E+03  0.11724461007E+04  0.19611167710E+04  0.12699999809E+01 0. -1.
</event>
<event>
 5   0  0.9810351E-08  0.3294942E+04  0.7818609E-02  0.8164184E-01
        1   -1    0    0  501    0  0.00000000000E+00  0.00000000000E+00  0.23767988717E+04  0.23767988717E+04  0.50400001928E-02 0. -1.
       -1   -1    0    0    0  501  0.00000000000E+00  0.00000000000E+00 -0.11419397595E+04  0.11419397595E+04  0.50400001928E-02 0.  1.
    10030    2    1    2    0    0  0.00000000000E+00  0.00000000000E+00  0.12348591122E+04  0.35187386312E+04  0.32949422647E+04 0.  0.
        5    1    3    3  502    0 -0.10395605010E+04 -0.54768272040E+03  0.18506342341E+04  0.21921477040E+04  0.46999998093E+01 0. -1.
       -5    1    3    3    0  502  0.10395605010E+04  0.54768272040E+03 -0.61577512197E+03  0.13265909272E+04  0.46999998093E+01 0.  1.
</event>
<event>
 5   0  0.8805125E-08  0.3299183E+04  0.7818609E-02  0.8163103E-01
        1   -1    0    0  501    0  0.00000000000E+00  0.00000000000E+00  0.17248144291E+04  0.17248144291E+04  0.50400001928E-02 0.  1.
       -1   -1    0    0    0  501  0.00000000000E+00  0.00000000000E+00 -0.15776495560E+04  0.15776495560E+04  0.50400001928E-02 0. -1.
    10030    2    1    2    0    0  0.00000000000E+00  0.00000000000E+00  0.14716487309E+03  0.33024639850E+04  0.32991833645E+04 0.  0.
        4    1    3    3  502    0 -0.14949917305E+04 -0.35174484987E+03  0.67619966531E+03  0.16780859078E+04  0.12699999809E+01 0. -1.
       -4    1    3    3    0  502  0.14949917305E+04  0.35174484987E+03 -0.52903479221E+03  0.16243780773E+04  0.12699999809E+01 0.  1.
</event>
<event>
 5   0  0.8805125E-08  0.3294633E+04  0.7818609E-02  0.8164262E-01
        1   -1    0    0  501    0  0.00000000000E+00  0.00000000000E+00  0.26914808290E+04  0.26914808290E+04  0.50400001928E-02 0.  1.
       -1   -1    0    0    0  501  0.00000000000E+00  0.00000000000E+00 -0.10082371909E+04  0.10082371909E+04  0.50400001928E-02 0. -1.
    10030    2    1    2    0    0  0.00000000000E+00  0.00000000000E+00  0.16832436381E+04  0.36997180198E+04  0.32946326474E+04 0.  0.
        4    1    3    3  502    0  0.10568255375E+04 -0.12229364777E+04  0.48439630615E+03  0.16873337664E+04  0.12699999809E+01 0.  1.
       -4    1    3    3    0  502 -0.10568255375E+04  0.12229364777E+04  0.11988473320E+04  0.20123842534E+04  0.12699999809E+01 0. -1.
</event>
<event>
 5   0  0.8805125E-08  0.3304426E+04  0.7818609E-02  0.8161770E-01
        1   -1    0    0  501    0  0.00000000000E+00  0.00000000000E+00  0.10636300308E+04  0.10636300308E+04  0.50400001928E-02 0.  1.
       -1   -1    0    0    0  501  0.00000000000E+00  0.00000000000E+00 -0.25665010434E+04  0.25665010434E+04  0.50400001928E-02 0. -1.
    10030    2    1    2    0    0  0.00000000000E+00  0.00000000000E+00 -0.15028710126E+04  0.36301310743E+04  0.33044258708E+04 0.  0.
        4    1    3    3  502    0 -0.40909076805E+03  0.14452768105E+04 -0.15074739902E+04  0.21280647922E+04  0.12699999809E+01 0. -1.
       -4    1    3    3    0  502  0.40909076805E+03 -0.14452768105E+04  0.46029776412E+01  0.15020662821E+04  0.12699999809E+01 0.  1.
</event>
<event>
 5   0  0.9283910E-08  0.3298083E+04  0.7818609E-02  0.8163383E-01
        1   -1    0    0  501    0  0.00000000000E+00  0.00000000000E+00  0.15087053400E+04  0.15087053400E+04  0.50400001928E-02 0. -1.
       -1   -1    0    0    0  501  0.00000000000E+00  0.00000000000E+00 -0.18024318635E+04  0.18024318635E+04  0.50400001928E-02 0.  1.
    10030    2    1    2    0    0  0.00000000000E+00  0.00000000000E+00 -0.29372652353E+03  0.33111372035E+04  0.32980834298E+04 0.  0.
        3    1    3    3  502    0 -0.19629507499E+02 -0.13452442616E+03 -0.17967961853E+04  0.18019319301E+04  0.10100000352E+00 0.  1.
       -3    1    3    3    0  502  0.19629507499E+02  0.13452442616E+03  0.15030696618E+04  0.15092052734E+04  0.10100000352E+00 0. -1.
</event>
<event>
 5   0  0.2727168E-07  0.3271512E+04  0.7818609E-02  0.8170182E-01
       -2   -1    0    0    0  501  0.00000000000E+00  0.00000000000E+00  0.17414311256E+04  0.17414311256E+04  0.25500000920E-02 0.  1.
        2   -1    0    0  501    0  0.00000000000E+00  0.00000000000E+00 -0.15364933009E+04  0.15364933009E+04  0.25500000920E-02 0. -1.
    10030    2    1    2    0    0  0.00000000000E+00  0.00000000000E+00  0.20493782475E+03  0.32779244265E+04  0.32715117352E+04 0.  0.
        2    1    3    3  502    0 -0.18547230441E+03  0.19966993492E+03 -0.15135872864E+04  0.15379253988E+04  0.25500000920E-02 0. -1.
       -2    1    3    3    0  502  0.18547230441E+03 -0.19966993492E+03  0.17185251112E+04  0.17399990277E+04  0.25500000920E-02 0.  1.
</event>
<event>
 5   0  0.9181760E-08  0.3303686E+04  0.7818609E-02  0.8161958E-01
       -1   -1    0    0    0  501  0.00000000000E+00  0.00000000000E+00  0.16592251908E+04  0.16592251908E+04  0.50400001928E-02 0. -1.
        1   -1    0    0  501    0  0.00000000000E+00  0.00000000000E+00 -0.16444934498E+04  0.16444934498E+04  0.50400001928E-02 0.  1.
    10030    2    1    2    0    0  0.00000000000E+00  0.00000000000E+00  0.14731740971E+02  0.33037186406E+04  0.33036857950E+04 0.  0.
        1    1    3    3  502    0  0.63062746468E+03 -0.94325438845E+03 -0.11931314323E+04  0.16465061358E+04  0.50400001928E-02 0.  1.
       -1    1    3    3    0  502 -0.63062746468E+03  0.94325438845E+03  0.12078631733E+04  0.16572125048E+04  0.50400001928E-02 0. -1.
</event>
<event>
 5   0  0.9181760E-08  0.3273483E+04  0.7818609E-02  0.8169676E-01
       -1   -1    0    0    0  501  0.00000000000E+00  0.00000000000E+00  0.12377677567E+04  0.12377677567E+04  0.50400001928E-02 0. -1.
        1   -1    0    0  501    0  0.00000000000E+00  0.00000000000E+00 -0.21643172428E+04  0.21643172428E+04  0.50400001928E-02 0.  1.
    10030    2    1    2    0    0  0.00000000000E+00  0.00000000000E+00 -0.92654948609E+03  0.34020849995E+04  0.32734826094E+04 0.  0.
        1    1    3    3  502    0  0.91095362450E+03 -0.67206146401E+03 -0.16918405980E+04  0.20356393901E+04  0.50400001928E-02 0.  1.
       -1    1    3    3    0  502 -0.91095362450E+03  0.67206146401E+03  0.76529111194E+03  0.13664456094E+04  0.50400001928E-02 0. -1.
</event>
<event>
 5   0  0.2703956E-07  0.3292720E+04  0.7818609E-02  0.8164750E-01
        2   -1    0    0  501    0  0.00000000000E+00  0.00000000000E+00  0.21491645857E+04  0.21491645857E+04  0.25500000920E-02 0. -1.
       -2   -1    0    0    0  501  0.00000000000E+00  0.00000000000E+00 -0.12611881925E+04  0.12611881925E+04  0.25500000920E-02 0.  1.
    10030    2    1    2    0    0  0.00000000000E+00  0.00000000000E+00  0.88797639325E+03  0.34103527783E+04  0.32927198480E+04 0.  0.
        5    1    3    3  502    0  0.22132511264E+03  0.15077209374E+04  0.10893635581E+04  0.18732170943E+04  0.46999998093E+01 0. -1.
       -5    1    3    3    0  502 -0.22132511264E+03 -0.15077209374E+04 -0.20138716487E+03  0.15371356839E+04  0.46999998093E+01 0.  1.
</event>
<event>
 5   0  0.9454010E-08  0.3287141E+04  0.7818609E-02  0.8166175E-01
        1   -1    0    0  501    0  0.00000000000E+00  0.00000000000E+00  0.20253904129E+04  0.20253904130E+04  0.50400001928E-02 0.  1.
       -1   -1    0    0    0  501  0.00000000000E+00  0.00000000000E+00 -0.13337297539E+04  0.13337297539E+04  0.50400001928E-02 0. -1.
    10030    2    1    2    0    0  0.00000000000E+00  0.00000000000E+00  0.69166065902E+03  0.33591201669E+04  0.32871406767E+04 0.  0.
        2    1    3    3  502    0  0.79175289788E+03 -0.13518087045E+04  0.85376985893E+03  0.17841475266E+04  0.25500000920E-02 0.  1.
       -2    1    3    3    0  502 -0.79175289788E+03  0.13518087045E+04 -0.16210919991E+03  0.15749726402E+04  0.25500000920E-02 0. -1.
</event>
<event>
 5   0  0.9283910E-08  0.3300795E+04  0.7818609E-02  0.8162693E-01
       -1   -1    0    0    0  501  0.00000000000E+00  0.00000000000E+00  0.11039213243E+04  0.11039213243E+04  0.50400001928E-02 0.  1.
        1   -1    0    0  501    0  0.00000000000E+00  0.00000000000E+00 -0.24673971273E+04  0.24673971273E+04  0.50400001928E-02 0. -1.
    10030    2    1    2    0    0  0.00000000000E+00  0.00000000000E+00 -0.13634758030E+04  0.35713184517E+04  0.33007952402E+04 0.  0.
        3    1    3    3  502    0  0.10816536697E+04 -0.12304961886E+04 -0.89736181050E+03  0.18679811992E+04  0.10100000352E+00 0.  1.
       -3    1    3    3    0  502 -0.10816536697E+04  0.12304961886E+04 -0.46611399251E+03  0.17033372525E+04  0.10100000352E+00 0. -1.
</event>
<event>
 5   0  0.8805125E-08  0.3291000E+04  0.7818609E-02  0.8165189E-01
        1   -1    0    0  501    0  0.00000000000E+00  0.00000000000E+00  0.30056294030E+04  0.30056294030E+04  0.50400001928E-02 0.  1.
       -1   -1    0    0    0  501  0.00000000000E+00  0.00000000000E+00 -0.90086616156E+03  0.90086616158E+03  0.50400001928E-02 0. -1.
    10030    2    1    2    0    0  0.00000000000E+00  0.00000000000E+00  0.21047632415E+04  0.39064955646E+04  0.32909997408E+04 0.  0.
        4    1    3    3  502    0 -0.13430488760E+04 -0.15214020078E+03  0.21663777070E+04  0.25534527422E+04  0.12699999809E+01 0. -1.
       -4    1    3    3    0  502  0.13430488760E+04  0.15214020078E+03 -0.61614465561E+02  0.13530428224E+04  0.12699999809E+01 0.  1.
</event>
<event>
 5   0  0.8805125E-08  0.3302826E+04  0.7818609E-02  0.8162177E-01
        1   -1    0    0  501    0  0.00000000000E+00  0.00000000000E+00  0.16351993848E+04  0.16351993848E+04  0.50400001928E-02 0. -1.
       -1   -1    0    0    0  501  0.00000000000E+00  0.00000000000E+00 -0.16677876889E+04  0.16677876889E+04  0.50400001928E-02 0.  1.
    10030    2    1    2    0    0  0.00000000000E+00  0.00000000000E+00 -0.32588304117E+02  0.33029870737E+04  0.33028263066E+04 0.  0.
        4    1    3    3  502    0 -0.64083570664E+03 -0.11674101724E+04 -0.99289013680E+03  0.16611289384E+04  0.12699999809E+01 0.  1.
       -4    1    3    3    0  502  0.64083570664E+03  0.11674101724E+04  0.96030183269E+03  0.16418581352E+04  0.12699999809E+01 0. -1.
</event>
<event>
 5   0  0.2713815E-07  0.3301477E+04  0.7818609E-02  0.8162520E-01
       -2   -1    0    0    0  501  0.00000000000E+00  0.00000000000E+00  0.12948661950E+04  0.12948661950E+04  0.25500000920E-02 0. -1.
        2   -1    0    0  501    0  0.00000000000E+00  0.00000000000E+00 -0.21044160766E+04  0.21044160766E+04  0.25500000920E-02 0.  1.
    10030    2    1    2    0    0  0.00000000000E+00  0.00000000000E+00 -0.80954988165E+03  0.33992822716E+04  0.33014767834E+04 0.  0.
        4    1    3    3  502    0 -0.11161123784E+04 -0.26726639487E+03  0.81688144657E+03  0.14086997826E+04  0.12699999809E+01 0. -1.
       -4    1    3    3    0  502  0.11161123784E+04  0.26726639487E+03 -0.16264313282E+04  0.19905824889E+04  0.12699999809E+01 0.  1.
</event>
<event>
 5   0  0.9283910E-08  0.3296397E+04  0.7818609E-02  0.8163813E-01
        1   -1    0    0  501    0  0.00000000000E+00  0.00000000000E+00  0.18993240799E+04  0.18993240799E+04  0.50400001928E-02 0.  1.
       -1   -1    0    0    0  501  0.00000000000E+00  0.00000000000E+00 -0.14302763225E+04  0.14302763225E+04  0.50400001928E-02 0. -1.
    10030    2    1    2    0    0  0.00000000000E+00  0.00000000000E+00  0.46904775744E+03  0.33296004024E+04  0.32963969786E+04 0.  0.
        3    1    3    3  502    0  0.14021156197E+04  0.66491452173E+02  0.11070588201E+04  0.17877160193E+04  0.10100000352E+00 0.  1.
       -3    1    3    3    0  502 -0.14021156197E+04 -0.66491452173E+02 -0.63801106270E+03  0.15418843830E+04  0.10100000352E+00 0. -1.
</event>
<event>
 5   0  0.2727168E-07  0.3300295E+04  0.7818609E-02  0.8162820E-01
        2   -1    0    0  501    0  0.00000000000E+00  0.00000000000E+00  0.20927267283E+04  0.20927267283E+04  0.25500000920E-02 0.  1.
       -2   -1    0    0    0  501  0.00000000000E+00  0.00000000000E+00 -0.13011669377E+04  0.13011669377E+04  0.25500000920E-02 0. -1.
    10030    2    1    2    0    0  0.00000000000E+00  0.00000000000E+00  0.79155979062E+03  0.33938936660E+04  0.33002950344E+04 0.  0.
        2    1    3    3  502    0 -0.71494274032E+03  0.37708510947E+02 -0.11331340448E+04  0.13403573469E+04  0.25500000920E-02 0. -1.
       -2    1    3    3    0  502  0.71494274032E+03 -0.37708510947E+02  0.19246938355E+04  0.20535363191E+04  0.25500000920E-02 0.  1.
</event>
<event>
 5   0  0.2703956E-07  0.3309248E+04  0.7818609E-02  0.8160546E-01
       -2   -1    0    0    0  501  0.00000000000E+00  0.00000000000E+00  0.13601294231E+04  0.13601294231E+04  0.25500000920E-02 0.  1.
        2   -1    0    0  501    0  0.00000000000E+00  0.00000000000E+00 -0.20128818307E+04  0.20128818307E+04  0.25500000920E-02 0. -1.
    10030    2    1    2    0    0  0.00000000000E+00  0.00000000000E+00 -0.65275240758E+03  0.33730112539E+04  0.33092475298E+04 0.  0.
        5    1    3    3  502    0  0.15392804627E+04 -0.60672436864E+03 -0.34277695799E+03  0.16896795362E+04  0.46999998093E+01 0.  1.
       -5    1    3    3    0  502 -0.15392804627E+04  0.60672436864E+03 -0.30997544959E+03  0.16833317176E+04  0.46999998093E+01 0. -1.
</event>
<event>
 5   0  0.2875829E-07  0.3303805E+04  0.7818609E-02  0.8161928E-01
        2   -1    0    0  501    0  0.00000000000E+00  0.00000000000E+00  0.10255886935E+04  0.10255886935E+04  0.25500000920E-02 0.  1.
       -2   -1    0    0    0  501  0.00000000000E+00  0.00000000000E+00 -0.26606978780E+04  0.26606978780E+04  0.25500000920E-02 0. -1.
    10030    2    1    2    0    0  0.00000000000E+00  0.00000000000E+00 -0.16351091845E+04  0.36862865715E+04  0.33038048734E+04 0.  0.
        3    1    3    3  502    0  0.13317066489E+04  0.55345166861E+03 -0.17164459221E+04  0.22418603797E+04  0.10100000352E+00 0. -1.
       -3    1    3    3    0  502 -0.13317066489E+04 -0.55345166861E+03  0.81336737673E+02  0.14444261917E+04  0.10100000352E+00 0.  1.
</event>
<event>
 5   0  0.9454010E-08  0.3303149E+04  0.7818609E-02  0.8162095E-01
       -1   -1    0    0    0  501  0.00000000000E+00  0.00000000000E+00  0.15202280372E+04  0.15202280372E+04  0.50400001928E-02 0.  1.
        1   -1    0    0  501    0  0.00000000000E+00  0.00000000000E+00 -0.17942693894E+04  0.17942693894E+04  0.50400001928E-02 0. -1.
    10030    2    1    2    0    0  0.00000000000E+00  0.00000000000E+00 -0.27404135220E+03  0.33144974265E+04  0.33031491834E+04 0.  0.
        2    1    3    3  502    0  0.21700292792E+03 -0.66559477842E+03 -0.16380180874E+04  0.17813505928E+04  0.25500000920E-02 0. -1.
       -2    1    3    3    0  502 -0.21700292792E+03  0.66559477842E+03  0.13639767352E+04  0.15331468338E+04  0.25500000920E-02 0.  1.
</event>
<event>
 5   0  0.2875829E-07  0.3280964E+04  0.7818609E-02  0.8167756E-01
       -2   -1    0    0    0  501  0.00000000000E+00  0.00000000000E+00  0.13094933618E+04  0.13094933618E+04  0.25500000920E-02 0. -1.
        2   -1    0    0  501    0  0.00000000000E+00  0.00000000000E+00 -0.20551320575E+04  0.20551320575E+04  0.25500000920E-02 0.  1.
    10030    2    1    2    0    0  0.00000000000E+00  0.00000000000E+00 -0.74563869571E+03  0.33646254194E+04  0.32809643625E+04 0.  0.
        3    1    3    3  502    0  0.15401799008E+04 -0.52875992508E+03 -0.57647990080E+03  0.17274461704E+04  0.10100000352E+00 0. -1.
       -3    1    3    3    0  502 -0.15401799008E+04  0.52875992508E+03 -0.16915879491E+03  0.16371792490E+04  0.10100000352E+00 0.  1.
</event>
<event>
 5   0  0.9810351E-08  0.3301867E+04  0.7818609E-02  0.8162421E-01
        1   -1    0    0  501    0  0.00000000000E+00  0.00000000000E+00  0.22819039584E+04  0.22819039584E+04  0.50400001928E-02 0.  1.
       -1   -1    0    0    0  501  0.00000000000E+00  0.00000000000E+00 -0.11944328791E+04  0.11944328792E+04  0.50400001928E-02 0. -1.
    10030    2    1    2    0    0  0.00000000000E+00  0.00000000000E+00  0.10874710793E+04  0.34763368376E+04  0.33018668144E+04 0.  0.
        5    1    3    3  502    0 -0.95503992925E+02 -0.16186779432E+04  0.21698228358E+03  0.16359531466E+04  0.46999998093E+01 0. -1.
       -5    1    3    3    0  502  0.95503992925E+02  0.16186779432E+04  0.87048879568E+03  0.18403836910E+04  0.46999998093E+01 0.  1.
</event>
<event>
 5   0  0.9283910E-08  0.3291745E+04  0.7818609E-02  0.8164999E-01
       -1   -1    0    0    0  501  0.00000000000E+00  0.00000000000E+00  0.13509014127E+04  0.13509014127E+04  0.50400001928E-02 0.  1.
        1   -1    0    0  501    0  0.00000000000E+00  0.00000000000E+00 -0.20052514799E+04  0.20052514800E+04  0.50400001928E-02 0. -1.
    10030    2    1    2    0    0  0.00000000000E+00  0.00000000000E+00 -0.65435006724E+03  0.33561528927E+04  0.32917454684E+04 0.  0.
        3    1    3    3  502    0 -0.28364158046E+03  0.72231931963E+03  0.11526717964E+04  0.13895502964E+04  0.10100000352E+00 0.  1.
       -3    1    3    3    0  502  0.28364158046E+03 -0.72231931963E+03 -0.18070218637E+04  0.19666025963E+04  0.10100000352E+00 0. -1.
</event>
<event>
 5   0  0.9181760E-08  0.3273790E+04  0.7818609E-02  0.8169597E-01
        1   -1    0    0  501    0  0.00000000000E+00  0.00000000000E+00  0.17719778532E+04  0.17719778533E+04  0.50400001928E-02 0.  1.
       -1   -1    0    0    0  501  0.00000000000E+00  0.00000000000E+00 -0.15121094357E+04  0.15121094357E+04  0.50400001928E-02 0. -1.
    10030    2    1    2    0    0  0.00000000000E+00  0.00000000000E+00  0.25986841754E+03  0.32840872890E+04  0.32737895056E+04 0.  0.
        1    1    3    3  502    0 -0.70572964482E+03 -0.14705659482E+04  0.26750014614E+03  0.16529291781E+04  0.50400001928E-02 0.  1.
       -1    1    3    3    0  502  0.70572964482E+03  0.14705659482E+04 -0.76317286033E+01  0.16311581109E+04  0.50400001928E-02 0. -1.
</event>
<event>
 5   0  0.2713815E-07  0.3309595E+04  0.7818609E-02  0.8160458E-01
        2   -1    0    0  501    0  0.00000000000E+00  0.00000000000E+00  0.24630238917E+04  0.24630238917E+04  0.25500000920E-02 0. -1.
       -2   -1    0    0    0  501  0.00000000000E+00  0.00000000000E+00 -0.11117856225E+04  0.11117856225E+04  0.25500000920E-02 0.  1.
    10030    2    1    2    0    0  0.00000000000E+00  0.00000000000E+00  0.13512382692E+04  0.35748095142E+04  0.33095948699E+04 0.  0.
        4    1    3    3  502    0  0.52236777167E+03  0.29350529589E+03  0.23417391312E+04  0.24171796001E+04  0.12699999809E+01 0. -1.
       -4    1    3    3    0  502 -0.52236777167E+03 -0.29350529589E+03 -0.99050086197E+03  0.11576299141E+04  0.12699999809E+01 0.  1.
</event>
<event>
 5   0  0.8805125E-08  0.3304532E+04  0.7818609E-02  0.8161743E-01
       -1   -1    0    0    0  501  0.00000000000E+00  0.00000000000E+00  0.22083876557E+04  0.22083876557E+04  0.50400001928E-02 0.  1.
        1   -1    0    0  501    0  0.00000000000E+00  0.00000000000E+00 -0.12361883479E+04  0.12361883479E+04  0.50400001928E-02 0. -1.
    10030    2    1    2    0    0  0.00000000000E+00  0.00000000000E+00  0.97219930787E+03  0.34445760036E+04  0.33045320925E+04 0.  0.
        4    1    3    3  502    0 -0.70443630653E+03  0.91437292642E+03 -0.74623483665E+03  0.13744731365E+04  0.12699999809E+01 0. -1.
       -4    1    3    3    0  502  0.70443630653E+03 -0.91437292642E+03  0.17184341445E+04  0.20701028671E+04  0.12699999809E+01 0.  1.
</event>
<event>
 5   0  0.8805125E-08  0.3300259E+04  0.7818609E-02  0.8162830E-01
        4   -1    0    0  501    0  0.00000000000E+00  0.00000000000E+00  0.13302253334E+04  0.13302259396E+04  0.12699999809E+01 0. -1.
       -4   -1    0    0    0  501  0.00000000000E+00  0.00000000000E+00 -0.20469655706E+04  0.20469659646E+04  0.12699999809E+01 0.  1.
    10030    2    1    2    0    0  0.00000000000E+00  0.00000000000E+00 -0.71674023721E+03  0.33771919042E+04  0.33002588671E+04 0.  0.
        5    1    3    3  502    0 -0.24128588681E+03  0.18467852186E+03 -0.20180850141E+04  0.20408366543E+04  0.46999998093E+01 0.  1.
       -5    1    3    3    0  502  0.24128588681E+03 -0.18467852186E+03  0.13013447768E+04  0.13363552499E+04  0.46999998093E+01 0. -1.
</event>
<event>
 5   0  0.9283910E-08  0.3294429E+04  0.7818609E-02  0.8164314E-01
        1   -1    0    0  501    0  0.00000000000E+00  0.00000000000E+00  0.19134412410E+04  0.19134412410E+04  0.50400001928E-02 0. -1.
       -1   -1    0    0    0  501  0.00000000000E+00  0.00000000000E+00 -0.14180296285E+04  0.14180296285E+04  0.50400001928E-02 0.  1.
    10030    2    1    2    0    0  0.00000000000E+00  0.00000000000E+00  0.49541161254E+03  0.33314708695E+04  0.32944294633E+04 0.  0.
        3    1    3    3  502    0  0.82564658368E+02 -0.15212471318E+04  0.88109203396E+03  0.17599241294E+04  0.10100000352E+00 0.  1.
       -3    1    3    3    0  502 -0.82564658368E+02  0.15212471318E+04 -0.38568042142E+03  0.15715467401E+04  0.10100000352E+00 0. -1.
</event>
<event>
 5   0  0.2727168E-07  0.3302989E+04  0.7818609E-02  0.8162135E-01
       -2   -1    0    0    0  501  0.00000000000E+00  0.00000000000E+00  0.13706542505E+04  0.13706542506E+04  0.25500000920E-02 0.  1.
        2   -1    0    0  501    0  0.00000000000E+00  0.00000000000E+00 -0.19898779835E+04  0.19898779835E+04  0.25500000920E-02 0. -1.
    10030    2    1    2    0    0  0.00000000000E+00  0.00000000000E+00 -0.61922373293E+03  0.33605322340E+04  0.33029893831E+04 0.  0.
        2    1    3    3  502    0 -0.32190088020E+03  0.38794387211E+03 -0.19096875442E+04  0.19751018053E+04  0.25500000920E-02 0. -1.
       -2    1    3    3    0  502  0.32190088020E+03 -0.38794387211E+03  0.12904638113E+04  0.13854304287E+04  0.25500000920E-02 0.  1.
</event>
<event>
 5   0  0.2713815E-07  0.3307762E+04  0.7818609E-02  0.8160923E-01
        2   -1    0    0  501    0  0.00000000000E+00  0.00000000000E+00  0.29099567496E+04  0.29099567496E+04  0.25500000920E-02 0.  1.
       -2   -1    0    0    0  501  0.00000000000E+00  0.00000000000E+00 -0.93998713943E+03  0.93998713943E+03  0.25500000920E-02 0. -1.
    10030    2    1    2    0    0  0.00000000000E+00  0.00000000000E+00  0.19699696102E+04  0.38499438891E+04  0.33077617332E+04 0.  0.
        4    1    3    3  502    0 -0.84712549057E+03  0.49037458345E+03  0.25366291389E+04  0.27189295376E+04  0.12699999809E+01 0.  1.
       -4    1    3    3    0  502  0.84712549057E+03 -0.49037458345E+03 -0.56665952874E+03  0.11310143515E+04  0.12699999809E+01 0. -1.
</event>
<event>
 5   0  0.2727168E-07  0.3331479E+04  0.7818609E-02  0.8154931E-01
       -2   -1    0    0    0  501  0.00000000000E+00  0.00000000000E+00  0.14709854903E+04  0.14709854903E+04  0.25500000920E-02 0.  1.
        2   -1    0    0  501    0  0.00000000000E+00  0.00000000000E+00 -0.18862785577E+04  0.18862785577E+04  0.25500000920E-02 0. -1.
    10030    2    1    2    0    0  0.00000000000E+00  0.00000000000E+00 -0.41529306738E+03  0.33572640480E+04  0.33314791844E+04 0.  0.
        2    1    3    3  502    0 -0.26286906367E+03 -0.16110078364E+04 -0.54224344556E+03  0.17200216126E+04  0.25500000920E-02 0. -1.
       -2    1    3    3    0  502  0.26286906367E+03  0.16110078364E+04  0.12695037818E+03  0.16372424354E+04  0.25500000920E-02 0.  1.
</event>
<event>
 5   0  0.8805125E-08  0.3307890E+04  0.7818609E-02  0.8160891E-01
       -1   -1    0    0    0  501  0.00000000000E+00  0.00000000000E+00  0.21268379611E+04  0.21268379611E+04  0.50400001928E-02 0.  1.
        1   -1    0    0  501    0  0.00000000000E+00  0.00000000000E+00 -0.12861976268E+04  0.12861976268E+04  0.50400001928E-02 0. -1.
    10030    2    1    2    0    0  0.00000000000E+00  0.00000000000E+00  0.84064033427E+03  0.34130355879E+04  0.33078899245E+04 0.  0.
        4    1    3    3  502    0 -0.53684967837E+03  0.45205911053E+02  0.20337651822E+04  0.21039138720E+04  0.12699999809E+01 0.  1.
       -4    1    3    3    0  502  0.53684967837E+03 -0.45205911053E+02 -0.11931248479E+04  0.13091217159E+04  0.12699999809E+01 0. -1.
</event>
<event>
 5   0  0.2703956E-07  0.3295055E+04  0.7818609E-02  0.8164155E-01
       -2   -1    0    0    0  501  0.00000000000E+00  0.00000000000E+00  0.13439729125E+04  0.13439729125E+04  0.25500000920E-02 0. -1.
        2   -1    0    0  501    0  0.00000000000E+00  0.00000000000E+00 -0.20196439566E+04  0.20196439566E+04  0.25500000920E-02 0.  1.
    10030    2    1    2    0    0  0.00000000000E+00  0.00000000000E+00 -0.67567104411E+03  0.33636168691E+04  0.32950549438E+04 0.  0.
        5    1    3    3  502    0  0.17609411310E+03  0.14593067863E+04 -0.10974557381E+04  0.18343981630E+04  0.46999998093E+01 0.  1.
       -5    1    3    3    0  502 -0.17609411310E+03 -0.14593067863E+04  0.42178469403E+03  0.15292187062E+04  0.46999998093E+01 0. -1.
</event>
<event>
 5   0  0.9454010E-08  0.3283993E+04  0.7818609E-02  0.8166980E-01
       -1   -1    0    0    0  501  0.00000000000E+00  0.00000000000E+00  0.18111590960E+04  0.18111590960E+04  0.50400001928E-02 0.  1.
        1   -1    0    0  501    0  0.00000000000E+00  0.00000000000E+00 -0.14886333677E+04  0.14886333677E+04  0.50400001928E-02 0. -1.
    10030    2    1    2    0    0  0.00000000000E+00  0.00000000000E+00  0.32252572835E+03  0.32997924637E+04  0.32839926093E+04 0.  0.
        2    1    3    3  502    0  0.90631533529E+03  0.30089665735E+03  0.15034309311E+04  0.17810813710E+04  0.25500000920E-02 0.  1.
       -2    1    3    3    0  502 -0.90631533529E+03 -0.30089665735E+03 -0.11809052027E+04  0.15187110928E+04  0.25500000920E-02 0. -1.
</event>
<event>
 5   0  0.9181760E-08  0.3304546E+04  0.7818609E-02  0.8161740E-01
       -1   -1    0    0    0  501  0.00000000000E+00  0.00000000000E+00  0.14927041655E+04  0.14927041655E+04  0.50400001928E-02 0. -1.
        1   -1    0    0  501    0  0.00000000000E+00  0.00000000000E+00 -0.18289000760E+04  0.18289000760E+04  0.50400001928E-02 0.  1.
    10030    2    1    2    0    0  0.00000000000E+00  0.00000000000E+00 -0.33619591054E+03  0.33216042415E+04  0.33045464207E+04 0.  0.
        1    1    3    3  502    0  0.40134328415E+03 -0.16427499345E+03  0.14344794803E+04  0.14985973724E+04  0.50400001928E-02 0. -1.
       -1    1    3    3    0  502 -0.40134328415E+03  0.16427499345E+03 -0.17706753908E+04  0.18230068691E+04  0.50400001928E-02 0.  1.
</event>
<event>
 5   0  0.9810351E-08  0.3299765E+04  0.7818609E-02  0.8162955E-01
        1   -1    0    0  501    0  0.00000000000E+00  0.00000000000E+00  0.19337158318E+04  0.19337158318E+04  0.50400001928E-02 0.  1.
       -1   -1    0    0    0  501  0.00000000000E+00  0.00000000000E+00 -0.14077105147E+04  0.14077105147E+04  0.50400001928E-02 0. -1.
    10030    2    1    2    0    0  0.00000000000E+00  0.00000000000E+00  0.52600531708E+03  0.33414263465E+04  0.32997649061E+04 0.  0.
        5    1    3    3  502    0 -0.30369321146E+02  0.10890153371E+04  0.15176834753E+04  0.18682242695E+04  0.46999998093E+01 0.  1.
       -5    1    3    3    0  502  0.30369321146E+02 -0.10890153371E+04 -0.99167815823E+03  0.14732020770E+04  0.46999998093E+01 0. -1.
</event>
<event>
 5   0  0.8805125E-08  0.3299680E+04  0.7818609E-02  0.8162977E-01
        1   -1    0    0  501    0  0.00000000000E+00  0.00000000000E+00  0.24502616760E+04  0.24502616760E+04  0.50400001928E-02 0.  1.
       -1   -1    0    0    0  501  0.00000000000E+00  0.00000000000E+00 -0.11108906636E+04  0.11108906636E+04  0.50400001928E-02 0. -1.
    10030    2    1    2    0    0  0.00000000000E+00  0.00000000000E+00  0.13393710124E+04  0.35611523396E+04  0.32996804811E+04 0.  0.
        4    1    3    3  502    0 -0.14974754921E+03 -0.15040176659E+04  0.13835185435E+04  0.20490531084E+04  0.12699999809E+01 0.  1.
       -4    1    3    3    0  502  0.14974754921E+03  0.15040176659E+04 -0.44147531121E+02  0.15120992313E+04  0.12699999809E+01 0. -1.
</event>
<event>
 5   0  0.2824402E-07  0.3302881E+04  0.7818609E-02  0.8162163E-01
        2   -1    0    0  501    0  0.00000000000E+00  0.00000000000E+00  0.15559075649E+04  0.15559075649E+04  0.25500000920E-02 0.  1.
       -2   -1    0    0    0  501  0.00000000000E+00  0.00000000000E+00 -0.17528390819E+04  0.17528390819E+04  0.25500000920E-02 0. -1.
    10030    2    1    2    0    0  0.00000000000E+00  0.00000000000E+00 -0.19693151709E+03  0.33087466468E+04  0.33028809168E+04 0.  0.
        1    1    3    3  502    0  0.36786703391E+03 -0.86190503686E+03 -0.14606781451E+04  0.17354501118E+04  0.50400001928E-02 0. -1.
       -1    1    3    3    0  502 -0.36786703391E+03  0.86190503686E+03  0.12637466280E+04  0.15732965350E+04  0.50400001928E-02 0.  1.
</event>
<event>
 5   0  0.9181760E-08  0.3288961E+04  0.7818609E-02  0.8165710E-01
       -1   -1    0    0    0  501  0.00000000000E+00  0.00000000000E+00  0.28916557536E+04  0.28916557536E+04  0.50400001928E-02 0. -1.
        1   -1    0    0  501    0  0.00000000000E+00  0.00000000000E+00 -0.93521374273E+03  0.93521374274E+03  0.50400001928E-02 0.  1.
    10030    2    1    2    0    0  0.00000000000E+00  0.00000000000E+00  0.19564420109E+04  0.38268694964E+04  0.32889610518E+04 0.  0.
        1    1    3    3  502    0 -0.11434622581E+04  0.10837567395E+04  0.15267968404E+04  0.21938876904E+04  0.50400001928E-02 0. -1.
       -1    1    3    3    0  502  0.11434622581E+04 -0.10837567395E+04  0.42964517049E+03  0.16329818060E+04  0.50400001928E-02 0.  1.
</event>
<event>
 5   0  0.2875829E-07  0.3300655E+04  0.7818609E-02  0.8162729E-01
        2   -1    0    0  501    0  0.00000000000E+00  0.00000000000E+00  0.16384414318E+04  0.16384414318E+04  0.25500000920E-02 0.  1.
       -2   -1    0    0    0  501  0.00000000000E+00  0.00000000000E+00 -0.16622994833E+04  0.16622994833E+04  0.25500000920E-02 0. -1.
    10030    2    1    2    0    0  0.00000000000E+00  0.00000000000E+00 -0.23858051494E+02  0.33007409152E+04  0.33006546900E+04 0.  0.
        3    1    3    3  502    0 -0.33711428165E+03 -0.86671335686E+03 -0.13753216211E+04  0.16602251816E+04  0.10100000352E+00 0. -1.
       -3    1    3    3    0  502  0.33711428165E+03  0.86671335686E+03  0.13514635696E+04  0.16405157336E+04  0.10100000352E+00 0.  1.
</event>
<event>
 5   0  0.2824402E-07  0.3300999E+04  0.7818609E-02  0.8162641E-01
       -2   -1    0    0    0  501  0.00000000000E+00  0.00000000000E+00  0.92422187080E+03  0.92422187081E+03  0.25500000920E-02 0. -1.
        2   -1    0    0  501    0  0.00000000000E+00  0.00000000000E+00 -0.29475055164E+04  0.29475055164E+04  0.25500000920E-02 0.  1.
    10030    2    1    2    0    0  0.00000000000E+00  0.00000000000E+00 -0.20232836456E+04  0.38717273873E+04  0.33009992806E+04 0.  0.
        1    1    3    3  502    0 -0.37056866995E+03 -0.29217510159E+03  0.84341092850E+03  0.96645197680E+03  0.50400001928E-02 0. -1.
       -1    1    3    3    0  502  0.37056866995E+03  0.29217510159E+03 -0.28666945741E+04  0.29052754104E+04  0.50400001928E-02 0.  1.
</event>
<event>
 5   0  0.2824402E-07  0.3283621E+04  0.7818609E-02  0.8167076E-01
        2   -1    0    0  501    0  0.00000000000E+00  0.00000000000E+00  0.13572863549E+04  0.13572863549E+04  0.25500000920E-02 0.  1.
       -2   -1    0    0    0  501  0.00000000000E+00  0.00000000000E+00 -0.19859780799E+04  0.19859780799E+04  0.25500000920E-02 0. -1.
    10030    2    1    2    0    0  0.00000000000E+00  0.00000000000E+00 -0.62869172495E+03  0.33432644348E+04  0.32836205317E+04 0.  0.
        1    1    3    3  502    0  0.15138010206E+04 -0.21882783985E+03  0.29320194043E+03  0.15573845162E+04  0.50400001928E-02 0.  1.
       -1    1    3    3    0  502 -0.15138010206E+04  0.21882783985E+03 -0.92189366538E+03  0.17858799186E+04  0.50400001928E-02 0. -1.
</event>
<event>
 5   0  0.2703956E-07  0.3297576E+04  0.7818609E-02  0.8163512E-01
       -2   -1    0    0    0  501  0.00000000000E+00  0.00000000000E+00  0.11677445971E+04  0.11677445971E+04  0.25500000920E-02 0.  1.
        2   -1    0    0  501    0  0.00000000000E+00  0.00000000000E+00 -0.23279939845E+04  0.23279939845E+04  0.25500000920E-02 0. -1.
    10030    2    1    2    0    0  0.00000000000E+00  0.00000000000E+00 -0.11602493874E+04  0.34957385816E+04  0.32975763206E+04 0.  0.
        5    1    3    3  502    0  0.97485346706E+03  0.13103896543E+04 -0.34067503070E+03  0.16683950057E+04  0.46999998093E+01 0. -1.
       -5    1    3    3    0  502 -0.97485346706E+03 -0.13103896543E+04 -0.81957435672E+03  0.18273435760E+04  0.46999998093E+01 0.  1.
</event>
<event>
 5   0  0.9810351E-08  0.3302276E+04  0.7818609E-02  0.8162316E-01
        1   -1    0    0  501    0  0.00000000000E+00  0.00000000000E+00  0.27146144640E+04  0.27146144640E+04  0.50400001928E-02 0.  1.
       -1   -1    0    0    0  501  0.00000000000E+00  0.00000000000E+00 -0.10042889757E+04  0.10042889757E+04  0.50400001928E-02 0. -1.
    10030    2    1    2    0    0  0.00000000000E+00  0.00000000000E+00  0.17103254883E+04  0.37189034397E+04  0.33022764145E+04 0.  0.
        5    1    3    3  502    0 -0.78367199510E+02 -0.15379048503E+04  0.15260978365E+04  0.21680150929E+04  0.46999998093E+01 0.  1.
       -5    1    3    3    0  502  0.78367199510E+02  0.15379048503E+04  0.18422765179E+03  0.15508883468E+04  0.46999998093E+01 0. -1.
</event>
<event>
 5   0  0.2875829E-07  0.3298114E+04  0.7818609E-02  0.8163376E-01
       -2   -1    0    0    0  501  0.00000000000E+00  0.00000000000E+00  0.10139956368E+04  0.10139956368E+04  0.25500000920E-02 0.  1.
        2   -1    0    0  501    0  0.00000000000E+00  0.00000000000E+00 -0.26818539297E+04  0.26818539297E+04  0.25500000920E-02 0. -1.
    10030    2    1    2    0    0  0.00000000000E+00  0.00000000000E+00 -0.16678582928E+04  0.36958495665E+04  0.32981135113E+04 0.  0.
        3    1    3    3  502    0  0.51641560777E+03  0.59790081046E+02  0.91976741297E+03  0.10565188299E+04  0.10100000352E+00 0.  1.
       -3    1    3    3    0  502 -0.51641560777E+03 -0.59790081046E+02 -0.25876257058E+04  0.26393307366E+04  0.10100000352E+00 0. -1.
</event>
<event>
 5   0  0.8805125E-08  0.3303653E+04  0.7818609E-02  0.8161966E-01
       -1   -1    0    0    0  501  0.00000000000E+00  0.00000000000E+00  0.11758082163E+04  0.11758082163E+04  0.50400001928E-02 0. -1.
        1   -1    0    0  501    0  0.00000000000E+00  0.00000000000E+00 -0.23205579066E+04  0.23205579066E+04  0.50400001928E-02 0.  1.
    10030    2    1    2    0    0  0.00000000000E+00  0.00000000000E+00 -0.11447496903E+04  0.34963661229E+04  0.33036531616E+04 0.  0.
        4    1    3    3  502    0 -0.15066411262E+04 -0.11725891585E+03  0.13347260991E+03  0.15170806462E+04  0.12699999809E+01 0. -1.
       -4    1    3    3    0  502  0.15066411262E+04  0.11725891585E+03 -0.12782223002E+04  0.19792854767E+04  0.12699999809E+01 0.  1.
</event>
<event>
 5   0  0.9181760E-08  0.3302303E+04  0.7818609E-02  0.8162310E-01
        1   -1    0    0  501    0  0.00000000000E+00  0.00000000000E+00  0.18654831015E+04  0.18654831015E+04  0.50400001928E-02 0. -1.
       -1   -1    0    0    0  501  0.00000000000E+00  0.00000000000E+00 -0.14614452729E+04  0.14614452729E+04  0.50400001928E-02 0.  1.
    10030    2    1    2    0    0  0.00000000000E+00  0.00000000000E+00  0.40403782854E+03  0.33269283744E+04  0.33023031117E+04 0.  0.
        1    1    3    3  502    0  0.13040000998E+04 -0.33693021693E+03  0.11643187331E+04  0.17803304030E+04  0.50400001928E-02 0. -1.
       -1    1    3    3    0  502 -0.13040000998E+04  0.33693021693E+03 -0.76028090454E+03  0.15465979715E+04  0.50400001928E-02 0.  1.
</event>
<event>
 5   0  0.9283910E-08  0.3299727E+04  0.7818609E-02  0.8162965E-01
        1   -1    0    0  501    0  0.00000000000E+00  0.00000000000E+00  0.24077795188E+04  0.24077795188E+04  0.50400001928E-02 0. -1.
       -1   -1    0    0    0  501  0.00000000000E+00  0.00000000000E+00 -0.11305227335E+04  0.11305227335E+04  0.50400001928E-02 0.  1.
    10030    2    1    2    0    0  0.00000000000E+00  0.00000000000E+00  0.12772567853E+04  0.35383022523E+04  0.32997269482E+04 0.  0.
        3    1    3    3  502    0  0.65651954224E+03  0.97952536782E+03 -0.59873584344E+03  0.13224872309E+04  0.10100000352E+00 0.  1.
       -3    1    3    3    0  502 -0.65651954224E+03 -0.97952536782E+03  0.18759926288E+04  0.22158150214E+04  0.10100000352E+00 0. -1.
</event>
<event>
 5   0  0.9283910E-08  0.3295766E+04  0.7818609E-02  0.8163974E-01
        1   -1    0    0  501    0  0.00000000000E+00  0.00000000000E+00  0.22659223481E+04  0.22659223481E+04  0.50400001928E-02 0.  1.
       -1   -1    0    0    0  501  0.00000000000E+00  0.00000000000E+00 -0.11984159839E+04  0.11984159839E+04  0.50400001928E-02 0. -1.
    10030    2    1    2    0    0  0.00000000000E+00  0.00000000000E+00  0.10675063642E+04  0.34643383321E+04  0.32957655016E+04 0.  0.
        3    1    3    3  502    0 -0.74765819655E+03 -0.45144806421E+03  0.20026250664E+04  0.21847895323E+04  0.10100000352E+00 0.  1.
       -3    1    3    3    0  502  0.74765819655E+03  0.45144806421E+03 -0.93511870221E+03  0.12795487998E+04  0.10100000352E+00 0. -1.
</event>
<event>
 5   0  0.2727168E-07  0.3284915E+04  0.7818609E-02  0.8166745E-01
        2   -1    0    0  501    0  0.00000000000E+00  0.00000000000E+00  0.14678814438E+04  0.14678814438E+04  0.25500000920E-02 0. -1.
       -2   -1    0    0    0  501  0.00000000000E+00  0.00000000000E+00 -0.18377954971E+04  0.18377954971E+04  0.25500000920E-02 0.  1.
    10030    2    1    2    0    0  0.00000000000E+00  0.00000000000E+00 -0.36991405327E+03  0.33056769409E+04  0.32849145546E+04 0.  0.
        2    1    3    3  502    0 -0.53627681811E+03  0.36091562849E+03 -0.17044053805E+04  0.18228687878E+04  0.25500000920E-02 0.  1.
       -2    1    3    3    0  502  0.53627681811E+03 -0.36091562849E+03  0.13344913272E+04  0.14828081531E+04  0.25500000920E-02 0. -1.
</event>
<event>
 5   0  0.9810351E-08  0.3301641E+04  0.7818609E-02  0.8162478E-01
       -1   -1    0    0    0  501  0.00000000000E+00  0.00000000000E+00  0.12890425903E+04  0.12890425903E+04  0.50400001928E-02 0. -1.
        1   -1    0    0  501    0  0.00000000000E+00  0.00000000000E+00 -0.21141334276E+04  0.21141334276E+04  0.50400001928E-02 0.  1.
    10030    2    1    2    0    0  0.00000000000E+00  0.00000000000E+00 -0.82509083730E+03  0.34031760178E+04  0.33016408222E+04 0.  0.
        5    1    3    3  502    0 -0.11633397401E+04 -0.10287021820E+04 -0.98976560691E+03  0.18415334851E+04  0.46999998093E+01 0.  1.
       -5    1    3    3    0  502  0.11633397401E+04  0.10287021820E+04  0.16467476961E+03  0.15616425327E+04  0.46999998093E+01 0. -1.
</event>
<event>
 5   0  0.2703956E-07  0.3322375E+04  0.7818609E-02  0.8157225E-01
        2   -1    0    0  501    0  0.00000000000E+00  0.00000000000E+00  0.17048544664E+04  0.17048544664E+04  0.25500000920E-02 0.  1.
       -2   -1    0    0    0  501  0.00000000000E+00  0.00000000000E+00 -0.16186389472E+04  0.16186389472E+04  0.25500000920E-02 0. -1.
    10030    2    1    2    0    0  0.00000000000E+00  0.00000000000E+00  0.86215519149E+02  0.33234934136E+04  0.33223749569E+04 0.  0.
        5    1    3    3  502    0  0.15803624561E+04  0.83333836553E+02  0.54828442794E+03  0.16748516128E+04  0.46999998093E+01 0.  1.
       -5    1    3    3    0  502 -0.15803624561E+04 -0.83333836553E+02 -0.46206890879E+03  0.16486418008E+04  0.46999998093E+01 0. -1.
</event>
<event>
 5   0  0.9454010E-08  0.3301266E+04  0.7818609E-02  0.8162573E-01
        1   -1    0    0  501    0  0.00000000000E+00  0.00000000000E+00  0.18941014632E+04  0.18941014632E+04  0.50400001928E-02 0.  1.
       -1   -1    0    0    0  501  0.00000000000E+00  0.00000000000E+00 -0.14384598840E+04  0.14384598840E+04  0.50400001928E-02 0. -1.
    10030    2    1    2    0    0  0.00000000000E+00  0.00000000000E+00  0.45564157920E+03  0.33325613472E+04  0.33012658003E+04 0.  0.
        2    1    3    3  502    0  0.14590634591E+04 -0.72935335937E+03  0.48273488473E+03  0.17011335837E+04  0.25500000920E-02 0.  1.
       -2    1    3    3    0  502 -0.14590634591E+04  0.72935335937E+03 -0.27093305530E+02  0.16314277636E+04  0.25500000920E-02 0. -1.
</event>
<event>
 5   0  0.9454010E-08  0.3298789E+04  0.7818609E-02  0.8163204E-01
       -1   -1    0    0    0  501  0.00000000000E+00  0.00000000000E+00  0.14622899537E+04  0.14622899537E+04  0.50400001928E-02 0. -1.
        1   -1    0    0  501    0  0.00000000000E+00  0.00000000000E+00 -0.18604399856E+04  0.18604399856E+04  0.50400001928E-02 0.  1.
    10030    2    1    2    0    0  0.00000000000E+00  0.00000000000E+00 -0.39815003198E+03  0.33227299393E+04  0.32987892933E+04 0.  0.
        2    1    3    3  502    0  0.14242154365E+04  0.69911869940E+03 -0.65328683362E+03  0.17157914362E+04  0.25500000920E-02 0.  1.
       -2    1    3    3    0  502 -0.14242154365E+04 -0.69911869940E+03  0.25513680164E+03  0.16069385032E+04  0.25500000920E-02 0. -1.
</event>
<event>
 5   0  0.9181760E-08  0.3303579E+04  0.7818609E-02  0.8161985E-01
        1   -1    0    0  501    0  0.00000000000E+00  0.00000000000E+00  0.12782560023E+04  0.12782560023E+04  0.50400001928E-02 0.  1.
       -1   -1    0    0    0  501  0.00000000000E+00  0.00000000000E+00 -0.21344770250E+04  0.21344770250E+04  0.50400001928E-02 0. -1.
    10030    2    1    2    0    0  0.00000000000E+00  0.00000000000E+00 -0.85622102266E+03  0.34127330273E+04  0.33035787074E+04 0.  0.
        1    1    3    3  502    0  0.14124754831E+04 -0.30973703142E+03 -0.12528527796E+04  0.19132862061E+04  0.50400001928E-02 0. -1.
       -1    1    3    3    0  502 -0.14124754831E+04  0.30973703142E+03  0.39663175694E+03  0.14994468212E+04  0.50400001928E-02 0.  1.
</event>
<event>
 5   0  0.9454010E-08  0.3292828E+04  0.7818609E-02  0.8164723E-01
        1   -1    0    0  501    0  0.00000000000E+00  0.00000000000E+00  0.13078112053E+04  0.13078112053E+04  0.50400001928E-02 0.  1.
       -1   -1    0    0    0  501  0.00000000000E+00  0.00000000000E+00 -0.20726835750E+04  0.20726835750E+04  0.50400001928E-02 0. -1.
    10030    2    1    2    0    0  0.00000000000E+00  0.00000000000E+00 -0.76487236963E+03  0.33804947803E+04  0.32928278451E+04 0.  0.
        2    1    3    3  502    0  0.13932257500E+04 -0.41919434488E+03  0.40871496948E+03  0.15112411507E+04  0.25500000920E-02 0. -1.
       -2    1    3    3    0  502 -0.13932257500E+04  0.41919434488E+03 -0.11735873391E+04  0.18692536296E+04  0.25500000920E-02 0.  1.
</event>
<event>
 5   0  0.2824402E-07  0.3304311E+04  0.7818609E-02  0.8161799E-01
       -2   -1    0    0    0  501  0.00000000000E+00  0.00000000000E+00  0.13693969336E+04  0.13693969336E+04  0.25500000920E-02 0.  1.
        2   -1    0    0  501    0  0.00000000000E+00  0.00000000000E+00 -0.19932997227E+04  0.19932997227E+04  0.25500000920E-02 0. -1.
    10030    2    1    2    0    0  0.00000000000E+00  0.00000000000E+00 -0.62390278909E+03  0.33626966563E+04  0.33043114430E+04 0.  0.
        1    1    3    3  502    0  0.24834493833E+03 -0.10132794325E+04 -0.16156840539E+04  0.19232382533E+04  0.50400001928E-02 0. -1.
       -1    1    3    3    0  502 -0.24834493833E+03  0.10132794325E+04  0.99178126485E+03  0.14394584030E+04  0.50400001928E-02 0.  1.
</event>
<event>
 5   0  0.2824402E-07  0.3300521E+04  0.7818609E-02  0.8162763E-01
       -2   -1    0    0    0  501  0.00000000000E+00  0.00000000000E+00  0.15289594168E+04  0.15289594168E+04  0.25500000920E-02 0.  1.
        2   -1    0    0  501    0  0.00000000000E+00  0.00000000000E+00 -0.17811854997E+04  0.17811854997E+04  0.25500000920E-02 0. -1.
    10030    2    1    2    0    0  0.00000000000E+00  0.00000000000E+00 -0.25222608292E+03  0.33101449164E+04  0.33005213787E+04 0.  0.
        1    1    3    3  502    0  0.22389962360E+03 -0.13020422869E+04  0.86566628684E+03  0.15795009587E+04  0.50400001928E-02 0.  1.
       -1    1    3    3    0  502 -0.22389962360E+03  0.13020422869E+04 -0.11178923698E+04  0.17306439578E+04  0.50400001928E-02 0. -1.
</event>
<event>
 5   0  0.8805125E-08  0.3302804E+04  0.7818609E-02  0.8162182E-01
       -1   -1    0    0    0  501  0.00000000000E+00  0.00000000000E+00  0.18792105504E+04  0.18792105504E+04  0.50400001928E-02 0. -1.
        1   -1    0    0  501    0  0.00000000000E+00  0.00000000000E+00 -0.14512100044E+04  0.14512100044E+04  0.50400001928E-02 0.  1.
    10030    2    1    2    0    0  0.00000000000E+00  0.00000000000E+00  0.42800054602E+03  0.33304205548E+04  0.33028043546E+04 0.  0.
        4    1    3    3  502    0 -0.78308180660E+03  0.13713730397E+04 -0.27299384116E+03  0.16026254647E+04  0.12699999809E+01 0.  1.
       -4    1    3    3    0  502  0.78308180660E+03 -0.13713730397E+04  0.70099438718E+03  0.17277950902E+04  0.12699999809E+01 0. -1.
</event>
<event>
 5   0  0.2703956E-07  0.3301381E+04  0.7818609E-02  0.8162544E-01
       -2   -1    0    0    0  501  0.00000000000E+00  0.00000000000E+00  0.11409790401E+04  0.11409790401E+04  0.25500000920E-02 0.  1.
        2   -1    0    0  501    0  0.00000000000E+00  0.00000000000E+00 -0.23881058815E+04  0.23881058815E+04  0.25500000920E-02 0. -1.
    10030    2    1    2    0    0  0.00000000000E+00  0.00000000000E+00 -0.12471268414E+04  0.35290849216E+04  0.33013807756E+04 0.  0.
        5    1    3    3  502    0  0.88601319974E+03 -0.11545759906E+04 -0.14561903769E+04  0.20587806129E+04  0.46999998093E+01 0. -1.
       -5    1    3    3    0  502 -0.88601319974E+03  0.11545759906E+04  0.20906353553E+03  0.14703043087E+04  0.46999998093E+01 0.  1.
</event>
<event>
 5   0  0.9810351E-08  0.3291614E+04  0.7818609E-02  0.8165033E-01
       -1   -1    0    0    0  501  0.00000000000E+00  0.00000000000E+00  0.12986884281E+04  0.12986884281E+04  0.50400001928E-02 0. -1.
        1   -1    0    0  501    0  0.00000000000E+00  0.00000000000E+00 -0.20857042444E+04  0.20857042444E+04  0.50400001928E-02 0.  1.
    10030    2    1    2    0    0  0.00000000000E+00  0.00000000000E+00 -0.78701581637E+03  0.33843926725E+04  0.32916135658E+04 0.  0.
        5    1    3    3  502    0 -0.70208205007E+03  0.14860502100E+04 -0.30509914297E+03  0.16716375231E+04  0.46999998093E+01 0.  1.
       -5    1    3    3    0  502  0.70208205007E+03 -0.14860502100E+04 -0.48191667340E+03  0.17127551494E+04  0.46999998093E+01 0. -1.
</event>
<event>
 5   0  0.9454010E-08  0.3299936E+04  0.7818609E-02  0.8162912E-01
        1   -1    0    0  501    0  0.00000000000E+00  0.00000000000E+00  0.29793140257E+04  0.29793140257E+04  0.50400001928E-02 0.  1.
       -1   -1    0    0    0  501  0.00000000000E+00  0.00000000000E+00 -0.91376549559E+03  0.91376549560E+03  0.50400001928E-02 0. -1.
    10030    2    1    2    0    0  0.00000000000E+00  0.00000000000E+00  0.20655485301E+04  0.38930795213E+04  0.32999359735E+04 0.  0.
        2    1    3    3  502    0  0.73701021327E+03  0.90074766983E+03  0.24125522500E+04  0.26786076193E+04  0.25500000920E-02 0.  1.
       -2    1    3    3    0  502 -0.73701021327E+03 -0.90074766983E+03 -0.34700371988E+03  0.12144719020E+04  0.25500000920E-02 0. -1.
</event>
<event>
 5   0  0.2703956E-07  0.3302390E+04  0.7818609E-02  0.8162287E-01
        2   -1    0    0  501    0  0.00000000000E+00  0.00000000000E+00  0.11939550786E+04  0.11939550786E+04  0.25500000920E-02 0.  1.
       -2   -1    0    0    0  501  0.00000000000E+00  0.00000000000E+00 -0.22835409625E+04  0.22835409625E+04  0.25500000920E-02 0. -1.
    10030    2    1    2    0    0  0.00000000000E+00  0.00000000000E+00 -0.10895858840E+04  0.34774960411E+04  0.33023902430E+04 0.  0.
        5    1    3    3  502    0 -0.41256338029E+03  0.11828866835E+04 -0.16774639016E+04  0.20936419656E+04  0.46999998093E+01 0. -1.
       -5    1    3    3    0  502  0.41256338029E+03 -0.11828866835E+04  0.58787801766E+03  0.13838540755E+04  0.46999998093E+01 0.  1.
</event>
<event>
 5   0  0.2824402E-07  0.3301753E+04  0.7818609E-02  0.8162449E-01
       -2   -1    0    0    0  501  0.00000000000E+00  0.00000000000E+00  0.15754077010E+04  0.15754077010E+04  0.25500000920E-02 0.  1.
        2   -1    0    0  501    0  0.00000000000E+00  0.00000000000E+00 -0.17299607929E+04  0.17299607929E+04  0.25500000920E-02 0. -1.
    10030    2    1    2    0    0  0.00000000000E+00  0.00000000000E+00 -0.15455309190E+03  0.33053684939E+04  0.33017532043E+04 0.  0.
        1    1    3    3  502    0 -0.39227429943E+03  0.14764593957E+04 -0.70372693160E+03  0.16819759414E+04  0.50400001928E-02 0. -1.
       -1    1    3    3    0  502  0.39227429943E+03 -0.14764593957E+04  0.54917383970E+03  0.16233925525E+04  0.50400001928E-02 0.  1.
</event>
<event>
 5   0  0.8805125E-08  0.3308680E+04  0.7818609E-02  0.8160690E-01
       -1   -1    0    0    0  501  0.00000000000E+00  0.00000000000E+00  0.94844792747E+03  0.94844792749E+03  0.50400001928E-02 0.  1.
        1   -1    0    0  501    0  0.00000000000E+00  0.00000000000E+00 -0.28855996508E+04  0.28855996508E+04  0.50400001928E-02 0. -1.
    10030    2    1    2    0    0  0.00000000000E+00  0.00000000000E+00 -0.19371517234E+04  0.38340475783E+04  0.33086801044E+04 0.  0.
        4    1    3    3  502    0 -0.43184020652E+03  0.13967470792E+04 -0.71395884489E+02  0.14637237965E+04  0.12699999809E+01 0.  1.
       -4    1    3    3    0  502  0.43184020652E+03 -0.13967470792E+04 -0.18657558389E+04  0.23703237818E+04  0.12699999809E+01 0. -1.
</event>
<event>
 5   0  0.8805125E-08  0.3302566E+04  0.7818609E-02  0.8162243E-01
        3   -1    0    0  501    0  0.00000000000E+00  0.00000000000E+00  0.14207584449E+04  0.14207584485E+04  0.10100000352E+00 0.  1.
       -3   -1    0    0    0  501  0.00000000000E+00  0.00000000000E+00 -0.19192113522E+04  0.19192113549E+04  0.10100000352E+00 0. -1.
    10030    2    1    2    0    0  0.00000000000E+00  0.00000000000E+00 -0.49845290734E+03  0.33399698034E+04  0.33025661215E+04 0.  0.
        1    1    3    3  502    0  0.48612575053E+03 -0.11164992274E+04 -0.13771365815E+04  0.18383127955E+04  0.50400001928E-02 0. -1.
       -1    1    3    3    0  502 -0.48612575053E+03  0.11164992274E+04  0.87868367415E+03  0.15016570079E+04  0.50400001928E-02 0.  1.
</event>
<event>
 5   0  0.9283910E-08  0.3298988E+04  0.7818609E-02  0.8163153E-01
       -1   -1    0    0    0  501  0.00000000000E+00  0.00000000000E+00  0.13870637921E+04  0.13870637921E+04  0.50400001928E-02 0. -1.
        1   -1    0    0  501    0  0.00000000000E+00  0.00000000000E+00 -0.19615758028E+04  0.19615758028E+04  0.50400001928E-02 0.  1.
    10030    2    1    2    0    0  0.00000000000E+00  0.00000000000E+00 -0.57451201077E+03  0.33486395949E+04  0.32989881913E+04 0.  0.
        3    1    3    3  502    0 -0.16240049357E+04 -0.16733728910E+03 -0.52625020330E+03  0.17153230268E+04  0.10100000352E+00 0.  1.
       -3    1    3    3    0  502  0.16240049357E+04  0.16733728910E+03 -0.48261807467E+02  0.16333165681E+04  0.10100000352E+00 0. -1.
</event>
<event>
 5   0  0.9283910E-08  0.3302412E+04  0.7818609E-02  0.8162282E-01
       -1   -1    0    0    0  501  0.00000000000E+00  0.00000000000E+00  0.17704064595E+04  0.17704064595E+04  0.50400001928E-02 0.  1.
        1   -1    0    0  501    0  0.00000000000E+00  0.00000000000E+00 -0.15400310491E+04  0.15400310491E+04  0.50400001928E-02 0. -1.
    10030    2    1    2    0    0  0.00000000000E+00  0.00000000000E+00  0.23037541047E+03  0.33104375086E+04  0.33024117957E+04 0.  0.
        3    1    3    3  502    0 -0.37392174968E+03 -0.38243654596E+01 -0.14970270856E+04  0.15430237217E+04  0.10100000352E+00 0. -1.
       -3    1    3    3    0  502  0.37392174968E+03  0.38243654596E+01  0.17274024960E+04  0.17674137869E+04  0.10100000352E+00 0.  1.
</event>
<event>
 5   0  0.9810351E-08  0.3300273E+04  0.7818609E-02  0.8162826E-01
       -1   -1    0    0    0  501  0.00000000000E+00  0.00000000000E+00  0.14771225957E+04  0.14771225957E+04  0.50400001928E-02 0.  1.
        1   -1    0    0  501    0  0.00000000000E+00  0.00000000000E+00 -0.18434147940E+04  0.18434147940E+04  0.50400001928E-02 0. -1.
    10030    2    1    2    0    0  0.00000000000E+00  0.00000000000E+00 -0.36629219832E+03  0.33205373896E+04  0.33002725011E+04 0.  0.
        5    1    3    3  502    0  0.19626959170E+01 -0.76160659829E+03 -0.16559923306E+04  0.18227400121E+04  0.46999998093E+01 0. -1.
       -5    1    3    3    0  502 -0.19626959170E+01  0.76160659829E+03  0.12897001323E+04  0.14977973775E+04  0.46999998093E+01 0.  1.
</event>
<event>
 5   0  0.8805125E-08  0.3326445E+04  0.7818609E-02  0.8156199E-01
        1   -1    0    0  501    0  0.00000000000E+00  0.00000000000E+00  0.18455770902E+04  0.18455770902E+04  0.50400001928E-02 0.  1.
       -1   -1    0    0    0  501  0.00000000000E+00  0.00000000000E+00 -0.14988858927E+04  0.14988858927E+04  0.50400001928E-02 0. -1.
    10030    2    1    2    0    0  0.00000000000E+00  0.00000000000E+00  0.34669119754E+03  0.33444629829E+04  0.33264452284E+04 0.  0.
        4    1    3    3  502    0 -0.66747497825E+03 -0.13346293038E+04  0.91186466953E+03  0.17487872980E+04  0.12699999809E+01 0. -1.
       -4    1    3    3    0  502  0.66747497825E+03  0.13346293038E+04 -0.56517347200E+03  0.15956756849E+04  0.12699999809E+01 0.  1.
</event>
<event>
 5   0  0.9810351E-08  0.3298876E+04  0.7818609E-02  0.8163182E-01
       -1   -1    0    0    0  501  0.00000000000E+00  0.00000000000E+00  0.10688840407E+04  0.10688840407E+04  0.50400001928E-02 0. -1.
        1   -1    0    0  501    0  0.00000000000E+00  0.00000000000E+00 -0.25453134723E+04  0.25453134723E+04  0.50400001928E-02 0.  1.
    10030    2    1    2    0    0  0.00000000000E+00  0.00000000000E+00 -0.14764294316E+04  0.36141975130E+04  0.32988755352E+04 0.  0.
        5    1    3    3  502    0  0.21376659163E+03 -0.11575841493E+04  0.52761267800E+03  0.12899978474E+04  0.46999998093E+01 0. -1.
       -5    1    3    3    0  502 -0.21376659163E+03  0.11575841493E+04 -0.20040421096E+04  0.23241996656E+04  0.46999998093E+01 0.  1.
</event>
<event>
 5   0  0.2713815E-07  0.3310265E+04  0.7818609E-02  0.8160288E-01
       -2   -1    0    0    0  501  0.00000000000E+00  0.00000000000E+00  0.17754962191E+04  0.17754962191E+04  0.25500000920E-02 0.  1.
        2   -1    0    0  501    0  0.00000000000E+00  0.00000000000E+00 -0.15429284921E+04  0.15429284921E+04  0.25500000920E-02 0. -1.
    10030    2    1    2    0    0  0.00000000000E+00  0.00000000000E+00  0.23256772698E+03  0.33184247111E+04  0.33102650673E+04 0.  0.
        4    1    3    3  502    0 -0.14699493785E+04  0.23050459892E+03  0.84303883632E+03  0.17101460867E+04  0.12699999809E+01 0.  1.
       -4    1    3    3    0  502  0.14699493785E+04 -0.23050459892E+03 -0.61047110934E+03  0.16082786244E+04  0.12699999809E+01 0. -1.
</event>
<event>
 5   0  0.9810351E-08  0.3301028E+04  0.7818609E-02  0.8162634E-01
       -1   -1    0    0    0  501  0.00000000000E+00  0.00000000000E+00  0.16881921207E+04  0.16881921207E+04  0.50400001928E-02 0. -1.
        1   -1    0    0  501    0  0.00000000000E+00  0.00000000000E+00 -0.16136765026E+04  0.16136765026E+04  0.50400001928E-02 0.  1.
    10030    2    1    2    0    0  0.00000000000E+00  0.00000000000E+00  0.74515618082E+02  0.33018686233E+04  0.33010276927E+04 0.  0.
        5    1    3    3  502    0  0.13578313563E+04 -0.16070998899E+03  0.96196082393E+03  0.16718027424E+04  0.46999998093E+01 0. -1.
       -5    1    3    3    0  502 -0.13578313563E+04  0.16070998899E+03 -0.88744520585E+03  0.16300658809E+04  0.46999998093E+01 0.  1.
</event>
<event>
 5   0  0.2875829E-07  0.3293851E+04  0.7818609E-02  0.8164462E-01
        2   -1    0    0  501    0  0.00000000000E+00  0.00000000000E+00  0.27633591366E+04  0.27633591366E+04  0.25500000920E-02 0.  1.
       -2   -1    0    0    0  501  0.00000000000E+00  0.00000000000E+00 -0.98154554657E+03  0.98154554657E+03  0.25500000920E-02 0. -1.
    10030    2    1    2    0    0  0.00000000000E+00  0.00000000000E+00  0.17818135900E+04  0.37449046831E+04  0.32938505455E+04 0.  0.
        3    1    3    3  502    0 -0.99940312992E+03 -0.60426977055E+03  0.22111336086E+04  0.25006120084E+04  0.10100000352E+00 0.  1.
       -3    1    3    3    0  502  0.99940312992E+03  0.60426977055E+03 -0.42932001857E+03  0.12442926747E+04  0.10100000352E+00 0. -1.
</event>
<event>
 5   0  0.2875829E-07  0.3302823E+04  0.7818609E-02  0.8162177E-01
        2   -1    0    0  501    0  0.00000000000E+00  0.00000000000E+00  0.21430771515E+04  0.21430771515E+04  0.25500000920E-02 0.  1.
       -2   -1    0    0    0  501  0.00000000000E+00  0.00000000000E+00 -0.12725439066E+04  0.12725439066E+04  0.25500000920E-02 0. -1.
    10030    2    1    2    0    0  0.00000000000E+00  0.00000000000E+00  0.87053324494E+03  0.34156210581E+04  0.33028228960E+04 0.  0.
        3    1    3    3  502    0  0.86425643674E+03  0.34825755357E+03 -0.97472574149E+03  0.13484482910E+04  0.10100000352E+00 0. -1.
       -3    1    3    3    0  502 -0.86425643674E+03 -0.34825755357E+03  0.18452589864E+04  0.20671727672E+04  0.10100000352E+00 0.  1.
</event>
<event>
 5   0  0.9454010E-08  0.3300957E+04  0.7818609E-02  0.8162652E-01
        1   -1    0    0  501    0  0.00000000000E+00  0.00000000000E+00  0.23044382618E+04  0.23044382618E+04  0.50400001928E-02 0.  1.
       -1   -1    0    0    0  501  0.00000000000E+00  0.00000000000E+00 -0.11821011746E+04  0.11821011746E+04  0.50400001928E-02 0. -1.
    10030    2    1    2    0    0  0.00000000000E+00  0.00000000000E+00  0.11223370872E+04  0.34865394364E+04  0.33009569376E+04 0.  0.
        2    1    3    3  502    0 -0.24339279772E+03 -0.15021927751E+04  0.12360399144E+04  0.19605146920E+04  0.25500000920E-02 0.  1.
       -2    1    3    3    0  502  0.24339279772E+03  0.15021927751E+04 -0.11370282723E+03  0.15260247444E+04  0.25500000920E-02 0. -1.
</event>
<event>
 5   0  0.2703956E-07  0.3309321E+04  0.7818609E-02  0.8160528E-01
        2   -1    0    0  501    0  0.00000000000E+00  0.00000000000E+00  0.18644926335E+04  0.18644926335E+04  0.25500000920E-02 0. -1.
       -2   -1    0    0    0  501  0.00000000000E+00  0.00000000000E+00 -0.14684431633E+04  0.14684431633E+04  0.25500000920E-02 0.  1.
    10030    2    1    2    0    0  0.00000000000E+00  0.00000000000E+00  0.39604947019E+03  0.33329357968E+04  0.33093210546E+04 0.  0.
        5    1    3    3  502    0  0.20252653617E+03  0.86654557459E+03  0.16029561612E+04  0.18334145127E+04  0.46999998093E+01 0. -1.
       -5    1    3    3    0  502 -0.20252653617E+03 -0.86654557459E+03 -0.12069066910E+04  0.14995212841E+04  0.46999998093E+01 0.  1.
</event>
<event>
 5   0  0.9810351E-08  0.3288082E+04  0.7818609E-02  0.8165934E-01
       -1   -1    0    0    0  501  0.00000000000E+00  0.00000000000E+00  0.11968710262E+04  0.11968710262E+04  0.50400001928E-02 0.  1.
        1   -1    0    0  501    0  0.00000000000E+00  0.00000000000E+00 -0.22582812176E+04  0.22582812176E+04  0.50400001928E-02 0. -1.
    10030    2    1    2    0    0  0.00000000000E+00  0.00000000000E+00 -0.10614101914E+04  0.34551522438E+04  0.32880823337E+04 0.  0.
        5    1    3    3  502    0  0.14301972755E+04 -0.67493796585E+03 -0.58607082914E+02  0.15825493309E+04  0.46999998093E+01 0. -1.
       -5    1    3    3    0  502 -0.14301972755E+04  0.67493796585E+03 -0.10028031085E+04  0.18726029128E+04  0.46999998093E+01 0.  1.
</event>
<event>
 5   0  0.9454010E-08  0.3297028E+04  0.7818609E-02  0.8163652E-01
        1   -1    0    0  501    0  0.00000000000E+00  0.00000000000E+00  0.33255958954E+04  0.33255958954E+04  0.50400001928E-02 0.  1.
       -1   -1    0    0    0  501  0.00000000000E+00  0.00000000000E+00 -0.81717636361E+03  0.81717636363E+03  0.50400001928E-02 0. -1.
    10030    2    1    2    0    0  0.00000000000E+00  0.00000000000E+00  0.25084195318E+04  0.41427722590E+04  0.32970279712E+04 0.  0.
        2    1    3    3  502    0 -0.19629288378E+03 -0.11904383806E+04  0.26657231978E+04  0.29260476075E+04  0.25500000920E-02 0.  1.
       -2    1    3    3    0  502  0.19629288378E+03  0.11904383806E+04 -0.15730366596E+03  0.12167246515E+04  0.25500000920E-02 0. -1.
</event>
<event>
 5   0  0.2703956E-07  0.3303497E+04  0.7818609E-02  0.8162006E-01
        2   -1    0    0  501    0  0.00000000000E+00  0.00000000000E+00  0.16489873178E+04  0.16489873178E+04  0.25500000920E-02 0.  1.
       -2   -1    0    0    0  501  0.00000000000E+00  0.00000000000E+00 -0.16545144264E+04  0.16545144264E+04  0.25500000920E-02 0. -1.
    10030    2    1    2    0    0  0.00000000000E+00  0.00000000000E+00 -0.55271085723E+01  0.33035017442E+04  0.33034971204E+04 0.  0.
        5    1    3    3  502    0 -0.78491331164E+03 -0.11407070621E+04  0.89776516706E+03  0.16502441921E+04  0.46999998093E+01 0.  1.
       -5    1    3    3    0  502  0.78491331164E+03  0.11407070621E+04 -0.90329227563E+03  0.16532575521E+04  0.46999998093E+01 0. -1.
</event>
<event>
 5   0  0.2824402E-07  0.3305080E+04  0.7818609E-02  0.8161604E-01
       -2   -1    0    0    0  501  0.00000000000E+00  0.00000000000E+00  0.24116142976E+04  0.24116142976E+04  0.25500000920E-02 0. -1.
        2   -1    0    0  501    0  0.00000000000E+00  0.00000000000E+00 -0.11323900826E+04  0.11323900826E+04  0.25500000920E-02 0.  1.
    10030    2    1    2    0    0  0.00000000000E+00  0.00000000000E+00  0.12792242150E+04  0.35440043803E+04  0.33050797956E+04 0.  0.
        1    1    3    3  502    0  0.43120037352E+02  0.13797769312E+04  0.16137122183E+04  0.21236079772E+04  0.50400001928E-02 0. -1.
       -1    1    3    3    0  502 -0.43120037352E+02 -0.13797769312E+04 -0.33448800329E+03  0.14203964030E+04  0.50400001928E-02 0.  1.
</event>
<event>
 5   0  0.9454010E-08  0.3299598E+04  0.7818609E-02  0.8162998E-01
       -1   -1    0    0    0  501  0.00000000000E+00  0.00000000000E+00  0.11946853040E+04  0.11946853040E+04  0.50400001928E-02 0. -1.
        1   -1    0    0  501    0  0.00000000000E+00  0.00000000000E+00 -0.22782873410E+04  0.22782873410E+04  0.50400001928E-02 0.  1.
    10030    2    1    2    0    0  0.00000000000E+00  0.00000000000E+00 -0.10836020370E+04  0.34729726450E+04  0.32995977965E+04 0.  0.
        2    1    3    3  502    0 -0.11278863212E+04  0.60441509494E+03 -0.16378585706E+04  0.20784671895E+04  0.25500000920E-02 0.  1.
       -2    1    3    3    0  502  0.11278863212E+04 -0.60441509494E+03  0.55425653358E+03  0.13945054556E+04  0.25500000920E-02 0. -1.
</event>
<event>
 5   0  0.2824402E-07  0.3286172E+04  0.7818609E-02  0.8166423E-01
        2   -1    0    0  501    0  0.00000000000E+00  0.00000000000E+00  0.15474177702E+04  0.15474177703E+04  0.25500000920E-02 0. -1.
       -2   -1    0    0    0  501  0.00000000000E+00  0.00000000000E+00 -0.17446693610E+04  0.17446693610E+04  0.25500000920E-02 0.  1.
    10030    2    1    2    0    0  0.00000000000E+00  0.00000000000E+00 -0.19725159073E+03  0.32920871312E+04  0.32861724680E+04 0.  0.
        1    1    3    3  502    0 -0.27051651749E+03  0.96898412910E+03 -0.14000493982E+04  0.17240208079E+04  0.50400001928E-02 0.  1.
       -1    1    3    3    0  502  0.27051651749E+03 -0.96898412910E+03  0.12027978075E+04  0.15680663233E+04  0.50400001928E-02 0. -1.
</event>
<event>
 5   0  0.8805125E-08  0.3306235E+04  0.7818609E-02  0.8161311E-01
        1   -1    0    0  501    0  0.00000000000E+00  0.00000000000E+00  0.15096955177E+04  0.15096955177E+04  0.50400001928E-02 0.  1.
       -1   -1    0    0    0  501  0.00000000000E+00  0.00000000000E+00 -0.18101645713E+04  0.18101645713E+04  0.50400001928E-02 0. -1.
    10030    2    1    2    0    0  0.00000000000E+00  0.00000000000E+00 -0.30046905358E+03  0.33198600890E+04  0.33062349219E+04 0.  0.
        4    1    3    3  502    0 -0.12410992323E+04 -0.83346491071E+03 -0.85869488374E+03  0.17240503409E+04  0.12699999809E+01 0. -1.
       -4    1    3    3    0  502  0.12410992323E+04  0.83346491071E+03  0.55822583016E+03  0.15958097481E+04  0.12699999809E+01 0.  1.
</event>
<event>
 5   0  0.2875829E-07  0.3316120E+04  0.7818609E-02  0.8158806E-01
        2   -1    0    0  501    0  0.00000000000E+00  0.00000000000E+00  0.32108210550E+04  0.32108210550E+04  0.25500000920E-02 0. -1.
       -2   -1    0    0    0  501  0.00000000000E+00  0.00000000000E+00 -0.85621791063E+03  0.85621791063E+03  0.25500000920E-02 0.  1.
    10030    2    1    2    0    0  0.00000000000E+00  0.00000000000E+00  0.23546031444E+04  0.40670389657E+04  0.33161197175E+04 0.  0.
        3    1    3    3  502    0  0.41539959360E+03 -0.99566709650E+03  0.27214796498E+04  0.29275179392E+04  0.10100000352E+00 0. -1.
       -3    1    3    3    0  502 -0.41539959360E+03  0.99566709650E+03 -0.36687650544E+03  0.11395210265E+04  0.10100000352E+00 0.  1.
</event>
<event>
 5   0  0.8805125E-08  0.3294846E+04  0.7818609E-02  0.8164208E-01
        1   -1    0    0  501    0  0.00000000000E+00  0.00000000000E+00  0.18550212797E+04  0.18550212797E+04  0.50400001928E-02 0.  1.
       -1   -1    0    0    0  501  0.00000000000E+00  0.00000000000E+00 -0.14630575935E+04  0.14630575935E+04  0.50400001928E-02 0. -1.
    10030    2    1    2    0    0  0.00000000000E+00  0.00000000000E+00  0.39196368617E+03  0.33180788733E+04  0.32948462601E+04 0.  0.
        4    1    3    3  502    0 -0.10062234058E+04 -0.12319320090E+04  0.62779353589E+03  0.17100492255E+04  0.12699999809E+01 0. -1.
       -4    1    3    3    0  502  0.10062234058E+04  0.12319320090E+04 -0.23582984972E+03  0.16080296477E+04  0.12699999809E+01 0.  1.
</event>
<event>
 5   0  0.2875829E-07  0.3297611E+04  0.7818609E-02  0.8163504E-01
       -2   -1    0    0    0  501  0.00000000000E+00  0.00000000000E+00  0.11655934997E+04  0.11655934997E+04  0.25500000920E-02 0.  1.
        2   -1    0    0  501    0  0.00000000000E+00  0.00000000000E+00 -0.23323389754E+04  0.23323389754E+04  0.25500000920E-02 0. -1.
    10030    2    1    2    0    0  0.00000000000E+00  0.00000000000E+00 -0.11667454757E+04  0.34979324751E+04  0.32976107404E+04 0.  0.
        3    1    3    3  502    0  0.13923137156E+04 -0.69856974604E+03 -0.11565907025E+04  0.19401647446E+04  0.10100000352E+00 0. -1.
       -3    1    3    3    0  502 -0.13923137156E+04  0.69856974604E+03 -0.10154773256E+02  0.15577677306E+04  0.10100000352E+00 0.  1.
</event>
<event>
 5   0  0.2713815E-07  0.3284333E+04  0.7818609E-02  0.8166893E-01
        2   -1    0    0  501    0  0.00000000000E+00  0.00000000000E+00  0.20434399994E+04  0.20434399994E+04  0.25500000920E-02 0. -1.
       -2   -1    0    0    0  501  0.00000000000E+00  0.00000000000E+00 -0.13196916672E+04  0.13196916672E+04  0.25500000920E-02 0.  1.
    10030    2    1    2    0    0  0.00000000000E+00  0.00000000000E+00  0.72374833217E+03  0.33631316666E+04  0.32843329549E+04 0.  0.
        4    1    3    3  502    0 -0.16350123103E+04 -0.44097014419E+02  0.51201855540E+03  0.17138770129E+04  0.12699999809E+01 0. -1.
       -4    1    3    3    0  502  0.16350123103E+04  0.44097014419E+02  0.21172977676E+03  0.16492546537E+04  0.12699999809E+01 0.  1.
</event>
<event>
 5   0  0.2727168E-07  0.3299769E+04  0.7818609E-02  0.8162954E-01
       -2   -1    0    0    0  501  0.00000000000E+00  0.00000000000E+00  0.19219885719E+04  0.19219885719E+04  0.25500000920E-02 0. -1.
        2   -1    0    0  501    0  0.00000000000E+00  0.00000000000E+00 -0.14163037482E+04  0.14163037482E+04  0.25500000920E-02 0.  1.
    10030    2    1    2    0    0  0.00000000000E+00  0.00000000000E+00  0.50568482375E+03  0.33382923201E+04  0.32997694576E+04 0.  0.
        2    1    3    3  502    0  0.68294304663E+03  0.49753884742E+03 -0.11807982176E+04  0.14519781473E+04  0.25500000920E-02 0.  1.
       -2    1    3    3    0  502 -0.68294304663E+03 -0.49753884742E+03  0.16864830413E+04  0.18863141728E+04  0.25500000920E-02 0. -1.
</event>
<event>
 5   0  0.2727168E-07  0.3300333E+04  0.7818609E-02  0.8162811E-01
        2   -1    0    0  501    0  0.00000000000E+00  0.00000000000E+00  0.13251287812E+04  0.13251287812E+04  0.25500000920E-02 0. -1.
       -2   -1    0    0    0  501  0.00000000000E+00  0.00000000000E+00 -0.20549317852E+04  0.20549317852E+04  0.25500000920E-02 0.  1.
    10030    2    1    2    0    0  0.00000000000E+00  0.00000000000E+00 -0.72980300403E+03  0.33800605664E+04  0.33003328632E+04 0.  0.
        2    1    3    3  502    0 -0.10583440427E+04 -0.25909615243E+03  0.90432108405E+03  0.14159871299E+04  0.25500000920E-02 0. -1.
       -2    1    3    3    0  502  0.10583440427E+04  0.25909615243E+03 -0.16341240881E+04  0.19640734366E+04  0.25500000920E-02 0.  1.
</event>
<event>
 5   0  0.8805125E-08  0.3296382E+04  0.7818609E-02  0.8163817E-01
        1   -1    0    0  501    0  0.00000000000E+00  0.00000000000E+00  0.21886211456E+04  0.21886211456E+04  0.50400001928E-02 0.  1.
       -1   -1    0    0    0  501  0.00000000000E+00  0.00000000000E+00 -0.12412074944E+04  0.12412074944E+04  0.50400001928E-02 0. -1.
    10030    2    1    2    0    0  0.00000000000E+00  0.00000000000E+00  0.94741365121E+03  0.34298286401E+04  0.32963816335E+04 0.  0.
        4    1    3    3  502    0 -0.41917888527E+03 -0.15138633324E+04 -0.45532940908E+02  0.15714859174E+04  0.12699999809E+01 0. -1.
       -4    1    3    3    0  502  0.41917888527E+03  0.15138633324E+04  0.99294659212E+03  0.18583427226E+04  0.12699999809E+01 0.  1.
</event>
<event>
 5   0  0.2727168E-07  0.3296858E+04  0.7818609E-02  0.8163695E-01
        2   -1    0    0  501    0  0.00000000000E+00  0.00000000000E+00  0.14549028862E+04  0.14549028863E+04  0.25500000920E-02 0.  1.
       -2   -1    0    0    0  501  0.00000000000E+00  0.00000000000E+00 -0.18676967951E+04  0.18676967951E+04  0.25500000920E-02 0. -1.
    10030    2    1    2    0    0  0.00000000000E+00  0.00000000000E+00 -0.41279390886E+03  0.33225996814E+04  0.32968575692E+04 0.  0.
        2    1    3    3  502    0  0.12653164993E+04 -0.10138840981E+04  0.93128369780E+02  0.16240873441E+04  0.25500000920E-02 0.  1.
       -2    1    3    3    0  502 -0.12653164993E+04  0.10138840981E+04 -0.50592227864E+03  0.16985123373E+04  0.25500000920E-02 0. -1.
</event>
<event>
 5   0  0.2703956E-07  0.3304693E+04  0.7818609E-02  0.8161702E-01
       -2   -1    0    0    0  501  0.00000000000E+00  0.00000000000E+00  0.21923431382E+04  0.21923431382E+04  0.25500000920E-02 0. -1.
        2   -1    0    0  501    0  0.00000000000E+00  0.00000000000E+00 -0.12453562516E+04  0.12453562516E+04  0.25500000920E-02 0.  1.
    10030    2    1    2    0    0  0.00000000000E+00  0.00000000000E+00  0.94698688658E+03  0.34376993897E+04  0.33046925622E+04 0.  0.
        5    1    3    3  502    0 -0.26387733832E+02 -0.49742676720E+03  0.21123696872E+04  0.21703127624E+04  0.46999998093E+01 0. -1.
       -5    1    3    3    0  502  0.26387733832E+02  0.49742676720E+03 -0.11653828006E+04  0.12673866274E+04  0.46999998093E+01 0.  1.
</event>
<event>
 5   0  0.2703956E-07  0.3286703E+04  0.7818609E-02  0.8166287E-01
       -2   -1    0    0    0  501  0.00000000000E+00  0.00000000000E+00  0.12336054384E+04  0.12336054384E+04  0.25500000920E-02 0.  1.
        2   -1    0    0  501    0  0.00000000000E+00  0.00000000000E+00 -0.21891957484E+04  0.21891957484E+04  0.25500000920E-02 0. -1.
    10030    2    1    2    0    0  0.00000000000E+00  0.00000000000E+00 -0.95559031004E+03  0.34228011868E+04  0.32867027739E+04 0.  0.
        5    1    3    3  502    0  0.56947134528E+03  0.85445107588E+03 -0.18139666518E+04  0.20844378998E+04  0.46999998093E+01 0. -1.
       -5    1    3    3    0  502 -0.56947134528E+03 -0.85445107588E+03  0.85837634174E+03  0.13383632871E+04  0.46999998093E+01 0.  1.
</event>
<event>
 5   0  0.2875829E-07  0.3303043E+04  0.7818609E-02  0.8162122E-01
        2   -1    0    0  501    0  0.00000000000E+00  0.00000000000E+00  0.18119546499E+04  0.18119546499E+04  0.25500000920E-02 0.  1.
       -2   -1    0    0    0  501  0.00000000000E+00  0.00000000000E+00 -0.15052933984E+04  0.15052933984E+04  0.25500000920E-02 0. -1.
    10030    2    1    2    0    0  0.00000000000E+00  0.00000000000E+00  0.30666125152E+03  0.33172480483E+04  0.33030430652E+04 0.  0.
        3    1    3    3  502    0 -0.11577071116E+04  0.40497152929E+03 -0.95742565846E+03  0.15559407435E+04  0.10100000352E+00 0. -1.
       -3    1    3    3    0  502  0.11577071116E+04 -0.40497152929E+03  0.12640869100E+04  0.17613073048E+04  0.10100000352E+00 0.  1.
</event>
<event>
 5   0  0.9810351E-08  0.3303804E+04  0.7818609E-02  0.8161928E-01
       -1   -1    0    0    0  501  0.00000000000E+00  0.00000000000E+00  0.11980851358E+04  0.11980851359E+04  0.50400001928E-02 0. -1.
        1   -1    0    0  501    0  0.00000000000E+00  0.00000000000E+00 -0.22776174428E+04  0.22776174428E+04  0.50400001928E-02 0.  1.
    10030    2    1    2    0    0  0.00000000000E+00  0.00000000000E+00 -0.10795323070E+04  0.34757025787E+04  0.33038036282E+04 0.  0.
        5    1    3    3  502    0  0.93008788101E+03  0.11533771409E+04 -0.13081196662E+04  0.19764972670E+04  0.46999998093E+01 0.  1.
       -5    1    3    3    0  502 -0.93008788101E+03 -0.11533771409E+04  0.22858735920E+03  0.14992053116E+04  0.46999998093E+01 0. -1.
</event>
<event>
 5   0  0.9181760E-08  0.3304295E+04  0.7818609E-02  0.8161803E-01
       -1   -1    0    0    0  501  0.00000000000E+00  0.00000000000E+00  0.12658375698E+04  0.12658375698E+04  0.50400001928E-02 0.  1.
        1   -1    0    0  501    0  0.00000000000E+00  0.00000000000E+00 -0.21563524295E+04  0.21563524296E+04  0.50400001928E-02 0. -1.
    10030    2    1    2    0    0  0.00000000000E+00  0.00000000000E+00 -0.89051485977E+03  0.34221899993E+04  0.33042953373E+04 0.  0.
        1    1    3    3  502    0  0.11661259259E+04 -0.11014184601E+04 -0.35385343101E+02  0.16044389742E+04  0.50400001928E-02 0.  1.
       -1    1    3    3    0  502 -0.11661259259E+04  0.11014184601E+04 -0.85512951667E+03  0.18177510252E+04  0.50400001928E-02 0. -1.
</event>
<event>
 5   0  0.2875829E-07  0.3303414E+04  0.7818609E-02  0.8162027E-01
        2   -1    0    0  501    0  0.00000000000E+00  0.00000000000E+00  0.19194200363E+04  0.19194200363E+04  0.25500000920E-02 0. -1.
       -2   -1    0    0    0  501  0.00000000000E+00  0.00000000000E+00 -0.14213334782E+04  0.14213334782E+04  0.25500000920E-02 0.  1.
    10030    2    1    2    0    0  0.00000000000E+00  0.00000000000E+00  0.49808655807E+03  0.33407535145E+04  0.33034139652E+04 0.  0.
        3    1    3    3  502    0 -0.73596556892E+03  0.24834966822E+03  0.17231936907E+04  0.18901638506E+04  0.10100000352E+00 0. -1.
       -3    1    3    3    0  502  0.73596556892E+03 -0.24834966822E+03 -0.12251071326E+04  0.14505896639E+04  0.10100000352E+00 0.  1.
</event>
<event>
 5   0  0.9454010E-08  0.3213715E+04  0.7818609E-02  0.8185204E-01
       -1   -1    0    0    0  501  0.00000000000E+00  0.00000000000E+00  0.16235626805E+04  0.16235626805E+04  0.50400001928E-02 0.  1.
        1   -1    0    0  501    0  0.00000000000E+00  0.00000000000E+00 -0.15903246394E+04  0.15903246395E+04  0.50400001928E-02 0. -1.
    10030    2    1    2    0    0  0.00000000000E+00  0.00000000000E+00  0.33238041066E+02  0.32138873200E+04  0.32137154414E+04 0.  0.
        2    1    3    3  502    0 -0.15905569174E+04 -0.77074152428E+02 -0.19828780095E+03  0.16047210924E+04  0.25500000920E-02 0. -1.
       -2    1    3    3    0  502  0.15905569174E+04  0.77074152428E+02  0.23152584202E+03  0.16091662276E+04  0.25500000920E-02 0.  1.
</event>
<event>
 5   0  0.2713815E-07  0.3298754E+04  0.7818609E-02  0.8163213E-01
        2   -1    0    0  501    0  0.00000000000E+00  0.00000000000E+00  0.17541523211E+04  0.17541523211E+04  0.25500000920E-02 0. -1.
       -2   -1    0    0    0  501  0.00000000000E+00  0.00000000000E+00 -0.15508595307E+04  0.15508595307E+04  0.25500000920E-02 0.  1.
    10030    2    1    2    0    0  0.00000000000E+00  0.00000000000E+00  0.20329279045E+03  0.33050118518E+04  0.32987536104E+04 0.  0.
        4    1    3    3  502    0 -0.11005259939E+04 -0.65939113235E+03 -0.93689532688E+03  0.15886247496E+04  0.12699999809E+01 0.  1.
       -4    1    3    3    0  502  0.11005259939E+04  0.65939113235E+03  0.11401881173E+04  0.17163871022E+04  0.12699999809E+01 0. -1.
</event>
<event>
 5   0  0.8805125E-08  0.3297267E+04  0.7818609E-02  0.8163591E-01
        1   -1    0    0  501    0  0.00000000000E+00  0.00000000000E+00  0.19383296509E+04  0.19383296509E+04  0.50400001928E-02 0.  1.
       -1   -1    0    0    0  501  0.00000000000E+00  0.00000000000E+00 -0.14022340592E+04  0.14022340592E+04  0.50400001928E-02 0. -1.
    10030    2    1    2    0    0  0.00000000000E+00  0.00000000000E+00  0.53609559166E+03  0.33405637101E+04  0.32972666586E+04 0.  0.
        4    1    3    3  502    0 -0.32785907352E+03 -0.13867542562E+03 -0.13628315649E+04  0.14085573942E+04  0.12699999809E+01 0. -1.
       -4    1    3    3    0  502  0.32785907352E+03  0.13867542562E+03  0.18989271565E+04  0.19320063158E+04  0.12699999809E+01 0.  1.
</event>
<event>
 5   0  0.2713815E-07  0.3313055E+04  0.7818609E-02  0.8159581E-01
       -2   -1    0    0    0  501  0.00000000000E+00  0.00000000000E+00  0.93030957446E+03  0.93030957446E+03  0.25500000920E-02 0. -1.
        2   -1    0    0  501    0  0.00000000000E+00  0.00000000000E+00 -0.29496460548E+04  0.29496460548E+04  0.25500000920E-02 0.  1.
    10030    2    1    2    0    0  0.00000000000E+00  0.00000000000E+00 -0.20193364804E+04  0.38799556293E+04  0.33130553669E+04 0.  0.
        4    1    3    3  502    0  0.15865870155E+04 -0.23811987993E+03 -0.14927042156E+04  0.21913755778E+04  0.12699999809E+01 0.  1.
       -4    1    3    3    0  502 -0.15865870155E+04  0.23811987993E+03 -0.52663226479E+03  0.16885800515E+04  0.12699999809E+01 0. -1.
</event>
<event>
 5   0  0.2824402E-07  0.3302028E+04  0.7818609E-02  0.8162379E-01
       -2   -1    0    0    0  501  0.00000000000E+00  0.00000000000E+00  0.19365636543E+04  0.19365636543E+04  0.25500000920E-02 0.  1.
        2   -1    0    0  501    0  0.00000000000E+00  0.00000000000E+00 -0.14075694102E+04  0.14075694102E+04  0.25500000920E-02 0. -1.
    10030    2    1    2    0    0  0.00000000000E+00  0.00000000000E+00  0.52899424409E+03  0.33441330645E+04  0.33020283226E+04 0.  0.
        1    1    3    3  502    0  0.44696133286E+03  0.71077587862E+03  0.17041972702E+04  0.18998066003E+04  0.50400001928E-02 0.  1.
       -1    1    3    3    0  502 -0.44696133286E+03 -0.71077587862E+03 -0.11752030261E+04  0.14443264642E+04  0.50400001928E-02 0. -1.
</event>
<event>
 5   0  0.2727168E-07  0.3302486E+04  0.7818609E-02  0.8162263E-01
       -2   -1    0    0    0  501  0.00000000000E+00  0.00000000000E+00  0.16172552929E+04  0.16172552929E+04  0.25500000920E-02 0. -1.
        2   -1    0    0  501    0  0.00000000000E+00  0.00000000000E+00 -0.16859448497E+04  0.16859448497E+04  0.25500000920E-02 0.  1.
    10030    2    1    2    0    0  0.00000000000E+00  0.00000000000E+00 -0.68689556732E+02  0.33032001426E+04  0.33024858708E+04 0.  0.
        2    1    3    3  502    0  0.12194734393E+04 -0.15779824545E+03  0.10679768274E+04  0.16286774571E+04  0.25500000920E-02 0. -1.
       -2    1    3    3    0  502 -0.12194734393E+04  0.15779824545E+03 -0.11366663841E+04  0.16745226855E+04  0.25500000920E-02 0.  1.
</event>
<event>
 5   0  0.9283910E-08  0.3301656E+04  0.7818609E-02  0.8162474E-01
        1   -1    0    0  501    0  0.00000000000E+00  0.00000000000E+00  0.99854303690E+03  0.99854303691E+03  0.50400001928E-02 0. -1.
       -1   -1    0    0    0  501  0.00000000000E+00  0.00000000000E+00 -0.27292091872E+04  0.27292091872E+04  0.50400001928E-02 0.  1.
    10030    2    1    2    0    0  0.00000000000E+00  0.00000000000E+00 -0.17306661503E+04  0.37277522241E+04  0.33016558453E+04 0.  0.
        3    1    3    3  502    0  0.10173466607E+04  0.10178104339E+04  0.47946755403E+02  0.14398719419E+04  0.10100000352E+00 0. -1.
       -3    1    3    3    0  502 -0.10173466607E+04 -0.10178104339E+04 -0.17786129057E+04  0.22878802823E+04  0.10100000352E+00 0.  1.
</event>
<event>
 5   0  0.9181760E-08  0.3297374E+04  0.7818609E-02  0.8163564E-01
       -1   -1    0    0    0  501  0.00000000000E+00  0.00000000000E+00  0.10223873521E+04  0.10223873521E+04  0.50400001928E-02 0. -1.
        1   -1    0    0  501    0  0.00000000000E+00  0.00000000000E+00 -0.26586489943E+04  0.26586489943E+04  0.50400001928E-02 0.  1.
    10030    2    1    2    0    0  0.00000000000E+00  0.00000000000E+00 -0.16362616422E+04  0.36810363464E+04  0.32973741707E+04 0.  0.
        1    1    3    3  502    0 -0.12623516088E+04 -0.10313824044E+04 -0.54266531896E+03  0.17180706903E+04  0.50400001928E-02 0.  1.
       -1    1    3    3    0  502  0.12623516088E+04  0.10313824044E+04 -0.10935963233E+04  0.19629656560E+04  0.50400001928E-02 0. -1.
</event>
<event>
 5   0  0.9454010E-08  0.3297015E+04  0.7818609E-02  0.8163655E-01
        1   -1    0    0  501    0  0.00000000000E+00  0.00000000000E+00  0.26256474454E+04  0.26256474454E+04  0.50400001928E-02 0.  1.
       -1   -1    0    0    0  501  0.00000000000E+00  0.00000000000E+00 -0.10350118943E+04  0.10350118943E+04  0.50400001928E-02 0. -1.
    10030    2    1    2    0    0  0.00000000000E+00  0.00000000000E+00  0.15906355511E+04  0.36606593397E+04  0.32970146110E+04 0.  0.
        2    1    3    3  502    0 -0.10386486543E+04 -0.40776400195E+03  0.21426296410E+04  0.24157657765E+04  0.25500000920E-02 0.  1.
       -2    1    3    3    0  502  0.10386486543E+04  0.40776400195E+03 -0.55199408990E+03  0.12448935632E+04  0.25500000920E-02 0. -1.
</event>
<event>
 5   0  0.2727168E-07  0.3300066E+04  0.7818609E-02  0.8162879E-01
       -2   -1    0    0    0  501  0.00000000000E+00  0.00000000000E+00  0.11313336861E+04  0.11313336861E+04  0.25500000920E-02 0. -1.
        2   -1    0    0  501    0  0.00000000000E+00  0.00000000000E+00 -0.24065476774E+04  0.24065476774E+04  0.25500000920E-02 0.  1.
    10030    2    1    2    0    0  0.00000000000E+00  0.00000000000E+00 -0.12752139913E+04  0.35378813635E+04  0.33000657294E+04 0.  0.
        2    1    3    3  502    0 -0.16468568074E+04  0.22491890096E+02 -0.53058716995E+03  0.17303658498E+04  0.25500000920E-02 0.  1.
       -2    1    3    3    0  502  0.16468568074E+04 -0.22491890096E+02 -0.74462682138E+03  0.18075155137E+04  0.25500000920E-02 0. -1.
</event>
<event>
 5   0  0.2703956E-07  0.3298521E+04  0.7818609E-02  0.8163272E-01
        2   -1    0    0  501    0  0.00000000000E+00  0.00000000000E+00  0.20842624134E+04  0.20842624134E+04  0.25500000920E-02 0. -1.
       -2   -1    0    0    0  501  0.00000000000E+00  0.00000000000E+00 -0.13050471726E+04  0.13050471726E+04  0.25500000920E-02 0.  1.
    10030    2    1    2    0    0  0.00000000000E+00  0.00000000000E+00  0.77921524078E+03  0.33893095860E+04  0.32985213473E+04 0.  0.
        5    1    3    3  502    0 -0.19270018174E+03 -0.13404467454E+04  0.13568498088E+04  0.19170274726E+04  0.46999998093E+01 0. -1.
       -5    1    3    3    0  502  0.19270018174E+03  0.13404467454E+04 -0.57763456803E+03  0.14722821134E+04  0.46999998093E+01 0.  1.
</event>
<event>
 5   0  0.9181760E-08  0.3295420E+04  0.7818609E-02  0.8164062E-01
       -1   -1    0    0    0  501  0.00000000000E+00  0.00000000000E+00  0.12252994063E+04  0.12252994063E+04  0.50400001928E-02 0.  1.
        1   -1    0    0  501    0  0.00000000000E+00  0.00000000000E+00 -0.22157421904E+04  0.22157421904E+04  0.50400001928E-02 0. -1.
    10030    2    1    2    0    0  0.00000000000E+00  0.00000000000E+00 -0.99044278412E+03  0.34410415968E+04  0.32954196033E+04 0.  0.
        1    1    3    3  502    0  0.77688938273E+03 -0.40905062026E+03 -0.19511327535E+04  0.21395790578E+04  0.50400001928E-02 0. -1.
       -1    1    3    3    0  502 -0.77688938273E+03  0.40905062026E+03  0.96068996937E+03  0.13014625389E+04  0.50400001928E-02 0.  1.
</event>
<event>
 5   0  0.2824402E-07  0.3300467E+04  0.7818609E-02  0.8162777E-01
       -2   -1    0    0    0  501  0.00000000000E+00  0.00000000000E+00  0.12773371863E+04  0.12773371863E+04  0.25500000920E-02 0. -1.
        2   -1    0    0  501    0  0.00000000000E+00  0.00000000000E+00 -0.21319900068E+04  0.21319900068E+04  0.25500000920E-02 0.  1.
    10030    2    1    2    0    0  0.00000000000E+00  0.00000000000E+00 -0.85465282052E+03  0.34093271930E+04  0.33004667042E+04 0.  0.
        1    1    3    3  502    0 -0.92321837837E+02 -0.10908032530E+04  0.84827004891E+03  0.13848960735E+04  0.50400001928E-02 0. -1.
       -1    1    3    3    0  502  0.92321837837E+02  0.10908032530E+04 -0.17029228694E+04  0.20244311195E+04  0.50400001928E-02 0.  1.
</event>
<event>
 5   0  0.9181760E-08  0.3299317E+04  0.7818609E-02  0.8163069E-01
        1   -1    0    0  501    0  0.00000000000E+00  0.00000000000E+00  0.14492097246E+04  0.14492097246E+04  0.50400001928E-02 0.  1.
       -1   -1    0    0    0  501  0.00000000000E+00  0.00000000000E+00 -0.18778329847E+04  0.18778329847E+04  0.50400001928E-02 0. -1.
    10030    2    1    2    0    0  0.00000000000E+00  0.00000000000E+00 -0.42862326007E+03  0.33270427094E+04  0.32993173977E+04 0.  0.
        1    1    3    3  502    0  0.46384243749E+03 -0.41412688295E+03 -0.17551317973E+04  0.18620253779E+04  0.50400001928E-02 0. -1.
       -1    1    3    3    0  502 -0.46384243749E+03  0.41412688295E+03  0.13265085373E+04  0.14650173314E+04  0.50400001928E-02 0.  1.
</event>
<event>
 5   0  0.2703956E-07  0.3302704E+04  0.7818609E-02  0.8162208E-01
       -2   -1    0    0    0  501  0.00000000000E+00  0.00000000000E+00  0.12322076914E+04  0.12322076914E+04  0.25500000920E-02 0. -1.
        2   -1    0    0  501    0  0.00000000000E+00  0.00000000000E+00 -0.22130709876E+04  0.22130709876E+04  0.25500000920E-02 0.  1.
    10030    2    1    2    0    0  0.00000000000E+00  0.00000000000E+00 -0.98086329621E+03  0.34452786790E+04  0.33027037969E+04 0.  0.
        5    1    3    3  502    0  0.10372871865E+04 -0.76574094205E+03  0.58591323513E+03  0.14162063080E+04  0.46999998093E+01 0. -1.
       -5    1    3    3    0  502 -0.10372871865E+04  0.76574094205E+03 -0.15667765313E+04  0.20290723710E+04  0.46999998093E+01 0.  1.
</event>
<event>
 5   0  0.2824402E-07  0.3234650E+04  0.7818609E-02  0.8179726E-01
       -2   -1    0    0    0  501  0.00000000000E+00  0.00000000000E+00  0.15543955238E+04  0.15543955238E+04  0.25500000920E-02 0.  1.
        2   -1    0    0  501    0  0.00000000000E+00  0.00000000000E+00 -0.16828021488E+04  0.16828021488E+04  0.25500000920E-02 0. -1.
    10030    2    1    2    0    0  0.00000000000E+00  0.00000000000E+00 -0.12840662497E+03  0.32371976726E+04  0.32346499826E+04 0.  0.
        1    1    3    3  502    0  0.10735576851E+03  0.25384662702E+03 -0.16591262302E+04  0.16818630202E+04  0.50400001928E-02 0. -1.
       -1    1    3    3    0  502 -0.10735576851E+03 -0.25384662702E+03  0.15307196052E+04  0.15553346524E+04  0.50400001928E-02 0.  1.
</event>
<event>
 5   0  0.2703956E-07  0.3300682E+04  0.7818609E-02  0.8162722E-01
       -2   -1    0    0    0  501  0.00000000000E+00  0.00000000000E+00  0.13306118321E+04  0.13306118321E+04  0.25500000920E-02 0.  1.
        2   -1    0    0  501    0  0.00000000000E+00  0.00000000000E+00 -0.20468975823E+04  0.20468975823E+04  0.25500000920E-02 0. -1.
    10030    2    1    2    0    0  0.00000000000E+00  0.00000000000E+00 -0.71628575022E+03  0.33775094145E+04  0.33006824399E+04 0.  0.
        5    1    3    3  502    0  0.80955083994E+03  0.52585769176E+03 -0.17278449068E+04  0.19792344445E+04  0.46999998093E+01 0. -1.
       -5    1    3    3    0  502 -0.80955083994E+03 -0.52585769176E+03  0.10115591566E+04  0.13982749700E+04  0.46999998093E+01 0.  1.
</event>
<event>
 5   0  0.2703956E-07  0.3275761E+04  0.7818609E-02  0.8169090E-01
        2   -1    0    0  501    0  0.00000000000E+00  0.00000000000E+00  0.10047771099E+04  0.10047771099E+04  0.25500000920E-02 0.  1.
       -2   -1    0    0    0  501  0.00000000000E+00  0.00000000000E+00 -0.26698988344E+04  0.26698988344E+04  0.25500000920E-02 0. -1.
    10030    2    1    2    0    0  0.00000000000E+00  0.00000000000E+00 -0.16651217245E+04  0.36746759443E+04  0.32757614288E+04 0.  0.
        5    1    3    3  502    0  0.14973372488E+04  0.63521547924E+03 -0.10486701037E+04  0.19352644828E+04  0.46999998093E+01 0. -1.
       -5    1    3    3    0  502 -0.14973372488E+04 -0.63521547924E+03 -0.61645162077E+03  0.17394114615E+04  0.46999998093E+01 0.  1.
</event>
<event>
 5   0  0.9454010E-08  0.3299617E+04  0.7818609E-02  0.8162993E-01
       -1   -1    0    0    0  501  0.00000000000E+00  0.00000000000E+00  0.22138399391E+04  0.22138399391E+04  0.50400001928E-02 0. -1.
        1   -1    0    0  501    0  0.00000000000E+00  0.00000000000E+00 -0.12294783628E+04  0.12294783628E+04  0.50400001928E-02 0.  1.
    10030    2    1    2    0    0  0.00000000000E+00  0.00000000000E+00  0.98436157629E+03  0.34433183019E+04  0.32996171317E+04 0.  0.
        2    1    3    3  502    0 -0.13128435659E+04 -0.40492994561E+03  0.14453842829E+04  0.19941570185E+04  0.25500000920E-02 0. -1.
       -2    1    3    3    0  502  0.13128435659E+04  0.40492994561E+03 -0.46102270663E+03  0.14491612834E+04  0.25500000920E-02 0.  1.
</event>
<event>
 5   0  0.2824402E-07  0.3307508E+04  0.7818609E-02  0.8160988E-01
        2   -1    0    0  501    0  0.00000000000E+00  0.00000000000E+00  0.14702549722E+04  0.14702549722E+04  0.25500000920E-02 0. -1.
       -2   -1    0    0    0  501  0.00000000000E+00  0.00000000000E+00 -0.18601547085E+04  0.18601547085E+04  0.25500000920E-02 0.  1.
    10030    2    1    2    0    0  0.00000000000E+00  0.00000000000E+00 -0.38989973626E+03  0.33304096807E+04  0.33075076473E+04 0.  0.
        1    1    3    3  502    0 -0.97046561727E+03  0.29729644486E+03  0.11197373549E+04  0.15112909827E+04  0.50400001928E-02 0. -1.
       -1    1    3    3    0  502  0.97046561727E+03 -0.29729644486E+03 -0.15096370912E+04  0.18191186980E+04  0.50400001928E-02 0.  1.
</event>
<event>
 5   0  0.9454010E-08  0.3298960E+04  0.7818609E-02  0.8163160E-01
       -1   -1    0    0    0  501  0.00000000000E+00  0.00000000000E+00  0.10206033358E+04  0.10206033358E+04  0.50400001928E-02 0. -1.
        1   -1    0    0  501    0  0.00000000000E+00  0.00000000000E+00 -0.26658580240E+04  0.26658580240E+04  0.50400001928E-02 0.  1.
    10030    2    1    2    0    0  0.00000000000E+00  0.00000000000E+00 -0.16452546882E+04  0.36864613598E+04  0.32989595887E+04 0.  0.
        2    1    3    3  502    0  0.16415315834E+03  0.71746661103E+03 -0.24721913732E+04  0.25794252816E+04  0.25500000920E-02 0.  1.
       -2    1    3    3    0  502 -0.16415315834E+03 -0.71746661103E+03  0.82693668506E+03  0.11070360782E+04  0.25500000920E-02 0. -1.
</event>
<event>
 5   0  0.2713815E-07  0.3299372E+04  0.7818609E-02  0.8163055E-01
       -2   -1    0    0    0  501  0.00000000000E+00  0.00000000000E+00  0.11641185554E+04  0.11641185554E+04  0.25500000920E-02 0.  1.
        2   -1    0    0  501    0  0.00000000000E+00  0.00000000000E+00 -0.23377893440E+04  0.23377893440E+04  0.25500000920E-02 0. -1.
    10030    2    1    2    0    0  0.00000000000E+00  0.00000000000E+00 -0.11736707886E+04  0.35019078994E+04  0.32993720336E+04 0.  0.
        4    1    3    3  502    0  0.95786920761E+03  0.65077265390E+03 -0.18338823546E+04  0.21689040019E+04  0.12699999809E+01 0. -1.
       -4    1    3    3    0  502 -0.95786920761E+03 -0.65077265390E+03  0.66021156606E+03  0.13330038975E+04  0.12699999809E+01 0.  1.
</event>
<event>
 5   0  0.9283910E-08  0.3236168E+04  0.7818609E-02  0.8179330E-01
        1   -1    0    0  501    0  0.00000000000E+00  0.00000000000E+00  0.10817049133E+04  0.10817049133E+04  0.50400001928E-02 0.  1.
       -1   -1    0    0    0  501  0.00000000000E+00  0.00000000000E+00 -0.24204339305E+04  0.24204339306E+04  0.50400001928E-02 0. -1.
    10030    2    1    2    0    0  0.00000000000E+00  0.00000000000E+00 -0.13387290173E+04  0.35021388438E+04  0.32361676563E+04 0.  0.
        3    1    3    3  502    0  0.11863237195E+04 -0.23229483078E+03  0.49461330698E+03  0.13061267892E+04  0.10100000352E+00 0.  1.
       -3    1    3    3    0  502 -0.11863237195E+04  0.23229483078E+03 -0.18333423242E+04  0.21960120546E+04  0.10100000352E+00 0. -1.
</event>
<event>
 5   0  0.2875829E-07  0.3293969E+04  0.7818609E-02  0.8164432E-01
       -2   -1    0    0    0  501  0.00000000000E+00  0.00000000000E+00  0.13651413779E+04  0.13651413779E+04  0.25500000920E-02 0.  1.
        2   -1    0    0  501    0  0.00000000000E+00  0.00000000000E+00 -0.19870159040E+04  0.19870159040E+04  0.25500000920E-02 0. -1.
    10030    2    1    2    0    0  0.00000000000E+00  0.00000000000E+00 -0.62187452603E+03  0.33521572819E+04  0.32939688093E+04 0.  0.
        3    1    3    3  502    0 -0.42949127614E+03 -0.73788376820E+03  0.11223538484E+04  0.14101820389E+04  0.10100000352E+00 0.  1.
       -3    1    3    3    0  502  0.42949127614E+03  0.73788376820E+03 -0.17442283745E+04  0.19419752429E+04  0.10100000352E+00 0. -1.
</event>
<event>
 5   0  0.8805125E-08  0.3298032E+04  0.7818609E-02  0.8163396E-01
        1   -1    0    0  501    0  0.00000000000E+00  0.00000000000E+00  0.19085643407E+04  0.19085643407E+04  0.50400001928E-02 0.  1.
       -1   -1    0    0    0  501  0.00000000000E+00  0.00000000000E+00 -0.14247640160E+04  0.14247640160E+04  0.50400001928E-02 0. -1.
    10030    2    1    2    0    0  0.00000000000E+00  0.00000000000E+00  0.48380032476E+03  0.33333283567E+04  0.32980320161E+04 0.  0.
        4    1    3    3  502    0  0.27496136833E+03  0.13766042069E+04  0.11163820815E+04  0.17935867588E+04  0.12699999809E+01 0.  1.
       -4    1    3    3    0  502 -0.27496136833E+03 -0.13766042069E+04 -0.63258175676E+03  0.15397415979E+04  0.12699999809E+01 0. -1.
</event>
<event>
 5   0  0.2824402E-07  0.3305941E+04  0.7818609E-02  0.8161385E-01
       -2   -1    0    0    0  501  0.00000000000E+00  0.00000000000E+00  0.17365152375E+04  0.17365152375E+04  0.25500000920E-02 0. -1.
        2   -1    0    0  501    0  0.00000000000E+00  0.00000000000E+00 -0.15734449567E+04  0.15734449567E+04  0.25500000920E-02 0.  1.
    10030    2    1    2    0    0  0.00000000000E+00  0.00000000000E+00  0.16307028078E+03  0.33099601941E+04  0.33059407996E+04 0.  0.
        1    1    3    3  502    0  0.13528542219E+02 -0.14672488683E+04  0.84358395413E+03  0.16925236042E+04  0.50400001928E-02 0. -1.
       -1    1    3    3    0  502 -0.13528542219E+02  0.14672488683E+04 -0.68051367335E+03  0.16174365900E+04  0.50400001928E-02 0.  1.
</event>
<event>
 5   0  0.9810351E-08  0.3292376E+04  0.7818609E-02  0.8164838E-01
       -1   -1    0    0    0  501  0.00000000000E+00  0.00000000000E+00  0.15408388537E+04  0.15408388537E+04  0.50400001928E-02 0.  1.
        1   -1    0    0  501    0  0.00000000000E+00  0.00000000000E+00 -0.17587395391E+04  0.17587395391E+04  0.50400001928E-02 0. -1.
    10030    2    1    2    0    0  0.00000000000E+00  0.00000000000E+00 -0.21790068537E+03  0.32995783928E+04  0.32923755651E+04 0.  0.
        5    1    3    3  502    0 -0.12242039990E+04  0.85610250325E+03 -0.80207398242E+03  0.16955623523E+04  0.46999998093E+01 0. -1.
       -5    1    3    3    0  502  0.12242039990E+04 -0.85610250325E+03  0.58417329704E+03  0.16040160405E+04  0.46999998093E+01 0.  1.
</event>
<event>
 5   0  0.8805125E-08  0.3297673E+04  0.7818609E-02  0.8163488E-01
       -1   -1    0    0    0  501  0.00000000000E+00  0.00000000000E+00  0.12448786967E+04  0.12448786967E+04  0.50400001928E-02 0. -1.
        1   -1    0    0  501    0  0.00000000000E+00  0.00000000000E+00 -0.21838775254E+04  0.21838775254E+04  0.50400001928E-02 0.  1.
    10030    2    1    2    0    0  0.00000000000E+00  0.00000000000E+00 -0.93899882878E+03  0.34287562221E+04  0.32976734875E+04 0.  0.
        4    1    3    3  502    0  0.82025613792E+03  0.75300064727E+03 -0.17339102606E+04  0.20606495362E+04  0.12699999809E+01 0.  1.
       -4    1    3    3    0  502 -0.82025613792E+03 -0.75300064727E+03  0.79491143181E+03  0.13681066859E+04  0.12699999809E+01 0. -1.
</event>
<event>
 5   0  0.2875829E-07  0.3303255E+04  0.7818609E-02  0.8162068E-01
       -2   -1    0    0    0  501  0.00000000000E+00  0.00000000000E+00  0.17507784216E+04  0.17507784216E+04  0.25500000920E-02 0.  1.
        2   -1    0    0  501    0  0.00000000000E+00  0.00000000000E+00 -0.15580919015E+04  0.15580919015E+04  0.25500000920E-02 0. -1.
    10030    2    1    2    0    0  0.00000000000E+00  0.00000000000E+00  0.19268652011E+03  0.33088703231E+04  0.33032551702E+04 0.  0.
        3    1    3    3  502    0 -0.13340213791E+04  0.47044315493E+03 -0.75771611136E+03  0.16047004448E+04  0.10100000352E+00 0. -1.
       -3    1    3    3    0  502  0.13340213791E+04 -0.47044315493E+03  0.95040263147E+03  0.17041698783E+04  0.10100000352E+00 0.  1.
</event>
<event>
 5   0  0.8805125E-08  0.3295471E+04  0.7818609E-02  0.8164049E-01
        3   -1    0    0  501    0  0.00000000000E+00  0.00000000000E+00  0.12398874157E+04  0.12398874198E+04  0.10100000352E+00 0. -1.
       -3   -1    0    0    0  501  0.00000000000E+00  0.00000000000E+00 -0.21897413031E+04  0.21897413055E+04  0.10100000352E+00 0.  1.
    10030    2    1    2    0    0  0.00000000000E+00  0.00000000000E+00 -0.94985388745E+03  0.34296287253E+04  0.32954712540E+04 0.  0.
        2    1    3    3  502    0  0.13017073721E+04  0.17855392321E+02  0.57627830725E+03  0.14236774863E+04  0.25500000920E-02 0. -1.
       -2    1    3    3    0  502 -0.13017073721E+04 -0.17855392321E+02 -0.15261321947E+04  0.20059512390E+04  0.25500000920E-02 0.  1.
</event>
<event>
 5   0  0.9283910E-08  0.3292252E+04  0.7818609E-02  0.8164870E-01
       -1   -1    0    0    0  501  0.00000000000E+00  0.00000000000E+00  0.13263243317E+04  0.13263243317E+04  0.50400001928E-02 0. -1.
        1   -1    0    0  501    0  0.00000000000E+00  0.00000000000E+00 -0.20430373200E+04  0.20430373200E+04  0.50400001928E-02 0.  1.
    10030    2    1    2    0    0  0.00000000000E+00  0.00000000000E+00 -0.71671298834E+03  0.33693616517E+04  0.32922515749E+04 0.  0.
        3    1    3    3  502    0 -0.88670854506E+02  0.21807520516E+03  0.13090078121E+04  0.13300078112E+04  0.10100000352E+00 0. -1.
       -3    1    3    3    0  502  0.88670854506E+02 -0.21807520516E+03 -0.20257208004E+04  0.20393538405E+04  0.10100000352E+00 0.  1.
</event>
<event>
 5   0  0.9454010E-08  0.3302416E+04  0.7818609E-02  0.8162281E-01
        1   -1    0    0  501    0  0.00000000000E+00  0.00000000000E+00  0.23984560047E+04  0.23984560047E+04  0.50400001928E-02 0.  1.
       -1   -1    0    0    0  501  0.00000000000E+00  0.00000000000E+00 -0.11367679073E+04  0.11367679073E+04  0.50400001928E-02 0. -1.
    10030    2    1    2    0    0  0.00000000000E+00  0.00000000000E+00  0.12616880974E+04  0.35352239120E+04  0.33024159721E+04 0.  0.
        2    1    3    3  502    0 -0.45370232851E+03  0.23630220080E+03  0.23114901859E+04  0.23674187236E+04  0.25500000920E-02 0.  1.
       -2    1    3    3    0  502  0.45370232851E+03 -0.23630220080E+03 -0.10498020885E+04  0.11678051884E+04  0.25500000920E-02 0. -1.
</event>
<event>
 5   0  0.2727168E-07  0.3293810E+04  0.7818609E-02  0.8164472E-01
       -2   -1    0    0    0  501  0.00000000000E+00  0.00000000000E+00  0.12285424944E+04  0.12285424944E+04  0.25500000920E-02 0. -1.
        2   -1    0    0  501    0  0.00000000000E+00  0.00000000000E+00 -0.22077351124E+04  0.22077351124E+04  0.25500000920E-02 0.  1.
    10030    2    1    2    0    0  0.00000000000E+00  0.00000000000E+00 -0.97919261799E+03  0.34362776067E+04  0.32938101960E+04 0.  0.
        2    1    3    3  502    0 -0.86413281774E+03 -0.78904446714E+03  0.71939839116E+03  0.13736268573E+04  0.25500000920E-02 0. -1.
       -2    1    3    3    0  502  0.86413281774E+03  0.78904446714E+03 -0.16985910091E+04  0.20626507494E+04  0.25500000920E-02 0.  1.
</event>
<event>
 5   0  0.8805125E-08  0.3298530E+04  0.7818609E-02  0.8163269E-01
       -1   -1    0    0    0  501  0.00000000000E+00  0.00000000000E+00  0.12055102033E+04  0.12055102033E+04  0.50400001928E-02 0.  1.
        1   -1    0    0  501    0  0.00000000000E+00  0.00000000000E+00 -0.22563685009E+04  0.22563685009E+04  0.50400001928E-02 0. -1.
    10030    2    1    2    0    0  0.00000000000E+00  0.00000000000E+00 -0.10508582976E+04  0.34618787042E+04  0.32985301274E+04 0.  0.
        4    1    3    3  502    0 -0.36237655511E+03  0.53357814166E+03 -0.21185086827E+04  0.22145209533E+04  0.12699999809E+01 0. -1.
       -4    1    3    3    0  502  0.36237655511E+03 -0.53357814166E+03  0.10676503852E+04  0.12473577509E+04  0.12699999809E+01 0.  1.
</event>
<event>
 5   0  0.9454010E-08  0.3293103E+04  0.7818609E-02  0.8164653E-01
        1   -1    0    0  501    0  0.00000000000E+00  0.00000000000E+00  0.10470905350E+04  0.10470905350E+04  0.50400001928E-02 0.  1.
       -1   -1    0    0    0  501  0.00000000000E+00  0.00000000000E+00 -0.25892044541E+04  0.25892044541E+04  0.50400001928E-02 0. -1.
    10030    2    1    2    0    0  0.00000000000E+00  0.00000000000E+00 -0.15421139191E+04  0.36362949891E+04  0.32931027783E+04 0.  0.
        2    1    3    3  502    0  0.39320455703E+02  0.16140307409E+04 -0.11279938952E+04  0.19695206418E+04  0.25500000920E-02 0. -1.
       -2    1    3    3    0  502 -0.39320455703E+02 -0.16140307409E+04 -0.41412002386E+03  0.16667743473E+04  0.25500000920E-02 0.  1.
</event>
<event>
 5   0  0.9283910E-08  0.3301681E+04  0.7818609E-02  0.8162468E-01
        1   -1    0    0  501    0  0.00000000000E+00  0.00000000000E+00  0.14272271139E+04  0.14272271140E+04  0.50400001928E-02 0. -1.
       -1   -1    0    0    0  501  0.00000000000E+00  0.00000000000E+00 -0.19094893174E+04  0.19094893174E+04  0.50400001928E-02 0.  1.
    10030    2    1    2    0    0  0.00000000000E+00  0.00000000000E+00 -0.48226220342E+03  0.33367164313E+04  0.33016813460E+04 0.  0.
        3    1    3    3  502    0  0.77809417229E+03  0.58549850022E+03  0.11060694209E+04  0.14736446684E+04  0.10100000352E+00 0. -1.
       -3    1    3    3    0  502 -0.77809417229E+03 -0.58549850022E+03 -0.15883316243E+04  0.18630717629E+04  0.10100000352E+00 0.  1.
</event>
<event>
 5   0  0.2824402E-07  0.3303055E+04  0.7818609E-02  0.8162118E-01
       -2   -1    0    0    0  501  0.00000000000E+00  0.00000000000E+00  0.12509403759E+04  0.12509403759E+04  0.25500000920E-02 0. -1.
        2   -1    0    0  501    0  0.00000000000E+00  0.00000000000E+00 -0.21803941439E+04  0.21803941439E+04  0.25500000920E-02 0.  1.
    10030    2    1    2    0    0  0.00000000000E+00  0.00000000000E+00 -0.92945376794E+03  0.34313345198E+04  0.33030549920E+04 0.  0.
        1    1    3    3  502    0  0.98404013871E+03  0.51323985830E+03 -0.17352512321E+04  0.20598172213E+04  0.50400001928E-02 0.  1.
       -1    1    3    3    0  502 -0.98404013871E+03 -0.51323985830E+03  0.80579746416E+03  0.13715172985E+04  0.50400001928E-02 0. -1.
</event>
<event>
 5   0  0.2713815E-07  0.3300618E+04  0.7818609E-02  0.8162738E-01
        2   -1    0    0  501    0  0.00000000000E+00  0.00000000000E+00  0.10874252558E+04  0.10874252558E+04  0.25500000920E-02 0.  1.
       -2   -1    0    0    0  501  0.00000000000E+00  0.00000000000E+00 -0.25045580041E+04  0.25045580041E+04  0.25500000920E-02 0. -1.
    10030    2    1    2    0    0  0.00000000000E+00  0.00000000000E+00 -0.14171327483E+04  0.35919832600E+04  0.33006178988E+04 0.  0.
        4    1    3    3  502    0 -0.12415791428E+04  0.99498478410E+03 -0.11854306492E+04  0.19841272453E+04  0.12699999809E+01 0.  1.
       -4    1    3    3    0  502  0.12415791428E+04 -0.99498478410E+03 -0.23170209907E+03  0.16078560147E+04  0.12699999809E+01 0. -1.
</event>
<event>
 5   0  0.9181760E-08  0.3295564E+04  0.7818609E-02  0.8164025E-01
        1   -1    0    0  501    0  0.00000000000E+00  0.00000000000E+00  0.26091502600E+04  0.26091502600E+04  0.50400001928E-02 0.  1.
       -1   -1    0    0    0  501  0.00000000000E+00  0.00000000000E+00 -0.10406398726E+04  0.10406398727E+04  0.50400001928E-02 0. -1.
    10030    2    1    2    0    0  0.00000000000E+00  0.00000000000E+00  0.15685103874E+04  0.36497901327E+04  0.32955641668E+04 0.  0.
        1    1    3    3  502    0  0.14370103939E+04  0.76718552187E+03  0.50935481029E+03  0.17067556416E+04  0.50400001928E-02 0. -1.
       -1    1    3    3    0  502 -0.14370103939E+04 -0.76718552187E+03  0.10591555771E+04  0.19430344911E+04  0.50400001928E-02 0.  1.
</event>
<event>
 5   0  0.2824402E-07  0.3304377E+04  0.7818609E-02  0.8161782E-01
        2   -1    0    0  501    0  0.00000000000E+00  0.00000000000E+00  0.20012079981E+04  0.20012079981E+04  0.25500000920E-02 0. -1.
       -2   -1    0    0    0  501  0.00000000000E+00  0.00000000000E+00 -0.13640398585E+04  0.13640398585E+04  0.25500000920E-02 0.  1.
    10030    2    1    2    0    0  0.00000000000E+00  0.00000000000E+00  0.63716813957E+03  0.33652478567E+04  0.33043773844E+04 0.  0.
        1    1    3    3  502    0  0.64795490547E+03 -0.10188664497E+04  0.14670963490E+04  0.19000805507E+04  0.50400001928E-02 0. -1.
       -1    1    3    3    0  502 -0.64795490547E+03  0.10188664497E+04 -0.82992820940E+03  0.14651673060E+04  0.50400001928E-02 0.  1.
</event>
<event>
 5   0  0.2713815E-07  0.3292947E+04  0.7818609E-02  0.8164692E-01
       -2   -1    0    0    0  501  0.00000000000E+00  0.00000000000E+00  0.14757786682E+04  0.14757786682E+04  0.25500000920E-02 0.  1.
        2   -1    0    0  501    0  0.00000000000E+00  0.00000000000E+00 -0.18369110680E+04  0.18369110680E+04  0.25500000920E-02 0. -1.
    10030    2    1    2    0    0  0.00000000000E+00  0.00000000000E+00 -0.36113239986E+03  0.33126897362E+04  0.32929465040E+04 0.  0.
        4    1    3    3  502    0  0.11610405231E+04 -0.32007500939E+03  0.94884453631E+03  0.15332223175E+04  0.12699999809E+01 0. -1.
       -4    1    3    3    0  502 -0.11610405231E+04  0.32007500939E+03 -0.13099769362E+04  0.17794674187E+04  0.12699999809E+01 0.  1.
</event>
<event>
 5   0  0.2703956E-07  0.3300485E+04  0.7818609E-02  0.8162772E-01
       -2   -1    0    0    0  501  0.00000000000E+00  0.00000000000E+00  0.15473070827E+04  0.15473070827E+04  0.25500000920E-02 0.  1.
        2   -1    0    0  501    0  0.00000000000E+00  0.00000000000E+00 -0.17600259843E+04  0.17600259843E+04  0.25500000920E-02 0. -1.
    10030    2    1    2    0    0  0.00000000000E+00  0.00000000000E+00 -0.21271890160E+03  0.33073330670E+04  0.33004852196E+04 0.  0.
        5    1    3    3  502    0  0.71856117081E+03  0.28910935618E+03  0.13538406926E+04  0.15597503284E+04  0.46999998093E+01 0.  1.
       -5    1    3    3    0  502 -0.71856117081E+03 -0.28910935618E+03 -0.15665595942E+04  0.17475827386E+04  0.46999998093E+01 0. -1.
</event>
<event>
 5   0  0.2824402E-07  0.3298102E+04  0.7818609E-02  0.8163379E-01
       -2   -1    0    0    0  501  0.00000000000E+00  0.00000000000E+00  0.20846593296E+04  0.20846593296E+04  0.25500000920E-02 0. -1.
        2   -1    0    0  501    0  0.00000000000E+00  0.00000000000E+00 -0.13044666894E+04  0.13044666894E+04  0.25500000920E-02 0.  1.
    10030    2    1    2    0    0  0.00000000000E+00  0.00000000000E+00  0.78019264016E+03  0.33891260190E+04  0.32981016687E+04 0.  0.
        1    1    3    3  502    0 -0.12988512665E+03 -0.48668751072E+03  0.20036668882E+04  0.20660144913E+04  0.50400001928E-02 0. -1.
       -1    1    3    3    0  502  0.12988512665E+03  0.48668751072E+03 -0.12234742481E+04  0.13231115278E+04  0.50400001928E-02 0.  1.
</event>
<event>
 5   0  0.2703956E-07  0.3297179E+04  0.7818609E-02  0.8163613E-01
        2   -1    0    0  501    0  0.00000000000E+00  0.00000000000E+00  0.26842665636E+04  0.26842665636E+04  0.25500000920E-02 0.  1.
       -2   -1    0    0    0  501  0.00000000000E+00  0.00000000000E+00 -0.10125105283E+04  0.10125105283E+04  0.25500000920E-02 0. -1.
    10030    2    1    2    0    0  0.00000000000E+00  0.00000000000E+00  0.16717560353E+04  0.36967770918E+04  0.32971794954E+04 0.  0.
        5    1    3    3  502    0 -0.82864046612E+03 -0.14139184692E+04  0.10364921581E+04  0.19391102453E+04  0.46999998093E+01 0.  1.
       -5    1    3    3    0  502  0.82864046612E+03  0.14139184692E+04  0.63526387720E+03  0.17576668465E+04  0.46999998093E+01 0. -1.
</event>
<event>
 5   0  0.2824402E-07  0.3296853E+04  0.7818609E-02  0.8163697E-01
       -2   -1    0    0    0  501  0.00000000000E+00  0.00000000000E+00  0.15741356263E+04  0.15741356263E+04  0.25500000920E-02 0. -1.
        2   -1    0    0  501    0  0.00000000000E+00  0.00000000000E+00 -0.17262236923E+04  0.17262236923E+04  0.25500000920E-02 0.  1.
    10030    2    1    2    0    0  0.00000000000E+00  0.00000000000E+00 -0.15208806603E+03  0.33003593186E+04  0.32968531742E+04 0.  0.
        1    1    3    3  502    0  0.14929453849E+04 -0.64407666334E+03  0.19551838705E+03  0.16376654452E+04  0.50400001928E-02 0. -1.
       -1    1    3    3    0  502 -0.14929453849E+04  0.64407666334E+03 -0.34760645308E+03  0.16626938735E+04  0.50400001928E-02 0.  1.
</event>
<event>
 5   0  0.8805125E-08  0.3295508E+04  0.7818609E-02  0.8164039E-01
        1   -1    0    0  501    0  0.00000000000E+00  0.00000000000E+00  0.23621663307E+04  0.23621663307E+04  0.50400001928E-02 0. -1.
       -1   -1    0    0    0  501  0.00000000000E+00  0.00000000000E+00 -0.11494081280E+04  0.11494081280E+04  0.50400001928E-02 0.  1.
    10030    2    1    2    0    0  0.00000000000E+00  0.00000000000E+00  0.12127582027E+04  0.35115744587E+04  0.32955079609E+04 0.  0.
        4    1    3    3  502    0  0.35653733041E+03 -0.12077633012E+04  0.17387284441E+04  0.21468556717E+04  0.12699999809E+01 0. -1.
       -4    1    3    3    0  502 -0.35653733041E+03  0.12077633012E+04 -0.52597024141E+03  0.13647187870E+04  0.12699999809E+01 0.  1.
</event>
<event>
 5   0  0.9283910E-08  0.3290092E+04  0.7818609E-02  0.8165421E-01
        1   -1    0    0  501    0  0.00000000000E+00  0.00000000000E+00  0.23859285050E+04  0.23859285050E+04  0.50400001928E-02 0. -1.
       -1   -1    0    0    0  501  0.00000000000E+00  0.00000000000E+00 -0.11342236657E+04  0.11342236657E+04  0.50400001928E-02 0.  1.
    10030    2    1    2    0    0  0.00000000000E+00  0.00000000000E+00  0.12517048393E+04  0.35201521707E+04  0.32900921416E+04 0.  0.
        3    1    3    3  502    0  0.76782822363E+03 -0.13281173269E+04 -0.95792871134E+01  0.15341276309E+04  0.10100000352E+00 0.  1.
       -3    1    3    3    0  502 -0.76782822363E+03  0.13281173269E+04  0.12612841264E+04  0.19860245398E+04  0.10100000352E+00 0. -1.
</event>
<event>
 5   0  0.2824402E-07  0.3302969E+04  0.7818609E-02  0.8162140E-01
       -2   -1    0    0    0  501  0.00000000000E+00  0.00000000000E+00  0.98572047210E+03  0.98572047210E+03  0.25500000920E-02 0.  1.
        2   -1    0    0  501    0  0.00000000000E+00  0.00000000000E+00 -0.27669106486E+04  0.27669106486E+04  0.25500000920E-02 0. -1.
    10030    2    1    2    0    0  0.00000000000E+00  0.00000000000E+00 -0.17811901765E+04  0.37526311207E+04  0.33029686470E+04 0.  0.
        1    1    3    3  502    0  0.10469898227E+04  0.22324911847E+03  0.53812954033E+03  0.11981699629E+04  0.50400001928E-02 0.  1.
       -1    1    3    3    0  502 -0.10469898227E+04 -0.22324911847E+03 -0.23193197168E+04  0.25544611578E+04  0.50400001928E-02 0. -1.
</event>
<event>
 5   0  0.9454010E-08  0.3302674E+04  0.7818609E-02  0.8162215E-01
        1   -1    0    0  501    0  0.00000000000E+00  0.00000000000E+00  0.19863184101E+04  0.19863184101E+04  0.50400001928E-02 0.  1.
       -1   -1    0    0    0  501  0.00000000000E+00  0.00000000000E+00 -0.13728484720E+04  0.13728484720E+04  0.50400001928E-02 0. -1.
    10030    2    1    2    0    0  0.00000000000E+00  0.00000000000E+00  0.61346993814E+03  0.33591668821E+04  0.33026741857E+04 0.  0.
        2    1    3    3  502    0  0.14425519144E+04  0.67176552025E+03  0.75551842536E+03  0.17615427985E+04  0.25500000920E-02 0.  1.
       -2    1    3    3    0  502 -0.14425519144E+04 -0.67176552025E+03 -0.14204848722E+03  0.15976240836E+04  0.25500000920E-02 0. -1.
</event>
<event>
 5   0  0.2727168E-07  0.3288324E+04  0.7818609E-02  0.8165873E-01
       -2   -1    0    0    0  501  0.00000000000E+00  0.00000000000E+00  0.16305673001E+04  0.16305673001E+04  0.25500000920E-02 0.  1.
        2   -1    0    0  501    0  0.00000000000E+00  0.00000000000E+00 -0.16578696516E+04  0.16578696516E+04  0.25500000920E-02 0. -1.
    10030    2    1    2    0    0  0.00000000000E+00  0.00000000000E+00 -0.27302351487E+02  0.32884369517E+04  0.32883236105E+04 0.  0.
        2    1    3    3  502    0  0.15059972296E+04  0.64376347579E+03 -0.15790930582E+03  0.16454161835E+04  0.25500000920E-02 0. -1.
       -2    1    3    3    0  502 -0.15059972296E+04 -0.64376347579E+03  0.13060695433E+03  0.16430207682E+04  0.25500000920E-02 0.  1.
</event>
<event>
 5   0  0.8805125E-08  0.3297530E+04  0.7818609E-02  0.8163524E-01
       -1   -1    0    0    0  501  0.00000000000E+00  0.00000000000E+00  0.12484137214E+04  0.12484137214E+04  0.50400001928E-02 0.  1.
        1   -1    0    0  501    0  0.00000000000E+00  0.00000000000E+00 -0.21775034970E+04  0.21775034970E+04  0.50400001928E-02 0. -1.
    10030    2    1    2    0    0  0.00000000000E+00  0.00000000000E+00 -0.92908977559E+03  0.34259172184E+04  0.32975295262E+04 0.  0.
        4    1    3    3  502    0 -0.15521295986E+04  0.22455017757E+03  0.64082466781E+02  0.15695977984E+04  0.12699999809E+01 0.  1.
       -4    1    3    3    0  502  0.15521295986E+04 -0.22455017757E+03 -0.99317224237E+03  0.18563194200E+04  0.12699999809E+01 0. -1.
</event>
<event>
 5   0  0.2703956E-07  0.3303499E+04  0.7818609E-02  0.8162006E-01
        2   -1    0    0  501    0  0.00000000000E+00  0.00000000000E+00  0.20670883771E+04  0.20670883771E+04  0.25500000920E-02 0.  1.
       -2   -1    0    0    0  501  0.00000000000E+00  0.00000000000E+00 -0.13198644491E+04  0.13198644491E+04  0.25500000920E-02 0. -1.
    10030    2    1    2    0    0  0.00000000000E+00  0.00000000000E+00  0.74722392800E+03  0.33869528263E+04  0.33034990311E+04 0.  0.
        5    1    3    3  502    0 -0.12427146101E+04 -0.77277360635E+03 -0.41172534418E+03  0.15202165957E+04  0.46999998093E+01 0. -1.
       -5    1    3    3    0  502  0.12427146101E+04  0.77277360635E+03  0.11589492722E+04  0.18667362305E+04  0.46999998093E+01 0.  1.
</event>
<event>
 5   0  0.9181760E-08  0.3297787E+04  0.7818609E-02  0.8163459E-01
        1   -1    0    0  501    0  0.00000000000E+00  0.00000000000E+00  0.17131613924E+04  0.17131613924E+04  0.50400001928E-02 0.  1.
       -1   -1    0    0    0  501  0.00000000000E+00  0.00000000000E+00 -0.15870363692E+04  0.15870363692E+04  0.50400001928E-02 0. -1.
    10030    2    1    2    0    0  0.00000000000E+00  0.00000000000E+00  0.12612502323E+03  0.33001977616E+04  0.32977867948E+04 0.  0.
        1    1    3    3  502    0  0.17195948946E+03 -0.15927322359E+04 -0.32771419360E+03  0.16351644058E+04  0.50400001928E-02 0. -1.
       -1    1    3    3    0  502 -0.17195948946E+03  0.15927322359E+04  0.45383921683E+03  0.16650333558E+04  0.50400001928E-02 0.  1.
</event>
<event>
 5   0  0.2824402E-07  0.3298513E+04  0.7818609E-02  0.8163274E-01
        2   -1    0    0  501    0  0.00000000000E+00  0.00000000000E+00  0.14505091097E+04  0.14505091097E+04  0.25500000920E-02 0.  1.
       -2   -1    0    0    0  501  0.00000000000E+00  0.00000000000E+00 -0.18752362339E+04  0.18752362339E+04  0.25500000920E-02 0. -1.
    10030    2    1    2    0    0  0.00000000000E+00  0.00000000000E+00 -0.42472712426E+03  0.33257453436E+04  0.32985131439E+04 0.  0.
        1    1    3    3  502    0 -0.12561374168E+04  0.10161383346E+03  0.86029972866E+03  0.15258840730E+04  0.50400001928E-02 0. -1.
       -1    1    3    3    0  502  0.12561374168E+04 -0.10161383346E+03 -0.12850268529E+04  0.17998612707E+04  0.50400001928E-02 0.  1.
</event>
<event>
 5   0  0.9454010E-08  0.3303962E+04  0.7818609E-02  0.8161888E-01
       -1   -1    0    0    0  501  0.00000000000E+00  0.00000000000E+00  0.13961906690E+04  0.13961906690E+04  0.50400001928E-02 0.  1.
        1   -1    0    0  501    0  0.00000000000E+00  0.00000000000E+00 -0.19546334719E+04  0.19546334719E+04  0.50400001928E-02 0. -1.
    10030    2    1    2    0    0  0.00000000000E+00  0.00000000000E+00 -0.55844280288E+03  0.33508241409E+04  0.33039618732E+04 0.  0.
        2    1    3    3  502    0 -0.25479594756E+03  0.15932292204E+04 -0.63885025623E+03  0.17353472199E+04  0.25500000920E-02 0. -1.
       -2    1    3    3    0  502  0.25479594756E+03 -0.15932292204E+04  0.80407453344E+02  0.16154769210E+04  0.25500000920E-02 0.  1.
</event>
<event>
 5   0  0.9454010E-08  0.3298548E+04  0.7818609E-02  0.8163265E-01
        1   -1    0    0  501    0  0.00000000000E+00  0.00000000000E+00  0.27216675538E+04  0.27216675538E+04  0.50400001928E-02 0. -1.
       -1   -1    0    0    0  501  0.00000000000E+00  0.00000000000E+00 -0.99942607085E+03  0.99942607087E+03  0.50400001928E-02 0.  1.
    10030    2    1    2    0    0  0.00000000000E+00  0.00000000000E+00  0.17222414830E+04  0.37210936247E+04  0.32985484744E+04 0.  0.
        2    1    3    3  502    0  0.26513443955E+03 -0.93959456127E+03  0.23606760001E+04  0.25545890840E+04  0.25500000920E-02 0. -1.
       -2    1    3    3    0  502 -0.26513443955E+03  0.93959456127E+03 -0.63843451719E+03  0.11665045406E+04  0.25500000920E-02 0.  1.
</event>
<event>
 5   0  0.9810351E-08  0.3300172E+04  0.7818609E-02  0.8162852E-01
        1   -1    0    0  501    0  0.00000000000E+00  0.00000000000E+00  0.24686261476E+04  0.24686261476E+04  0.50400001928E-02 0.  1.
       -1   -1    0    0    0  501  0.00000000000E+00  0.00000000000E+00 -0.11029547704E+04  0.11029547704E+04  0.50400001928E-02 0. -1.
    10030    2    1    2    0    0  0.00000000000E+00  0.00000000000E+00  0.13656713772E+04  0.35715809181E+04  0.33001715022E+04 0.  0.
        5    1    3    3  502    0  0.73246323262E+02 -0.15434025420E+04  0.56158836951E+02  0.15461669817E+04  0.46999998093E+01 0. -1.
       -5    1    3    3    0  502 -0.73246323262E+02  0.15434025420E+04  0.13095125402E+04  0.20254139363E+04  0.46999998093E+01 0.  1.
</event>
<event>
 5   0  0.9810351E-08  0.3306293E+04  0.7818609E-02  0.8161296E-01
        1   -1    0    0  501    0  0.00000000000E+00  0.00000000000E+00  0.14700780252E+04  0.14700780252E+04  0.50400001928E-02 0.  1.
       -1   -1    0    0    0  501  0.00000000000E+00  0.00000000000E+00 -0.18590120102E+04  0.18590120102E+04  0.50400001928E-02 0. -1.
    10030    2    1    2    0    0  0.00000000000E+00  0.00000000000E+00 -0.38893398506E+03  0.33290900354E+04  0.33062926094E+04 0.  0.
        5    1    3    3  502    0 -0.65140464376E+03  0.13124388795E+04  0.57634844016E+03  0.15744914851E+04  0.46999998093E+01 0.  1.
       -5    1    3    3    0  502  0.65140464376E+03 -0.13124388795E+04 -0.96528242522E+03  0.17545985503E+04  0.46999998093E+01 0. -1.
</event>
<event>
 5   0  0.8805125E-08  0.3293137E+04  0.7818609E-02  0.8164644E-01
        1   -1    0    0  501    0  0.00000000000E+00  0.00000000000E+00  0.17530533760E+04  0.17530533760E+04  0.50400001928E-02 0. -1.
       -1   -1    0    0    0  501  0.00000000000E+00  0.00000000000E+00 -0.15465514576E+04  0.15465514576E+04  0.50400001928E-02 0.  1.
    10030    2    1    2    0    0  0.00000000000E+00  0.00000000000E+00  0.20650191848E+03  0.32996048336E+04  0.32931366531E+04 0.  0.
        4    1    3    3  502    0 -0.60599434860E+03  0.14526760187E+04  0.58761422355E+03  0.16801157265E+04  0.12699999809E+01 0. -1.
       -4    1    3    3    0  502  0.60599434860E+03 -0.14526760187E+04 -0.38111230508E+03  0.16194891071E+04  0.12699999809E+01 0.  1.
</event>
<event>
 5   0  0.2713815E-07  0.3296003E+04  0.7818609E-02  0.8163913E-01
        2   -1    0    0  501    0  0.00000000000E+00  0.00000000000E+00  0.16362373164E+04  0.16362373164E+04  0.25500000920E-02 0. -1.
       -2   -1    0    0    0  501  0.00000000000E+00  0.00000000000E+00 -0.16598500574E+04  0.16598500574E+04  0.25500000920E-02 0.  1.
    10030    2    1    2    0    0  0.00000000000E+00  0.00000000000E+00 -0.23612741002E+02  0.32960873737E+04  0.32960027933E+04 0.  0.
        4    1    3    3  502    0 -0.88349455940E+03 -0.12187272760E+04  0.65906714875E+03  0.16432376363E+04  0.12699999809E+01 0.  1.
       -4    1    3    3    0  502  0.88349455940E+03  0.12187272760E+04 -0.68267988976E+03  0.16528497374E+04  0.12699999809E+01 0. -1.
</event>
<event>
 5   0  0.2824402E-07  0.3295870E+04  0.7818609E-02  0.8163947E-01
        2   -1    0    0  501    0  0.00000000000E+00  0.00000000000E+00  0.22597425220E+04  0.22597425220E+04  0.25500000920E-02 0. -1.
       -2   -1    0    0    0  501  0.00000000000E+00  0.00000000000E+00 -0.12017697836E+04  0.12017697836E+04  0.25500000920E-02 0.  1.
    10030    2    1    2    0    0  0.00000000000E+00  0.00000000000E+00  0.10579727384E+04  0.34615123056E+04  0.32958703140E+04 0.  0.
        1    1    3    3  502    0  0.31329926711E+03  0.12440713459E+04  0.16152898970E+04  0.20627727446E+04  0.50400001928E-02 0. -1.
       -1    1    3    3    0  502 -0.31329926711E+03 -0.12440713459E+04 -0.55731715859E+03  0.13987395611E+04  0.50400001928E-02 0.  1.
</event>
<event>
 5   0  0.2703956E-07  0.3298970E+04  0.7818609E-02  0.8163158E-01
       -2   -1    0    0    0  501  0.00000000000E+00  0.00000000000E+00  0.12141447608E+04  0.12141447608E+04  0.25500000920E-02 0.  1.
        2   -1    0    0  501    0  0.00000000000E+00  0.00000000000E+00 -0.22409196176E+04  0.22409196176E+04  0.25500000920E-02 0. -1.
    10030    2    1    2    0    0  0.00000000000E+00  0.00000000000E+00 -0.10267748568E+04  0.34550643784E+04  0.32989700290E+04 0.  0.
        5    1    3    3  502    0 -0.53289472832E+03 -0.54398479889E+03  0.10190197829E+04  0.12721319353E+04  0.46999998093E+01 0.  1.
       -5    1    3    3    0  502  0.53289472832E+03  0.54398479889E+03 -0.20457946398E+04  0.21829324431E+04  0.46999998093E+01 0. -1.
</event>
<event>
 5   0  0.2727168E-07  0.3291336E+04  0.7818609E-02  0.8165104E-01
       -2   -1    0    0    0  501  0.00000000000E+00  0.00000000000E+00  0.11814642659E+04  0.11814642659E+04  0.25500000920E-02 0. -1.
        2   -1    0    0  501    0  0.00000000000E+00  0.00000000000E+00 -0.22922593974E+04  0.22922593974E+04  0.25500000920E-02 0.  1.
    10030    2    1    2    0    0  0.00000000000E+00  0.00000000000E+00 -0.11107951315E+04  0.34737236632E+04  0.32913356353E+04 0.  0.
        2    1    3    3  502    0  0.14524860694E+03  0.73377095851E+03 -0.21024732202E+04  0.22315713340E+04  0.25500000920E-02 0.  1.
       -2    1    3    3    0  502 -0.14524860694E+03 -0.73377095851E+03  0.99167808868E+03  0.12421523292E+04  0.25500000920E-02 0. -1.
</event>
<event>
 5   0  0.9454010E-08  0.3296757E+04  0.7818609E-02  0.8163721E-01
        1   -1    0    0  501    0  0.00000000000E+00  0.00000000000E+00  0.89594306652E+03  0.89594306653E+03  0.50400001928E-02 0.  1.
       -1   -1    0    0    0  501  0.00000000000E+00  0.00000000000E+00 -0.30327272389E+04  0.30327272389E+04  0.50400001928E-02 0. -1.
    10030    2    1    2    0    0  0.00000000000E+00  0.00000000000E+00 -0.21367841724E+04  0.39286703055E+04  0.32967565530E+04 0.  0.
        2    1    3    3  502    0 -0.36877718446E+03 -0.11391759708E+04  0.28164348641E+03  0.12300575424E+04  0.25500000920E-02 0.  1.
       -2    1    3    3    0  502  0.36877718446E+03  0.11391759708E+04 -0.24184276588E+04  0.26986127631E+04  0.25500000920E-02 0. -1.
</event>
<event>
 5   0  0.9181760E-08  0.3288600E+04  0.7818609E-02  0.8165802E-01
       -1   -1    0    0    0  501  0.00000000000E+00  0.00000000000E+00  0.14600422671E+04  0.14600422671E+04  0.50400001928E-02 0. -1.
        1   -1    0    0  501    0  0.00000000000E+00  0.00000000000E+00 -0.18518109541E+04  0.18518109541E+04  0.50400001928E-02 0.  1.
    10030    2    1    2    0    0  0.00000000000E+00  0.00000000000E+00 -0.39176868696E+03  0.33118532212E+04  0.32885998624E+04 0.  0.
        1    1    3    3  502    0  0.16998973983E+03  0.97020474132E+03 -0.15218294388E+04  0.18127764872E+04  0.50400001928E-02 0.  1.
       -1    1    3    3    0  502 -0.16998973983E+03 -0.97020474132E+03  0.11300607518E+04  0.14990767340E+04  0.50400001928E-02 0. -1.
</event>
<event>
 5   0  0.2703956E-07  0.3302200E+04  0.7818609E-02  0.8162336E-01
        2   -1    0    0  501    0  0.00000000000E+00  0.00000000000E+00  0.19553979400E+04  0.19553979400E+04  0.25500000920E-02 0.  1.
       -2   -1    0    0    0  501  0.00000000000E+00  0.00000000000E+00 -0.13941571526E+04  0.13941571526E+04  0.25500000920E-02 0. -1.
    10030    2    1    2    0    0  0.00000000000E+00  0.00000000000E+00  0.56124078732E+03  0.33495550926E+04  0.33022004932E+04 0.  0.
        5    1    3    3  502    0  0.11681440697E+04  0.97575435527E+03 -0.36844075293E+03  0.15660229270E+04  0.46999998093E+01 0. -1.
       -5    1    3    3    0  502 -0.11681440697E+04 -0.97575435527E+03  0.92968154025E+03  0.17835321656E+04  0.46999998093E+01 0.  1.
</event>
<event>
 5   0  0.2824402E-07  0.3297424E+04  0.7818609E-02  0.8163551E-01
        2   -1    0    0  501    0  0.00000000000E+00  0.00000000000E+00  0.16332099422E+04  0.16332099422E+04  0.25500000920E-02 0.  1.
       -2   -1    0    0    0  501  0.00000000000E+00  0.00000000000E+00 -0.16643615832E+04  0.16643615832E+04  0.25500000920E-02 0. -1.
    10030    2    1    2    0    0  0.00000000000E+00  0.00000000000E+00 -0.31151640982E+02  0.32975715254E+04  0.32974243798E+04 0.  0.
        1    1    3    3  502    0  0.11913408495E+04 -0.96515553199E+03 -0.62176593782E+03  0.16545123457E+04  0.50400001928E-02 0. -1.
       -1    1    3    3    0  502 -0.11913408495E+04  0.96515553199E+03  0.59061429684E+03  0.16430591797E+04  0.50400001928E-02 0.  1.
</event>
<event>
 5   0  0.8805125E-08  0.3300707E+04  0.7818609E-02  0.8162716E-01
        3   -1    0    0  501    0  0.00000000000E+00  0.00000000000E+00  0.15642353461E+04  0.15642353493E+04  0.10100000352E+00 0.  1.
       -3   -1    0    0    0  501  0.00000000000E+00  0.00000000000E+00 -0.17412125150E+04  0.17412125179E+04  0.10100000352E+00 0. -1.
    10030    2    1    2    0    0  0.00000000000E+00  0.00000000000E+00 -0.17697716892E+03  0.33054478673E+04  0.33007066948E+04 0.  0.
        2    1    3    3  502    0  0.16312451504E+03  0.11815238350E+03 -0.17288574987E+04  0.17405510173E+04  0.25500000920E-02 0. -1.
       -2    1    3    3    0  502 -0.16312451504E+03 -0.11815238350E+03  0.15518803298E+04  0.15648968500E+04  0.25500000920E-02 0.  1.
</event>
<event>
 5   0  0.9283910E-08  0.3291247E+04  0.7818609E-02  0.8165126E-01
        1   -1    0    0  501    0  0.00000000000E+00  0.00000000000E+00  0.22691881279E+04  0.22691881279E+04  0.50400001928E-02 0.  1.
       -1   -1    0    0    0  501  0.00000000000E+00  0.00000000000E+00 -0.11934121808E+04  0.11934121808E+04  0.50400001928E-02 0. -1.
    10030    2    1    2    0    0  0.00000000000E+00  0.00000000000E+00  0.10757759471E+04  0.34626003088E+04  0.32912470296E+04 0.  0.
        3    1    3    3  502    0  0.10958211417E+03  0.14172998707E+04 -0.33432873172E+03  0.14603160186E+04  0.10100000352E+00 0.  1.
       -3    1    3    3    0  502 -0.10958211417E+03 -0.14172998707E+04  0.14101046788E+04  0.20022842902E+04  0.10100000352E+00 0. -1.
</event>
<event>
 5   0  0.2703956E-07  0.3301180E+04  0.7818609E-02  0.8162595E-01
        2   -1    0    0  501    0  0.00000000000E+00  0.00000000000E+00  0.16307772961E+04  0.16307772961E+04  0.25500000920E-02 0.  1.
       -2   -1    0    0    0  501  0.00000000000E+00  0.00000000000E+00 -0.16706432428E+04  0.16706432428E+04  0.25500000920E-02 0. -1.
    10030    2    1    2    0    0  0.00000000000E+00  0.00000000000E+00 -0.39865946719E+02  0.33014205390E+04  0.33011798317E+04 0.  0.
        5    1    3    3  502    0  0.85741825340E+03  0.13900844993E+04 -0.25853788821E+03  0.16535915173E+04  0.46999998093E+01 0.  1.
       -5    1    3    3    0  502 -0.85741825340E+03 -0.13900844993E+04  0.21867194149E+03  0.16478290216E+04  0.46999998093E+01 0. -1.
</event>
<event>
 5   0  0.9283910E-08  0.3296033E+04  0.7818609E-02  0.8163906E-01
        1   -1    0    0  501    0  0.00000000000E+00  0.00000000000E+00  0.20062157299E+04  0.20062157299E+04  0.50400001928E-02 0. -1.
       -1   -1    0    0    0  501  0.00000000000E+00  0.00000000000E+00 -0.13537715442E+04  0.13537715442E+04  0.50400001928E-02 0.  1.
    10030    2    1    2    0    0  0.00000000000E+00  0.00000000000E+00  0.65244418570E+03  0.33599872741E+04  0.32960326252E+04 0.  0.
        3    1    3    3  502    0  0.15036071933E+04 -0.57417394347E+03  0.68728015336E+03  0.17501040908E+04  0.10100000352E+00 0. -1.
       -3    1    3    3    0  502 -0.15036071933E+04  0.57417394347E+03 -0.34835967661E+02  0.16098831833E+04  0.10100000352E+00 0.  1.
</event>
<event>
 5   0  0.2703956E-07  0.3299638E+04  0.7818609E-02  0.8162987E-01
       -2   -1    0    0    0  501  0.00000000000E+00  0.00000000000E+00  0.12053678282E+04  0.12053678282E+04  0.25500000920E-02 0. -1.
        2   -1    0    0  501    0  0.00000000000E+00  0.00000000000E+00 -0.22581513832E+04  0.22581513832E+04  0.25500000920E-02 0.  1.
    10030    2    1    2    0    0  0.00000000000E+00  0.00000000000E+00 -0.10527835550E+04  0.34635192114E+04  0.32996381793E+04 0.  0.
        5    1    3    3  502    0  0.24093062289E+03 -0.70546763522E+03 -0.20712741684E+04  0.22013475237E+04  0.46999998093E+01 0.  1.
       -5    1    3    3    0  502 -0.24093062289E+03  0.70546763522E+03  0.10184906135E+04  0.12621716877E+04  0.46999998093E+01 0. -1.
</event>
<event>
 5   0  0.9454010E-08  0.3304291E+04  0.7818609E-02  0.8161804E-01
        1   -1    0    0  501    0  0.00000000000E+00  0.00000000000E+00  0.10158631446E+04  0.10158631446E+04  0.50400001928E-02 0. -1.
       -1   -1    0    0    0  501  0.00000000000E+00  0.00000000000E+00 -0.26869605418E+04  0.26869605418E+04  0.50400001928E-02 0.  1.
    10030    2    1    2    0    0  0.00000000000E+00  0.00000000000E+00 -0.16710973972E+04  0.37028236865E+04  0.33042906564E+04 0.  0.
        2    1    3    3  502    0  0.13193481341E+04  0.83188302650E+03 -0.14461276604E+04  0.21269682835E+04  0.25500000920E-02 0.  1.
       -2    1    3    3    0  502 -0.13193481341E+04 -0.83188302650E+03 -0.22496973675E+03  0.15758554030E+04  0.25500000920E-02 0. -1.
</event>
<event>
 5   0  0.2824402E-07  0.3304944E+04  0.7818609E-02  0.8161639E-01
       -2   -1    0    0    0  501  0.00000000000E+00  0.00000000000E+00  0.10793368593E+04  0.10793368593E+04  0.25500000920E-02 0. -1.
        2   -1    0    0  501    0  0.00000000000E+00  0.00000000000E+00 -0.25299453550E+04  0.25299453550E+04  0.25500000920E-02 0.  1.
    10030    2    1    2    0    0  0.00000000000E+00  0.00000000000E+00 -0.14506084957E+04  0.36092822144E+04  0.33049437355E+04 0.  0.
        1    1    3    3  502    0  0.54795624715E+03  0.80800404874E+03 -0.21813199448E+04  0.23898291347E+04  0.50400001928E-02 0.  1.
       -1    1    3    3    0  502 -0.54795624715E+03 -0.80800404874E+03  0.73071144911E+03  0.12194530796E+04  0.50400001928E-02 0. -1.
</event>
<event>
 5   0  0.9454010E-08  0.3303859E+04  0.7818609E-02  0.8161914E-01
        1   -1    0    0  501    0  0.00000000000E+00  0.00000000000E+00  0.15652579475E+04  0.15652579475E+04  0.50400001928E-02 0.  1.
       -1   -1    0    0    0  501  0.00000000000E+00  0.00000000000E+00 -0.17434004788E+04  0.17434004788E+04  0.50400001928E-02 0. -1.
    10030    2    1    2    0    0  0.00000000000E+00  0.00000000000E+00 -0.17814253130E+03  0.33086584264E+04  0.33038592314E+04 0.  0.
        2    1    3    3  502    0 -0.12994468255E+04 -0.85933777765E+03  0.46113374539E+03  0.16247054501E+04  0.25500000920E-02 0.  1.
       -2    1    3    3    0  502  0.12994468255E+04  0.85933777765E+03 -0.63927627669E+03  0.16839529763E+04  0.25500000920E-02 0. -1.
</event>
<event>
 5   0  0.2713815E-07  0.3292040E+04  0.7818609E-02  0.8164924E-01
        2   -1    0    0  501    0  0.00000000000E+00  0.00000000000E+00  0.18712338088E+04  0.18712338088E+04  0.25500000920E-02 0. -1.
       -2   -1    0    0    0  501  0.00000000000E+00  0.00000000000E+00 -0.14479123833E+04  0.14479123833E+04  0.25500000920E-02 0.  1.
    10030    2    1    2    0    0  0.00000000000E+00  0.00000000000E+00  0.42332142553E+03  0.33191461921E+04  0.32920404638E+04 0.  0.
        4    1    3    3  502    0 -0.22837720577E+03  0.12533478842E+04  0.12625207738E+04  0.17935990031E+04  0.12699999809E+01 0.  1.
       -4    1    3    3    0  502  0.22837720577E+03 -0.12533478842E+04 -0.83919934824E+03  0.15255471890E+04  0.12699999809E+01 0. -1.
</event>
<event>
 5   0  0.8805125E-08  0.3299484E+04  0.7818609E-02  0.8163027E-01
       -1   -1    0    0    0  501  0.00000000000E+00  0.00000000000E+00  0.19623340715E+04  0.19623340715E+04  0.50400001928E-02 0. -1.
        1   -1    0    0  501    0  0.00000000000E+00  0.00000000000E+00 -0.13869445621E+04  0.13869445621E+04  0.50400001928E-02 0.  1.
    10030    2    1    2    0    0  0.00000000000E+00  0.00000000000E+00  0.57538950943E+03  0.33492786336E+04  0.32994839412E+04 0.  0.
        4    1    3    3  502    0  0.51003489816E+03  0.11449641216E+04  0.13765283281E+04  0.18616955412E+04  0.12699999809E+01 0. -1.
       -4    1    3    3    0  502 -0.51003489816E+03 -0.11449641216E+04 -0.80113881868E+03  0.14875830924E+04  0.12699999809E+01 0.  1.
</event>
<event>
 5   0  0.9454010E-08  0.3294198E+04  0.7818609E-02  0.8164373E-01
       -1   -1    0    0    0  501  0.00000000000E+00  0.00000000000E+00  0.34273417464E+04  0.34273417464E+04  0.50400001928E-02 0. -1.
        1   -1    0    0  501    0  0.00000000000E+00  0.00000000000E+00 -0.79155660276E+03  0.79155660278E+03  0.50400001928E-02 0.  1.
    10030    2    1    2    0    0  0.00000000000E+00  0.00000000000E+00  0.26357851437E+04  0.42188983492E+04  0.32941979232E+04 0.  0.
        2    1    3    3  502    0  0.43509797111E+03 -0.14762801791E+04  0.20692877744E+04  0.25788883855E+04  0.25500000920E-02 0. -1.
       -2    1    3    3    0  502 -0.43509797111E+03  0.14762801791E+04  0.56649736925E+03  0.16400099637E+04  0.25500000920E-02 0.  1.
</event>
<event>
 5   0  0.9810351E-08  0.3294835E+04  0.7818609E-02  0.8164211E-01
       -1   -1    0    0    0  501  0.00000000000E+00  0.00000000000E+00  0.11749586502E+04  0.11749586502E+04  0.50400001928E-02 0. -1.
        1   -1    0    0  501    0  0.00000000000E+00  0.00000000000E+00 -0.23098553970E+04  0.23098553970E+04  0.50400001928E-02 0.  1.
    10030    2    1    2    0    0  0.00000000000E+00  0.00000000000E+00 -0.11348967468E+04  0.34848140473E+04  0.32948350973E+04 0.  0.
        5    1    3    3  502    0  0.13690356093E+03  0.14740891036E+04 -0.13318086868E+04  0.19913356670E+04  0.46999998093E+01 0. -1.
       -5    1    3    3    0  502 -0.13690356093E+03 -0.14740891036E+04  0.19691193996E+03  0.14934783803E+04  0.46999998093E+01 0.  1.
</event>
<event>
 5   0  0.9454010E-08  0.3294099E+04  0.7818609E-02  0.8164399E-01
       -1   -1    0    0    0  501  0.00000000000E+00  0.00000000000E+00  0.24493766586E+04  0.24493766586E+04  0.50400001928E-02 0.  1.
        1   -1    0    0  501    0  0.00000000000E+00  0.00000000000E+00 -0.11075354845E+04  0.11075354845E+04  0.50400001928E-02 0. -1.
    10030    2    1    2    0    0  0.00000000000E+00  0.00000000000E+00  0.13418411741E+04  0.35569121431E+04  0.32940987018E+04 0.  0.
        2    1    3    3  502    0 -0.63566003446E+03 -0.44416922895E+03  0.22399244336E+04  0.23703610383E+04  0.25500000920E-02 0.  1.
       -2    1    3    3    0  502  0.63566003446E+03  0.44416922895E+03 -0.89808325955E+03  0.11865511049E+04  0.25500000920E-02 0. -1.
</event>
<event>
 5   0  0.9283910E-08  0.3295353E+04  0.7818609E-02  0.8164079E-01
       -1   -1    0    0    0  501  0.00000000000E+00  0.00000000000E+00  0.13644540593E+04  0.13644540593E+04  0.50400001928E-02 0. -1.
        1   -1    0    0  501    0  0.00000000000E+00  0.00000000000E+00 -0.19896885201E+04  0.19896885201E+04  0.50400001928E-02 0.  1.
    10030    2    1    2    0    0  0.00000000000E+00  0.00000000000E+00 -0.62523446078E+03  0.33541425794E+04  0.32953534427E+04 0.  0.
        3    1    3    3  502    0  0.31772100906E+03 -0.86326070874E+03 -0.17039985209E+04  0.19364340062E+04  0.10100000352E+00 0.  1.
       -3    1    3    3    0  502 -0.31772100906E+03  0.86326070874E+03  0.10787640601E+04  0.14177085732E+04  0.10100000352E+00 0. -1.
</event>
<event>
 5   0  0.9810351E-08  0.3307058E+04  0.7818609E-02  0.8161102E-01
       -1   -1    0    0    0  501  0.00000000000E+00  0.00000000000E+00  0.12867557215E+04  0.12867557215E+04  0.50400001928E-02 0.  1.
        1   -1    0    0  501    0  0.00000000000E+00  0.00000000000E+00 -0.21248467874E+04  0.21248467874E+04  0.50400001928E-02 0. -1.
    10030    2    1    2    0    0  0.00000000000E+00  0.00000000000E+00 -0.83809106590E+03  0.34116025088E+04  0.33070583671E+04 0.  0.
        5    1    3    3  502    0 -0.66563940945E+03 -0.13066808177E+04  0.36907266315E+03  0.15121928791E+04  0.46999998093E+01 0.  1.
       -5    1    3    3    0  502  0.66563940945E+03  0.13066808177E+04 -0.12071637290E+04  0.18994096297E+04  0.46999998093E+01 0. -1.
</event>
<event>
 5   0  0.9810351E-08  0.3293264E+04  0.7818609E-02  0.8164611E-01
        1   -1    0    0  501    0  0.00000000000E+00  0.00000000000E+00  0.22892594814E+04  0.22892594814E+04  0.50400001928E-02 0.  1.
       -1   -1    0    0    0  501  0.00000000000E+00  0.00000000000E+00 -0.11843993392E+04  0.11843993392E+04  0.50400001928E-02 0. -1.
    10030    2    1    2    0    0  0.00000000000E+00  0.00000000000E+00  0.11048601423E+04  0.34736588206E+04  0.32932642876E+04 0.  0.
        5    1    3    3  502    0  0.15830742635E+04 -0.32066331462E+03  0.21485824379E+03  0.16294585727E+04  0.46999998093E+01 0. -1.
       -5    1    3    3    0  502 -0.15830742635E+04  0.32066331462E+03  0.89000189847E+03  0.18442002479E+04  0.46999998093E+01 0.  1.
</event>
<event>
 5   0  0.9810351E-08  0.3304022E+04  0.7818609E-02  0.8161873E-01
       -1   -1    0    0    0  501  0.00000000000E+00  0.00000000000E+00  0.10948418628E+04  0.10948418628E+04  0.50400001928E-02 0.  1.
        1   -1    0    0  501    0  0.00000000000E+00  0.00000000000E+00 -0.24927249916E+04  0.24927249916E+04  0.50400001928E-02 0. -1.
    10030    2    1    2    0    0  0.00000000000E+00  0.00000000000E+00 -0.13978831288E+04  0.35875668545E+04  0.33040215940E+04 0.  0.
        5    1    3    3  502    0 -0.42718233929E+03  0.11650867842E+04  0.48515085811E+03  0.13324058732E+04  0.46999998093E+01 0.  1.
       -5    1    3    3    0  502  0.42718233929E+03 -0.11650867842E+04 -0.18830339869E+04  0.22551609813E+04  0.46999998093E+01 0. -1.
</event>
<event>
 5   0  0.2713815E-07  0.3307680E+04  0.7818609E-02  0.8160944E-01
       -2   -1    0    0    0  501  0.00000000000E+00  0.00000000000E+00  0.21867518432E+04  0.21867518432E+04  0.25500000920E-02 0. -1.
        2   -1    0    0  501    0  0.00000000000E+00  0.00000000000E+00 -0.12507990967E+04  0.12507990968E+04  0.25500000920E-02 0.  1.
    10030    2    1    2    0    0  0.00000000000E+00  0.00000000000E+00  0.93595274649E+03  0.34375509400E+04  0.33076802931E+04 0.  0.
        4    1    3    3  502    0  0.46761385265E+03  0.11069708045E+04 -0.71292068103E+03  0.13972489354E+04  0.12699999809E+01 0.  1.
       -4    1    3    3    0  502 -0.46761385265E+03 -0.11069708045E+04  0.16488734275E+04  0.20403020046E+04  0.12699999809E+01 0. -1.
</event>
<event>
 5   0  0.8805125E-08  0.3288969E+04  0.7818609E-02  0.8165708E-01
       -1   -1    0    0    0  501  0.00000000000E+00  0.00000000000E+00  0.15014516162E+04  0.15014516162E+04  0.50400001928E-02 0.  1.
        1   -1    0    0  501    0  0.00000000000E+00  0.00000000000E+00 -0.18011430513E+04  0.18011430514E+04  0.50400001928E-02 0. -1.
    10030    2    1    2    0    0  0.00000000000E+00  0.00000000000E+00 -0.29969143518E+03  0.33025946675E+04  0.32889689238E+04 0.  0.
        4    1    3    3  502    0  0.14688912785E+04 -0.70137183447E+03  0.85139791365E+02  0.16299737529E+04  0.12699999809E+01 0. -1.
       -4    1    3    3    0  502 -0.14688912785E+04  0.70137183447E+03 -0.38483122655E+03  0.16726209146E+04  0.12699999809E+01 0.  1.
</event>
<event>
 5   0  0.2875829E-07  0.3299346E+04  0.7818609E-02  0.8163062E-01
       -2   -1    0    0    0  501  0.00000000000E+00  0.00000000000E+00  0.13312024683E+04  0.13312024683E+04  0.25500000920E-02 0.  1.
        2   -1    0    0  501    0  0.00000000000E+00  0.00000000000E+00 -0.20443330834E+04  0.20443330834E+04  0.25500000920E-02 0. -1.
    10030    2    1    2    0    0  0.00000000000E+00  0.00000000000E+00 -0.71313061514E+03  0.33755355517E+04  0.32993461453E+04 0.  0.
        3    1    3    3  502    0 -0.10218238315E+04 -0.10841341497E+04 -0.10814104362E+04  0.18409017733E+04  0.10100000352E+00 0. -1.
       -3    1    3    3    0  502  0.10218238315E+04  0.10841341497E+04  0.36827982111E+03  0.15346337784E+04  0.10100000352E+00 0.  1.
</event>
<event>
 5   0  0.2824402E-07  0.3301926E+04  0.7818609E-02  0.8162406E-01
        2   -1    0    0  501    0  0.00000000000E+00  0.00000000000E+00  0.28790030581E+04  0.28790030581E+04  0.25500000920E-02 0. -1.
       -2   -1    0    0    0  501  0.00000000000E+00  0.00000000000E+00 -0.94674393809E+03  0.94674393809E+03  0.25500000920E-02 0.  1.
    10030    2    1    2    0    0  0.00000000000E+00  0.00000000000E+00  0.19322591200E+04  0.38257469962E+04  0.33019259186E+04 0.  0.
        1    1    3    3  502    0 -0.49036635512E+03 -0.13187537151E+04  0.19669353710E+04  0.24183476336E+04  0.50400001928E-02 0. -1.
       -1    1    3    3    0  502  0.49036635512E+03  0.13187537151E+04 -0.34676250994E+02  0.14073993626E+04  0.50400001928E-02 0.  1.
</event>
<event>
 5   0  0.8805125E-08  0.3269739E+04  0.7818609E-02  0.8170638E-01
        1   -1    0    0  501    0  0.00000000000E+00  0.00000000000E+00  0.18480408210E+04  0.18480408210E+04  0.50400001928E-02 0. -1.
       -1   -1    0    0    0  501  0.00000000000E+00  0.00000000000E+00 -0.14462874730E+04  0.14462874730E+04  0.50400001928E-02 0.  1.
    10030    2    1    2    0    0  0.00000000000E+00  0.00000000000E+00  0.40175334792E+03  0.32943282940E+04  0.32697390043E+04 0.  0.
        4    1    3    3  502    0 -0.11798121538E+04 -0.51615573795E+03  0.12156367619E+04  0.17709172239E+04  0.12699999809E+01 0. -1.
       -4    1    3    3    0  502  0.11798121538E+04  0.51615573795E+03 -0.81388341395E+03  0.15234110701E+04  0.12699999809E+01 0.  1.
</event>
<event>
 5   0  0.2824402E-07  0.3296405E+04  0.7818609E-02  0.8163811E-01
        2   -1    0    0  501    0  0.00000000000E+00  0.00000000000E+00  0.14434237982E+04  0.14434237982E+04  0.25500000920E-02 0. -1.
       -2   -1    0    0    0  501  0.00000000000E+00  0.00000000000E+00 -0.18820336527E+04  0.18820336527E+04  0.25500000920E-02 0.  1.
    10030    2    1    2    0    0  0.00000000000E+00  0.00000000000E+00 -0.43860985445E+03  0.33254574509E+04  0.32964054140E+04 0.  0.
        1    1    3    3  502    0  0.32076614137E+03  0.14775399359E+04  0.44264645849E+03  0.15754209174E+04  0.50400001928E-02 0. -1.
       -1    1    3    3    0  502 -0.32076614137E+03 -0.14775399359E+04 -0.88125631295E+03  0.17500365335E+04  0.50400001928E-02 0.  1.
</event>
<event>
 5   0  0.2875829E-07  0.3295439E+04  0.7818609E-02  0.8164057E-01
        2   -1    0    0  501    0  0.00000000000E+00  0.00000000000E+00  0.18486827467E+04  0.18486827467E+04  0.25500000920E-02 0. -1.
       -2   -1    0    0    0  501  0.00000000000E+00  0.00000000000E+00 -0.14686021148E+04  0.14686021148E+04  0.25500000920E-02 0.  1.
    10030    2    1    2    0    0  0.00000000000E+00  0.00000000000E+00  0.38008063191E+03  0.33172848616E+04  0.32954389034E+04 0.  0.
        3    1    3    3  502    0  0.13597639681E+04  0.92043958342E+03  0.32810751565E+03  0.16744615934E+04  0.10100000352E+00 0. -1.
       -3    1    3    3    0  502 -0.13597639681E+04 -0.92043958342E+03  0.51973116254E+02  0.16428232682E+04  0.10100000352E+00 0.  1.
</event>
<event>
 5   0  0.9454010E-08  0.3301432E+04  0.7818609E-02  0.8162531E-01
       -1   -1    0    0    0  501  0.00000000000E+00  0.00000000000E+00  0.23578274887E+04  0.23578274888E+04  0.50400001928E-02 0. -1.
        1   -1    0    0  501    0  0.00000000000E+00  0.00000000000E+00 -0.11556667704E+04  0.11556667704E+04  0.50400001928E-02 0.  1.
    10030    2    1    2    0    0  0.00000000000E+00  0.00000000000E+00  0.12021607184E+04  0.35134942591E+04  0.33014317373E+04 0.  0.
        2    1    3    3  502    0  0.14556997413E+03 -0.63939689976E+03  0.22132602426E+04  0.23083630378E+04  0.25500000920E-02 0. -1.
       -2    1    3    3    0  502 -0.14556997413E+03  0.63939689976E+03 -0.10110995242E+04  0.12051312213E+04  0.25500000920E-02 0.  1.
</event>
<event>
 5   0  0.2875829E-07  0.3303807E+04  0.7818609E-02  0.8161927E-01
       -2   -1    0    0    0  501  0.00000000000E+00  0.00000000000E+00  0.12291784440E+04  0.12291784440E+04  0.25500000920E-02 0. -1.
        2   -1    0    0  501    0  0.00000000000E+00  0.00000000000E+00 -0.22200071175E+04  0.22200071175E+04  0.25500000920E-02 0.  1.
    10030    2    1    2    0    0  0.00000000000E+00  0.00000000000E+00 -0.99082867350E+03  0.34491855616E+04  0.33038068312E+04 0.  0.
        3    1    3    3  502    0 -0.11370417216E+04  0.32202837833E+03  0.70959297025E+03  0.13784369216E+04  0.10100000352E+00 0. -1.
       -3    1    3    3    0  502  0.11370417216E+04 -0.32202837833E+03 -0.17004216437E+04  0.20707486400E+04  0.10100000352E+00 0.  1.
</event>
<event>
 5   0  0.9181760E-08  0.3298611E+04  0.7818609E-02  0.8163249E-01
        1   -1    0    0  501    0  0.00000000000E+00  0.00000000000E+00  0.13386782322E+04  0.13386782322E+04  0.50400001928E-02 0. -1.
       -1   -1    0    0    0  501  0.00000000000E+00  0.00000000000E+00 -0.20320102979E+04  0.20320102980E+04  0.50400001928E-02 0.  1.
    10030    2    1    2    0    0  0.00000000000E+00  0.00000000000E+00 -0.69333206579E+03  0.33706885301E+04  0.32986105884E+04 0.  0.
        1    1    3    3  502    0  0.69772254270E+03  0.11067361948E+04 -0.13728640412E+04  0.18964275433E+04  0.50400001928E-02 0.  1.
       -1    1    3    3    0  502 -0.69772254270E+03 -0.11067361948E+04  0.67953197537E+03  0.14742609868E+04  0.50400001928E-02 0. -1.
</event>
<event>
 5   0  0.9454010E-08  0.3296045E+04  0.7818609E-02  0.8163902E-01
        1   -1    0    0  501    0  0.00000000000E+00  0.00000000000E+00  0.19827348188E+04  0.19827348188E+04  0.50400001928E-02 0.  1.
       -1   -1    0    0    0  501  0.00000000000E+00  0.00000000000E+00 -0.13698142517E+04  0.13698142517E+04  0.50400001928E-02 0. -1.
    10030    2    1    2    0    0  0.00000000000E+00  0.00000000000E+00  0.61292056708E+03  0.33525490704E+04  0.32960451526E+04 0.  0.
        2    1    3    3  502    0 -0.25532245663E+03 -0.10772181778E+04  0.15482038919E+04  0.19032928967E+04  0.25500000920E-02 0.  1.
       -2    1    3    3    0  502  0.25532245663E+03  0.10772181778E+04 -0.93528332486E+03  0.14492561738E+04  0.25500000920E-02 0. -1.
</event>
<event>
 5   0  0.9181760E-08  0.3298326E+04  0.7818609E-02  0.8163321E-01
       -1   -1    0    0    0  501  0.00000000000E+00  0.00000000000E+00  0.26735893458E+04  0.26735893458E+04  0.50400001928E-02 0. -1.
        1   -1    0    0  501    0  0.00000000000E+00  0.00000000000E+00 -0.10172612667E+04  0.10172612667E+04  0.50400001928E-02 0.  1.
    10030    2    1    2    0    0  0.00000000000E+00  0.00000000000E+00  0.16563280791E+04  0.36908506125E+04  0.32983261721E+04 0.  0.
        1    1    3    3  502    0  0.99555824914E+02  0.54924168457E+03 -0.90833934612E+03  0.10661417158E+04  0.50400001928E-02 0.  1.
       -1    1    3    3    0  502 -0.99555824914E+02 -0.54924168457E+03  0.25646674252E+04  0.26247088967E+04  0.50400001928E-02 0. -1.
</event>
<event>
 5   0  0.2824402E-07  0.3305154E+04  0.7818609E-02  0.8161585E-01
       -2   -1    0    0    0  501  0.00000000000E+00  0.00000000000E+00  0.11637922717E+04  0.11637922717E+04  0.25500000920E-02 0.  1.
        2   -1    0    0  501    0  0.00000000000E+00  0.00000000000E+00 -0.23466476967E+04  0.23466476967E+04  0.25500000920E-02 0. -1.
    10030    2    1    2    0    0  0.00000000000E+00  0.00000000000E+00 -0.11828554250E+04  0.35104399685E+04  0.33051538263E+04 0.  0.
        1    1    3    3  502    0  0.80066993829E+03  0.10368230763E+04 -0.16614410841E+04  0.21157648540E+04  0.50400001928E-02 0. -1.
       -1    1    3    3    0  502 -0.80066993829E+03 -0.10368230763E+04  0.47858565911E+03  0.13946751144E+04  0.50400001928E-02 0.  1.
</event>
<event>
 5   0  0.9181760E-08  0.3295415E+04  0.7818609E-02  0.8164063E-01
       -1   -1    0    0    0  501  0.00000000000E+00  0.00000000000E+00  0.16104078979E+04  0.16104078979E+04  0.50400001928E-02 0.  1.
        1   -1    0    0  501    0  0.00000000000E+00  0.00000000000E+00 -0.16858712389E+04  0.16858712389E+04  0.50400001928E-02 0. -1.
    10030    2    1    2    0    0  0.00000000000E+00  0.00000000000E+00 -0.75463340968E+02  0.32962791368E+04  0.32954152139E+04 0.  0.
        1    1    3    3  502    0  0.26981923236E+03  0.11919240218E+04 -0.11432159902E+04  0.16734479651E+04  0.50400001928E-02 0.  1.
       -1    1    3    3    0  502 -0.26981923236E+03 -0.11919240218E+04  0.10677526492E+04  0.16228311717E+04  0.50400001928E-02 0. -1.
</event>
<event>
 5   0  0.8805125E-08  0.3300394E+04  0.7818609E-02  0.8162795E-01
        1   -1    0    0  501    0  0.00000000000E+00  0.00000000000E+00  0.15310558106E+04  0.15310558106E+04  0.50400001928E-02 0.  1.
       -1   -1    0    0    0  501  0.00000000000E+00  0.00000000000E+00 -0.17786088087E+04  0.17786088087E+04  0.50400001928E-02 0. -1.
    10030    2    1    2    0    0  0.00000000000E+00  0.00000000000E+00 -0.24755299806E+03  0.33096646193E+04  0.33003935228E+04 0.  0.
        4    1    3    3  502    0  0.13204727572E+03 -0.11211250080E+04 -0.13308145936E+04  0.17451151429E+04  0.12699999809E+01 0. -1.
       -4    1    3    3    0  502 -0.13204727572E+03  0.11211250080E+04  0.10832615956E+04  0.15645494763E+04  0.12699999809E+01 0.  1.
</event>
<event>
 5   0  0.2727168E-07  0.3301382E+04  0.7818609E-02  0.8162544E-01
       -2   -1    0    0    0  501  0.00000000000E+00  0.00000000000E+00  0.18804810815E+04  0.18804810815E+04  0.25500000920E-02 0. -1.
        2   -1    0    0  501    0  0.00000000000E+00  0.00000000000E+00 -0.14489807607E+04  0.14489807607E+04  0.25500000920E-02 0.  1.
    10030    2    1    2    0    0  0.00000000000E+00  0.00000000000E+00  0.43150032077E+03  0.33294618422E+04  0.33013820790E+04 0.  0.
        2    1    3    3  502    0 -0.15357021433E+04  0.26445169794E+03 -0.33336706238E+03  0.15935649883E+04  0.25500000920E-02 0. -1.
       -2    1    3    3    0  502  0.15357021433E+04 -0.26445169794E+03  0.76486738315E+03  0.17358968539E+04  0.25500000920E-02 0.  1.
</event>
<event>
 5   0  0.2727168E-07  0.3298343E+04  0.7818609E-02  0.8163317E-01
        2   -1    0    0  501    0  0.00000000000E+00  0.00000000000E+00  0.18456577867E+04  0.18456577867E+04  0.25500000920E-02 0.  1.
       -2   -1    0    0    0  501  0.00000000000E+00  0.00000000000E+00 -0.14736025950E+04  0.14736025950E+04  0.25500000920E-02 0. -1.
    10030    2    1    2    0    0  0.00000000000E+00  0.00000000000E+00  0.37205519173E+03  0.33192603817E+04  0.32983426771E+04 0.  0.
        2    1    3    3  502    0  0.10930201761E+04  0.63302922259E+03  0.12531045273E+04  0.17792386176E+04  0.25500000920E-02 0.  1.
       -2    1    3    3    0  502 -0.10930201761E+04 -0.63302922259E+03 -0.88104933555E+03  0.15400217641E+04  0.25500000920E-02 0. -1.
</event>
<event>
 5   0  0.9454010E-08  0.3295656E+04  0.7818609E-02  0.8164001E-01
       -1   -1    0    0    0  501  0.00000000000E+00  0.00000000000E+00  0.12103753359E+04  0.12103753359E+04  0.50400001928E-02 0.  1.
        1   -1    0    0  501    0  0.00000000000E+00  0.00000000000E+00 -0.22433849115E+04  0.22433849116E+04  0.50400001928E-02 0. -1.
    10030    2    1    2    0    0  0.00000000000E+00  0.00000000000E+00 -0.10330095757E+04  0.34537602474E+04  0.32956563934E+04 0.  0.
        2    1    3    3  502    0  0.97929951411E+03 -0.13091480448E+04 -0.73240161490E+03  0.17914542324E+04  0.25500000920E-02 0.  1.
       -2    1    3    3    0  502 -0.97929951411E+03  0.13091480448E+04 -0.30060796078E+03  0.16623060150E+04  0.25500000920E-02 0. -1.
</event>
<event>
 5   0  0.2824402E-07  0.3301636E+04  0.7818609E-02  0.8162479E-01
       -2   -1    0    0    0  501  0.00000000000E+00  0.00000000000E+00  0.17076070212E+04  0.17076070212E+04  0.25500000920E-02 0.  1.
        2   -1    0    0  501    0  0.00000000000E+00  0.00000000000E+00 -0.15959171939E+04  0.15959171939E+04  0.25500000920E-02 0. -1.
    10030    2    1    2    0    0  0.00000000000E+00  0.00000000000E+00  0.11168982731E+03  0.33035242151E+04  0.33016355981E+04 0.  0.
        1    1    3    3  502    0  0.40067477634E+02 -0.15612848430E+04 -0.47923537445E+03  0.16336714198E+04  0.50400001928E-02 0. -1.
       -1    1    3    3    0  502 -0.40067477634E+02  0.15612848430E+04  0.59092520176E+03  0.16698527953E+04  0.50400001928E-02 0.  1.
</event>
<event>
 5   0  0.9283910E-08  0.3312082E+04  0.7818609E-02  0.8159828E-01
       -1   -1    0    0    0  501  0.00000000000E+00  0.00000000000E+00  0.15063655278E+04  0.15063655278E+04  0.50400001928E-02 0. -1.
        1   -1    0    0  501    0  0.00000000000E+00  0.00000000000E+00 -0.18205888488E+04  0.18205888488E+04  0.50400001928E-02 0.  1.
    10030    2    1    2    0    0  0.00000000000E+00  0.00000000000E+00 -0.31422332096E+03  0.33269543766E+04  0.33120822950E+04 0.  0.
        3    1    3    3  502    0 -0.15266664859E+04 -0.41020302733E+03  0.33855638132E+03  0.16166624621E+04  0.10100000352E+00 0. -1.
       -3    1    3    3    0  502  0.15266664859E+04  0.41020302733E+03 -0.65277970229E+03  0.17102919145E+04  0.10100000352E+00 0.  1.
</event>
<event>
 5   0  0.2713815E-07  0.3302607E+04  0.7818609E-02  0.8162232E-01
       -2   -1    0    0    0  501  0.00000000000E+00  0.00000000000E+00  0.15530836259E+04  0.15530836259E+04  0.25500000920E-02 0. -1.
        2   -1    0    0  501    0  0.00000000000E+00  0.00000000000E+00 -0.17557345813E+04  0.17557345813E+04  0.25500000920E-02 0.  1.
    10030    2    1    2    0    0  0.00000000000E+00  0.00000000000E+00 -0.20265095540E+03  0.33088182073E+04  0.33026066250E+04 0.  0.
        4    1    3    3  502    0  0.98722006214E+03  0.12907112122E+04  0.19293108262E+03  0.16363871486E+04  0.12699999809E+01 0.  1.
       -4    1    3    3    0  502 -0.98722006214E+03 -0.12907112122E+04 -0.39558203802E+03  0.16724310587E+04  0.12699999809E+01 0. -1.
</event>
<event>
 5   0  0.2703956E-07  0.3298493E+04  0.7818609E-02  0.8163279E-01
       -2   -1    0    0    0  501  0.00000000000E+00  0.00000000000E+00  0.17704170008E+04  0.17704170008E+04  0.25500000920E-02 0. -1.
        2   -1    0    0  501    0  0.00000000000E+00  0.00000000000E+00 -0.15363695551E+04  0.15363695551E+04  0.25500000920E-02 0.  1.
    10030    2    1    2    0    0  0.00000000000E+00  0.00000000000E+00  0.23404744571E+03  0.33067865560E+04  0.32984934622E+04 0.  0.
        5    1    3    3  502    0  0.84262051064E+03  0.98895309434E+03  0.11354297137E+04  0.17254739269E+04  0.46999998093E+01 0. -1.
       -5    1    3    3    0  502 -0.84262051064E+03 -0.98895309434E+03 -0.90138226800E+03  0.15813126291E+04  0.46999998093E+01 0.  1.
</event>
<event>
 5   0  0.2875829E-07  0.3301509E+04  0.7818609E-02  0.8162512E-01
        2   -1    0    0  501    0  0.00000000000E+00  0.00000000000E+00  0.98769510571E+03  0.98769510571E+03  0.25500000920E-02 0.  1.
       -2   -1    0    0    0  501  0.00000000000E+00  0.00000000000E+00 -0.27589383030E+04  0.27589383030E+04  0.25500000920E-02 0. -1.
    10030    2    1    2    0    0  0.00000000000E+00  0.00000000000E+00 -0.17712431972E+04  0.37466334087E+04  0.33015086605E+04 0.  0.
        3    1    3    3  502    0  0.31894978199E+03  0.30548872035E+03 -0.26906484179E+04  0.27266538542E+04  0.10100000352E+00 0. -1.
       -3    1    3    3    0  502 -0.31894978199E+03 -0.30548872035E+03  0.91940522062E+03  0.10199795545E+04  0.10100000352E+00 0.  1.
</event>
<event>
 5   0  0.9181760E-08  0.3297735E+04  0.7818609E-02  0.8163472E-01
        1   -1    0    0  501    0  0.00000000000E+00  0.00000000000E+00  0.17939273785E+04  0.17939273785E+04  0.50400001928E-02 0.  1.
       -1   -1    0    0    0  501  0.00000000000E+00  0.00000000000E+00 -0.15155377331E+04  0.15155377331E+04  0.50400001928E-02 0. -1.
    10030    2    1    2    0    0  0.00000000000E+00  0.00000000000E+00  0.27838964535E+03  0.33094651116E+04  0.32977353639E+04 0.  0.
        1    1    3    3  502    0  0.79226442906E+03 -0.14400458953E+04  0.27138093202E+03  0.16658519491E+04  0.50400001928E-02 0.  1.
       -1    1    3    3    0  502 -0.79226442906E+03  0.14400458953E+04  0.70087133259E+01  0.16436131625E+04  0.50400001928E-02 0. -1.
</event>
<event>
 5   0  0.9454010E-08  0.3293042E+04  0.7818609E-02  0.8164668E-01
        1   -1    0    0  501    0  0.00000000000E+00  0.00000000000E+00  0.17118696461E+04  0.17118696461E+04  0.50400001928E-02 0. -1.
       -1   -1    0    0    0  501  0.00000000000E+00  0.00000000000E+00 -0.15836669475E+04  0.15836669475E+04  0.50400001928E-02 0.  1.
    10030    2    1    2    0    0  0.00000000000E+00  0.00000000000E+00  0.12820269864E+03  0.32955365936E+04  0.32930419839E+04 0.  0.
        2    1    3    3  502    0 -0.28975030398E+02 -0.18407988341E+03 -0.15730800008E+04  0.15840788000E+04  0.25500000920E-02 0.  1.
       -2    1    3    3    0  502  0.28975030398E+02  0.18407988341E+03  0.17012826994E+04  0.17114577936E+04  0.25500000920E-02 0. -1.
</event>
<event>
 5   0  0.9454010E-08  0.3299747E+04  0.7818609E-02  0.8162960E-01
        1   -1    0    0  501    0  0.00000000000E+00  0.00000000000E+00  0.18602260542E+04  0.18602260542E+04  0.50400001928E-02 0.  1.
       -1   -1    0    0    0  501  0.00000000000E+00  0.00000000000E+00 -0.14633072860E+04  0.14633072860E+04  0.50400001928E-02 0. -1.
    10030    2    1    2    0    0  0.00000000000E+00  0.00000000000E+00  0.39691876821E+03  0.33235333402E+04  0.32997468622E+04 0.  0.
        2    1    3    3  502    0  0.11412569384E+04 -0.11863388799E+04  0.30977758295E+03  0.16750610402E+04  0.25500000920E-02 0.  1.
       -2    1    3    3    0  502 -0.11412569384E+04  0.11863388799E+04  0.87141185267E+02  0.16484723000E+04  0.25500000920E-02 0. -1.
</event>
<event>
 5   0  0.2727168E-07  0.3302224E+04  0.7818609E-02  0.8162330E-01
        2   -1    0    0  501    0  0.00000000000E+00  0.00000000000E+00  0.17775227440E+04  0.17775227440E+04  0.25500000920E-02 0. -1.
       -2   -1    0    0    0  501  0.00000000000E+00  0.00000000000E+00 -0.15336906631E+04  0.15336906631E+04  0.25500000920E-02 0.  1.
    10030    2    1    2    0    0  0.00000000000E+00  0.00000000000E+00  0.24383208096E+03  0.33112134071E+04  0.33022235151E+04 0.  0.
        2    1    3    3  502    0  0.57546957249E+03  0.15278034369E+04  0.36920751598E+03  0.16738168240E+04  0.25500000920E-02 0. -1.
       -2    1    3    3    0  502 -0.57546957249E+03 -0.15278034369E+04 -0.12537543503E+03  0.16373965831E+04  0.25500000920E-02 0.  1.
</event>
<event>
 5   0  0.2713815E-07  0.3300990E+04  0.7818609E-02  0.8162643E-01
        2   -1    0    0  501    0  0.00000000000E+00  0.00000000000E+00  0.13123340239E+04  0.13123340239E+04  0.25500000920E-02 0. -1.
       -2   -1    0    0    0  501  0.00000000000E+00  0.00000000000E+00 -0.20757933178E+04  0.20757933178E+04  0.25500000920E-02 0.  1.
    10030    2    1    2    0    0  0.00000000000E+00  0.00000000000E+00 -0.76345929398E+03  0.33881273417E+04  0.33009902742E+04 0.  0.
        4    1    3    3  502    0  0.13963677595E+04 -0.69069800576E+03  0.17784602777E+03  0.15679724097E+04  0.12699999809E+01 0.  1.
       -4    1    3    3    0  502 -0.13963677595E+04  0.69069800576E+03 -0.94130532175E+03  0.18201549320E+04  0.12699999809E+01 0. -1.
</event>
<event>
 5   0  0.2703956E-07  0.3303205E+04  0.7818609E-02  0.8162080E-01
       -2   -1    0    0    0  501  0.00000000000E+00  0.00000000000E+00  0.14516652564E+04  0.14516652564E+04  0.25500000920E-02 0. -1.
        2   -1    0    0  501    0  0.00000000000E+00  0.00000000000E+00 -0.18790772335E+04  0.18790772335E+04  0.25500000920E-02 0.  1.
    10030    2    1    2    0    0  0.00000000000E+00  0.00000000000E+00 -0.42741197719E+03  0.33307424899E+04  0.33032051913E+04 0.  0.
        5    1    3    3  502    0 -0.77208249238E+03 -0.11147276270E+04 -0.11644555906E+04  0.17873746026E+04  0.46999998093E+01 0.  1.
       -5    1    3    3    0  502  0.77208249238E+03  0.11147276270E+04  0.73704361346E+03  0.15433678873E+04  0.46999998093E+01 0. -1.
</event>
<event>
 5   0  0.9181760E-08  0.3291962E+04  0.7818609E-02  0.8164944E-01
       -1   -1    0    0    0  501  0.00000000000E+00  0.00000000000E+00  0.32259110360E+04  0.32259110360E+04  0.50400001928E-02 0. -1.
        1   -1    0    0  501    0  0.00000000000E+00  0.00000000000E+00 -0.83984140589E+03  0.83984140590E+03  0.50400001928E-02 0.  1.
    10030    2    1    2    0    0  0.00000000000E+00  0.00000000000E+00  0.23860696302E+04  0.40657524419E+04  0.32919621260E+04 0.  0.
        1    1    3    3  502    0 -0.52849599292E+03 -0.15217210621E+04  0.77546465387E+03  0.17878166670E+04  0.50400001928E-02 0.  1.
       -1    1    3    3    0  502  0.52849599292E+03  0.15217210621E+04  0.16106049763E+04  0.22779357750E+04  0.50400001928E-02 0. -1.
</event>
<event>
 5   0  0.8805125E-08  0.3290031E+04  0.7818609E-02  0.8165437E-01
       -1   -1    0    0    0  501  0.00000000000E+00  0.00000000000E+00  0.10851006632E+04  0.10851006632E+04  0.50400001928E-02 0. -1.
        1   -1    0    0  501    0  0.00000000000E+00  0.00000000000E+00 -0.24938474977E+04  0.24938474977E+04  0.50400001928E-02 0.  1.
    10030    2    1    2    0    0  0.00000000000E+00  0.00000000000E+00 -0.14087468345E+04  0.35789481610E+04  0.32900307438E+04 0.  0.
        4    1    3    3  502    0 -0.13268931678E+04  0.92759609079E+03 -0.10215123212E+04  0.19143064075E+04  0.12699999809E+01 0. -1.
       -4    1    3    3    0  502  0.13268931678E+04 -0.92759609079E+03 -0.38723451325E+03  0.16646417535E+04  0.12699999809E+01 0.  1.
</event>
<event>
 5   0  0.2727168E-07  0.3299679E+04  0.7818609E-02  0.8162977E-01
       -2   -1    0    0    0  501  0.00000000000E+00  0.00000000000E+00  0.18402064613E+04  0.18402064613E+04  0.25500000920E-02 0.  1.
        2   -1    0    0  501    0  0.00000000000E+00  0.00000000000E+00 -0.14791655027E+04  0.14791655027E+04  0.25500000920E-02 0. -1.
    10030    2    1    2    0    0  0.00000000000E+00  0.00000000000E+00  0.36104095861E+03  0.33193719640E+04  0.32996787209E+04 0.  0.
        2    1    3    3  502    0 -0.30174886044E+02 -0.90769504751E+02  0.18374146799E+04  0.18399028052E+04  0.25500000920E-02 0.  1.
       -2    1    3    3    0  502  0.30174886044E+02  0.90769504751E+02 -0.14763737213E+04  0.14794691588E+04  0.25500000920E-02 0. -1.
</event>
<event>
 5   0  0.2824402E-07  0.3301780E+04  0.7818609E-02  0.8162443E-01
        2   -1    0    0  501    0  0.00000000000E+00  0.00000000000E+00  0.21256155286E+04  0.21256155286E+04  0.25500000920E-02 0. -1.
       -2   -1    0    0    0  501  0.00000000000E+00  0.00000000000E+00 -0.12821872779E+04  0.12821872779E+04  0.25500000920E-02 0.  1.
    10030    2    1    2    0    0  0.00000000000E+00  0.00000000000E+00  0.84342825071E+03  0.34078028065E+04  0.33017796344E+04 0.  0.
        1    1    3    3  502    0 -0.26745410883E+02  0.23985426460E+03  0.21073101398E+04  0.21210849607E+04  0.50400001928E-02 0. -1.
       -1    1    3    3    0  502  0.26745410883E+02 -0.23985426460E+03 -0.12638818891E+04  0.12867178458E+04  0.50400001928E-02 0.  1.
</event>
<event>
 5   0  0.2824402E-07  0.3302375E+04  0.7818609E-02  0.8162291E-01
       -2   -1    0    0    0  501  0.00000000000E+00  0.00000000000E+00  0.15034121754E+04  0.15034121754E+04  0.25500000920E-02 0.  1.
        2   -1    0    0  501    0  0.00000000000E+00  0.00000000000E+00 -0.18134882653E+04  0.18134882653E+04  0.25500000920E-02 0. -1.
    10030    2    1    2    0    0  0.00000000000E+00  0.00000000000E+00 -0.31007608987E+03  0.33169004407E+04  0.33023751077E+04 0.  0.
        1    1    3    3  502    0  0.75171979351E+03 -0.64678840904E+03 -0.14810731818E+04  0.17824128769E+04  0.50400001928E-02 0. -1.
       -1    1    3    3    0  502 -0.75171979351E+03  0.64678840904E+03  0.11709970919E+04  0.15344875638E+04  0.50400001928E-02 0.  1.
</event>
<event>
 5   0  0.9454010E-08  0.3302917E+04  0.7818609E-02  0.8162154E-01
        1   -1    0    0  501    0  0.00000000000E+00  0.00000000000E+00  0.21223828055E+04  0.21223828055E+04  0.50400001928E-02 0. -1.
       -1   -1    0    0    0  501  0.00000000000E+00  0.00000000000E+00 -0.12850247363E+04  0.12850247363E+04  0.50400001928E-02 0.  1.
    10030    2    1    2    0    0  0.00000000000E+00  0.00000000000E+00  0.83735806913E+03  0.34074075418E+04  0.33029165324E+04 0.  0.
        2    1    3    3  502    0  0.72179573373E+03  0.10795042600E+04  0.14712490305E+04  0.19623690373E+04  0.25500000920E-02 0. -1.
       -2    1    3    3    0  502 -0.72179573373E+03 -0.10795042600E+04 -0.63389096141E+03  0.14450385045E+04  0.25500000920E-02 0.  1.
</event>
<event>
 5   0  0.2703956E-07  0.3302360E+04  0.7818609E-02  0.8162295E-01
       -2   -1    0    0    0  501  0.00000000000E+00  0.00000000000E+00  0.14314841558E+04  0.14314841558E+04  0.25500000920E-02 0. -1.
        2   -1    0    0  501    0  0.00000000000E+00  0.00000000000E+00 -0.19045933354E+04  0.19045933354E+04  0.25500000920E-02 0.  1.
    10030    2    1    2    0    0  0.00000000000E+00  0.00000000000E+00 -0.47310917962E+03  0.33360774912E+04  0.33023598731E+04 0.  0.
        5    1    3    3  502    0  0.10158608951E+04 -0.11842242494E+04 -0.78245393432E+03  0.17454560093E+04  0.46999998093E+01 0.  1.
       -5    1    3    3    0  502 -0.10158608951E+04  0.11842242494E+04  0.30934475470E+03  0.15906214818E+04  0.46999998093E+01 0. -1.
</event>
<event>
 5   0  0.8805125E-08  0.3303053E+04  0.7818609E-02  0.8162119E-01
        1   -1    0    0  501    0  0.00000000000E+00  0.00000000000E+00  0.24680148152E+04  0.24680148152E+04  0.50400001928E-02 0.  1.
       -1   -1    0    0    0  501  0.00000000000E+00  0.00000000000E+00 -0.11051550515E+04  0.11051550515E+04  0.50400001928E-02 0. -1.
    10030    2    1    2    0    0  0.00000000000E+00  0.00000000000E+00  0.13628597637E+04  0.35731698668E+04  0.33030525520E+04 0.  0.
        4    1    3    3  502    0  0.84801963890E+03 -0.55169215769E+03 -0.73070944281E+03  0.12479741374E+04  0.12699999809E+01 0. -1.
       -4    1    3    3    0  502 -0.84801963890E+03  0.55169215769E+03  0.20935692065E+04  0.23251957294E+04  0.12699999809E+01 0.  1.
</event>
<event>
 5   0  0.9181760E-08  0.3284509E+04  0.7818609E-02  0.8166848E-01
       -1   -1    0    0    0  501  0.00000000000E+00  0.00000000000E+00  0.21982381960E+04  0.21982381960E+04  0.50400001928E-02 0.  1.
        1   -1    0    0  501    0  0.00000000000E+00  0.00000000000E+00 -0.12268918342E+04  0.12268918342E+04  0.50400001928E-02 0. -1.
    10030    2    1    2    0    0  0.00000000000E+00  0.00000000000E+00  0.97134636182E+03  0.34251300302E+04  0.32845093955E+04 0.  0.
        1    1    3    3  502    0  0.81111696342E+03 -0.11378398859E+04  0.13854042144E+04  0.19677233473E+04  0.50400001928E-02 0.  1.
       -1    1    3    3    0  502 -0.81111696342E+03  0.11378398859E+04 -0.41405785256E+03  0.14574066830E+04  0.50400001928E-02 0. -1.
</event>
<event>
 5   0  0.9181760E-08  0.3293304E+04  0.7818609E-02  0.8164601E-01
        1   -1    0    0  501    0  0.00000000000E+00  0.00000000000E+00  0.17083864321E+04  0.17083864321E+04  0.50400001928E-02 0. -1.
       -1   -1    0    0    0  501  0.00000000000E+00  0.00000000000E+00 -0.15871480988E+04  0.15871480989E+04  0.50400001928E-02 0.  1.
    10030    2    1    2    0    0  0.00000000000E+00  0.00000000000E+00  0.12123833325E+03  0.32955345310E+04  0.32933036774E+04 0.  0.
        1    1    3    3  502    0  0.53081544433E+03  0.13763154074E+04  0.79286148239E+03  0.16747054866E+04  0.50400001928E-02 0. -1.
       -1    1    3    3    0  502 -0.53081544433E+03 -0.13763154074E+04 -0.67162314914E+03  0.16208290444E+04  0.50400001928E-02 0.  1.
</event>
<event>
 5   0  0.9454010E-08  0.3290073E+04  0.7818609E-02  0.8165426E-01
       -1   -1    0    0    0  501  0.00000000000E+00  0.00000000000E+00  0.13548495443E+04  0.13548495443E+04  0.50400001928E-02 0. -1.
        1   -1    0    0  501    0  0.00000000000E+00  0.00000000000E+00 -0.19973763551E+04  0.19973763551E+04  0.50400001928E-02 0.  1.
    10030    2    1    2    0    0  0.00000000000E+00  0.00000000000E+00 -0.64252681084E+03  0.33522258994E+04  0.32900726098E+04 0.  0.
        2    1    3    3  502    0  0.15026130154E+03  0.13717205705E+04 -0.12336966031E+04  0.18510005647E+04  0.25500000920E-02 0.  1.
       -2    1    3    3    0  502 -0.15026130154E+03 -0.13717205705E+04  0.59116979222E+03  0.15012253347E+04  0.25500000920E-02 0. -1.
</event>
<event>
 5   0  0.9283910E-08  0.3304372E+04  0.7818609E-02  0.8161784E-01
       -1   -1    0    0    0  501  0.00000000000E+00  0.00000000000E+00  0.19097789002E+04  0.19097789002E+04  0.50400001928E-02 0. -1.
        1   -1    0    0  501    0  0.00000000000E+00  0.00000000000E+00 -0.14293376076E+04  0.14293376076E+04  0.50400001928E-02 0.  1.
    10030    2    1    2    0    0  0.00000000000E+00  0.00000000000E+00  0.48044129266E+03  0.33391165078E+04  0.33043721366E+04 0.  0.
        3    1    3    3  502    0  0.15837262012E+04  0.38212782708E+03  0.51789793693E+03  0.17095112283E+04  0.10100000352E+00 0. -1.
       -3    1    3    3    0  502 -0.15837262012E+04 -0.38212782708E+03 -0.37456644262E+02  0.16296052795E+04  0.10100000352E+00 0.  1.
</event>
<event>
 5   0  0.2875829E-07  0.3302064E+04  0.7818609E-02  0.8162370E-01
        2   -1    0    0  501    0  0.00000000000E+00  0.00000000000E+00  0.18719870824E+04  0.18719870824E+04  0.25500000920E-02 0.  1.
       -2   -1    0    0    0  501  0.00000000000E+00  0.00000000000E+00 -0.14561570785E+04  0.14561570785E+04  0.25500000920E-02 0. -1.
    10030    2    1    2    0    0  0.00000000000E+00  0.00000000000E+00  0.41583000382E+03  0.33281441609E+04  0.33020643488E+04 0.  0.
        3    1    3    3  502    0 -0.20126693655E+03  0.49735993364E+03 -0.13658369929E+04  0.14674419868E+04  0.10100000352E+00 0. -1.
       -3    1    3    3    0  502  0.20126693655E+03 -0.49735993364E+03  0.17816669967E+04  0.18607021741E+04  0.10100000352E+00 0.  1.
</event>
<event>
 5   0  0.9283910E-08  0.3298263E+04  0.7818609E-02  0.8163337E-01
       -1   -1    0    0    0  501  0.00000000000E+00  0.00000000000E+00  0.90810854990E+03  0.90810854991E+03  0.50400001928E-02 0. -1.
        1   -1    0    0  501    0  0.00000000000E+00  0.00000000000E+00 -0.29948351946E+04  0.29948351946E+04  0.50400001928E-02 0.  1.
    10030    2    1    2    0    0  0.00000000000E+00  0.00000000000E+00 -0.20867266447E+04  0.39029437445E+04  0.32982634496E+04 0.  0.
        3    1    3    3  502    0  0.14805078941E+04  0.72153208783E+03 -0.94349074331E+03  0.18980745431E+04  0.10100000352E+00 0. -1.
       -3    1    3    3    0  502 -0.14805078941E+04 -0.72153208783E+03 -0.11432359014E+04  0.20048692014E+04  0.10100000352E+00 0.  1.
</event>
<event>
 5   0  0.2713815E-07  0.3300048E+04  0.7818609E-02  0.8162883E-01
        2   -1    0    0  501    0  0.00000000000E+00  0.00000000000E+00  0.21864171782E+04  0.21864171782E+04  0.25500000920E-02 0.  1.
       -2   -1    0    0    0  501  0.00000000000E+00  0.00000000000E+00 -0.12452242573E+04  0.12452242573E+04  0.25500000920E-02 0. -1.
    10030    2    1    2    0    0  0.00000000000E+00  0.00000000000E+00  0.94119292094E+03  0.34316414355E+04  0.33000483069E+04 0.  0.
        4    1    3    3  502    0  0.18684247866E+03 -0.82908799714E+03 -0.10001137885E+04  0.13124504645E+04  0.12699999809E+01 0. -1.
       -4    1    3    3    0  502 -0.18684247866E+03  0.82908799714E+03  0.19413067094E+04  0.21191909711E+04  0.12699999809E+01 0.  1.
</event>
<event>
 5   0  0.2875829E-07  0.3298953E+04  0.7818609E-02  0.8163162E-01
        2   -1    0    0  501    0  0.00000000000E+00  0.00000000000E+00  0.18881420384E+04  0.18881420384E+04  0.25500000920E-02 0. -1.
       -2   -1    0    0    0  501  0.00000000000E+00  0.00000000000E+00 -0.14409786871E+04  0.14409786871E+04  0.25500000920E-02 0.  1.
    10030    2    1    2    0    0  0.00000000000E+00  0.00000000000E+00  0.44716335127E+03  0.33291207255E+04  0.32989528251E+04 0.  0.
        3    1    3    3  502    0  0.10919320312E+04  0.26014775715E+03  0.14432615220E+04  0.18283862413E+04  0.10100000352E+00 0. -1.
       -3    1    3    3    0  502 -0.10919320312E+04 -0.26014775715E+03 -0.99609817071E+03  0.15007344842E+04  0.10100000352E+00 0.  1.
</event>
<event>
 5   0  0.2727168E-07  0.3300677E+04  0.7818609E-02  0.8162723E-01
       -2   -1    0    0    0  501  0.00000000000E+00  0.00000000000E+00  0.10174474611E+04  0.10174474611E+04  0.25500000920E-02 0.  1.
        2   -1    0    0  501    0  0.00000000000E+00  0.00000000000E+00 -0.26769110754E+04  0.26769110754E+04  0.25500000920E-02 0. -1.
    10030    2    1    2    0    0  0.00000000000E+00  0.00000000000E+00 -0.16594636143E+04  0.36943585366E+04  0.33006765230E+04 0.  0.
        2    1    3    3  502    0 -0.11590090061E+04 -0.11379305117E+04 -0.50258864046E+03  0.17002302983E+04  0.25500000920E-02 0.  1.
       -2    1    3    3    0  502  0.11590090061E+04  0.11379305117E+04 -0.11568749738E+04  0.19941282383E+04  0.25500000920E-02 0. -1.
</event>
<event>
 5   0  0.9810351E-08  0.3302102E+04  0.7818609E-02  0.8162361E-01
        1   -1    0    0  501    0  0.00000000000E+00  0.00000000000E+00  0.21061499110E+04  0.21061499110E+04  0.50400001928E-02 0.  1.
       -1   -1    0    0    0  501  0.00000000000E+00  0.00000000000E+00 -0.12942901900E+04  0.12942901900E+04  0.50400001928E-02 0. -1.
    10030    2    1    2    0    0  0.00000000000E+00  0.00000000000E+00  0.81185972102E+03  0.34004401010E+04  0.33021018570E+04 0.  0.
        5    1    3    3  502    0  0.69131649805E+03 -0.68698702509E+03  0.17783137411E+04  0.20278785774E+04  0.46999998093E+01 0.  1.
       -5    1    3    3    0  502 -0.69131649805E+03  0.68698702509E+03 -0.96645402005E+03  0.13725615236E+04  0.46999998093E+01 0. -1.
</event>
<event>
 5   0  0.9181760E-08  0.3301500E+04  0.7818609E-02  0.8162514E-01
       -1   -1    0    0    0  501  0.00000000000E+00  0.00000000000E+00  0.12000000079E+04  0.12000000079E+04  0.50400001928E-02 0.  1.
        1   -1    0    0  501    0  0.00000000000E+00  0.00000000000E+00 -0.22708131905E+04  0.22708131905E+04  0.50400001928E-02 0. -1.
    10030    2    1    2    0    0  0.00000000000E+00  0.00000000000E+00 -0.10708131826E+04  0.34708131984E+04  0.33015001720E+04 0.  0.
        1    1    3    3  502    0 -0.73129252155E+03  0.10098689924E+04  0.60190145967E+03  0.13845250092E+04  0.50400001928E-02 0.  1.
       -1    1    3    3    0  502  0.73129252155E+03 -0.10098689924E+04 -0.16727146423E+04  0.20862881892E+04  0.50400001928E-02 0. -1.
</event>
<event>
 5   0  0.2713815E-07  0.3295399E+04  0.7818609E-02  0.8164067E-01
        2   -1    0    0  501    0  0.00000000000E+00  0.00000000000E+00  0.11407593774E+04  0.11407593774E+04  0.25500000920E-02 0.  1.
       -2   -1    0    0    0  501  0.00000000000E+00  0.00000000000E+00 -0.23799175749E+04  0.23799175749E+04  0.25500000920E-02 0. -1.
    10030    2    1    2    0    0  0.00000000000E+00  0.00000000000E+00 -0.12391581976E+04  0.35206769523E+04  0.32953987868E+04 0.  0.
        4    1    3    3  502    0  0.32834151176E+03 -0.15210065894E+03  0.10977828754E+04  0.11558856402E+04  0.12699999809E+01 0.  1.
       -4    1    3    3    0  502 -0.32834151176E+03  0.15210065894E+03 -0.23369410729E+04  0.23647913122E+04  0.12699999809E+01 0. -1.
</event>
<event>
 5   0  0.2713815E-07  0.3300569E+04  0.7818609E-02  0.8162751E-01
       -2   -1    0    0    0  501  0.00000000000E+00  0.00000000000E+00  0.14750209227E+04  0.14750209227E+04  0.25500000920E-02 0.  1.
        2   -1    0    0  501    0  0.00000000000E+00  0.00000000000E+00 -0.18463728437E+04  0.18463728437E+04  0.25500000920E-02 0. -1.
    10030    2    1    2    0    0  0.00000000000E+00  0.00000000000E+00 -0.37135192103E+03  0.33213937664E+04  0.33005687847E+04 0.  0.
        4    1    3    3  502    0  0.39065085373E+03 -0.76438918433E+03  0.12326629649E+04  0.15021180089E+04  0.12699999809E+01 0.  1.
       -4    1    3    3    0  502 -0.39065085373E+03  0.76438918433E+03 -0.16040148859E+04  0.18192757575E+04  0.12699999809E+01 0. -1.
</event>
<event>
 5   0  0.8805125E-08  0.3298900E+04  0.7818609E-02  0.8163175E-01
       -4   -1    0    0    0  501  0.00000000000E+00  0.00000000000E+00  0.13161274623E+04  0.13161280751E+04  0.12699999809E+01 0. -1.
        4   -1    0    0  501    0  0.00000000000E+00  0.00000000000E+00 -0.20671886813E+04  0.20671890714E+04  0.12699999809E+01 0.  1.
    10030    2    1    2    0    0  0.00000000000E+00  0.00000000000E+00 -0.75106121897E+03  0.33833171465E+04  0.32989001135E+04 0.  0.
        2    1    3    3  502    0  0.99399497179E+03  0.13148353123E+04 -0.31174927389E+03  0.16774997801E+04  0.25500000920E-02 0.  1.
       -2    1    3    3    0  502 -0.99399497179E+03 -0.13148353123E+04 -0.43931194507E+03  0.17058173664E+04  0.25500000920E-02 0. -1.
</event>
<event>
 5   0  0.2875829E-07  0.3297894E+04  0.7818609E-02  0.8163431E-01
        2   -1    0    0  501    0  0.00000000000E+00  0.00000000000E+00  0.17639365156E+04  0.17639365156E+04  0.25500000920E-02 0.  1.
       -2   -1    0    0    0  501  0.00000000000E+00  0.00000000000E+00 -0.15414537368E+04  0.15414537368E+04  0.25500000920E-02 0. -1.
    10030    2    1    2    0    0  0.00000000000E+00  0.00000000000E+00  0.22248277883E+03  0.33053902524E+04  0.32978941969E+04 0.  0.
        3    1    3    3  502    0  0.15960903805E+04  0.25409642633E+03 -0.21654482470E+03  0.16306321375E+04  0.10100000352E+00 0. -1.
       -3    1    3    3    0  502 -0.15960903805E+04 -0.25409642633E+03  0.43902760353E+03  0.16747581149E+04  0.10100000352E+00 0.  1.
</event>
<event>
 5   0  0.2713815E-07  0.3295651E+04  0.7818609E-02  0.8164003E-01
        2   -1    0    0  501    0  0.00000000000E+00  0.00000000000E+00  0.19851032532E+04  0.19851032532E+04  0.25500000920E-02 0.  1.
       -2   -1    0    0    0  501  0.00000000000E+00  0.00000000000E+00 -0.13678526494E+04  0.13678526494E+04  0.25500000920E-02 0. -1.
    10030    2    1    2    0    0  0.00000000000E+00  0.00000000000E+00  0.61725060384E+03  0.33529559027E+04  0.32956509186E+04 0.  0.
        4    1    3    3  502    0 -0.19068141527E+03  0.10469501133E+04  0.15886204613E+04  0.19121141505E+04  0.12699999809E+01 0.  1.
       -4    1    3    3    0  502  0.19068141527E+03 -0.10469501133E+04 -0.97136985745E+03  0.14408417521E+04  0.12699999809E+01 0. -1.
</event>
<event>
 5   0  0.9810351E-08  0.3307324E+04  0.7818609E-02  0.8161034E-01
        1   -1    0    0  501    0  0.00000000000E+00  0.00000000000E+00  0.18038384421E+04  0.18038384422E+04  0.50400001928E-02 0.  1.
       -1   -1    0    0    0  501  0.00000000000E+00  0.00000000000E+00 -0.15159879517E+04  0.15159879517E+04  0.50400001928E-02 0. -1.
    10030    2    1    2    0    0  0.00000000000E+00  0.00000000000E+00  0.28785049043E+03  0.33198263939E+04  0.33073235978E+04 0.  0.
        5    1    3    3  502    0 -0.70266982982E+02  0.96020819353E+03 -0.12056416572E+04  0.15428969893E+04  0.46999998093E+01 0. -1.
       -5    1    3    3    0  502  0.70266982982E+02 -0.96020819353E+03  0.14934921477E+04  0.17769294046E+04  0.46999998093E+01 0.  1.
</event>
<event>
 5   0  0.9454010E-08  0.3304061E+04  0.7818609E-02  0.8161863E-01
       -1   -1    0    0    0  501  0.00000000000E+00  0.00000000000E+00  0.11096098892E+04  0.11096098892E+04  0.50400001928E-02 0.  1.
        1   -1    0    0  501    0  0.00000000000E+00  0.00000000000E+00 -0.24596075432E+04  0.24596075432E+04  0.50400001928E-02 0. -1.
    10030    2    1    2    0    0  0.00000000000E+00  0.00000000000E+00 -0.13499976540E+04  0.35692174324E+04  0.33040610488E+04 0.  0.
        2    1    3    3  502    0 -0.35781538810E+03 -0.88735508779E+03  0.77984549144E+03  0.12343378364E+04  0.25500000920E-02 0.  1.
       -2    1    3    3    0  502  0.35781538810E+03  0.88735508779E+03 -0.21298431454E+04  0.23348795960E+04  0.25500000920E-02 0. -1.
</event>
<event>
 5   0  0.2713815E-07  0.3303685E+04  0.7818609E-02  0.8161958E-01
        2   -1    0    0  501    0  0.00000000000E+00  0.00000000000E+00  0.22015357187E+04  0.22015357187E+04  0.25500000920E-02 0.  1.
       -2   -1    0    0    0  501  0.00000000000E+00  0.00000000000E+00 -0.12394003498E+04  0.12394003498E+04  0.25500000920E-02 0. -1.
    10030    2    1    2    0    0  0.00000000000E+00  0.00000000000E+00  0.96213536888E+03  0.34409360686E+04  0.33036852998E+04 0.  0.
        4    1    3    3  502    0 -0.13946728243E+04 -0.55634175586E+03  0.11981121215E+04  0.19209640040E+04  0.12699999809E+01 0. -1.
       -4    1    3    3    0  502  0.13946728243E+04  0.55634175586E+03 -0.23597675259E+03  0.15199720645E+04  0.12699999809E+01 0.  1.
</event>
<event>
 5   0  0.2875829E-07  0.3302784E+04  0.7818609E-02  0.8162187E-01
        2   -1    0    0  501    0  0.00000000000E+00  0.00000000000E+00  0.22914866555E+04  0.22914866555E+04  0.25500000920E-02 0.  1.
       -2   -1    0    0    0  501  0.00000000000E+00  0.00000000000E+00 -0.11900988489E+04  0.11900988489E+04  0.25500000920E-02 0. -1.
    10030    2    1    2    0    0  0.00000000000E+00  0.00000000000E+00  0.11013878066E+04  0.34815855044E+04  0.33027840565E+04 0.  0.
        3    1    3    3  502    0 -0.65198055598E+03  0.11339357573E+04 -0.51195037314E+03  0.14046288271E+04  0.10100000352E+00 0. -1.
       -3    1    3    3    0  502  0.65198055598E+03 -0.11339357573E+04  0.16133381797E+04  0.20769566773E+04  0.10100000352E+00 0.  1.
</event>
<event>
 5   0  0.2727168E-07  0.3306266E+04  0.7818609E-02  0.8161303E-01
       -2   -1    0    0    0  501  0.00000000000E+00  0.00000000000E+00  0.12515376157E+04  0.12515376157E+04  0.25500000920E-02 0.  1.
        2   -1    0    0  501    0  0.00000000000E+00  0.00000000000E+00 -0.21835929496E+04  0.21835929496E+04  0.25500000920E-02 0. -1.
    10030    2    1    2    0    0  0.00000000000E+00  0.00000000000E+00 -0.93205533389E+03  0.34351305652E+04  0.33062659988E+04 0.  0.
        2    1    3    3  502    0 -0.16264989149E+02 -0.69236157108E+03 -0.20256060963E+04  0.21407263142E+04  0.25500000920E-02 0. -1.
       -2    1    3    3    0  502  0.16264989149E+02  0.69236157108E+03  0.10935507624E+04  0.12944042510E+04  0.25500000920E-02 0.  1.
</event>
<event>
 5   0  0.2713815E-07  0.3296487E+04  0.7818609E-02  0.8163790E-01
        2   -1    0    0  501    0  0.00000000000E+00  0.00000000000E+00  0.19790694628E+04  0.19790694628E+04  0.25500000920E-02 0. -1.
       -2   -1    0    0    0  501  0.00000000000E+00  0.00000000000E+00 -0.13727193542E+04  0.13727193542E+04  0.25500000920E-02 0.  1.
    10030    2    1    2    0    0  0.00000000000E+00  0.00000000000E+00  0.60635010856E+03  0.33517888169E+04  0.32964871939E+04 0.  0.
        4    1    3    3  502    0 -0.28307000191E+03 -0.10066839361E+04 -0.99223265777E+03  0.14415507043E+04  0.12699999809E+01 0.  1.
       -4    1    3    3    0  502  0.28307000191E+03  0.10066839361E+04  0.15985827663E+04  0.19102381126E+04  0.12699999809E+01 0. -1.
</event>
<event>
 5   0  0.9181760E-08  0.3299136E+04  0.7818609E-02  0.8163115E-01
        1   -1    0    0  501    0  0.00000000000E+00  0.00000000000E+00  0.20538331544E+04  0.20538331544E+04  0.50400001928E-02 0. -1.
       -1   -1    0    0    0  501  0.00000000000E+00  0.00000000000E+00 -0.13248762731E+04  0.13248762731E+04  0.50400001928E-02 0.  1.
    10030    2    1    2    0    0  0.00000000000E+00  0.00000000000E+00  0.72895688131E+03  0.33787094275E+04  0.32991361386E+04 0.  0.
        1    1    3    3  502    0  0.98214462588E+03 -0.58396799435E+03  0.15829000313E+04  0.19522292882E+04  0.50400001928E-02 0. -1.
       -1    1    3    3    0  502 -0.98214462588E+03  0.58396799435E+03 -0.85394314995E+03  0.14264801393E+04  0.50400001928E-02 0.  1.
</event>
<event>
 5   0  0.2727168E-07  0.3325886E+04  0.7818609E-02  0.8156340E-01
       -2   -1    0    0    0  501  0.00000000000E+00  0.00000000000E+00  0.14113581377E+04  0.14113581377E+04  0.25500000920E-02 0.  1.
        2   -1    0    0  501    0  0.00000000000E+00  0.00000000000E+00 -0.19593745168E+04  0.19593745168E+04  0.25500000920E-02 0. -1.
    10030    2    1    2    0    0  0.00000000000E+00  0.00000000000E+00 -0.54801637916E+03  0.33707326545E+04  0.33258858483E+04 0.  0.
        2    1    3    3  502    0  0.23094310190E+02 -0.14313643574E+04  0.58359460355E+03  0.15459365873E+04  0.25500000920E-02 0.  1.
       -2    1    3    3    0  502 -0.23094310190E+02  0.14313643574E+04 -0.11316109827E+04  0.18247960672E+04  0.25500000920E-02 0. -1.
</event>
<event>
 5   0  0.9810351E-08  0.3299370E+04  0.7818609E-02  0.8163056E-01
       -1   -1    0    0    0  501  0.00000000000E+00  0.00000000000E+00  0.24338767783E+04  0.24338767783E+04  0.50400001928E-02 0.  1.
        1   -1    0    0  501    0  0.00000000000E+00  0.00000000000E+00 -0.11181584919E+04  0.11181584919E+04  0.50400001928E-02 0. -1.
    10030    2    1    2    0    0  0.00000000000E+00  0.00000000000E+00  0.13157182865E+04  0.35520352702E+04  0.32993696294E+04 0.  0.
        5    1    3    3  502    0  0.14660977613E+04 -0.80683867473E+02 -0.15171565863E+03  0.14761410038E+04  0.46999998093E+01 0. -1.
       -5    1    3    3    0  502 -0.14660977613E+04  0.80683867473E+02  0.14674339451E+04  0.20758942664E+04  0.46999998093E+01 0.  1.
</event>
<event>
 5   0  0.9283910E-08  0.3289004E+04  0.7818609E-02  0.8165699E-01
        1   -1    0    0  501    0  0.00000000000E+00  0.00000000000E+00  0.15351998970E+04  0.15351998970E+04  0.50400001928E-02 0.  1.
       -1   -1    0    0    0  501  0.00000000000E+00  0.00000000000E+00 -0.17615864097E+04  0.17615864097E+04  0.50400001928E-02 0. -1.
    10030    2    1    2    0    0  0.00000000000E+00  0.00000000000E+00 -0.22638651272E+03  0.32967863068E+04  0.32890042717E+04 0.  0.
        3    1    3    3  502    0 -0.10242183565E+04 -0.27028078766E+03 -0.13740695074E+04  0.17349760711E+04  0.10100000352E+00 0. -1.
       -3    1    3    3    0  502  0.10242183565E+04  0.27028078766E+03  0.11476829947E+04  0.15618102357E+04  0.10100000352E+00 0.  1.
</event>
<event>
 5   0  0.2703956E-07  0.3296085E+04  0.7818609E-02  0.8163892E-01
       -2   -1    0    0    0  501  0.00000000000E+00  0.00000000000E+00  0.11581347206E+04  0.11581347206E+04  0.25500000920E-02 0. -1.
        2   -1    0    0  501    0  0.00000000000E+00  0.00000000000E+00 -0.23451885085E+04  0.23451885085E+04  0.25500000920E-02 0.  1.
    10030    2    1    2    0    0  0.00000000000E+00  0.00000000000E+00 -0.11870537878E+04  0.35033232291E+04  0.32960850948E+04 0.  0.
        5    1    3    3  502    0  0.65268126812E+03 -0.14804203622E+04 -0.26014198813E+03  0.16386986393E+04  0.46999998093E+01 0. -1.
       -5    1    3    3    0  502 -0.65268126812E+03  0.14804203622E+04 -0.92691179970E+03  0.18646245898E+04  0.46999998093E+01 0.  1.
</event>
<event>
 5   0  0.9810351E-08  0.3302635E+04  0.7818609E-02  0.8162225E-01
       -1   -1    0    0    0  501  0.00000000000E+00  0.00000000000E+00  0.16939307949E+04  0.16939307949E+04  0.50400001928E-02 0.  1.
        1   -1    0    0  501    0  0.00000000000E+00  0.00000000000E+00 -0.16097765101E+04  0.16097765101E+04  0.50400001928E-02 0. -1.
    10030    2    1    2    0    0  0.00000000000E+00  0.00000000000E+00  0.84154284828E+02  0.33037073050E+04  0.33026353134E+04 0.  0.
        5    1    3    3  502    0  0.19689337546E+03 -0.16381291585E+04  0.10987651399E+03  0.16535806843E+04  0.46999998093E+01 0. -1.
       -5    1    3    3    0  502 -0.19689337546E+03  0.16381291585E+04 -0.25722229166E+02  0.16501266207E+04  0.46999998093E+01 0.  1.
</event>
<event>
 5   0  0.2875829E-07  0.3293043E+04  0.7818609E-02  0.8164668E-01
       -2   -1    0    0    0  501  0.00000000000E+00  0.00000000000E+00  0.13770797454E+04  0.13770797454E+04  0.25500000920E-02 0. -1.
        2   -1    0    0  501    0  0.00000000000E+00  0.00000000000E+00 -0.19686821947E+04  0.19686821947E+04  0.25500000920E-02 0.  1.
    10030    2    1    2    0    0  0.00000000000E+00  0.00000000000E+00 -0.59160244928E+03  0.33457619401E+04  0.32930425903E+04 0.  0.
        3    1    3    3  502    0 -0.15541213331E+03  0.16388187909E+04 -0.33029178064E+03  0.16789796399E+04  0.10100000352E+00 0. -1.
       -3    1    3    3    0  502  0.15541213331E+03 -0.16388187909E+04 -0.26131066864E+03  0.16667823002E+04  0.10100000352E+00 0.  1.
</event>
<event>
 5   0  0.9181760E-08  0.3300735E+04  0.7818609E-02  0.8162709E-01
       -1   -1    0    0    0  501  0.00000000000E+00  0.00000000000E+00  0.25048738948E+04  0.25048738948E+04  0.50400001928E-02 0.  1.
        1   -1    0    0  501    0  0.00000000000E+00  0.00000000000E+00 -0.10873649440E+04  0.10873649440E+04  0.50400001928E-02 0. -1.
    10030    2    1    2    0    0  0.00000000000E+00  0.00000000000E+00  0.14175089509E+04  0.35922388388E+04  0.33007345015E+04 0.  0.
        1    1    3    3  502    0  0.68246400414E+03 -0.11359421240E+04 -0.36177935182E+03  0.13736833425E+04  0.50400001928E-02 0. -1.
       -1    1    3    3    0  502 -0.68246400414E+03  0.11359421240E+04  0.17792883027E+04  0.22185554963E+04  0.50400001928E-02 0.  1.
</event>
<event>
 5   0  0.9810351E-08  0.3286978E+04  0.7818609E-02  0.8166217E-01
       -1   -1    0    0    0  501  0.00000000000E+00  0.00000000000E+00  0.95006837520E+03  0.95006837522E+03  0.50400001928E-02 0. -1.
        1   -1    0    0  501    0  0.00000000000E+00  0.00000000000E+00 -0.28430119504E+04  0.28430119504E+04  0.50400001928E-02 0.  1.
    10030    2    1    2    0    0  0.00000000000E+00  0.00000000000E+00 -0.18929435752E+04  0.37930803256E+04  0.32869777878E+04 0.  0.
        5    1    3    3  502    0  0.62356772902E+03  0.10402412857E+04  0.33339449741E+03  0.12578205858E+04  0.46999998093E+01 0. -1.
       -5    1    3    3    0  502 -0.62356772902E+03 -0.10402412857E+04 -0.22263380726E+04  0.25352597399E+04  0.46999998093E+01 0.  1.
</event>
<event>
 5   0  0.2875829E-07  0.3297622E+04  0.7818609E-02  0.8163501E-01
        2   -1    0    0  501    0  0.00000000000E+00  0.00000000000E+00  0.21651304967E+04  0.21651304967E+04  0.25500000920E-02 0.  1.
       -2   -1    0    0    0  501  0.00000000000E+00  0.00000000000E+00 -0.12556184381E+04  0.12556184381E+04  0.25500000920E-02 0. -1.
    10030    2    1    2    0    0  0.00000000000E+00  0.00000000000E+00  0.90951205858E+03  0.34207489348E+04  0.32976220356E+04 0.  0.
        3    1    3    3  502    0 -0.97504548322E+03  0.10089514949E+04  0.13530458617E+04  0.19492126430E+04  0.10100000352E+00 0.  1.
       -3    1    3    3    0  502  0.97504548322E+03 -0.10089514949E+04 -0.44353380314E+03  0.14715362918E+04  0.10100000352E+00 0. -1.
</event>
<event>
 5   0  0.2703956E-07  0.3300692E+04  0.7818609E-02  0.8162719E-01
       -2   -1    0    0    0  501  0.00000000000E+00  0.00000000000E+00  0.17700964080E+04  0.17700964080E+04  0.25500000920E-02 0. -1.
        2   -1    0    0  501    0  0.00000000000E+00  0.00000000000E+00 -0.15386969638E+04  0.15386969638E+04  0.25500000920E-02 0.  1.
    10030    2    1    2    0    0  0.00000000000E+00  0.00000000000E+00  0.23139944419E+03  0.33087933718E+04  0.33006920296E+04 0.  0.
        5    1    3    3  502    0 -0.40823416603E+03 -0.33301363245E+03  0.16835290610E+04  0.17640423473E+04  0.46999998093E+01 0. -1.
       -5    1    3    3    0  502  0.40823416603E+03  0.33301363245E+03 -0.14521296168E+04  0.15447510245E+04  0.46999998093E+01 0.  1.
</event>
<event>
 5   0  0.2703956E-07  0.3323574E+04  0.7818609E-02  0.8156923E-01
        2   -1    0    0  501    0  0.00000000000E+00  0.00000000000E+00  0.14630328846E+04  0.14630328846E+04  0.25500000920E-02 0. -1.
       -2   -1    0    0    0  501  0.00000000000E+00  0.00000000000E+00 -0.18875420502E+04  0.18875420502E+04  0.25500000920E-02 0.  1.
    10030    2    1    2    0    0  0.00000000000E+00  0.00000000000E+00 -0.42450916568E+03  0.33505749348E+04  0.33235740344E+04 0.  0.
        5    1    3    3  502    0 -0.13007330359E+04  0.29811194235E+03 -0.12106215944E+04  0.18017779818E+04  0.46999998093E+01 0.  1.
       -5    1    3    3    0  502  0.13007330359E+04 -0.29811194235E+03  0.78611242877E+03  0.15487969530E+04  0.46999998093E+01 0. -1.
</event>
<event>
 5   0  0.8805125E-08  0.3299691E+04  0.7818609E-02  0.8162974E-01
        1   -1    0    0  501    0  0.00000000000E+00  0.00000000000E+00  0.13535823163E+04  0.13535823163E+04  0.50400001928E-02 0. -1.
       -1   -1    0    0    0  501  0.00000000000E+00  0.00000000000E+00 -0.20109529773E+04  0.20109529773E+04  0.50400001928E-02 0.  1.
    10030    2    1    2    0    0  0.00000000000E+00  0.00000000000E+00 -0.65737066102E+03  0.33645352937E+04  0.32996911305E+04 0.  0.
        4    1    3    3  502    0  0.14282051752E+04 -0.80912295697E+03 -0.15947601858E+03  0.16492071414E+04  0.12699999809E+01 0. -1.
       -4    1    3    3    0  502 -0.14282051752E+04  0.80912295697E+03 -0.49789464244E+03  0.17153281522E+04  0.12699999809E+01 0.  1.
</event>
<event>
 5   0  0.8805125E-08  0.3294445E+04  0.7818609E-02  0.8164310E-01
        3   -1    0    0  501    0  0.00000000000E+00  0.00000000000E+00  0.25426408650E+04  0.25426408670E+04  0.10100000352E+00 0.  1.
       -3   -1    0    0    0  501  0.00000000000E+00  0.00000000000E+00 -0.10671356256E+04  0.10671356304E+04  0.10100000352E+00 0. -1.
    10030    2    1    2    0    0  0.00000000000E+00  0.00000000000E+00  0.14755052394E+04  0.36097764974E+04  0.32944454236E+04 0.  0.
        5    1    3    3  502    0 -0.44077401799E+03 -0.42743261918E+03  0.24125645115E+04  0.24894718298E+04  0.46999998093E+01 0.  1.
       -5    1    3    3    0  502  0.44077401799E+03  0.42743261918E+03 -0.93705927210E+03  0.11203046676E+04  0.46999998093E+01 0. -1.
</event>
<event>
 5   0  0.8805125E-08  0.3299219E+04  0.7818609E-02  0.8163094E-01
        1   -1    0    0  501    0  0.00000000000E+00  0.00000000000E+00  0.15133216083E+04  0.15133216083E+04  0.50400001928E-02 0. -1.
       -1   -1    0    0    0  501  0.00000000000E+00  0.00000000000E+00 -0.17981714819E+04  0.17981714819E+04  0.50400001928E-02 0.  1.
    10030    2    1    2    0    0  0.00000000000E+00  0.00000000000E+00 -0.28484987359E+03  0.33114930902E+04  0.32992191555E+04 0.  0.
        4    1    3    3  502    0  0.11904729070E+04  0.57598157930E+02  0.10022857171E+04  0.15572801808E+04  0.12699999809E+01 0. -1.
       -4    1    3    3    0  502 -0.11904729070E+04 -0.57598157930E+02 -0.12871355906E+04  0.17542129094E+04  0.12699999809E+01 0.  1.
</event>
<event>
 5   0  0.9283910E-08  0.3305701E+04  0.7818609E-02  0.8161446E-01
       -1   -1    0    0    0  501  0.00000000000E+00  0.00000000000E+00  0.13487134416E+04  0.13487134417E+04  0.50400001928E-02 0.  1.
        1   -1    0    0  501    0  0.00000000000E+00  0.00000000000E+00 -0.20255714958E+04  0.20255714958E+04  0.50400001928E-02 0. -1.
    10030    2    1    2    0    0  0.00000000000E+00  0.00000000000E+00 -0.67685805417E+03  0.33742849375E+04  0.33057014405E+04 0.  0.
        3    1    3    3  502    0 -0.13428496896E+04 -0.45796572682E+03 -0.12039223550E+04  0.18607544015E+04  0.10100000352E+00 0.  1.
       -3    1    3    3    0  502  0.13428496896E+04  0.45796572682E+03  0.52706430079E+03  0.15135305359E+04  0.10100000352E+00 0. -1.
</event>
<event>
 5   0  0.9181760E-08  0.3302368E+04  0.7818609E-02  0.8162293E-01
        1   -1    0    0  501    0  0.00000000000E+00  0.00000000000E+00  0.19996495784E+04  0.19996495784E+04  0.50400001928E-02 0. -1.
       -1   -1    0    0    0  501  0.00000000000E+00  0.00000000000E+00 -0.13634433590E+04  0.13634433590E+04  0.50400001928E-02 0.  1.
    10030    2    1    2    0    0  0.00000000000E+00  0.00000000000E+00  0.63620621947E+03  0.33630929374E+04  0.33023682035E+04 0.  0.
        1    1    3    3  502    0  0.13361670851E+04 -0.80043395572E+03  0.87624299081E+03  0.17871314377E+04  0.50400001928E-02 0.  1.
       -1    1    3    3    0  502 -0.13361670851E+04  0.80043395572E+03 -0.24003677134E+03  0.15759614997E+04  0.50400001928E-02 0. -1.
</event>
<event>
 5   0  0.2703956E-07  0.3301784E+04  0.7818609E-02  0.8162442E-01
        2   -1    0    0  501    0  0.00000000000E+00  0.00000000000E+00  0.14747468808E+04  0.14747468808E+04  0.25500000920E-02 0. -1.
       -2   -1    0    0    0  501  0.00000000000E+00  0.00000000000E+00 -0.18480760103E+04  0.18480760103E+04  0.25500000920E-02 0.  1.
    10030    2    1    2    0    0  0.00000000000E+00  0.00000000000E+00 -0.37332912944E+03  0.33228228911E+04  0.33017839613E+04 0.  0.
        5    1    3    3  502    0 -0.13197568732E+04 -0.40556757941E+03  0.72418769266E+03  0.15590744594E+04  0.46999998093E+01 0. -1.
       -5    1    3    3    0  502  0.13197568732E+04  0.40556757941E+03 -0.10975168221E+04  0.17637484317E+04  0.46999998093E+01 0.  1.
</event>
<event>
 5   0  0.2703956E-07  0.3296375E+04  0.7818609E-02  0.8163818E-01
       -2   -1    0    0    0  501  0.00000000000E+00  0.00000000000E+00  0.11125481725E+04  0.11125481725E+04  0.25500000920E-02 0.  1.
        2   -1    0    0  501    0  0.00000000000E+00  0.00000000000E+00 -0.24417118130E+04  0.24417118130E+04  0.25500000920E-02 0. -1.
    10030    2    1    2    0    0  0.00000000000E+00  0.00000000000E+00 -0.13291636405E+04  0.35542599855E+04  0.32963749879E+04 0.  0.
        5    1    3    3  502    0  0.11682424301E+03 -0.15724166585E+02  0.11079900447E+04  0.11142527461E+04  0.46999998093E+01 0.  1.
       -5    1    3    3    0  502 -0.11682424301E+03  0.15724166585E+02 -0.24371536851E+04  0.24400072393E+04  0.46999998093E+01 0. -1.
</event>
<event>
 5   0  0.2703956E-07  0.3306873E+04  0.7818609E-02  0.8161149E-01
       -2   -1    0    0    0  501  0.00000000000E+00  0.00000000000E+00  0.17683784997E+04  0.17683784997E+04  0.25500000920E-02 0.  1.
        2   -1    0    0  501    0  0.00000000000E+00  0.00000000000E+00 -0.15459659167E+04  0.15459659167E+04  0.25500000920E-02 0. -1.
    10030    2    1    2    0    0  0.00000000000E+00  0.00000000000E+00  0.22241258296E+03  0.33143444164E+04  0.33068733803E+04 0.  0.
        5    1    3    3  502    0 -0.15623680821E+04  0.46639500051E+03 -0.16384490523E+03  0.16387146071E+04  0.46999998093E+01 0. -1.
       -5    1    3    3    0  502  0.15623680821E+04 -0.46639500051E+03  0.38625748819E+03  0.16756298093E+04  0.46999998093E+01 0.  1.
</event>
<event>
 5   0  0.9181760E-08  0.3243740E+04  0.7818609E-02  0.8177360E-01
        1   -1    0    0  501    0  0.00000000000E+00  0.00000000000E+00  0.18339760851E+04  0.18339760851E+04  0.50400001928E-02 0. -1.
       -1   -1    0    0    0  501  0.00000000000E+00  0.00000000000E+00 -0.14342947789E+04  0.14342947789E+04  0.50400001928E-02 0.  1.
    10030    2    1    2    0    0  0.00000000000E+00  0.00000000000E+00  0.39968130628E+03  0.32682708640E+04  0.32437400164E+04 0.  0.
        1    1    3    3  502    0  0.12130085916E+04 -0.94569724990E+03  0.71825011636E+03  0.16975324331E+04  0.50400001928E-02 0. -1.
       -1    1    3    3    0  502 -0.12130085916E+04  0.94569724990E+03 -0.31856881008E+03  0.15707384309E+04  0.50400001928E-02 0.  1.
</event>
<event>
 5   0  0.2824402E-07  0.3300002E+04  0.7818609E-02  0.8162895E-01
       -2   -1    0    0    0  501  0.00000000000E+00  0.00000000000E+00  0.11316529406E+04  0.11316529406E+04  0.25500000920E-02 0. -1.
        2   -1    0    0  501    0  0.00000000000E+00  0.00000000000E+00 -0.24057757885E+04  0.24057757885E+04  0.25500000920E-02 0.  1.
    10030    2    1    2    0    0  0.00000000000E+00  0.00000000000E+00 -0.12741228479E+04  0.35374287291E+04  0.33000019669E+04 0.  0.
        1    1    3    3  502    0  0.82061318438E+03 -0.13230204737E+04 -0.12229315340E+04  0.19797350098E+04  0.50400001928E-02 0.  1.
       -1    1    3    3    0  502 -0.82061318438E+03  0.13230204737E+04 -0.51191313953E+02  0.15576937192E+04  0.50400001928E-02 0. -1.
</event>
<event>
 5   0  0.2824402E-07  0.3312261E+04  0.7818609E-02  0.8159782E-01
        2   -1    0    0  501    0  0.00000000000E+00  0.00000000000E+00  0.13650551360E+04  0.13650551360E+04  0.25500000920E-02 0. -1.
       -2   -1    0    0    0  501  0.00000000000E+00  0.00000000000E+00 -0.20092731919E+04  0.20092731919E+04  0.25500000920E-02 0.  1.
    10030    2    1    2    0    0  0.00000000000E+00  0.00000000000E+00 -0.64421805585E+03  0.33743283279E+04  0.33122612761E+04 0.  0.
        1    1    3    3  502    0  0.28900644010E+03  0.66966378070E+03 -0.18368449590E+04  0.19763536387E+04  0.50400001928E-02 0.  1.
       -1    1    3    3    0  502 -0.28900644010E+03 -0.66966378070E+03  0.11926269031E+04  0.13979746892E+04  0.50400001928E-02 0. -1.
</event>
<event>
 5   0  0.9283910E-08  0.3276489E+04  0.7818609E-02  0.8168904E-01
       -1   -1    0    0    0  501  0.00000000000E+00  0.00000000000E+00  0.18142616093E+04  0.18142616093E+04  0.50400001928E-02 0. -1.
        1   -1    0    0  501    0  0.00000000000E+00  0.00000000000E+00 -0.14793046034E+04  0.14793046035E+04  0.50400001928E-02 0.  1.
    10030    2    1    2    0    0  0.00000000000E+00  0.00000000000E+00  0.33495700588E+03  0.32935662128E+04  0.32764893106E+04 0.  0.
        3    1    3    3  502    0  0.18139668413E+03 -0.15511964643E+04 -0.32980210718E+03  0.15962094687E+04  0.10100000352E+00 0.  1.
       -3    1    3    3    0  502 -0.18139668413E+03  0.15511964643E+04  0.66475911306E+03  0.16973567441E+04  0.10100000352E+00 0. -1.
</event>
<event>
 5   0  0.2713815E-07  0.3300201E+04  0.7818609E-02  0.8162844E-01
        2   -1    0    0  501    0  0.00000000000E+00  0.00000000000E+00  0.23174475589E+04  0.23174475589E+04  0.25500000920E-02 0. -1.
       -2   -1    0    0    0  501  0.00000000000E+00  0.00000000000E+00 -0.11749272389E+04  0.11749272389E+04  0.25500000920E-02 0.  1.
    10030    2    1    2    0    0  0.00000000000E+00  0.00000000000E+00  0.11425203200E+04  0.34923747978E+04  0.33002013646E+04 0.  0.
        4    1    3    3  502    0  0.15102897524E+04  0.65968733853E+03  0.65767381291E+03  0.17744573757E+04  0.12699999809E+01 0. -1.
       -4    1    3    3    0  502 -0.15102897524E+04 -0.65968733853E+03  0.48484650706E+03  0.17179174221E+04  0.12699999809E+01 0.  1.
</event>
<event>
 5   0  0.9454010E-08  0.3308108E+04  0.7818609E-02  0.8160835E-01
       -1   -1    0    0    0  501  0.00000000000E+00  0.00000000000E+00  0.26669105719E+04  0.26669105719E+04  0.50400001928E-02 0. -1.
        1   -1    0    0  501    0  0.00000000000E+00  0.00000000000E+00 -0.10258668670E+04  0.10258668671E+04  0.50400001928E-02 0.  1.
    10030    2    1    2    0    0  0.00000000000E+00  0.00000000000E+00  0.16410437048E+04  0.36927774390E+04  0.33081083375E+04 0.  0.
        2    1    3    3  502    0  0.16463837667E+04  0.10736984724E+03  0.68944843354E+03  0.17881406359E+04  0.25500000920E-02 0.  1.
       -2    1    3    3    0  502 -0.16463837667E+04 -0.10736984724E+03  0.95159527131E+03  0.19046368031E+04  0.25500000920E-02 0. -1.
</event>
<event>
 5   0  0.2727168E-07  0.3313178E+04  0.7818609E-02  0.8159550E-01
        2   -1    0    0  501    0  0.00000000000E+00  0.00000000000E+00  0.23353092873E+04  0.23353092873E+04  0.25500000920E-02 0.  1.
       -2   -1    0    0    0  501  0.00000000000E+00  0.00000000000E+00 -0.11751276766E+04  0.11751276766E+04  0.25500000920E-02 0. -1.
    10030    2    1    2    0    0  0.00000000000E+00  0.00000000000E+00  0.11601816107E+04  0.35104369639E+04  0.33131776752E+04 0.  0.
        2    1    3    3  502    0  0.98906506105E+03 -0.96221574683E+03 -0.39109435470E+03  0.14342467126E+04  0.25500000920E-02 0. -1.
       -2    1    3    3    0  502 -0.98906506105E+03  0.96221574683E+03  0.15512759654E+04  0.20761902512E+04  0.25500000920E-02 0.  1.
</event>
<event>
 5   0  0.9181760E-08  0.3302021E+04  0.7818609E-02  0.8162381E-01
        1   -1    0    0  501    0  0.00000000000E+00  0.00000000000E+00  0.81583545283E+03  0.81583545285E+03  0.50400001928E-02 0.  1.
       -1   -1    0    0    0  501  0.00000000000E+00  0.00000000000E+00 -0.33411578122E+04  0.33411578122E+04  0.50400001928E-02 0. -1.
    10030    2    1    2    0    0  0.00000000000E+00  0.00000000000E+00 -0.25253223594E+04  0.41569932651E+04  0.33020205915E+04 0.  0.
        1    1    3    3  502    0  0.89438807250E+03  0.13864671923E+04 -0.11869821728E+04  0.20325225652E+04  0.50400001928E-02 0. -1.
       -1    1    3    3    0  502 -0.89438807250E+03 -0.13864671923E+04 -0.13383401866E+04  0.21244706999E+04  0.50400001928E-02 0.  1.
</event>
<event>
 5   0  0.2727168E-07  0.3299504E+04  0.7818609E-02  0.8163022E-01
       -2   -1    0    0    0  501  0.00000000000E+00  0.00000000000E+00  0.12969599950E+04  0.12969599950E+04  0.25500000920E-02 0. -1.
        2   -1    0    0  501    0  0.00000000000E+00  0.00000000000E+00 -0.20985083415E+04  0.20985083415E+04  0.25500000920E-02 0.  1.
    10030    2    1    2    0    0  0.00000000000E+00  0.00000000000E+00 -0.80154834648E+03  0.33954683365E+04  0.32995038222E+04 0.  0.
        2    1    3    3  502    0 -0.80004963224E+03 -0.41858813732E+03  0.10201027493E+04  0.13623160654E+04  0.25500000920E-02 0. -1.
       -2    1    3    3    0  502  0.80004963224E+03  0.41858813732E+03 -0.18216510958E+04  0.20331522711E+04  0.25500000920E-02 0.  1.
</event>
<event>
 5   0  0.2703956E-07  0.3287391E+04  0.7818609E-02  0.8166111E-01
        2   -1    0    0  501    0  0.00000000000E+00  0.00000000000E+00  0.14853910321E+04  0.14853910321E+04  0.25500000920E-02 0. -1.
       -2   -1    0    0    0  501  0.00000000000E+00  0.00000000000E+00 -0.18188712351E+04  0.18188712351E+04  0.25500000920E-02 0.  1.
    10030    2    1    2    0    0  0.00000000000E+00  0.00000000000E+00 -0.33348020296E+03  0.33042622672E+04  0.32873910757E+04 0.  0.
        5    1    3    3  502    0  0.36554727206E+03  0.15876980298E+04 -0.38534902771E+03  0.16741940763E+04  0.46999998093E+01 0.  1.
       -5    1    3    3    0  502 -0.36554727206E+03 -0.15876980298E+04  0.51868824746E+02  0.16300681909E+04  0.46999998093E+01 0. -1.
</event>
<event>
 5   0  0.2703956E-07  0.3298588E+04  0.7818609E-02  0.8163255E-01
        2   -1    0    0  501    0  0.00000000000E+00  0.00000000000E+00  0.18195644655E+04  0.18195644655E+04  0.25500000920E-02 0.  1.
       -2   -1    0    0    0  501  0.00000000000E+00  0.00000000000E+00 -0.14949573628E+04  0.14949573628E+04  0.25500000920E-02 0. -1.
    10030    2    1    2    0    0  0.00000000000E+00  0.00000000000E+00  0.32460710273E+03  0.33145218283E+04  0.32985883615E+04 0.  0.
        5    1    3    3  502    0 -0.19195168978E+03  0.27562730050E+02 -0.14834552723E+04  0.14960838179E+04  0.46999998093E+01 0. -1.
       -5    1    3    3    0  502  0.19195168978E+03 -0.27562730050E+02  0.18080623751E+04  0.18184380103E+04  0.46999998093E+01 0.  1.
</event>
<event>
 5   0  0.8805125E-08  0.3299332E+04  0.7818609E-02  0.8163065E-01
       -4   -1    0    0    0  501  0.00000000000E+00  0.00000000000E+00  0.18698287519E+04  0.18698291832E+04  0.12699999809E+01 0. -1.
        4   -1    0    0  501    0  0.00000000000E+00  0.00000000000E+00 -0.14554250576E+04  0.14554256117E+04  0.12699999809E+01 0.  1.
    10030    2    1    2    0    0  0.00000000000E+00  0.00000000000E+00  0.41440369438E+03  0.33252547949E+04  0.32993316034E+04 0.  0.
        5    1    3    3  502    0 -0.49381301036E+03 -0.96657142082E+03  0.14592441800E+04  0.18186608446E+04  0.46999998093E+01 0. -1.
       -5    1    3    3    0  502  0.49381301036E+03  0.96657142082E+03 -0.10448404856E+04  0.15065939503E+04  0.46999998093E+01 0.  1.
</event>
<event>
 5   0  0.9283910E-08  0.3301930E+04  0.7818609E-02  0.8162404E-01
        1   -1    0    0  501    0  0.00000000000E+00  0.00000000000E+00  0.23020319212E+04  0.23020319212E+04  0.50400001928E-02 0. -1.
       -1   -1    0    0    0  501  0.00000000000E+00  0.00000000000E+00 -0.11840348467E+04  0.11840348467E+04  0.50400001928E-02 0.  1.
    10030    2    1    2    0    0  0.00000000000E+00  0.00000000000E+00  0.11179970745E+04  0.34860667679E+04  0.33019303524E+04 0.  0.
        3    1    3    3  502    0  0.54474925896E+03 -0.15581548752E+04  0.52418013287E+03  0.17318669672E+04  0.10100000352E+00 0. -1.
       -3    1    3    3    0  502 -0.54474925896E+03  0.15581548752E+04  0.59381694162E+03  0.17541998007E+04  0.10100000352E+00 0.  1.
</event>
<event>
 5   0  0.9283910E-08  0.3302295E+04  0.7818609E-02  0.8162312E-01
       -1   -1    0    0    0  501  0.00000000000E+00  0.00000000000E+00  0.13305522002E+04  0.13305522002E+04  0.50400001928E-02 0.  1.
        1   -1    0    0  501    0  0.00000000000E+00  0.00000000000E+00 -0.20489904292E+04  0.20489904292E+04  0.50400001928E-02 0. -1.
    10030    2    1    2    0    0  0.00000000000E+00  0.00000000000E+00 -0.71843822902E+03  0.33795426293E+04  0.33022953978E+04 0.  0.
        3    1    3    3  502    0 -0.69088698914E+03  0.87982014741E+03 -0.16020739614E+04  0.19539829353E+04  0.10100000352E+00 0. -1.
       -3    1    3    3    0  502  0.69088698914E+03 -0.87982014741E+03  0.88363573236E+03  0.14255596940E+04  0.10100000352E+00 0.  1.
</event>
<event>
 5   0  0.9810351E-08  0.3299841E+04  0.7818609E-02  0.8162936E-01
        1   -1    0    0  501    0  0.00000000000E+00  0.00000000000E+00  0.17181096823E+04  0.17181096823E+04  0.50400001928E-02 0.  1.
       -1   -1    0    0    0  501  0.00000000000E+00  0.00000000000E+00 -0.15844380450E+04  0.15844380451E+04  0.50400001928E-02 0. -1.
    10030    2    1    2    0    0  0.00000000000E+00  0.00000000000E+00  0.13367163723E+03  0.33025477273E+04  0.32998414181E+04 0.  0.
        5    1    3    3  502    0  0.33200297389E+03  0.41430616420E+03  0.16302759785E+04  0.17145545861E+04  0.46999998093E+01 0.  1.
       -5    1    3    3    0  502 -0.33200297389E+03 -0.41430616420E+03 -0.14966043413E+04  0.15879931413E+04  0.46999998093E+01 0. -1.
</event>
<event>
 5   0  0.2824402E-07  0.3299294E+04  0.7818609E-02  0.8163075E-01
        2   -1    0    0  501    0  0.00000000000E+00  0.00000000000E+00  0.17832357948E+04  0.17832357948E+04  0.25500000920E-02 0.  1.
       -2   -1    0    0    0  501  0.00000000000E+00  0.00000000000E+00 -0.15260657422E+04  0.15260657422E+04  0.25500000920E-02 0. -1.
    10030    2    1    2    0    0  0.00000000000E+00  0.00000000000E+00  0.25717005255E+03  0.33093015370E+04  0.32992938982E+04 0.  0.
        1    1    3    3  502    0 -0.15230786973E+04 -0.69360351985E+02  0.76038092771E+03  0.17037484356E+04  0.50400001928E-02 0.  1.
       -1    1    3    3    0  502  0.15230786973E+04  0.69360351985E+02 -0.50321087516E+03  0.16055531014E+04  0.50400001928E-02 0. -1.
</event>
<event>
 5   0  0.9810351E-08  0.3307344E+04  0.7818609E-02  0.8161029E-01
       -1   -1    0    0    0  501  0.00000000000E+00  0.00000000000E+00  0.12575300665E+04  0.12575300665E+04  0.50400001928E-02 0.  1.
        1   -1    0    0  501    0  0.00000000000E+00  0.00000000000E+00 -0.21746048310E+04  0.21746048310E+04  0.50400001928E-02 0. -1.
    10030    2    1    2    0    0  0.00000000000E+00  0.00000000000E+00 -0.91707476449E+03  0.34321348975E+04  0.33073439239E+04 0.  0.
        5    1    3    3  502    0  0.75656601691E+03  0.41404563397E+03  0.10056509643E+04  0.13248327732E+04  0.46999998093E+01 0.  1.
       -5    1    3    3    0  502 -0.75656601691E+03 -0.41404563397E+03 -0.19227257288E+04  0.21073021243E+04  0.46999998093E+01 0. -1.
</event>
<event>
 5   0  0.2824402E-07  0.3328280E+04  0.7818609E-02  0.8155737E-01
        2   -1    0    0  501    0  0.00000000000E+00  0.00000000000E+00  0.30731499931E+04  0.30731499931E+04  0.25500000920E-02 0. -1.
       -2   -1    0    0    0  501  0.00000000000E+00  0.00000000000E+00 -0.90114747290E+03  0.90114747290E+03  0.25500000920E-02 0.  1.
    10030    2    1    2    0    0  0.00000000000E+00  0.00000000000E+00  0.21720025202E+04  0.39742974660E+04  0.33282796458E+04 0.  0.
        1    1    3    3  502    0 -0.12898050030E+04 -0.65485628791E+03  0.10354847864E+03  0.14502261862E+04  0.50400001928E-02 0.  1.
       -1    1    3    3    0  502  0.12898050030E+04  0.65485628791E+03  0.20684540416E+04  0.25240712798E+04  0.50400001928E-02 0. -1.
</event>
<event>
 5   0  0.2875829E-07  0.3292229E+04  0.7818609E-02  0.8164875E-01
       -2   -1    0    0    0  501  0.00000000000E+00  0.00000000000E+00  0.16420370090E+04  0.16420370090E+04  0.25500000920E-02 0. -1.
        2   -1    0    0  501    0  0.00000000000E+00  0.00000000000E+00 -0.16502024452E+04  0.16502024452E+04  0.25500000920E-02 0.  1.
    10030    2    1    2    0    0  0.00000000000E+00  0.00000000000E+00 -0.81654362017E+01  0.32922394542E+04  0.32922293282E+04 0.  0.
        3    1    3    3  502    0 -0.15396055169E+04  0.33953494745E+03 -0.47739627924E+03  0.16472936428E+04  0.10100000352E+00 0.  1.
       -3    1    3    3    0  502  0.15396055169E+04 -0.33953494745E+03  0.46923084304E+03  0.16449458114E+04  0.10100000352E+00 0. -1.
</event>
<event>
 5   0  0.2727168E-07  0.3290684E+04  0.7818609E-02  0.8165270E-01
       -2   -1    0    0    0  501  0.00000000000E+00  0.00000000000E+00  0.15073505309E+04  0.15073505309E+04  0.25500000920E-02 0.  1.
        2   -1    0    0  501    0  0.00000000000E+00  0.00000000000E+00 -0.17959654951E+04  0.17959654951E+04  0.25500000920E-02 0. -1.
    10030    2    1    2    0    0  0.00000000000E+00  0.00000000000E+00 -0.28861496421E+03  0.33033160259E+04  0.32906835414E+04 0.  0.
        2    1    3    3  502    0  0.62947410944E+03 -0.50003385465E+03  0.12967793513E+04  0.15257484053E+04  0.25500000920E-02 0.  1.
       -2    1    3    3    0  502 -0.62947410944E+03  0.50003385465E+03 -0.15853943155E+04  0.17775676206E+04  0.25500000920E-02 0. -1.
</event>
<event>
 5   0  0.8805125E-08  0.3298969E+04  0.7818609E-02  0.8163158E-01
       -1   -1    0    0    0  501  0.00000000000E+00  0.00000000000E+00  0.13357124123E+04  0.13357124123E+04  0.50400001928E-02 0.  1.
        1   -1    0    0  501    0  0.00000000000E+00  0.00000000000E+00 -0.20369644853E+04  0.20369644853E+04  0.50400001928E-02 0. -1.
    10030    2    1    2    0    0  0.00000000000E+00  0.00000000000E+00 -0.70125207307E+03  0.33726768976E+04  0.32989687761E+04 0.  0.
        4    1    3    3  502    0  0.13148557750E+04  0.16011284994E+03 -0.13556026618E+04  0.18952947062E+04  0.12699999809E+01 0. -1.
       -4    1    3    3    0  502 -0.13148557750E+04 -0.16011284994E+03  0.65435058869E+03  0.14773821914E+04  0.12699999809E+01 0.  1.
</event>
<event>
 5   0  0.2703956E-07  0.3297643E+04  0.7818609E-02  0.8163495E-01
        2   -1    0    0  501    0  0.00000000000E+00  0.00000000000E+00  0.20571141723E+04  0.20571141723E+04  0.25500000920E-02 0.  1.
       -2   -1    0    0    0  501  0.00000000000E+00  0.00000000000E+00 -0.13215658137E+04  0.13215658137E+04  0.25500000920E-02 0. -1.
    10030    2    1    2    0    0  0.00000000000E+00  0.00000000000E+00  0.73554835859E+03  0.33786799860E+04  0.32976426520E+04 0.  0.
        5    1    3    3  502    0  0.57559345729E+03 -0.55514024299E+03  0.18451169716E+04  0.20109617715E+04  0.46999998093E+01 0.  1.
       -5    1    3    3    0  502 -0.57559345729E+03  0.55514024299E+03 -0.11095686130E+04  0.13677182146E+04  0.46999998093E+01 0. -1.
</event>
<event>
 5   0  0.2703956E-07  0.3306344E+04  0.7818609E-02  0.8161283E-01
        2   -1    0    0  501    0  0.00000000000E+00  0.00000000000E+00  0.16463649059E+04  0.16463649059E+04  0.25500000920E-02 0. -1.
       -2   -1    0    0    0  501  0.00000000000E+00  0.00000000000E+00 -0.16600071740E+04  0.16600071740E+04  0.25500000920E-02 0.  1.
    10030    2    1    2    0    0  0.00000000000E+00  0.00000000000E+00 -0.13642268096E+02  0.33063720799E+04  0.33063439354E+04 0.  0.
        5    1    3    3  502    0 -0.99569990068E+03  0.88463689540E+02  0.13098948049E+04  0.16477531995E+04  0.46999998093E+01 0. -1.
       -5    1    3    3    0  502  0.99569990068E+03 -0.88463689540E+02 -0.13235370730E+04  0.16586188804E+04  0.46999998093E+01 0.  1.
</event>
<event>
 5   0  0.2824402E-07  0.3300758E+04  0.7818609E-02  0.8162703E-01
        2   -1    0    0  501    0  0.00000000000E+00  0.00000000000E+00  0.19983699208E+04  0.19983699208E+04  0.25500000920E-02 0.  1.
       -2   -1    0    0    0  501  0.00000000000E+00  0.00000000000E+00 -0.13629861170E+04  0.13629861170E+04  0.25500000920E-02 0. -1.
    10030    2    1    2    0    0  0.00000000000E+00  0.00000000000E+00  0.63538380380E+03  0.33613560377E+04  0.33007577667E+04 0.  0.
        1    1    3    3  502    0  0.31368840970E+03 -0.31286830805E+02  0.19674242545E+04  0.19925203842E+04  0.50400001928E-02 0.  1.
       -1    1    3    3    0  502 -0.31368840970E+03  0.31286830805E+02 -0.13320404507E+04  0.13688356536E+04  0.50400001928E-02 0. -1.
</event>
<event>
 5   0  0.2713815E-07  0.3297063E+04  0.7818609E-02  0.8163643E-01
        2   -1    0    0  501    0  0.00000000000E+00  0.00000000000E+00  0.11139160816E+04  0.11139160816E+04  0.25500000920E-02 0. -1.
       -2   -1    0    0    0  501  0.00000000000E+00  0.00000000000E+00 -0.24397320867E+04  0.24397320867E+04  0.25500000920E-02 0.  1.
    10030    2    1    2    0    0  0.00000000000E+00  0.00000000000E+00 -0.13258160050E+04  0.35536481683E+04  0.32970634245E+04 0.  0.
        4    1    3    3  502    0 -0.95113617552E+03  0.19835940672E+03 -0.20983344065E+04  0.23123614278E+04  0.12699999809E+01 0.  1.
       -4    1    3    3    0  502  0.95113617552E+03 -0.19835940672E+03  0.77251840145E+03  0.12412867405E+04  0.12699999809E+01 0. -1.
</event>
<event>
 5   0  0.8805125E-08  0.3302452E+04  0.7818609E-02  0.8162272E-01
        1   -1    0    0  501    0  0.00000000000E+00  0.00000000000E+00  0.19248856591E+04  0.19248856591E+04  0.50400001928E-02 0.  1.
       -1   -1    0    0    0  501  0.00000000000E+00  0.00000000000E+00 -0.14164727693E+04  0.14164727693E+04  0.50400001928E-02 0. -1.
    10030    2    1    2    0    0  0.00000000000E+00  0.00000000000E+00  0.50841288979E+03  0.33413584284E+04  0.33024524948E+04 0.  0.
        4    1    3    3  502    0 -0.45940217647E+02  0.10392850460E+04  0.15516246825E+04  0.18680911859E+04  0.12699999809E+01 0.  1.
       -4    1    3    3    0  502  0.45940217647E+02 -0.10392850460E+04 -0.10432117927E+04  0.14732672425E+04  0.12699999809E+01 0. -1.
</event>
<event>
 5   0  0.9454010E-08  0.3293185E+04  0.7818609E-02  0.8164632E-01
       -1   -1    0    0    0  501  0.00000000000E+00  0.00000000000E+00  0.16893673930E+04  0.16893673930E+04  0.50400001928E-02 0.  1.
        1   -1    0    0  501    0  0.00000000000E+00  0.00000000000E+00 -0.16049005619E+04  0.16049005619E+04  0.50400001928E-02 0. -1.
    10030    2    1    2    0    0  0.00000000000E+00  0.00000000000E+00  0.84466831125E+02  0.32942679549E+04  0.32931848890E+04 0.  0.
        2    1    3    3  502    0  0.13902975109E+04 -0.81534446995E+03  0.37932035979E+03  0.16557770710E+04  0.25500000920E-02 0. -1.
       -2    1    3    3    0  502 -0.13902975109E+04  0.81534446995E+03 -0.29485352867E+03  0.16384908839E+04  0.25500000920E-02 0.  1.
</event>
<event>
 5   0  0.2703956E-07  0.3301922E+04  0.7818609E-02  0.8162406E-01
       -2   -1    0    0    0  501  0.00000000000E+00  0.00000000000E+00  0.11621985771E+04  0.11621985772E+04  0.25500000920E-02 0. -1.
        2   -1    0    0  501    0  0.00000000000E+00  0.00000000000E+00 -0.23452725843E+04  0.23452725843E+04  0.25500000920E-02 0.  1.
    10030    2    1    2    0    0  0.00000000000E+00  0.00000000000E+00 -0.11830740071E+04  0.35074711614E+04  0.33019221435E+04 0.  0.
        5    1    3    3  502    0  0.93588815011E+03  0.13581989054E+04 -0.51597908646E+03  0.17282498094E+04  0.46999998093E+01 0.  1.
       -5    1    3    3    0  502 -0.93588815011E+03 -0.13581989054E+04 -0.66709492067E+03  0.17792213520E+04  0.46999998093E+01 0. -1.
</event>
<event>
 5   0  0.2875829E-07  0.3301145E+04  0.7818609E-02  0.8162604E-01
       -2   -1    0    0    0  501  0.00000000000E+00  0.00000000000E+00  0.24305697429E+04  0.24305697429E+04  0.25500000920E-02 0. -1.
        2   -1    0    0  501    0  0.00000000000E+00  0.00000000000E+00 -0.11208852618E+04  0.11208852618E+04  0.25500000920E-02 0.  1.
    10030    2    1    2    0    0  0.00000000000E+00  0.00000000000E+00  0.13096844810E+04  0.35514550047E+04  0.33011451362E+04 0.  0.
        3    1    3    3  502    0 -0.44588523571E+03 -0.36480105552E+03  0.23188959476E+04  0.23893873440E+04  0.10100000352E+00 0. -1.
       -3    1    3    3    0  502  0.44588523571E+03  0.36480105552E+03 -0.10092114666E+04  0.11620676607E+04  0.10100000352E+00 0.  1.
</event>
<event>
 5   0  0.9454010E-08  0.3308299E+04  0.7818609E-02  0.8160787E-01
       -1   -1    0    0    0  501  0.00000000000E+00  0.00000000000E+00  0.12507323617E+04  0.12507323617E+04  0.50400001928E-02 0.  1.
        1   -1    0    0  501    0  0.00000000000E+00  0.00000000000E+00 -0.21876868284E+04  0.21876868284E+04  0.50400001928E-02 0. -1.
    10030    2    1    2    0    0  0.00000000000E+00  0.00000000000E+00 -0.93695446675E+03  0.34384191902E+04  0.33082990878E+04 0.  0.
        2    1    3    3  502    0  0.73865124383E+03  0.39696458618E+03 -0.19503991733E+04  0.21230269612E+04  0.25500000920E-02 0. -1.
       -2    1    3    3    0  502 -0.73865124383E+03 -0.39696458618E+03  0.10134447066E+04  0.13153922289E+04  0.25500000920E-02 0.  1.
</event>
<event>
 5   0  0.2713815E-07  0.3306854E+04  0.7818609E-02  0.8161154E-01
       -2   -1    0    0    0  501  0.00000000000E+00  0.00000000000E+00  0.10474876648E+04  0.10474876648E+04  0.25500000920E-02 0. -1.
        2   -1    0    0  501    0  0.00000000000E+00  0.00000000000E+00 -0.26098830812E+04  0.26098830812E+04  0.25500000920E-02 0.  1.
    10030    2    1    2    0    0  0.00000000000E+00  0.00000000000E+00 -0.15623954164E+04  0.36573707460E+04  0.33068536914E+04 0.  0.
        4    1    3    3  502    0  0.12440274679E+04  0.43955778175E+03  0.32092350186E+03  0.13578692467E+04  0.12699999809E+01 0. -1.
       -4    1    3    3    0  502 -0.12440274679E+04 -0.43955778175E+03 -0.18833189183E+04  0.22995014993E+04  0.12699999809E+01 0.  1.
</event>
<event>
 5   0  0.8805125E-08  0.3298390E+04  0.7818609E-02  0.8163305E-01
       -1   -1    0    0    0  501  0.00000000000E+00  0.00000000000E+00  0.16873854265E+04  0.16873854265E+04  0.50400001928E-02 0.  1.
        1   -1    0    0  501    0  0.00000000000E+00  0.00000000000E+00 -0.16118692719E+04  0.16118692719E+04  0.50400001928E-02 0. -1.
    10030    2    1    2    0    0  0.00000000000E+00  0.00000000000E+00  0.75516154584E+02  0.32992546984E+04  0.32983903461E+04 0.  0.
        4    1    3    3  502    0 -0.29040892903E+03  0.97307707151E+03 -0.12620541812E+04  0.16198761380E+04  0.12699999809E+01 0. -1.
       -4    1    3    3    0  502  0.29040892903E+03 -0.97307707151E+03  0.13375703358E+04  0.16793785604E+04  0.12699999809E+01 0.  1.
</event>
<event>
 5   0  0.9283910E-08  0.3310571E+04  0.7818609E-02  0.8160211E-01
        1   -1    0    0  501    0  0.00000000000E+00  0.00000000000E+00  0.22327446407E+04  0.22327446407E+04  0.50400001928E-02 0.  1.
       -1   -1    0    0    0  501  0.00000000000E+00  0.00000000000E+00 -0.12271757128E+04  0.12271757128E+04  0.50400001928E-02 0. -1.
    10030    2    1    2    0    0  0.00000000000E+00  0.00000000000E+00  0.10055689279E+04  0.34599203535E+04  0.33105709453E+04 0.  0.
        3    1    3    3  502    0  0.85846295550E+03  0.94727731881E+03  0.16017329734E+04  0.20493514811E+04  0.10100000352E+00 0.  1.
       -3    1    3    3    0  502 -0.85846295550E+03 -0.94727731881E+03 -0.59616404546E+03  0.14105688725E+04  0.10100000352E+00 0. -1.
</event>
<event>
 5   0  0.2824402E-07  0.3297543E+04  0.7818609E-02  0.8163521E-01
       -2   -1    0    0    0  501  0.00000000000E+00  0.00000000000E+00  0.25098447301E+04  0.25098447302E+04  0.25500000920E-02 0.  1.
        2   -1    0    0  501    0  0.00000000000E+00  0.00000000000E+00 -0.10831136562E+04  0.10831136562E+04  0.25500000920E-02 0. -1.
    10030    2    1    2    0    0  0.00000000000E+00  0.00000000000E+00  0.14267310740E+04  0.35929583863E+04  0.32975427834E+04 0.  0.
        1    1    3    3  502    0 -0.60915915931E+03 -0.55615490247E+03  0.22688678145E+04  0.24141549902E+04  0.50400001928E-02 0.  1.
       -1    1    3    3    0  502  0.60915915931E+03  0.55615490247E+03 -0.84213674054E+03  0.11788033961E+04  0.50400001928E-02 0. -1.
</event>
<event>
 5   0  0.9454010E-08  0.3298932E+04  0.7818609E-02  0.8163167E-01
        1   -1    0    0  501    0  0.00000000000E+00  0.00000000000E+00  0.10552435677E+04  0.10552435677E+04  0.50400001928E-02 0.  1.
       -1   -1    0    0    0  501  0.00000000000E+00  0.00000000000E+00 -0.25783041417E+04  0.25783041417E+04  0.50400001928E-02 0. -1.
    10030    2    1    2    0    0  0.00000000000E+00  0.00000000000E+00 -0.15230605740E+04  0.36335477094E+04  0.32989324704E+04 0.  0.
        2    1    3    3  502    0  0.89615077282E+03 -0.58618188969E+03  0.62033529178E+03  0.12375424395E+04  0.25500000920E-02 0.  1.
       -2    1    3    3    0  502 -0.89615077282E+03  0.58618188969E+03 -0.21433958658E+04  0.23960052698E+04  0.25500000920E-02 0. -1.
</event>
<event>
 5   0  0.2824402E-07  0.3306468E+04  0.7818609E-02  0.8161252E-01
        2   -1    0    0  501    0  0.00000000000E+00  0.00000000000E+00  0.26345245163E+04  0.26345245163E+04  0.25500000920E-02 0.  1.
       -2   -1    0    0    0  501  0.00000000000E+00  0.00000000000E+00 -0.10374480452E+04  0.10374480452E+04  0.25500000920E-02 0. -1.
    10030    2    1    2    0    0  0.00000000000E+00  0.00000000000E+00  0.15970764711E+04  0.36719725614E+04  0.33064677887E+04 0.  0.
        1    1    3    3  502    0  0.64070115800E+03 -0.14533107133E+04  0.13081456730E+04  0.20576333748E+04  0.50400001928E-02 0. -1.
       -1    1    3    3    0  502 -0.64070115800E+03  0.14533107133E+04  0.28893079808E+03  0.16143391866E+04  0.50400001928E-02 0.  1.
</event>
<event>
 5   0  0.2875829E-07  0.3302075E+04  0.7818609E-02  0.8162368E-01
       -2   -1    0    0    0  501  0.00000000000E+00  0.00000000000E+00  0.14154711135E+04  0.14154711135E+04  0.25500000920E-02 0.  1.
        2   -1    0    0  501    0  0.00000000000E+00  0.00000000000E+00 -0.19258077479E+04  0.19258077479E+04  0.25500000920E-02 0. -1.
    10030    2    1    2    0    0  0.00000000000E+00  0.00000000000E+00 -0.51033663441E+03  0.33412788614E+04  0.33020752488E+04 0.  0.
        3    1    3    3  502    0 -0.38682701463E+03 -0.12547776445E+04  0.75762607719E+03  0.15159483366E+04  0.10100000352E+00 0.  1.
       -3    1    3    3    0  502  0.38682701463E+03  0.12547776445E+04 -0.12679627116E+04  0.18253305247E+04  0.10100000352E+00 0. -1.
</event>
<event>
 5   0  0.9181760E-08  0.3300496E+04  0.7818609E-02  0.8162769E-01
       -1   -1    0    0    0  501  0.00000000000E+00  0.00000000000E+00  0.26863037342E+04  0.26863037342E+04  0.50400001928E-02 0.  1.
        1   -1    0    0  501    0  0.00000000000E+00  0.00000000000E+00 -0.10137789210E+04  0.10137789210E+04  0.50400001928E-02 0. -1.
    10030    2    1    2    0    0  0.00000000000E+00  0.00000000000E+00  0.16725248132E+04  0.37000826552E+04  0.33004957817E+04 0.  0.
        1    1    3    3  502    0  0.13599577206E+04 -0.76457287211E+03  0.14392071354E+04  0.21225865959E+04  0.50400001928E-02 0.  1.
       -1    1    3    3    0  502 -0.13599577206E+04  0.76457287211E+03  0.23331767777E+03  0.15774960594E+04  0.50400001928E-02 0. -1.
</event>
<event>
 5   0  0.9181760E-08  0.3297149E+04  0.7818609E-02  0.8163621E-01
       -1   -1    0    0    0  501  0.00000000000E+00  0.00000000000E+00  0.13593210732E+04  0.13593210732E+04  0.50400001928E-02 0.  1.
        1   -1    0    0  501    0  0.00000000000E+00  0.00000000000E+00 -0.19993786555E+04  0.19993786555E+04  0.50400001928E-02 0. -1.
    10030    2    1    2    0    0  0.00000000000E+00  0.00000000000E+00 -0.64005758230E+03  0.33586997288E+04  0.32971487924E+04 0.  0.
        1    1    3    3  502    0  0.31377425765E+03  0.82623498498E+03 -0.17376540905E+04  0.19495025708E+04  0.50400001928E-02 0. -1.
       -1    1    3    3    0  502 -0.31377425765E+03 -0.82623498498E+03  0.10975965082E+04  0.14091971580E+04  0.50400001928E-02 0.  1.
</event>
<event>
 5   0  0.2824402E-07  0.3296087E+04  0.7818609E-02  0.8163892E-01
        2   -1    0    0  501    0  0.00000000000E+00  0.00000000000E+00  0.23683916028E+04  0.23683916028E+04  0.25500000920E-02 0.  1.
       -2   -1    0    0    0  501  0.00000000000E+00  0.00000000000E+00 -0.11467900922E+04  0.11467900922E+04  0.25500000920E-02 0. -1.
    10030    2    1    2    0    0  0.00000000000E+00  0.00000000000E+00  0.12216015106E+04  0.35151816949E+04  0.32960873923E+04 0.  0.
        1    1    3    3  502    0  0.81621033714E+03  0.72686628263E+03 -0.70468773643E+03  0.13004302031E+04  0.50400001928E-02 0.  1.
       -1    1    3    3    0  502 -0.81621033714E+03 -0.72686628263E+03  0.19262892470E+04  0.22147514918E+04  0.50400001928E-02 0. -1.
</event>
<event>
 5   0  0.9454010E-08  0.3290766E+04  0.7818609E-02  0.8165249E-01
       -1   -1    0    0    0  501  0.00000000000E+00  0.00000000000E+00  0.18127144832E+04  0.18127144832E+04  0.50400001928E-02 0. -1.
        1   -1    0    0  501    0  0.00000000000E+00  0.00000000000E+00 -0.14934983116E+04  0.14934983116E+04  0.50400001928E-02 0.  1.
    10030    2    1    2    0    0  0.00000000000E+00  0.00000000000E+00  0.31921617162E+03  0.33062127948E+04  0.32907664882E+04 0.  0.
        2    1    3    3  502    0 -0.55027681796E+03  0.13378693117E+03 -0.13925000028E+04  0.15032497388E+04  0.25500000920E-02 0.  1.
       -2    1    3    3    0  502  0.55027681796E+03 -0.13378693117E+03  0.17117161745E+04  0.18029630560E+04  0.25500000920E-02 0. -1.
</event>
<event>
 5   0  0.9181760E-08  0.3357575E+04  0.7818609E-02  0.8148398E-01
       -1   -1    0    0    0  501  0.00000000000E+00  0.00000000000E+00  0.15990091316E+04  0.15990091316E+04  0.50400001928E-02 0. -1.
        1   -1    0    0  501    0  0.00000000000E+00  0.00000000000E+00 -0.17625463753E+04  0.17625463753E+04  0.50400001928E-02 0.  1.
    10030    2    1    2    0    0  0.00000000000E+00  0.00000000000E+00 -0.16353724370E+03  0.33615555069E+04  0.33575751661E+04 0.  0.
        1    1    3    3  502    0  0.11381971135E+04  0.10521239819E+04 -0.72741310841E+03  0.17121878907E+04  0.50400001928E-02 0.  1.
       -1    1    3    3    0  502 -0.11381971135E+04 -0.10521239819E+04  0.56387586471E+03  0.16493676162E+04  0.50400001928E-02 0. -1.
</event>
<event>
 5   0  0.2875829E-07  0.3302858E+04  0.7818609E-02  0.8162169E-01
       -2   -1    0    0    0  501  0.00000000000E+00  0.00000000000E+00  0.99481111672E+03  0.99481111672E+03  0.25500000920E-02 0.  1.
        2   -1    0    0  501    0  0.00000000000E+00  0.00000000000E+00 -0.27414428724E+04  0.27414428724E+04  0.25500000920E-02 0. -1.
    10030    2    1    2    0    0  0.00000000000E+00  0.00000000000E+00 -0.17466317557E+04  0.37362539891E+04  0.33028580625E+04 0.  0.
        3    1    3    3  502    0  0.24311120730E+02 -0.97060719399E+03  0.63784484232E+03  0.11616864502E+04  0.10100000352E+00 0.  1.
       -3    1    3    3    0  502 -0.24311120730E+02  0.97060719399E+03 -0.23844765980E+04  0.25745675389E+04  0.10100000352E+00 0. -1.
</event>
<event>
 5   0  0.8805125E-08  0.3305741E+04  0.7818609E-02  0.8161436E-01
       -1   -1    0    0    0  501  0.00000000000E+00  0.00000000000E+00  0.17999811064E+04  0.17999811064E+04  0.50400001928E-02 0.  1.
        1   -1    0    0  501    0  0.00000000000E+00  0.00000000000E+00 -0.15177833607E+04  0.15177833608E+04  0.50400001928E-02 0. -1.
    10030    2    1    2    0    0  0.00000000000E+00  0.00000000000E+00  0.28219774563E+03  0.33177644671E+04  0.33057412923E+04 0.  0.
        4    1    3    3  502    0  0.19621666412E+03  0.89900551900E+02  0.17857769825E+04  0.17987729520E+04  0.12699999809E+01 0.  1.
       -4    1    3    3    0  502 -0.19621666412E+03 -0.89900551900E+02 -0.15035792369E+04  0.15189915151E+04  0.12699999809E+01 0. -1.
</event>
<event>
 5   0  0.9181760E-08  0.3303134E+04  0.7818609E-02  0.8162098E-01
       -1   -1    0    0    0  501  0.00000000000E+00  0.00000000000E+00  0.11966498151E+04  0.11966498151E+04  0.50400001928E-02 0. -1.
        1   -1    0    0  501    0  0.00000000000E+00  0.00000000000E+00 -0.22794246547E+04  0.22794246547E+04  0.50400001928E-02 0.  1.
    10030    2    1    2    0    0  0.00000000000E+00  0.00000000000E+00 -0.10827748395E+04  0.34760744698E+04  0.33031337191E+04 0.  0.
        1    1    3    3  502    0  0.94482896395E+03 -0.13525558529E+04 -0.61988493351E+03  0.17624887055E+04  0.50400001928E-02 0.  1.
       -1    1    3    3    0  502 -0.94482896395E+03  0.13525558529E+04 -0.46288990602E+03  0.17135857643E+04  0.50400001928E-02 0. -1.
</event>
<event>
 5   0  0.9181760E-08  0.3288281E+04  0.7818609E-02  0.8165884E-01
        1   -1    0    0  501    0  0.00000000000E+00  0.00000000000E+00  0.17530997489E+04  0.17530997489E+04  0.50400001928E-02 0.  1.
       -1   -1    0    0    0  501  0.00000000000E+00  0.00000000000E+00 -0.15419536005E+04  0.15419536005E+04  0.50400001928E-02 0. -1.
    10030    2    1    2    0    0  0.00000000000E+00  0.00000000000E+00  0.21114614835E+03  0.32950533494E+04  0.32882812957E+04 0.  0.
        1    1    3    3  502    0 -0.68144098893E+03  0.18390698070E+03  0.15935604608E+04  0.17428765134E+04  0.50400001928E-02 0.  1.
       -1    1    3    3    0  502  0.68144098893E+03 -0.18390698070E+03 -0.13824143124E+04  0.15521768360E+04  0.50400001928E-02 0. -1.
</event>
<event>
 5   0  0.2727168E-07  0.3303689E+04  0.7818609E-02  0.8161957E-01
        2   -1    0    0  501    0  0.00000000000E+00  0.00000000000E+00  0.24535143930E+04  0.24535143930E+04  0.25500000920E-02 0.  1.
       -2   -1    0    0    0  501  0.00000000000E+00  0.00000000000E+00 -0.11121151243E+04  0.11121151243E+04  0.25500000920E-02 0. -1.
    10030    2    1    2    0    0  0.00000000000E+00  0.00000000000E+00  0.13413992687E+04  0.35656295174E+04  0.33036891284E+04 0.  0.
        2    1    3    3  502    0 -0.10316045504E+04  0.12900887612E+04  0.66280502613E+03  0.17798447862E+04  0.25500000920E-02 0. -1.
       -2    1    3    3    0  502  0.10316045504E+04 -0.12900887612E+04  0.67859424256E+03  0.17857847312E+04  0.25500000920E-02 0.  1.
</event>
<event>
 5   0  0.2713815E-07  0.3302788E+04  0.7818609E-02  0.8162186E-01
        2   -1    0    0  501    0  0.00000000000E+00  0.00000000000E+00  0.12034677580E+04  0.12034677580E+04  0.25500000920E-02 0.  1.
       -2   -1    0    0    0  501  0.00000000000E+00  0.00000000000E+00 -0.22660364858E+04  0.22660364858E+04  0.25500000920E-02 0. -1.
    10030    2    1    2    0    0  0.00000000000E+00  0.00000000000E+00 -0.10625687278E+04  0.34695042438E+04  0.33027878219E+04 0.  0.
        4    1    3    3  502    0 -0.14076962119E+04  0.49366220913E+03  0.21284324524E+03  0.15068559525E+04  0.12699999809E+01 0.  1.
       -4    1    3    3    0  502  0.14076962119E+04 -0.49366220913E+03 -0.12754119730E+04  0.19626482913E+04  0.12699999809E+01 0. -1.
</event>
<event>
 5   0  0.2875829E-07  0.3303605E+04  0.7818609E-02  0.8161979E-01
       -2   -1    0    0    0  501  0.00000000000E+00  0.00000000000E+00  0.91494844288E+03  0.91494844289E+03  0.25500000920E-02 0. -1.
        2   -1    0    0  501    0  0.00000000000E+00  0.00000000000E+00 -0.29820815019E+04  0.29820815019E+04  0.25500000920E-02 0.  1.
    10030    2    1    2    0    0  0.00000000000E+00  0.00000000000E+00 -0.20671330590E+04  0.38970299448E+04  0.33036045930E+04 0.  0.
        3    1    3    3  502    0  0.97758633151E+03 -0.35286050809E+03  0.48089843910E+03  0.11451850910E+04  0.10100000352E+00 0. -1.
       -3    1    3    3    0  502 -0.97758633151E+03  0.35286050809E+03 -0.25480314981E+04  0.27518448538E+04  0.10100000352E+00 0.  1.
</event>
<event>
 5   0  0.9283910E-08  0.3298297E+04  0.7818609E-02  0.8163329E-01
       -1   -1    0    0    0  501  0.00000000000E+00  0.00000000000E+00  0.19105101751E+04  0.19105101751E+04  0.50400001928E-02 0.  1.
        1   -1    0    0  501    0  0.00000000000E+00  0.00000000000E+00 -0.14235417508E+04  0.14235417508E+04  0.50400001928E-02 0. -1.
    10030    2    1    2    0    0  0.00000000000E+00  0.00000000000E+00  0.48696842432E+03  0.33340519259E+04  0.32982971361E+04 0.  0.
        3    1    3    3  502    0  0.17031664775E+03 -0.32920826513E+03  0.18678594565E+04  0.19042806521E+04  0.10100000352E+00 0.  1.
       -3    1    3    3    0  502 -0.17031664775E+03  0.32920826513E+03 -0.13808910322E+04  0.14297712738E+04  0.10100000352E+00 0. -1.
</event>
<event>
 5   0  0.2703956E-07  0.3300917E+04  0.7818609E-02  0.8162662E-01
       -2   -1    0    0    0  501  0.00000000000E+00  0.00000000000E+00  0.12454288143E+04  0.12454288143E+04  0.25500000920E-02 0. -1.
        2   -1    0    0  501    0  0.00000000000E+00  0.00000000000E+00 -0.21872096471E+04  0.21872096471E+04  0.25500000920E-02 0.  1.
    10030    2    1    2    0    0  0.00000000000E+00  0.00000000000E+00 -0.94178083282E+03  0.34326384614E+04  0.33009173982E+04 0.  0.
        5    1    3    3  502    0  0.13029889228E+04  0.83784851173E+03  0.12123589153E+03  0.15538630869E+04  0.46999998093E+01 0.  1.
       -5    1    3    3    0  502 -0.13029889228E+04 -0.83784851173E+03 -0.10630167243E+04  0.18787753745E+04  0.46999998093E+01 0. -1.
</event>
<event>
 5   0  0.2727168E-07  0.3302330E+04  0.7818609E-02  0.8162303E-01
       -2   -1    0    0    0  501  0.00000000000E+00  0.00000000000E+00  0.10638239072E+04  0.10638239072E+04  0.25500000920E-02 0.  1.
        2   -1    0    0  501    0  0.00000000000E+00  0.00000000000E+00 -0.25627785976E+04  0.25627785976E+04  0.25500000920E-02 0. -1.
    10030    2    1    2    0    0  0.00000000000E+00  0.00000000000E+00 -0.14989546904E+04  0.36266025048E+04  0.33023295662E+04 0.  0.
        2    1    3    3  502    0 -0.15215281197E+04  0.42685661597E+03 -0.12751111917E+04  0.20305572981E+04  0.25500000920E-02 0. -1.
       -2    1    3    3    0  502  0.15215281197E+04 -0.42685661597E+03 -0.22384349873E+03  0.15960452066E+04  0.25500000920E-02 0.  1.
</event>
<event>
 5   0  0.9283910E-08  0.3298154E+04  0.7818609E-02  0.8163365E-01
       -1   -1    0    0    0  501  0.00000000000E+00  0.00000000000E+00  0.12482947981E+04  0.12482947981E+04  0.50400001928E-02 0. -1.
        1   -1    0    0  501    0  0.00000000000E+00  0.00000000000E+00 -0.21785364962E+04  0.21785364962E+04  0.50400001928E-02 0.  1.
    10030    2    1    2    0    0  0.00000000000E+00  0.00000000000E+00 -0.93024169813E+03  0.34268312944E+04  0.32981544996E+04 0.  0.
        3    1    3    3  502    0 -0.54704269116E+03 -0.13316686693E+04 -0.13007746858E+04  0.19402607929E+04  0.10100000352E+00 0. -1.
       -3    1    3    3    0  502  0.54704269116E+03  0.13316686693E+04  0.37053298771E+03  0.14865705015E+04  0.10100000352E+00 0.  1.
</event>
<event>
 5   0  0.2703956E-07  0.3299318E+04  0.7818609E-02  0.8163069E-01
        2   -1    0    0  501    0  0.00000000000E+00  0.00000000000E+00  0.17683185876E+04  0.17683185876E+04  0.25500000920E-02 0. -1.
       -2   -1    0    0    0  501  0.00000000000E+00  0.00000000000E+00 -0.15389615762E+04  0.15389615762E+04  0.25500000920E-02 0.  1.
    10030    2    1    2    0    0  0.00000000000E+00  0.00000000000E+00  0.22935701145E+03  0.33072801638E+04  0.32993177239E+04 0.  0.
        5    1    3    3  502    0  0.15313867896E+03  0.15831446977E+04  0.55340321846E+03  0.16840652603E+04  0.46999998093E+01 0. -1.
       -5    1    3    3    0  502 -0.15313867896E+03 -0.15831446977E+04 -0.32404620701E+03  0.16232149035E+04  0.46999998093E+01 0.  1.
</event>
<event>
 5   0  0.8805125E-08  0.3287939E+04  0.7818609E-02  0.8165971E-01
       -3   -1    0    0    0  501  0.00000000000E+00  0.00000000000E+00  0.15760157370E+04  0.15760157403E+04  0.10100000352E+00 0. -1.
        3   -1    0    0  501    0  0.00000000000E+00  0.00000000000E+00 -0.17148531316E+04  0.17148531345E+04  0.10100000352E+00 0.  1.
    10030    2    1    2    0    0  0.00000000000E+00  0.00000000000E+00 -0.13883739453E+03  0.32908688748E+04  0.32879388877E+04 0.  0.
        5    1    3    3  502    0  0.64352721204E+03  0.10170078662E+04  0.10514815870E+04  0.15981451406E+04  0.46999998093E+01 0. -1.
       -5    1    3    3    0  502 -0.64352721204E+03 -0.10170078662E+04 -0.11903189815E+04  0.16927237342E+04  0.46999998093E+01 0.  1.
</event>
<event>
 5   0  0.2703956E-07  0.3294273E+04  0.7818609E-02  0.8164354E-01
       -2   -1    0    0    0  501  0.00000000000E+00  0.00000000000E+00  0.20173726333E+04  0.20173726333E+04  0.25500000920E-02 0.  1.
        2   -1    0    0  501    0  0.00000000000E+00  0.00000000000E+00 -0.13448473435E+04  0.13448473435E+04  0.25500000920E-02 0. -1.
    10030    2    1    2    0    0  0.00000000000E+00  0.00000000000E+00  0.67252528985E+03  0.33622199768E+04  0.32942727433E+04 0.  0.
        5    1    3    3  502    0  0.83267282024E+03 -0.12044441341E+04 -0.43362112060E+03  0.15271146204E+04  0.46999998093E+01 0.  1.
       -5    1    3    3    0  502 -0.83267282024E+03  0.12044441341E+04  0.11061464104E+04  0.18351053564E+04  0.46999998093E+01 0. -1.
</event>
<event>
 5   0  0.2824402E-07  0.3302301E+04  0.7818609E-02  0.8162310E-01
        2   -1    0    0  501    0  0.00000000000E+00  0.00000000000E+00  0.15482182389E+04  0.15482182389E+04  0.25500000920E-02 0. -1.
       -2   -1    0    0    0  501  0.00000000000E+00  0.00000000000E+00 -0.17609264903E+04  0.17609264903E+04  0.25500000920E-02 0.  1.
    10030    2    1    2    0    0  0.00000000000E+00  0.00000000000E+00 -0.21270825145E+03  0.33091447292E+04  0.33023013247E+04 0.  0.
        1    1    3    3  502    0 -0.10455653505E+04 -0.84710831521E+03 -0.10651541279E+04  0.17162029939E+04  0.50400001928E-02 0.  1.
       -1    1    3    3    0  502  0.10455653505E+04  0.84710831521E+03  0.85244587646E+03  0.15929417354E+04  0.50400001928E-02 0. -1.
</event>
<event>
 5   0  0.2713815E-07  0.3294300E+04  0.7818609E-02  0.8164347E-01
        2   -1    0    0  501    0  0.00000000000E+00  0.00000000000E+00  0.19752680809E+04  0.19752680809E+04  0.25500000920E-02 0.  1.
       -2   -1    0    0    0  501  0.00000000000E+00  0.00000000000E+00 -0.13735366220E+04  0.13735366221E+04  0.25500000920E-02 0. -1.
    10030    2    1    2    0    0  0.00000000000E+00  0.00000000000E+00  0.60173145887E+03  0.33488047030E+04  0.32942999545E+04 0.  0.
        4    1    3    3  502    0  0.67489701159E+03 -0.61081081010E+03  0.16963588595E+04  0.19251521537E+04  0.12699999809E+01 0.  1.
       -4    1    3    3    0  502 -0.67489701159E+03  0.61081081010E+03 -0.10946274006E+04  0.14236525493E+04  0.12699999809E+01 0. -1.
</event>
<event>
 5   0  0.9283910E-08  0.3313927E+04  0.7818609E-02  0.8159361E-01
       -1   -1    0    0    0  501  0.00000000000E+00  0.00000000000E+00  0.15081230918E+04  0.15081230918E+04  0.50400001928E-02 0. -1.
        1   -1    0    0  501    0  0.00000000000E+00  0.00000000000E+00 -0.18204933495E+04  0.18204933495E+04  0.50400001928E-02 0.  1.
    10030    2    1    2    0    0  0.00000000000E+00  0.00000000000E+00 -0.31237025770E+03  0.33286164414E+04  0.33139270112E+04 0.  0.
        3    1    3    3  502    0  0.14372773710E+04  0.22417593605E+03 -0.95311679195E+03  0.17390953742E+04  0.10100000352E+00 0.  1.
       -3    1    3    3    0  502 -0.14372773710E+04 -0.22417593605E+03  0.64074653424E+03  0.15895210671E+04  0.10100000352E+00 0. -1.
</event>
<event>
 5   0  0.8805125E-08  0.3301905E+04  0.7818609E-02  0.8162411E-01
       -1   -1    0    0    0  501  0.00000000000E+00  0.00000000000E+00  0.11005777677E+04  0.11005777677E+04  0.50400001928E-02 0. -1.
        1   -1    0    0  501    0  0.00000000000E+00  0.00000000000E+00 -0.24765576882E+04  0.24765576882E+04  0.50400001928E-02 0.  1.
    10030    2    1    2    0    0  0.00000000000E+00  0.00000000000E+00 -0.13759799206E+04  0.35771354559E+04  0.33019051059E+04 0.  0.
        4    1    3    3  502    0  0.29270417220E+03  0.11858721903E+04 -0.18912819562E+04  0.22514256894E+04  0.12699999809E+01 0.  1.
       -4    1    3    3    0  502 -0.29270417220E+03 -0.11858721903E+04  0.51530203561E+03  0.13257097665E+04  0.12699999809E+01 0. -1.
</event>
<event>
 5   0  0.2824402E-07  0.3303289E+04  0.7818609E-02  0.8162059E-01
        2   -1    0    0  501    0  0.00000000000E+00  0.00000000000E+00  0.15517072847E+04  0.15517072847E+04  0.25500000920E-02 0.  1.
       -2   -1    0    0    0  501  0.00000000000E+00  0.00000000000E+00 -0.17580180883E+04  0.17580180884E+04  0.25500000920E-02 0. -1.
    10030    2    1    2    0    0  0.00000000000E+00  0.00000000000E+00 -0.20631080362E+03  0.33097253731E+04  0.33032889516E+04 0.  0.
        1    1    3    3  502    0  0.15469032801E+04 -0.48581339187E+03  0.21210839424E+03  0.16352108062E+04  0.50400001928E-02 0.  1.
       -1    1    3    3    0  502 -0.15469032801E+04  0.48581339187E+03 -0.41841919786E+03  0.16745145669E+04  0.50400001928E-02 0. -1.
</event>
<event>
 5   0  0.9181760E-08  0.3297455E+04  0.7818609E-02  0.8163543E-01
       -1   -1    0    0    0  501  0.00000000000E+00  0.00000000000E+00  0.12584610434E+04  0.12584610434E+04  0.50400001928E-02 0.  1.
        1   -1    0    0  501    0  0.00000000000E+00  0.00000000000E+00 -0.21600212851E+04  0.21600212852E+04  0.50400001928E-02 0. -1.
    10030    2    1    2    0    0  0.00000000000E+00  0.00000000000E+00 -0.90156024176E+03  0.34184823286E+04  0.32974551644E+04 0.  0.
        1    1    3    3  502    0  0.74392817760E+02  0.13220103392E+04  0.56764927294E+03  0.14406496192E+04  0.50400001928E-02 0.  1.
       -1    1    3    3    0  502 -0.74392817760E+02 -0.13220103392E+04 -0.14692095147E+04  0.19778327094E+04  0.50400001928E-02 0. -1.
</event>
<event>
 5   0  0.2713815E-07  0.3225004E+04  0.7818609E-02  0.8182245E-01
        2   -1    0    0  501    0  0.00000000000E+00  0.00000000000E+00  0.18678908958E+04  0.18678908958E+04  0.25500000920E-02 0. -1.
       -2   -1    0    0    0  501  0.00000000000E+00  0.00000000000E+00 -0.13920313225E+04  0.13920313225E+04  0.25500000920E-02 0.  1.
    10030    2    1    2    0    0  0.00000000000E+00  0.00000000000E+00  0.47585957320E+03  0.32599222183E+04  0.32250039591E+04 0.  0.
        4    1    3    3  502    0 -0.32730942392E+03 -0.10887968372E+04 -0.91793306456E+03  0.14612367145E+04  0.12699999809E+01 0.  1.
       -4    1    3    3    0  502  0.32730942392E+03  0.10887968372E+04  0.13937926378E+04  0.17986855038E+04  0.12699999809E+01 0. -1.
</event>
<event>
 5   0  0.2703956E-07  0.3298826E+04  0.7818609E-02  0.8163194E-01
        2   -1    0    0  501    0  0.00000000000E+00  0.00000000000E+00  0.19834786459E+04  0.19834786459E+04  0.25500000920E-02 0.  1.
       -2   -1    0    0    0  501  0.00000000000E+00  0.00000000000E+00 -0.13716119175E+04  0.13716119175E+04  0.25500000920E-02 0. -1.
    10030    2    1    2    0    0  0.00000000000E+00  0.00000000000E+00  0.61186672837E+03  0.33550905634E+04  0.32988258207E+04 0.  0.
        5    1    3    3  502    0 -0.19628614434E+02  0.16457445988E+04  0.19601463293E+03  0.16574994399E+04  0.46999998093E+01 0.  1.
       -5    1    3    3    0  502  0.19628614434E+02 -0.16457445988E+04  0.41585209544E+03  0.16975911234E+04  0.46999998093E+01 0. -1.
</event>
<event>
 5   0  0.2703956E-07  0.3297395E+04  0.7818609E-02  0.8163559E-01
       -2   -1    0    0    0  501  0.00000000000E+00  0.00000000000E+00  0.10103369774E+04  0.10103369774E+04  0.25500000920E-02 0.  1.
        2   -1    0    0  501    0  0.00000000000E+00  0.00000000000E+00 -0.26903923117E+04  0.26903923117E+04  0.25500000920E-02 0. -1.
    10030    2    1    2    0    0  0.00000000000E+00  0.00000000000E+00 -0.16800553342E+04  0.37007292891E+04  0.32973946299E+04 0.  0.
        5    1    3    3  502    0 -0.88756640407E+03 -0.10481525813E+04 -0.18636066417E+04  0.23150485438E+04  0.46999998093E+01 0. -1.
       -5    1    3    3    0  502  0.88756640407E+03  0.10481525813E+04  0.18355130748E+03  0.13856807452E+04  0.46999998093E+01 0.  1.
</event>
<event>
 5   0  0.8805125E-08  0.3298859E+04  0.7818609E-02  0.8163186E-01
        1   -1    0    0  501    0  0.00000000000E+00  0.00000000000E+00  0.85186272031E+03  0.85186272033E+03  0.50400001928E-02 0.  1.
       -1   -1    0    0    0  501  0.00000000000E+00  0.00000000000E+00 -0.31937275448E+04  0.31937275448E+04  0.50400001928E-02 0. -1.
    10030    2    1    2    0    0  0.00000000000E+00  0.00000000000E+00 -0.23418648245E+04  0.40455902652E+04  0.32988588538E+04 0.  0.
        4    1    3    3  502    0 -0.93576571749E+03 -0.28822471611E+03 -0.27987544469E+04  0.29650900546E+04  0.12699999809E+01 0. -1.
       -4    1    3    3    0  502  0.93576571749E+03  0.28822471611E+03  0.45688962240E+03  0.10805002105E+04  0.12699999809E+01 0.  1.
</event>
<event>
 5   0  0.8805125E-08  0.3282853E+04  0.7818609E-02  0.8167272E-01
        1   -1    0    0  501    0  0.00000000000E+00  0.00000000000E+00  0.13881053253E+04  0.13881053253E+04  0.50400001928E-02 0.  1.
       -1   -1    0    0    0  501  0.00000000000E+00  0.00000000000E+00 -0.19409777081E+04  0.19409777081E+04  0.50400001928E-02 0. -1.
    10030    2    1    2    0    0  0.00000000000E+00  0.00000000000E+00 -0.55287238287E+03  0.33290830334E+04  0.32828533277E+04 0.  0.
        4    1    3    3  502    0 -0.11895180123E+03  0.11534247338E+04 -0.14545804896E+04  0.18602000325E+04  0.12699999809E+01 0. -1.
       -4    1    3    3    0  502  0.11895180123E+03 -0.11534247338E+04  0.90170810672E+03  0.14688830008E+04  0.12699999809E+01 0.  1.
</event>
<event>
 5   0  0.9181760E-08  0.3301638E+04  0.7818609E-02  0.8162479E-01
        1   -1    0    0  501    0  0.00000000000E+00  0.00000000000E+00  0.25733185634E+04  0.25733185634E+04  0.50400001928E-02 0. -1.
       -1   -1    0    0    0  501  0.00000000000E+00  0.00000000000E+00 -0.10590228633E+04  0.10590228633E+04  0.50400001928E-02 0.  1.
    10030    2    1    2    0    0  0.00000000000E+00  0.00000000000E+00  0.15142957000E+04  0.36323414267E+04  0.33016378924E+04 0.  0.
        1    1    3    3  502    0  0.38172639317E+03  0.47924660689E+03  0.24435986488E+04  0.25192393110E+04  0.50400001928E-02 0. -1.
       -1    1    3    3    0  502 -0.38172639317E+03 -0.47924660689E+03 -0.92930294875E+03  0.11131021157E+04  0.50400001928E-02 0.  1.
</event>
<event>
 5   0  0.2703956E-07  0.3296660E+04  0.7818609E-02  0.8163746E-01
        2   -1    0    0  501    0  0.00000000000E+00  0.00000000000E+00  0.20382110427E+04  0.20382110427E+04  0.25500000920E-02 0. -1.
       -2   -1    0    0    0  501  0.00000000000E+00  0.00000000000E+00 -0.13330273129E+04  0.13330273129E+04  0.25500000920E-02 0.  1.
    10030    2    1    2    0    0  0.00000000000E+00  0.00000000000E+00  0.70518372986E+03  0.33712383556E+04  0.32966595149E+04 0.  0.
        5    1    3    3  502    0 -0.14255661325E+04 -0.36953493760E+03 -0.40454535037E+03  0.15272438898E+04  0.46999998093E+01 0.  1.
       -5    1    3    3    0  502  0.14255661325E+04  0.36953493760E+03  0.11097290802E+04  0.18439944658E+04  0.46999998093E+01 0. -1.
</event>
<event>
 5   0  0.2713815E-07  0.3300234E+04  0.7818609E-02  0.8162836E-01
       -2   -1    0    0    0  501  0.00000000000E+00  0.00000000000E+00  0.14637764419E+04  0.14637764419E+04  0.25500000920E-02 0. -1.
        2   -1    0    0  501    0  0.00000000000E+00  0.00000000000E+00 -0.18601793787E+04  0.18601793787E+04  0.25500000920E-02 0.  1.
    10030    2    1    2    0    0  0.00000000000E+00  0.00000000000E+00 -0.39640293677E+03  0.33239558206E+04  0.33002343869E+04 0.  0.
        4    1    3    3  502    0 -0.10766397489E+04  0.12498676208E+04 -0.15838351440E+03  0.16572293652E+04  0.12699999809E+01 0. -1.
       -4    1    3    3    0  502  0.10766397489E+04 -0.12498676208E+04 -0.23801942237E+03  0.16667264553E+04  0.12699999809E+01 0.  1.
</event>
<event>
 5   0  0.2824402E-07  0.3295169E+04  0.7818609E-02  0.8164126E-01
        2   -1    0    0  501    0  0.00000000000E+00  0.00000000000E+00  0.10320994677E+04  0.10320994677E+04  0.25500000920E-02 0. -1.
       -2   -1    0    0    0  501  0.00000000000E+00  0.00000000000E+00 -0.26301102965E+04  0.26301102965E+04  0.25500000920E-02 0.  1.
    10030    2    1    2    0    0  0.00000000000E+00  0.00000000000E+00 -0.15980108288E+04  0.36622097642E+04  0.32951694566E+04 0.  0.
        1    1    3    3  502    0 -0.11257039945E+04 -0.63271880073E+03  0.33819582798E+03  0.13348853816E+04  0.50400001928E-02 0. -1.
       -1    1    3    3    0  502  0.11257039945E+04  0.63271880073E+03 -0.19362066567E+04  0.23273243825E+04  0.50400001928E-02 0.  1.
</event>
<event>
 5   0  0.2824402E-07  0.3296047E+04  0.7818609E-02  0.8163902E-01
        2   -1    0    0  501    0  0.00000000000E+00  0.00000000000E+00  0.15044596174E+04  0.15044596174E+04  0.25500000920E-02 0. -1.
       -2   -1    0    0    0  501  0.00000000000E+00  0.00000000000E+00 -0.18052875317E+04  0.18052875317E+04  0.25500000920E-02 0.  1.
    10030    2    1    2    0    0  0.00000000000E+00  0.00000000000E+00 -0.30082791431E+03  0.33097471491E+04  0.32960474446E+04 0.  0.
        1    1    3    3  502    0 -0.40549846353E+03 -0.13929910868E+04  0.63458271372E+03  0.15835240422E+04  0.50400001928E-02 0. -1.
       -1    1    3    3    0  502  0.40549846353E+03  0.13929910868E+04 -0.93541062802E+03  0.17262231069E+04  0.50400001928E-02 0.  1.
</event>
<event>
 5   0  0.9454010E-08  0.3283981E+04  0.7818609E-02  0.8166983E-01
       -1   -1    0    0    0  501  0.00000000000E+00  0.00000000000E+00  0.12371312324E+04  0.12371312324E+04  0.50400001928E-02 0. -1.
        1   -1    0    0  501    0  0.00000000000E+00  0.00000000000E+00 -0.21793431828E+04  0.21793431828E+04  0.50400001928E-02 0.  1.
    10030    2    1    2    0    0  0.00000000000E+00  0.00000000000E+00 -0.94221195041E+03  0.34164744153E+04  0.32839814358E+04 0.  0.
        2    1    3    3  502    0  0.11716221931E+04 -0.34854418057E+03  0.66946161070E+03  0.13936859249E+04  0.25500000920E-02 0. -1.
       -2    1    3    3    0  502 -0.11716221931E+04  0.34854418057E+03 -0.16116735611E+04  0.20227884903E+04  0.25500000920E-02 0.  1.
</event>
<event>
 5   0  0.9810351E-08  0.3323814E+04  0.7818609E-02  0.8156862E-01
       -1   -1    0    0    0  501  0.00000000000E+00  0.00000000000E+00  0.22198241803E+04  0.22198241804E+04  0.50400001928E-02 0. -1.
        1   -1    0    0  501    0  0.00000000000E+00  0.00000000000E+00 -0.12442134621E+04  0.12442134621E+04  0.50400001928E-02 0.  1.
    10030    2    1    2    0    0  0.00000000000E+00  0.00000000000E+00  0.97561071829E+03  0.34640376424E+04  0.33238141516E+04 0.  0.
        5    1    3    3  502    0  0.50808436955E+03  0.18311957317E+03 -0.11501973395E+04  0.12706921399E+04  0.46999998093E+01 0.  1.
       -5    1    3    3    0  502 -0.50808436955E+03 -0.18311957317E+03  0.21258080578E+04  0.21933455025E+04  0.46999998093E+01 0. -1.
</event>
<event>
 5   0  0.2703956E-07  0.3290271E+04  0.7818609E-02  0.8165375E-01
       -2   -1    0    0    0  501  0.00000000000E+00  0.00000000000E+00  0.16189650190E+04  0.16189650190E+04  0.25500000920E-02 0.  1.
        2   -1    0    0  501    0  0.00000000000E+00  0.00000000000E+00 -0.16717290128E+04  0.16717290128E+04  0.25500000920E-02 0. -1.
    10030    2    1    2    0    0  0.00000000000E+00  0.00000000000E+00 -0.52763993770E+02  0.32906940319E+04  0.32902709877E+04 0.  0.
        5    1    3    3  502    0  0.14276029646E+03  0.65357013195E+03  0.14767797367E+04  0.16212448613E+04  0.46999998093E+01 0.  1.
       -5    1    3    3    0  502 -0.14276029646E+03 -0.65357013195E+03 -0.15295437305E+04  0.16694491705E+04  0.46999998093E+01 0. -1.
</event>
<event>
 5   0  0.8805125E-08  0.3301082E+04  0.7818609E-02  0.8162620E-01
        1   -1    0    0  501    0  0.00000000000E+00  0.00000000000E+00  0.22561283644E+04  0.22561283644E+04  0.50400001928E-02 0.  1.
       -1   -1    0    0    0  501  0.00000000000E+00  0.00000000000E+00 -0.12075045707E+04  0.12075045707E+04  0.50400001928E-02 0. -1.
    10030    2    1    2    0    0  0.00000000000E+00  0.00000000000E+00  0.10486237937E+04  0.34636329352E+04  0.33010818301E+04 0.  0.
        4    1    3    3  502    0 -0.81201303489E+02  0.40871872687E+03  0.22000265707E+04  0.22391434019E+04  0.12699999809E+01 0.  1.
       -4    1    3    3    0  502  0.81201303489E+02 -0.40871872687E+03 -0.11514027770E+04  0.12244895333E+04  0.12699999809E+01 0. -1.
</event>
<event>
 5   0  0.2727168E-07  0.3300949E+04  0.7818609E-02  0.8162654E-01
        2   -1    0    0  501    0  0.00000000000E+00  0.00000000000E+00  0.22259628068E+04  0.22259628068E+04  0.25500000920E-02 0. -1.
       -2   -1    0    0    0  501  0.00000000000E+00  0.00000000000E+00 -0.12237701289E+04  0.12237701289E+04  0.25500000920E-02 0.  1.
    10030    2    1    2    0    0  0.00000000000E+00  0.00000000000E+00  0.10021926779E+04  0.34497329356E+04  0.33009494337E+04 0.  0.
        2    1    3    3  502    0 -0.13125932522E+04  0.99724073010E+03  0.58649019036E+03  0.17496745020E+04  0.25500000920E-02 0.  1.
       -2    1    3    3    0  502  0.13125932522E+04 -0.99724073010E+03  0.41570248752E+03  0.17000584336E+04  0.25500000920E-02 0. -1.
</event>
<event>
 5   0  0.9181760E-08  0.3309154E+04  0.7818609E-02  0.8160570E-01
        1   -1    0    0  501    0  0.00000000000E+00  0.00000000000E+00  0.16599370185E+04  0.16599370185E+04  0.50400001928E-02 0.  1.
       -1   -1    0    0    0  501  0.00000000000E+00  0.00000000000E+00 -0.16492338007E+04  0.16492338007E+04  0.50400001928E-02 0. -1.
    10030    2    1    2    0    0  0.00000000000E+00  0.00000000000E+00  0.10703217776E+02  0.33091708192E+04  0.33091535098E+04 0.  0.
        1    1    3    3  502    0  0.11161019182E+04 -0.37782001542E+03 -0.11562020475E+04  0.16508284679E+04  0.50400001928E-02 0. -1.
       -1    1    3    3    0  502 -0.11161019182E+04  0.37782001542E+03  0.11669052653E+04  0.16583423513E+04  0.50400001928E-02 0.  1.
</event>
<event>
 5   0  0.2875829E-07  0.3287026E+04  0.7818609E-02  0.8166204E-01
       -2   -1    0    0    0  501  0.00000000000E+00  0.00000000000E+00  0.19841135481E+04  0.19841135481E+04  0.25500000920E-02 0.  1.
        2   -1    0    0  501    0  0.00000000000E+00  0.00000000000E+00 -0.13613814111E+04  0.13613814111E+04  0.25500000920E-02 0. -1.
    10030    2    1    2    0    0  0.00000000000E+00  0.00000000000E+00  0.62273213703E+03  0.33454949593E+04  0.32870261952E+04 0.  0.
        3    1    3    3  502    0 -0.64537129221E+03  0.15004914213E+04  0.49669479650E+03  0.17072446635E+04  0.10100000352E+00 0. -1.
       -3    1    3    3    0  502  0.64537129221E+03 -0.15004914213E+04  0.12603734053E+03  0.16382502957E+04  0.10100000352E+00 0.  1.
</event>
<event>
 5   0  0.2703956E-07  0.3312563E+04  0.7818609E-02  0.8159706E-01
        2   -1    0    0  501    0  0.00000000000E+00  0.00000000000E+00  0.19396631308E+04  0.19396631308E+04  0.25500000920E-02 0.  1.
       -2   -1    0    0    0  501  0.00000000000E+00  0.00000000000E+00 -0.14143011287E+04  0.14143011287E+04  0.25500000920E-02 0. -1.
    10030    2    1    2    0    0  0.00000000000E+00  0.00000000000E+00  0.52536200215E+03  0.33539642595E+04  0.33125626063E+04 0.  0.
        5    1    3    3  502    0 -0.10629828099E+04 -0.12700392866E+04  0.28060598089E+03  0.16797898828E+04  0.46999998093E+01 0. -1.
       -5    1    3    3    0  502  0.10629828099E+04  0.12700392866E+04  0.24475602126E+03  0.16741743767E+04  0.46999998093E+01 0.  1.
</event>
<event>
 5   0  0.9181760E-08  0.3293058E+04  0.7818609E-02  0.8164664E-01
       -1   -1    0    0    0  501  0.00000000000E+00  0.00000000000E+00  0.13731745155E+04  0.13731745156E+04  0.50400001928E-02 0. -1.
        1   -1    0    0  501    0  0.00000000000E+00  0.00000000000E+00 -0.19742990651E+04  0.19742990651E+04  0.50400001928E-02 0.  1.
    10030    2    1    2    0    0  0.00000000000E+00  0.00000000000E+00 -0.60112454955E+03  0.33474735807E+04  0.32930576444E+04 0.  0.
        1    1    3    3  502    0  0.16261257949E+04  0.22824209465E+03 -0.17740914210E+03  0.16516214936E+04  0.50400001928E-02 0.  1.
       -1    1    3    3    0  502 -0.16261257949E+04 -0.22824209465E+03 -0.42371540745E+03  0.16958520870E+04  0.50400001928E-02 0. -1.
</event>
<event>
 5   0  0.8805125E-08  0.3282345E+04  0.7818609E-02  0.8167402E-01
       -1   -1    0    0    0  501  0.00000000000E+00  0.00000000000E+00  0.10672624081E+04  0.10672624081E+04  0.50400001928E-02 0.  1.
        1   -1    0    0  501    0  0.00000000000E+00  0.00000000000E+00 -0.25236970068E+04  0.25236970068E+04  0.50400001928E-02 0. -1.
    10030    2    1    2    0    0  0.00000000000E+00  0.00000000000E+00 -0.14564345987E+04  0.35909594149E+04  0.32823448598E+04 0.  0.
        4    1    3    3  502    0  0.91056736435E+03  0.84593877065E+03  0.44432791792E+03  0.13199144822E+04  0.12699999809E+01 0. -1.
       -4    1    3    3    0  502 -0.91056736435E+03 -0.84593877065E+03 -0.19007625167E+04  0.22710449327E+04  0.12699999809E+01 0.  1.
</event>
<event>
 5   0  0.8805125E-08  0.3297375E+04  0.7818609E-02  0.8163564E-01
       -3   -1    0    0    0  501  0.00000000000E+00  0.00000000000E+00  0.13126522921E+04  0.13126522960E+04  0.10100000352E+00 0. -1.
        3   -1    0    0  501    0  0.00000000000E+00  0.00000000000E+00 -0.20707466736E+04  0.20707466760E+04  0.10100000352E+00 0.  1.
    10030    2    1    2    0    0  0.00000000000E+00  0.00000000000E+00 -0.75809438143E+03  0.33833989721E+04  0.32973749428E+04 0.  0.
        5    1    3    3  502    0 -0.10311375341E+04  0.43846411688E+03  0.86190633369E+03  0.14136477687E+04  0.46999998093E+01 0. -1.
       -5    1    3    3    0  502  0.10311375341E+04 -0.43846411688E+03 -0.16200007151E+04  0.19697512033E+04  0.46999998093E+01 0.  1.
</event>
<event>
 5   0  0.9810351E-08  0.3291386E+04  0.7818609E-02  0.8165091E-01
       -1   -1    0    0    0  501  0.00000000000E+00  0.00000000000E+00  0.10896114026E+04  0.10896114026E+04  0.50400001928E-02 0.  1.
        1   -1    0    0  501    0  0.00000000000E+00  0.00000000000E+00 -0.24855702251E+04  0.24855702251E+04  0.50400001928E-02 0. -1.
    10030    2    1    2    0    0  0.00000000000E+00  0.00000000000E+00 -0.13959588225E+04  0.35751816277E+04  0.32913861270E+04 0.  0.
        5    1    3    3  502    0  0.33596697347E+03 -0.14943871163E+04 -0.44241553658E+02  0.15323335361E+04  0.46999998093E+01 0.  1.
       -5    1    3    3    0  502 -0.33596697347E+03  0.14943871163E+04 -0.13517172688E+04  0.20428480916E+04  0.46999998093E+01 0. -1.
</event>
<event>
 5   0  0.2703956E-07  0.3283027E+04  0.7818609E-02  0.8167228E-01
       -2   -1    0    0    0  501  0.00000000000E+00  0.00000000000E+00  0.13063796070E+04  0.13063796070E+04  0.25500000920E-02 0.  1.
        2   -1    0    0  501    0  0.00000000000E+00  0.00000000000E+00 -0.20626208200E+04  0.20626208200E+04  0.25500000920E-02 0. -1.
    10030    2    1    2    0    0  0.00000000000E+00  0.00000000000E+00 -0.75624121296E+03  0.33690004270E+04  0.32830265161E+04 0.  0.
        5    1    3    3  502    0  0.16091310550E+04 -0.18921226447E+03 -0.10770581270E+03  0.16238000693E+04  0.46999998093E+01 0.  1.
       -5    1    3    3    0  502 -0.16091310550E+04  0.18921226447E+03 -0.64853540027E+03  0.17452003577E+04  0.46999998093E+01 0. -1.
</event>
<event>
 5   0  0.2703956E-07  0.3295022E+04  0.7818609E-02  0.8164163E-01
        2   -1    0    0  501    0  0.00000000000E+00  0.00000000000E+00  0.19316215931E+04  0.19316215932E+04  0.25500000920E-02 0. -1.
       -2   -1    0    0    0  501  0.00000000000E+00  0.00000000000E+00 -0.14051884090E+04  0.14051884090E+04  0.25500000920E-02 0.  1.
    10030    2    1    2    0    0  0.00000000000E+00  0.00000000000E+00  0.52643318414E+03  0.33368100022E+04  0.32950218654E+04 0.  0.
        5    1    3    3  502    0 -0.13972869172E+04  0.86222831013E+03  0.12576836057E+03  0.16467204251E+04  0.46999998093E+01 0. -1.
       -5    1    3    3    0  502  0.13972869172E+04 -0.86222831013E+03  0.40066482357E+03  0.16900895771E+04  0.46999998093E+01 0.  1.
</event>
<event>
 5   0  0.2875829E-07  0.3302858E+04  0.7818609E-02  0.8162169E-01
        2   -1    0    0  501    0  0.00000000000E+00  0.00000000000E+00  0.12474102386E+04  0.12474102386E+04  0.25500000920E-02 0.  1.
       -2   -1    0    0    0  501  0.00000000000E+00  0.00000000000E+00 -0.21863039809E+04  0.21863039809E+04  0.25500000920E-02 0. -1.
    10030    2    1    2    0    0  0.00000000000E+00  0.00000000000E+00 -0.93889374225E+03  0.34337142195E+04  0.33028581383E+04 0.  0.
        3    1    3    3  502    0 -0.41619613680E+03  0.15828893724E+04 -0.69830471381E+03  0.17794345937E+04  0.10100000352E+00 0. -1.
       -3    1    3    3    0  502  0.41619613680E+03 -0.15828893724E+04 -0.24058902844E+03  0.16542796258E+04  0.10100000352E+00 0.  1.
</event>
<event>
 5   0  0.2703956E-07  0.3296767E+04  0.7818609E-02  0.8163719E-01
        2   -1    0    0  501    0  0.00000000000E+00  0.00000000000E+00  0.20254035646E+04  0.20254035646E+04  0.25500000920E-02 0. -1.
       -2   -1    0    0    0  501  0.00000000000E+00  0.00000000000E+00 -0.13415439247E+04  0.13415439247E+04  0.25500000920E-02 0.  1.
    10030    2    1    2    0    0  0.00000000000E+00  0.00000000000E+00  0.68385963992E+03  0.33669474893E+04  0.32967668083E+04 0.  0.
        5    1    3    3  502    0 -0.86597386095E+03 -0.13747807573E+04  0.58142463719E+02  0.16258337844E+04  0.46999998093E+01 0. -1.
       -5    1    3    3    0  502  0.86597386095E+03  0.13747807573E+04  0.62571717620E+03  0.17411137048E+04  0.46999998093E+01 0.  1.
</event>
<event>
 5   0  0.9454010E-08  0.3302572E+04  0.7818609E-02  0.8162241E-01
        1   -1    0    0  501    0  0.00000000000E+00  0.00000000000E+00  0.11692635951E+04  0.11692635951E+04  0.50400001928E-02 0. -1.
       -1   -1    0    0    0  501  0.00000000000E+00  0.00000000000E+00 -0.23320188273E+04  0.23320188273E+04  0.50400001928E-02 0.  1.
    10030    2    1    2    0    0  0.00000000000E+00  0.00000000000E+00 -0.11627552322E+04  0.35012824225E+04  0.33025715544E+04 0.  0.
        2    1    3    3  502    0  0.11318432147E+04 -0.52302223125E+03  0.56641010878E+03  0.13694676807E+04  0.25500000920E-02 0. -1.
       -2    1    3    3    0  502 -0.11318432147E+04  0.52302223125E+03 -0.17291653410E+04  0.21318147418E+04  0.25500000920E-02 0.  1.
</event>
<event>
 5   0  0.2875829E-07  0.3298383E+04  0.7818609E-02  0.8163307E-01
        2   -1    0    0  501    0  0.00000000000E+00  0.00000000000E+00  0.24912098837E+04  0.24912098837E+04  0.25500000920E-02 0. -1.
       -2   -1    0    0    0  501  0.00000000000E+00  0.00000000000E+00 -0.10917720153E+04  0.10917720153E+04  0.25500000920E-02 0.  1.
    10030    2    1    2    0    0  0.00000000000E+00  0.00000000000E+00  0.13994378684E+04  0.35829818991E+04  0.32983833831E+04 0.  0.
        3    1    3    3  502    0 -0.84814891767E+03 -0.10728206520E+04 -0.30151019456E+03  0.14004317711E+04  0.10100000352E+00 0.  1.
       -3    1    3    3    0  502  0.84814891767E+03  0.10728206520E+04  0.17009480630E+04  0.21825501280E+04  0.10100000352E+00 0. -1.
</event>
<event>
 5   0  0.2713815E-07  0.3297546E+04  0.7818609E-02  0.8163520E-01
        2   -1    0    0  501    0  0.00000000000E+00  0.00000000000E+00  0.18109570368E+04  0.18109570368E+04  0.25500000920E-02 0. -1.
       -2   -1    0    0    0  501  0.00000000000E+00  0.00000000000E+00 -0.15011134637E+04  0.15011134637E+04  0.25500000920E-02 0.  1.
    10030    2    1    2    0    0  0.00000000000E+00  0.00000000000E+00  0.30984357305E+03  0.33120705005E+04  0.32975457481E+04 0.  0.
        4    1    3    3  502    0  0.12959768630E+04  0.17262370277E+03 -0.85404032392E+03  0.15616470344E+04  0.12699999809E+01 0.  1.
       -4    1    3    3    0  502 -0.12959768630E+04 -0.17262370277E+03  0.11638838970E+04  0.17504234661E+04  0.12699999809E+01 0. -1.
</event>
<event>
 5   0  0.2875829E-07  0.3293910E+04  0.7818609E-02  0.8164447E-01
        2   -1    0    0  501    0  0.00000000000E+00  0.00000000000E+00  0.15452768371E+04  0.15452768371E+04  0.25500000920E-02 0.  1.
       -2   -1    0    0    0  501  0.00000000000E+00  0.00000000000E+00 -0.17553240231E+04  0.17553240231E+04  0.25500000920E-02 0. -1.
    10030    2    1    2    0    0  0.00000000000E+00  0.00000000000E+00 -0.21004718597E+03  0.33006008603E+04  0.32939104752E+04 0.  0.
        3    1    3    3  502    0  0.23387829294E+03  0.14758201579E+04 -0.79904669998E+03  0.16944674187E+04  0.10100000352E+00 0. -1.
       -3    1    3    3    0  502 -0.23387829294E+03 -0.14758201579E+04  0.58899951401E+03  0.16061334415E+04  0.10100000352E+00 0.  1.
</event>
<event>
 5   0  0.9454010E-08  0.3296744E+04  0.7818609E-02  0.8163724E-01
        1   -1    0    0  501    0  0.00000000000E+00  0.00000000000E+00  0.19606079664E+04  0.19606079664E+04  0.50400001928E-02 0. -1.
       -1   -1    0    0    0  501  0.00000000000E+00  0.00000000000E+00 -0.13858610998E+04  0.13858610998E+04  0.50400001928E-02 0.  1.
    10030    2    1    2    0    0  0.00000000000E+00  0.00000000000E+00  0.57474686663E+03  0.33464690662E+04  0.32967440377E+04 0.  0.
        2    1    3    3  502    0 -0.40210671763E+03  0.11929910500E+04 -0.79273069538E+03  0.14877296169E+04  0.25500000920E-02 0.  1.
       -2    1    3    3    0  502  0.40210671763E+03 -0.11929910500E+04  0.13674775620E+04  0.18587394493E+04  0.25500000920E-02 0. -1.
</event>
<event>
 5   0  0.2727168E-07  0.3279850E+04  0.7818609E-02  0.8168042E-01
        2   -1    0    0  501    0  0.00000000000E+00  0.00000000000E+00  0.10914463364E+04  0.10914463364E+04  0.25500000920E-02 0. -1.
       -2   -1    0    0    0  501  0.00000000000E+00  0.00000000000E+00 -0.24640275980E+04  0.24640275980E+04  0.25500000920E-02 0.  1.
    10030    2    1    2    0    0  0.00000000000E+00  0.00000000000E+00 -0.13725812617E+04  0.35554739344E+04  0.32798499323E+04 0.  0.
        2    1    3    3  502    0 -0.37373521916E+03  0.63605843224E+03 -0.22739884903E+04  0.23906635056E+04  0.25500000920E-02 0.  1.
       -2    1    3    3    0  502  0.37373521916E+03 -0.63605843224E+03  0.90140722859E+03  0.11648104288E+04  0.25500000920E-02 0. -1.
</event>
<event>
 5   0  0.8805125E-08  0.3300667E+04  0.7818609E-02  0.8162726E-01
        1   -1    0    0  501    0  0.00000000000E+00  0.00000000000E+00  0.28802745092E+04  0.28802745092E+04  0.50400001928E-02 0.  1.
       -1   -1    0    0    0  501  0.00000000000E+00  0.00000000000E+00 -0.94560462559E+03  0.94560462560E+03  0.50400001928E-02 0. -1.
    10030    2    1    2    0    0  0.00000000000E+00  0.00000000000E+00  0.19346698836E+04  0.38258791348E+04  0.33006671440E+04 0.  0.
        4    1    3    3  502    0  0.11287270928E+04  0.50152799628E+03  0.22360553303E+04  0.25545058688E+04  0.12699999809E+01 0.  1.
       -4    1    3    3    0  502 -0.11287270928E+04 -0.50152799628E+03 -0.30138544666E+03  0.12713732660E+04  0.12699999809E+01 0. -1.
</event>
<event>
 5   0  0.8805125E-08  0.3304107E+04  0.7818609E-02  0.8161851E-01
        1   -1    0    0  501    0  0.00000000000E+00  0.00000000000E+00  0.16721556751E+04  0.16721556751E+04  0.50400001928E-02 0. -1.
       -1   -1    0    0    0  501  0.00000000000E+00  0.00000000000E+00 -0.16321934411E+04  0.16321934411E+04  0.50400001928E-02 0.  1.
    10030    2    1    2    0    0  0.00000000000E+00  0.00000000000E+00  0.39962234005E+02  0.33043491163E+04  0.33041074592E+04 0.  0.
        4    1    3    3  502    0 -0.48710081332E+03  0.11654938788E+04  0.10847827697E+04  0.16650520875E+04  0.12699999809E+01 0. -1.
       -4    1    3    3    0  502  0.48710081332E+03 -0.11654938788E+04 -0.10448205357E+04  0.16392970287E+04  0.12699999809E+01 0.  1.
</event>
<event>
 5   0  0.2713815E-07  0.3305899E+04  0.7818609E-02  0.8161396E-01
        2   -1    0    0  501    0  0.00000000000E+00  0.00000000000E+00  0.10072354901E+04  0.10072354901E+04  0.25500000920E-02 0.  1.
       -2   -1    0    0    0  501  0.00000000000E+00  0.00000000000E+00 -0.27126142365E+04  0.27126142365E+04  0.25500000920E-02 0. -1.
    10030    2    1    2    0    0  0.00000000000E+00  0.00000000000E+00 -0.17053787464E+04  0.37198497266E+04  0.33058985647E+04 0.  0.
        4    1    3    3  502    0 -0.33245781452E+03  0.50568143788E+03  0.87809529816E+03  0.10664402846E+04  0.12699999809E+01 0.  1.
       -4    1    3    3    0  502  0.33245781452E+03 -0.50568143788E+03 -0.25834740446E+04  0.26534094420E+04  0.12699999809E+01 0. -1.
</event>
<event>
 5   0  0.9283910E-08  0.3299221E+04  0.7818609E-02  0.8163094E-01
       -1   -1    0    0    0  501  0.00000000000E+00  0.00000000000E+00  0.13603211918E+04  0.13603211918E+04  0.50400001928E-02 0.  1.
        1   -1    0    0  501    0  0.00000000000E+00  0.00000000000E+00 -0.20004205239E+04  0.20004205239E+04  0.50400001928E-02 0. -1.
    10030    2    1    2    0    0  0.00000000000E+00  0.00000000000E+00 -0.64009933218E+03  0.33607417157E+04  0.32992207754E+04 0.  0.
        3    1    3    3  502    0 -0.82057125423E+03  0.28590172195E+03 -0.17483866955E+04  0.19524172262E+04  0.10100000352E+00 0. -1.
       -3    1    3    3    0  502  0.82057125423E+03 -0.28590172195E+03  0.11082873633E+04  0.14083244895E+04  0.10100000352E+00 0.  1.
</event>
<event>
 5   0  0.9454010E-08  0.3303915E+04  0.7818609E-02  0.8161900E-01
       -1   -1    0    0    0  501  0.00000000000E+00  0.00000000000E+00  0.21166929632E+04  0.21166929632E+04  0.50400001928E-02 0. -1.
        1   -1    0    0  501    0  0.00000000000E+00  0.00000000000E+00 -0.12892584934E+04  0.12892584934E+04  0.50400001928E-02 0.  1.
    10030    2    1    2    0    0  0.00000000000E+00  0.00000000000E+00  0.82743446978E+03  0.34059514566E+04  0.33039154836E+04 0.  0.
        2    1    3    3  502    0  0.64031371851E+02 -0.16507161985E+04  0.41436600909E+03  0.17031333401E+04  0.25500000920E-02 0.  1.
       -2    1    3    3    0  502 -0.64031371851E+02  0.16507161985E+04  0.41306846069E+03  0.17028181165E+04  0.25500000920E-02 0. -1.
</event>
<event>
 5   0  0.2875829E-07  0.3300948E+04  0.7818609E-02  0.8162654E-01
       -2   -1    0    0    0  501  0.00000000000E+00  0.00000000000E+00  0.11782441485E+04  0.11782441485E+04  0.25500000920E-02 0.  1.
        2   -1    0    0  501    0  0.00000000000E+00  0.00000000000E+00 -0.23119696456E+04  0.23119696456E+04  0.25500000920E-02 0. -1.
    10030    2    1    2    0    0  0.00000000000E+00  0.00000000000E+00 -0.11337254971E+04  0.34902137941E+04  0.33009481707E+04 0.  0.
        3    1    3    3  502    0 -0.12707418892E+03  0.15897254931E+04 -0.10163113442E+04  0.18911012007E+04  0.10100000352E+00 0. -1.
       -3    1    3    3    0  502  0.12707418892E+03 -0.15897254931E+04 -0.11741415296E+03  0.15991125934E+04  0.10100000352E+00 0.  1.
</event>
<event>
 5   0  0.2875829E-07  0.3301898E+04  0.7818609E-02  0.8162413E-01
        2   -1    0    0  501    0  0.00000000000E+00  0.00000000000E+00  0.17157596443E+04  0.17157596443E+04  0.25500000920E-02 0. -1.
       -2   -1    0    0    0  501  0.00000000000E+00  0.00000000000E+00 -0.15885863148E+04  0.15885863148E+04  0.25500000920E-02 0.  1.
    10030    2    1    2    0    0  0.00000000000E+00  0.00000000000E+00  0.12717332950E+03  0.33043459590E+04  0.33018978121E+04 0.  0.
        3    1    3    3  502    0  0.13646192724E+04 -0.71177142157E+03  0.66138035119E+03  0.16751800782E+04  0.10100000352E+00 0. -1.
       -3    1    3    3    0  502 -0.13646192724E+04  0.71177142157E+03 -0.53420702169E+03  0.16291658809E+04  0.10100000352E+00 0.  1.
</event>
<event>
 5   0  0.2713815E-07  0.3271571E+04  0.7818609E-02  0.8170167E-01
       -2   -1    0    0    0  501  0.00000000000E+00  0.00000000000E+00  0.95830684343E+03  0.95830684343E+03  0.25500000920E-02 0.  1.
        2   -1    0    0  501    0  0.00000000000E+00  0.00000000000E+00 -0.27922095052E+04  0.27922095052E+04  0.25500000920E-02 0. -1.
    10030    2    1    2    0    0  0.00000000000E+00  0.00000000000E+00 -0.18339026618E+04  0.37505163487E+04  0.32715705569E+04 0.  0.
        4    1    3    3  502    0  0.15724083002E+04  0.28121536753E+03 -0.51286994318E+03  0.16776731317E+04  0.12699999809E+01 0.  1.
       -4    1    3    3    0  502 -0.15724083002E+04 -0.28121536753E+03 -0.13210327186E+04  0.20728432169E+04  0.12699999809E+01 0. -1.
</event>
<event>
 5   0  0.9181760E-08  0.3305898E+04  0.7818609E-02  0.8161396E-01
       -1   -1    0    0    0  501  0.00000000000E+00  0.00000000000E+00  0.19578232008E+04  0.19578232008E+04  0.50400001928E-02 0.  1.
        1   -1    0    0  501    0  0.00000000000E+00  0.00000000000E+00 -0.13955501056E+04  0.13955501056E+04  0.50400001928E-02 0. -1.
    10030    2    1    2    0    0  0.00000000000E+00  0.00000000000E+00  0.56227309520E+03  0.33533733064E+04  0.33058979867E+04 0.  0.
        1    1    3    3  502    0 -0.52553568392E+03  0.19060240588E+03  0.18590214180E+04  0.19412567231E+04  0.50400001928E-02 0.  1.
       -1    1    3    3    0  502  0.52553568392E+03 -0.19060240588E+03 -0.12967483228E+04  0.14121165833E+04  0.50400001928E-02 0. -1.
</event>
<event>
 5   0  0.2713815E-07  0.3301985E+04  0.7818609E-02  0.8162390E-01
       -2   -1    0    0    0  501  0.00000000000E+00  0.00000000000E+00  0.17193534357E+04  0.17193534357E+04  0.25500000920E-02 0.  1.
        2   -1    0    0  501    0  0.00000000000E+00  0.00000000000E+00 -0.15853499306E+04  0.15853499306E+04  0.25500000920E-02 0. -1.
    10030    2    1    2    0    0  0.00000000000E+00  0.00000000000E+00  0.13400350513E+03  0.33047033663E+04  0.33019853724E+04 0.  0.
        4    1    3    3  502    0  0.11838152286E+03  0.13249733258E+04 -0.91166140115E+03  0.16126675486E+04  0.12699999809E+01 0. -1.
       -4    1    3    3    0  502 -0.11838152286E+03 -0.13249733258E+04  0.10456649063E+04  0.16920358177E+04  0.12699999809E+01 0.  1.
</event>
<event>
 5   0  0.9283910E-08  0.3320410E+04  0.7818609E-02  0.8157721E-01
       -1   -1    0    0    0  501  0.00000000000E+00  0.00000000000E+00  0.22232886567E+04  0.22232886567E+04  0.50400001928E-02 0. -1.
        1   -1    0    0  501    0  0.00000000000E+00  0.00000000000E+00 -0.12397315865E+04  0.12397315865E+04  0.50400001928E-02 0.  1.
    10030    2    1    2    0    0  0.00000000000E+00  0.00000000000E+00  0.98355707020E+03  0.34630202432E+04  0.33204103202E+04 0.  0.
        3    1    3    3  502    0 -0.40609637381E+03 -0.16063215907E+04  0.38190765149E+03  0.17003049086E+04  0.10100000352E+00 0. -1.
       -3    1    3    3    0  502  0.40609637381E+03  0.16063215907E+04  0.60164941871E+03  0.17627153346E+04  0.10100000352E+00 0.  1.
</event>
<event>
 5   0  0.2875829E-07  0.3300403E+04  0.7818609E-02  0.8162793E-01
        2   -1    0    0  501    0  0.00000000000E+00  0.00000000000E+00  0.88526343579E+03  0.88526343579E+03  0.25500000920E-02 0.  1.
       -2   -1    0    0    0  501  0.00000000000E+00  0.00000000000E+00 -0.30761076038E+04  0.30761076038E+04  0.25500000920E-02 0. -1.
    10030    2    1    2    0    0  0.00000000000E+00  0.00000000000E+00 -0.21908441680E+04  0.39613710396E+04  0.33004033609E+04 0.  0.
        3    1    3    3  502    0  0.81225937839E+03  0.12242880599E+04 -0.19360638189E+03  0.14819345440E+04  0.10100000352E+00 0.  1.
       -3    1    3    3    0  502 -0.81225937839E+03 -0.12242880599E+04 -0.19972377861E+04  0.24794364956E+04  0.10100000352E+00 0. -1.
</event>
<event>
 5   0  0.2703956E-07  0.3307404E+04  0.7818609E-02  0.8161014E-01
        2   -1    0    0  501    0  0.00000000000E+00  0.00000000000E+00  0.17513531588E+04  0.17513531588E+04  0.25500000920E-02 0. -1.
       -2   -1    0    0    0  501  0.00000000000E+00  0.00000000000E+00 -0.15614954983E+04  0.15614954983E+04  0.25500000920E-02 0.  1.
    10030    2    1    2    0    0  0.00000000000E+00  0.00000000000E+00  0.18985766046E+03  0.33128486571E+04  0.33074038600E+04 0.  0.
        5    1    3    3  502    0  0.15756031572E+04  0.30781058054E+03  0.49236322970E+03  0.16792010905E+04  0.46999998093E+01 0. -1.
       -5    1    3    3    0  502 -0.15756031572E+04 -0.30781058054E+03 -0.30250556924E+03  0.16336475666E+04  0.46999998093E+01 0.  1.
</event>
<event>
 5   0  0.9181760E-08  0.3322320E+04  0.7818609E-02  0.8157239E-01
        1   -1    0    0  501    0  0.00000000000E+00  0.00000000000E+00  0.20402885257E+04  0.20402885257E+04  0.50400001928E-02 0. -1.
       -1   -1    0    0    0  501  0.00000000000E+00  0.00000000000E+00 -0.13524817212E+04  0.13524817212E+04  0.50400001928E-02 0.  1.
    10030    2    1    2    0    0  0.00000000000E+00  0.00000000000E+00  0.68780680459E+03  0.33927702469E+04  0.33223202356E+04 0.  0.
        1    1    3    3  502    0 -0.65138740844E+03  0.53864979193E+03 -0.11164568951E+04  0.14003303727E+04  0.50400001928E-02 0.  1.
       -1    1    3    3    0  502  0.65138740844E+03 -0.53864979193E+03  0.18042636997E+04  0.19924398742E+04  0.50400001928E-02 0. -1.
</event>
<event>
 5   0  0.9181760E-08  0.3295311E+04  0.7818609E-02  0.8164090E-01
        1   -1    0    0  501    0  0.00000000000E+00  0.00000000000E+00  0.15878280060E+04  0.15878280060E+04  0.50400001928E-02 0. -1.
       -1   -1    0    0    0  501  0.00000000000E+00  0.00000000000E+00 -0.17097369756E+04  0.17097369756E+04  0.50400001928E-02 0.  1.
    10030    2    1    2    0    0  0.00000000000E+00  0.00000000000E+00 -0.12190896963E+03  0.32975649816E+04  0.32953107609E+04 0.  0.
        1    1    3    3  502    0  0.51732258337E+02  0.83623387384E+03 -0.14806585639E+04  0.17012680862E+04  0.50400001928E-02 0.  1.
       -1    1    3    3    0  502 -0.51732258337E+02 -0.83623387384E+03  0.13587495942E+04  0.15962968954E+04  0.50400001928E-02 0. -1.
</event>
<event>
 5   0  0.2824402E-07  0.3297163E+04  0.7818609E-02  0.8163618E-01
        2   -1    0    0  501    0  0.00000000000E+00  0.00000000000E+00  0.23572582960E+04  0.23572582960E+04  0.25500000920E-02 0. -1.
       -2   -1    0    0    0  501  0.00000000000E+00  0.00000000000E+00 -0.11529585415E+04  0.11529585415E+04  0.25500000920E-02 0.  1.
    10030    2    1    2    0    0  0.00000000000E+00  0.00000000000E+00  0.12042997546E+04  0.35102168375E+04  0.32971630757E+04 0.  0.
        1    1    3    3  502    0 -0.16061917601E+04 -0.35757687923E+03  0.49511536921E+03  0.17183865757E+04  0.50400001928E-02 0. -1.
       -1    1    3    3    0  502  0.16061917601E+04  0.35757687923E+03  0.70918438534E+03  0.17918302618E+04  0.50400001928E-02 0.  1.
</event>
<event>
 5   0  0.8805125E-08  0.3302480E+04  0.7818609E-02  0.8162265E-01
        1   -1    0    0  501    0  0.00000000000E+00  0.00000000000E+00  0.21102743723E+04  0.21102743723E+04  0.50400001928E-02 0. -1.
       -1   -1    0    0    0  501  0.00000000000E+00  0.00000000000E+00 -0.12920566851E+04  0.12920566851E+04  0.50400001928E-02 0.  1.
    10030    2    1    2    0    0  0.00000000000E+00  0.00000000000E+00  0.81821768717E+03  0.34023310574E+04  0.33024803468E+04 0.  0.
        4    1    3    3  502    0 -0.12998147038E+04  0.64970993426E+03  0.12170070920E+04  0.18954548630E+04  0.12699999809E+01 0. -1.
       -4    1    3    3    0  502  0.12998147038E+04 -0.64970993426E+03 -0.39878940484E+03  0.15068761944E+04  0.12699999809E+01 0.  1.
</event>
<event>
 5   0  0.2703956E-07  0.3296981E+04  0.7818609E-02  0.8163664E-01
        2   -1    0    0  501    0  0.00000000000E+00  0.00000000000E+00  0.13536685407E+04  0.13536685407E+04  0.25500000920E-02 0.  1.
       -2   -1    0    0    0  501  0.00000000000E+00  0.00000000000E+00 -0.20075235089E+04  0.20075235089E+04  0.25500000920E-02 0. -1.
    10030    2    1    2    0    0  0.00000000000E+00  0.00000000000E+00 -0.65385496821E+03  0.33611920495E+04  0.32969812973E+04 0.  0.
        5    1    3    3  502    0 -0.63057029523E+03  0.15229581059E+04 -0.34924070860E+03  0.16849366315E+04  0.46999998093E+01 0.  1.
       -5    1    3    3    0  502  0.63057029523E+03 -0.15229581059E+04 -0.30461425962E+03  0.16762554181E+04  0.46999998093E+01 0. -1.
</event>
<event>
 5   0  0.9454010E-08  0.3304838E+04  0.7818609E-02  0.8161665E-01
        1   -1    0    0  501    0  0.00000000000E+00  0.00000000000E+00  0.17458612181E+04  0.17458612181E+04  0.50400001928E-02 0. -1.
       -1   -1    0    0    0  501  0.00000000000E+00  0.00000000000E+00 -0.15639783520E+04  0.15639783520E+04  0.50400001928E-02 0.  1.
    10030    2    1    2    0    0  0.00000000000E+00  0.00000000000E+00  0.18188286610E+03  0.33098395701E+04  0.33048383626E+04 0.  0.
        2    1    3    3  502    0 -0.13763605880E+04  0.11698095581E+01 -0.82483792098E+03  0.16045957225E+04  0.25500000920E-02 0.  1.
       -2    1    3    3    0  502  0.13763605880E+04 -0.11698095581E+01  0.10067207871E+04  0.17052438476E+04  0.25500000920E-02 0. -1.
</event>
<event>
 5   0  0.9810351E-08  0.3310441E+04  0.7818609E-02  0.8160244E-01
       -1   -1    0    0    0  501  0.00000000000E+00  0.00000000000E+00  0.17082981116E+04  0.17082981116E+04  0.50400001928E-02 0.  1.
        1   -1    0    0  501    0  0.00000000000E+00  0.00000000000E+00 -0.16037918978E+04  0.16037918978E+04  0.50400001928E-02 0. -1.
    10030    2    1    2    0    0  0.00000000000E+00  0.00000000000E+00  0.10450621383E+03  0.33120900094E+04  0.33104408592E+04 0.  0.
        5    1    3    3  502    0 -0.70120092927E+03 -0.10755306225E+04  0.10974187732E+04  0.16890230658E+04  0.46999998093E+01 0. -1.
       -5    1    3    3    0  502  0.70120092927E+03  0.10755306225E+04 -0.99291255936E+03  0.16230669437E+04  0.46999998093E+01 0.  1.
</event>
<event>
 5   0  0.9283910E-08  0.3355644E+04  0.7818609E-02  0.8148879E-01
        1   -1    0    0  501    0  0.00000000000E+00  0.00000000000E+00  0.19403952278E+04  0.19403952278E+04  0.50400001928E-02 0.  1.
       -1   -1    0    0    0  501  0.00000000000E+00  0.00000000000E+00 -0.14507798932E+04  0.14507798932E+04  0.50400001928E-02 0. -1.
    10030    2    1    2    0    0  0.00000000000E+00  0.00000000000E+00  0.48961533467E+03  0.33911751210E+04  0.33556438317E+04 0.  0.
        3    1    3    3  502    0  0.90894520507E+03  0.66036388903E+03  0.15041260672E+04  0.18774070118E+04  0.10100000352E+00 0.  1.
       -3    1    3    3    0  502 -0.90894520507E+03 -0.66036388903E+03 -0.10145107326E+04  0.15137681092E+04  0.10100000352E+00 0. -1.
</event>
<event>
 5   0  0.2703956E-07  0.3305218E+04  0.7818609E-02  0.8161569E-01
        2   -1    0    0  501    0  0.00000000000E+00  0.00000000000E+00  0.16117822348E+04  0.16117822348E+04  0.25500000920E-02 0. -1.
       -2   -1    0    0    0  501  0.00000000000E+00  0.00000000000E+00 -0.16944695152E+04  0.16944695152E+04  0.25500000920E-02 0.  1.
    10030    2    1    2    0    0  0.00000000000E+00  0.00000000000E+00 -0.82687280326E+02  0.33062517500E+04  0.33052176098E+04 0.  0.
        5    1    3    3  502    0 -0.75509228542E+03 -0.14194408433E+04  0.34102863091E+03  0.16435629846E+04  0.46999998093E+01 0. -1.
       -5    1    3    3    0  502  0.75509228542E+03  0.14194408433E+04 -0.42371591124E+03  0.16626887654E+04  0.46999998093E+01 0.  1.
</event>
<event>
 5   0  0.9454010E-08  0.3301247E+04  0.7818609E-02  0.8162578E-01
       -1   -1    0    0    0  501  0.00000000000E+00  0.00000000000E+00  0.15643912030E+04  0.15643912030E+04  0.50400001928E-02 0.  1.
        1   -1    0    0  501    0  0.00000000000E+00  0.00000000000E+00 -0.17416089522E+04  0.17416089522E+04  0.50400001928E-02 0. -1.
    10030    2    1    2    0    0  0.00000000000E+00  0.00000000000E+00 -0.17721774920E+03  0.33060001553E+04  0.33012468699E+04 0.  0.
        2    1    3    3  502    0  0.67086894088E+03 -0.13505752946E+04  0.58350497039E+03  0.16169714941E+04  0.25500000920E-02 0.  1.
       -2    1    3    3    0  502 -0.67086894088E+03  0.13505752946E+04 -0.76072271959E+03  0.16890286612E+04  0.25500000920E-02 0. -1.
</event>
<event>
 5   0  0.9283910E-08  0.3307262E+04  0.7818609E-02  0.8161050E-01
       -1   -1    0    0    0  501  0.00000000000E+00  0.00000000000E+00  0.13015235656E+04  0.13015235656E+04  0.50400001928E-02 0. -1.
        1   -1    0    0  501    0  0.00000000000E+00  0.00000000000E+00 -0.21009962562E+04  0.21009962562E+04  0.50400001928E-02 0.  1.
    10030    2    1    2    0    0  0.00000000000E+00  0.00000000000E+00 -0.79947269064E+03  0.34025198218E+04  0.33072623958E+04 0.  0.
        3    1    3    3  502    0  0.11821410056E+04  0.30338555850E+03 -0.15476678749E+04  0.19709835148E+04  0.10100000352E+00 0.  1.
       -3    1    3    3    0  502 -0.11821410056E+04 -0.30338555850E+03  0.74819518428E+03  0.14315363070E+04  0.10100000352E+00 0. -1.
</event>
<event>
 5   0  0.2875829E-07  0.3309133E+04  0.7818609E-02  0.8160575E-01
        2   -1    0    0  501    0  0.00000000000E+00  0.00000000000E+00  0.13675728996E+04  0.13675728996E+04  0.25500000920E-02 0.  1.
       -2   -1    0    0    0  501  0.00000000000E+00  0.00000000000E+00 -0.20017872993E+04  0.20017872993E+04  0.25500000920E-02 0. -1.
    10030    2    1    2    0    0  0.00000000000E+00  0.00000000000E+00 -0.63421439968E+03  0.33693601989E+04  0.33091328540E+04 0.  0.
        3    1    3    3  502    0  0.49589195533E+03 -0.93525837112E+03 -0.16118533308E+04  0.19283900597E+04  0.10100000352E+00 0. -1.
       -3    1    3    3    0  502 -0.49589195533E+03  0.93525837112E+03  0.97763893114E+03  0.14409701392E+04  0.10100000352E+00 0.  1.
</event>
<event>
 5   0  0.2703956E-07  0.3322484E+04  0.7818609E-02  0.8157198E-01
       -2   -1    0    0    0  501  0.00000000000E+00  0.00000000000E+00  0.11084430015E+04  0.11084430015E+04  0.25500000920E-02 0.  1.
        2   -1    0    0  501    0  0.00000000000E+00  0.00000000000E+00 -0.24897308913E+04  0.24897308913E+04  0.25500000920E-02 0. -1.
    10030    2    1    2    0    0  0.00000000000E+00  0.00000000000E+00 -0.13812878898E+04  0.35981738927E+04  0.33224838792E+04 0.  0.
        5    1    3    3  502    0 -0.52630959242E+03  0.15687887658E+04 -0.84981841620E+03  0.18601917668E+04  0.46999998093E+01 0.  1.
       -5    1    3    3    0  502  0.52630959242E+03 -0.15687887658E+04 -0.53146947363E+03  0.17379821259E+04  0.46999998093E+01 0. -1.
</event>
<event>
 5   0  0.2824402E-07  0.3298763E+04  0.7818609E-02  0.8163210E-01
        2   -1    0    0  501    0  0.00000000000E+00  0.00000000000E+00  0.22913123359E+04  0.22913123359E+04  0.25500000920E-02 0.  1.
       -2   -1    0    0    0  501  0.00000000000E+00  0.00000000000E+00 -0.11872934066E+04  0.11872934066E+04  0.25500000920E-02 0. -1.
    10030    2    1    2    0    0  0.00000000000E+00  0.00000000000E+00  0.11040189293E+04  0.34786057424E+04  0.32987634221E+04 0.  0.
        1    1    3    3  502    0 -0.10181411617E+03 -0.16253824799E+04  0.27656879424E+03  0.16518851710E+04  0.50400001928E-02 0.  1.
       -1    1    3    3    0  502  0.10181411617E+03  0.16253824799E+04  0.82745013504E+03  0.18267205714E+04  0.50400001928E-02 0. -1.
</event>
<event>
 5   0  0.8805125E-08  0.3303866E+04  0.7818609E-02  0.8161912E-01
       -1   -1    0    0    0  501  0.00000000000E+00  0.00000000000E+00  0.13271493753E+04  0.13271493753E+04  0.50400001928E-02 0. -1.
        1   -1    0    0  501    0  0.00000000000E+00  0.00000000000E+00 -0.20561985194E+04  0.20561985194E+04  0.50400001928E-02 0.  1.
    10030    2    1    2    0    0  0.00000000000E+00  0.00000000000E+00 -0.72904914410E+03  0.33833478948E+04  0.33038659662E+04 0.  0.
        4    1    3    3  502    0 -0.14060508068E+04 -0.86504592723E+03 -0.30310127789E+03  0.16784383590E+04  0.12699999809E+01 0. -1.
       -4    1    3    3    0  502  0.14060508068E+04  0.86504592723E+03 -0.42594786622E+03  0.17049095358E+04  0.12699999809E+01 0.  1.
</event>
<event>
 5   0  0.9810351E-08  0.3294769E+04  0.7818609E-02  0.8164228E-01
       -1   -1    0    0    0  501  0.00000000000E+00  0.00000000000E+00  0.98270842147E+03  0.98270842148E+03  0.50400001928E-02 0. -1.
        1   -1    0    0  501    0  0.00000000000E+00  0.00000000000E+00 -0.27616282343E+04  0.27616282343E+04  0.50400001928E-02 0.  1.
    10030    2    1    2    0    0  0.00000000000E+00  0.00000000000E+00 -0.17789198128E+04  0.37443366557E+04  0.32947687766E+04 0.  0.
        5    1    3    3  502    0  0.11413862308E+04 -0.11761029123E+04 -0.69972858220E+03  0.17820277121E+04  0.46999998093E+01 0. -1.
       -5    1    3    3    0  502 -0.11413862308E+04  0.11761029123E+04 -0.10791912306E+04  0.19623089436E+04  0.46999998093E+01 0.  1.
</event>
<event>
 5   0  0.9283910E-08  0.3305223E+04  0.7818609E-02  0.8161568E-01
        1   -1    0    0  501    0  0.00000000000E+00  0.00000000000E+00  0.19551568645E+04  0.19551568645E+04  0.50400001928E-02 0.  1.
       -1   -1    0    0    0  501  0.00000000000E+00  0.00000000000E+00 -0.13968830255E+04  0.13968830255E+04  0.50400001928E-02 0. -1.
    10030    2    1    2    0    0  0.00000000000E+00  0.00000000000E+00  0.55827383899E+03  0.33520398899E+04  0.33052234031E+04 0.  0.
        3    1    3    3  502    0 -0.23415696559E+03 -0.76070594261E+03 -0.11896947105E+04  0.14313897198E+04  0.10100000352E+00 0. -1.
       -3    1    3    3    0  502  0.23415696559E+03  0.76070594261E+03  0.17479685495E+04  0.19206501701E+04  0.10100000352E+00 0.  1.
</event>
<event>
 5   0  0.2727168E-07  0.3295316E+04  0.7818609E-02  0.8164088E-01
        2   -1    0    0  501    0  0.00000000000E+00  0.00000000000E+00  0.24167627451E+04  0.24167627451E+04  0.25500000920E-02 0.  1.
       -2   -1    0    0    0  501  0.00000000000E+00  0.00000000000E+00 -0.11233115673E+04  0.11233115673E+04  0.25500000920E-02 0. -1.
    10030    2    1    2    0    0  0.00000000000E+00  0.00000000000E+00  0.12934511778E+04  0.35400743123E+04  0.32953164017E+04 0.  0.
        2    1    3    3  502    0 -0.23566304441E+01 -0.12555195396E+04  0.17929531398E+04  0.21888389227E+04  0.25500000920E-02 0.  1.
       -2    1    3    3    0  502  0.23566304441E+01  0.12555195396E+04 -0.49950196201E+03  0.13512353896E+04  0.25500000920E-02 0. -1.
</event>
<event>
 5   0  0.9283910E-08  0.3300533E+04  0.7818609E-02  0.8162760E-01
       -1   -1    0    0    0  501  0.00000000000E+00  0.00000000000E+00  0.16260177407E+04  0.16260177407E+04  0.50400001928E-02 0. -1.
        1   -1    0    0  501    0  0.00000000000E+00  0.00000000000E+00 -0.16748767715E+04  0.16748767715E+04  0.50400001928E-02 0.  1.
    10030    2    1    2    0    0  0.00000000000E+00  0.00000000000E+00 -0.48859030845E+02  0.33008945122E+04  0.33005328927E+04 0.  0.
        3    1    3    3  502    0  0.25926389330E+03  0.14549175877E+04 -0.75893246255E+03  0.16613191885E+04  0.10100000352E+00 0.  1.
       -3    1    3    3    0  502 -0.25926389330E+03 -0.14549175877E+04  0.71007343170E+03  0.16395753236E+04  0.10100000352E+00 0. -1.
</event>
<event>
 5   0  0.9454010E-08  0.3299014E+04  0.7818609E-02  0.8163146E-01
       -1   -1    0    0    0  501  0.00000000000E+00  0.00000000000E+00  0.27641765430E+04  0.27641765430E+04  0.50400001928E-02 0. -1.
        1   -1    0    0  501    0  0.00000000000E+00  0.00000000000E+00 -0.98433430706E+03  0.98433430707E+03  0.50400001928E-02 0.  1.
    10030    2    1    2    0    0  0.00000000000E+00  0.00000000000E+00  0.17798422359E+04  0.37485108501E+04  0.32990142783E+04 0.  0.
        2    1    3    3  502    0 -0.19542255180E+03  0.73707498678E+03  0.25518828073E+04  0.26633766861E+04  0.25500000920E-02 0. -1.
       -2    1    3    3    0  502  0.19542255180E+03 -0.73707498678E+03 -0.77204057138E+03  0.10851341639E+04  0.25500000920E-02 0.  1.
</event>
<event>
 5   0  0.8805125E-08  0.3296123E+04  0.7818609E-02  0.8163883E-01
       -1   -1    0    0    0  501  0.00000000000E+00  0.00000000000E+00  0.11936605145E+04  0.11936605145E+04  0.50400001928E-02 0.  1.
        1   -1    0    0  501    0  0.00000000000E+00  0.00000000000E+00 -0.22754436528E+04  0.22754436528E+04  0.50400001928E-02 0. -1.
    10030    2    1    2    0    0  0.00000000000E+00  0.00000000000E+00 -0.10817831382E+04  0.34691041673E+04  0.32961233238E+04 0.  0.
        4    1    3    3  502    0 -0.35463922740E+03 -0.43245313856E+03  0.10907312578E+04  0.12257573122E+04  0.12699999809E+01 0.  1.
       -4    1    3    3    0  502  0.35463922740E+03  0.43245313856E+03 -0.21725143960E+04  0.22433468552E+04  0.12699999809E+01 0. -1.
</event>
<event>
 5   0  0.2875829E-07  0.3297909E+04  0.7818609E-02  0.8163428E-01
       -2   -1    0    0    0  501  0.00000000000E+00  0.00000000000E+00  0.20208748749E+04  0.20208748749E+04  0.25500000920E-02 0.  1.
        2   -1    0    0  501    0  0.00000000000E+00  0.00000000000E+00 -0.13454816854E+04  0.13454816854E+04  0.25500000920E-02 0. -1.
    10030    2    1    2    0    0  0.00000000000E+00  0.00000000000E+00  0.67539318956E+03  0.33663565603E+04  0.32979085085E+04 0.  0.
        3    1    3    3  502    0  0.19640500974E+03  0.60039801285E+03 -0.12170702181E+04  0.13712449190E+04  0.10100000352E+00 0. -1.
       -3    1    3    3    0  502 -0.19640500974E+03 -0.60039801285E+03  0.18924634077E+04  0.19951116413E+04  0.10100000352E+00 0.  1.
</event>
<event>
 5   0  0.2875829E-07  0.3281861E+04  0.7818609E-02  0.8167526E-01
        2   -1    0    0  501    0  0.00000000000E+00  0.00000000000E+00  0.22254462949E+04  0.22254462949E+04  0.25500000920E-02 0.  1.
       -2   -1    0    0    0  501  0.00000000000E+00  0.00000000000E+00 -0.12099385317E+04  0.12099385317E+04  0.25500000920E-02 0. -1.
    10030    2    1    2    0    0  0.00000000000E+00  0.00000000000E+00  0.10155077632E+04  0.34353848266E+04  0.32818611929E+04 0.  0.
        3    1    3    3  502    0  0.12011555416E+04  0.71215713288E+03  0.14098754219E+04  0.19843616436E+04  0.10100000352E+00 0.  1.
       -3    1    3    3    0  502 -0.12011555416E+04 -0.71215713288E+03 -0.39436765872E+03  0.14510231830E+04  0.10100000352E+00 0. -1.
</event>
<event>
 5   0  0.9454010E-08  0.3356333E+04  0.7818609E-02  0.8148708E-01
       -1   -1    0    0    0  501  0.00000000000E+00  0.00000000000E+00  0.20336426889E+04  0.20336426889E+04  0.50400001928E-02 0. -1.
        1   -1    0    0  501    0  0.00000000000E+00  0.00000000000E+00 -0.13848266135E+04  0.13848266135E+04  0.50400001928E-02 0.  1.
    10030    2    1    2    0    0  0.00000000000E+00  0.00000000000E+00  0.64881607537E+03  0.34184693024E+04  0.33563328309E+04 0.  0.
        2    1    3    3  502    0 -0.82807015717E+03  0.12491297545E+04 -0.44469905369E+03  0.15632602397E+04  0.25500000920E-02 0. -1.
       -2    1    3    3    0  502  0.82807015717E+03 -0.12491297545E+04  0.10935151291E+04  0.18552090627E+04  0.25500000920E-02 0.  1.
</event>
<event>
 5   0  0.9810351E-08  0.3297138E+04  0.7818609E-02  0.8163624E-01
        1   -1    0    0  501    0  0.00000000000E+00  0.00000000000E+00  0.14335672104E+04  0.14335672105E+04  0.50400001928E-02 0.  1.
       -1   -1    0    0    0  501  0.00000000000E+00  0.00000000000E+00 -0.18958162460E+04  0.18958162460E+04  0.50400001928E-02 0. -1.
    10030    2    1    2    0    0  0.00000000000E+00  0.00000000000E+00 -0.46224903551E+03  0.33293834564E+04  0.32971381574E+04 0.  0.
        5    1    3    3  502    0 -0.29112211423E+03 -0.64169506521E+03 -0.17360803598E+04  0.18736386385E+04  0.46999998093E+01 0. -1.
       -5    1    3    3    0  502  0.29112211423E+03  0.64169506521E+03  0.12738313243E+04  0.14557448179E+04  0.46999998093E+01 0.  1.
</event>
<event>
 5   0  0.2703956E-07  0.3294580E+04  0.7818609E-02  0.8164276E-01
       -2   -1    0    0    0  501  0.00000000000E+00  0.00000000000E+00  0.11201768986E+04  0.11201768986E+04  0.25500000920E-02 0. -1.
        2   -1    0    0  501    0  0.00000000000E+00  0.00000000000E+00 -0.24224433213E+04  0.24224433213E+04  0.25500000920E-02 0.  1.
    10030    2    1    2    0    0  0.00000000000E+00  0.00000000000E+00 -0.13022664226E+04  0.35426202199E+04  0.32945804266E+04 0.  0.
        5    1    3    3  502    0  0.11378038817E+04 -0.98794984266E+03 -0.13667450480E+04  0.20343688655E+04  0.46999998093E+01 0.  1.
       -5    1    3    3    0  502 -0.11378038817E+04  0.98794984266E+03  0.64478625355E+02  0.15082513544E+04  0.46999998093E+01 0. -1.
</event>
<event>
 5   0  0.2824402E-07  0.3307380E+04  0.7818609E-02  0.8161020E-01
        2   -1    0    0  501    0  0.00000000000E+00  0.00000000000E+00  0.19974400413E+04  0.19974400413E+04  0.25500000920E-02 0. -1.
       -2   -1    0    0    0  501  0.00000000000E+00  0.00000000000E+00 -0.13690973372E+04  0.13690973372E+04  0.25500000920E-02 0.  1.
    10030    2    1    2    0    0  0.00000000000E+00  0.00000000000E+00  0.62834270402E+03  0.33665373785E+04  0.33073795318E+04 0.  0.
        1    1    3    3  502    0 -0.14464692415E+04 -0.14742513706E+03  0.11160970360E+04  0.18329429973E+04  0.50400001928E-02 0. -1.
       -1    1    3    3    0  502  0.14464692415E+04  0.14742513706E+03 -0.48775433196E+03  0.15335943812E+04  0.50400001928E-02 0.  1.
</event>
<event>
 5   0  0.8805125E-08  0.3315480E+04  0.7818609E-02  0.8158968E-01
        3   -1    0    0  501    0  0.00000000000E+00  0.00000000000E+00  0.16811152617E+04  0.16811152647E+04  0.10100000352E+00 0. -1.
       -3   -1    0    0    0  501  0.00000000000E+00  0.00000000000E+00 -0.16346898742E+04  0.16346898774E+04  0.10100000352E+00 0.  1.
    10030    2    1    2    0    0  0.00000000000E+00  0.00000000000E+00  0.46425387445E+02  0.33158051421E+04  0.33154801196E+04 0.  0.
        5    1    3    3  502    0 -0.11189605484E+03 -0.14709011540E+03 -0.16243479014E+04  0.16348346778E+04  0.46999998093E+01 0.  1.
       -5    1    3    3    0  502  0.11189605484E+03  0.14709011540E+03  0.16707732888E+04  0.16809704643E+04  0.46999998093E+01 0. -1.
</event>
<event>
 5   0  0.8805125E-08  0.3301186E+04  0.7818609E-02  0.8162594E-01
        1   -1    0    0  501    0  0.00000000000E+00  0.00000000000E+00  0.19050751031E+04  0.19050751031E+04  0.50400001928E-02 0. -1.
       -1   -1    0    0    0  501  0.00000000000E+00  0.00000000000E+00 -0.14301049878E+04  0.14301049878E+04  0.50400001928E-02 0.  1.
    10030    2    1    2    0    0  0.00000000000E+00  0.00000000000E+00  0.47497011529E+03  0.33351800909E+04  0.33011860942E+04 0.  0.
        4    1    3    3  502    0  0.95016755358E+03 -0.47608578833E+03 -0.10384449975E+04  0.14858821230E+04  0.12699999809E+01 0.  1.
       -4    1    3    3    0  502 -0.95016755358E+03  0.47608578833E+03  0.15134151128E+04  0.18492979679E+04  0.12699999809E+01 0. -1.
</event>
<event>
 5   0  0.2713815E-07  0.3299430E+04  0.7818609E-02  0.8163041E-01
       -2   -1    0    0    0  501  0.00000000000E+00  0.00000000000E+00  0.15841291597E+04  0.15841291597E+04  0.25500000920E-02 0. -1.
        2   -1    0    0  501    0  0.00000000000E+00  0.00000000000E+00 -0.17180158948E+04  0.17180158948E+04  0.25500000920E-02 0.  1.
    10030    2    1    2    0    0  0.00000000000E+00  0.00000000000E+00 -0.13388673511E+03  0.33021450545E+04  0.32994296937E+04 0.  0.
        4    1    3    3  502    0 -0.10870664444E+03 -0.40589939527E+03  0.15296707600E+04  0.15863371964E+04  0.12699999809E+01 0. -1.
       -4    1    3    3    0  502  0.10870664444E+03  0.40589939527E+03 -0.16635574951E+04  0.17158078582E+04  0.12699999809E+01 0.  1.
</event>
<event>
 5   0  0.2875829E-07  0.3282070E+04  0.7818609E-02  0.8167473E-01
        2   -1    0    0  501    0  0.00000000000E+00  0.00000000000E+00  0.18247926632E+04  0.18247926632E+04  0.25500000920E-02 0. -1.
       -2   -1    0    0    0  501  0.00000000000E+00  0.00000000000E+00 -0.14757822089E+04  0.14757822089E+04  0.25500000920E-02 0.  1.
    10030    2    1    2    0    0  0.00000000000E+00  0.00000000000E+00  0.34901045431E+03  0.33005748721E+04  0.32820704120E+04 0.  0.
        3    1    3    3  502    0 -0.13759126395E+04 -0.85079190904E+03 -0.10275571655E+03  0.16209692198E+04  0.10100000352E+00 0.  1.
       -3    1    3    3    0  502  0.13759126395E+04  0.85079190904E+03  0.45176617087E+03  0.16796056523E+04  0.10100000352E+00 0. -1.
</event>
<event>
 5   0  0.2703956E-07  0.3300216E+04  0.7818609E-02  0.8162840E-01
       -2   -1    0    0    0  501  0.00000000000E+00  0.00000000000E+00  0.26670625593E+04  0.26670625593E+04  0.25500000920E-02 0. -1.
        2   -1    0    0  501    0  0.00000000000E+00  0.00000000000E+00 -0.10209198752E+04  0.10209198752E+04  0.25500000920E-02 0.  1.
    10030    2    1    2    0    0  0.00000000000E+00  0.00000000000E+00  0.16461426841E+04  0.36879824345E+04  0.33002164628E+04 0.  0.
        5    1    3    3  502    0 -0.11472818277E+04  0.45445393556E+03 -0.40111150402E+03  0.12975733121E+04  0.46999998093E+01 0.  1.
       -5    1    3    3    0  502  0.11472818277E+04 -0.45445393556E+03  0.20472541881E+04  0.23904091224E+04  0.46999998093E+01 0. -1.
</event>
<event>
 5   0  0.2703956E-07  0.3298749E+04  0.7818609E-02  0.8163214E-01
        2   -1    0    0  501    0  0.00000000000E+00  0.00000000000E+00  0.17514743558E+04  0.17514743558E+04  0.25500000920E-02 0. -1.
       -2   -1    0    0    0  501  0.00000000000E+00  0.00000000000E+00 -0.15532268638E+04  0.15532268638E+04  0.25500000920E-02 0.  1.
    10030    2    1    2    0    0  0.00000000000E+00  0.00000000000E+00  0.19824749200E+03  0.33047012196E+04  0.32987494726E+04 0.  0.
        5    1    3    3  502    0 -0.86490550887E+03  0.43076198761E+03  0.14382469492E+04  0.17326839891E+04  0.46999998093E+01 0. -1.
       -5    1    3    3    0  502  0.86490550887E+03 -0.43076198761E+03 -0.12399994572E+04  0.15720172305E+04  0.46999998093E+01 0.  1.
</event>
<event>
 5   0  0.2703956E-07  0.3300292E+04  0.7818609E-02  0.8162821E-01
       -2   -1    0    0    0  501  0.00000000000E+00  0.00000000000E+00  0.26278177896E+04  0.26278177896E+04  0.25500000920E-02 0.  1.
        2   -1    0    0  501    0  0.00000000000E+00  0.00000000000E+00 -0.10362139542E+04  0.10362139542E+04  0.25500000920E-02 0. -1.
    10030    2    1    2    0    0  0.00000000000E+00  0.00000000000E+00  0.15916038355E+04  0.36640317438E+04  0.33002917826E+04 0.  0.
        5    1    3    3  502    0 -0.35346716420E+03 -0.52639089461E+03 -0.89556638658E+03  0.10973092786E+04  0.46999998093E+01 0. -1.
       -5    1    3    3    0  502  0.35346716420E+03  0.52639089461E+03  0.24871702220E+04  0.25667224652E+04  0.46999998093E+01 0.  1.
</event>
<event>
 5   0  0.9810351E-08  0.3300491E+04  0.7818609E-02  0.8162770E-01
        1   -1    0    0  501    0  0.00000000000E+00  0.00000000000E+00  0.25118449370E+04  0.25118449370E+04  0.50400001928E-02 0. -1.
       -1   -1    0    0    0  501  0.00000000000E+00  0.00000000000E+00 -0.10841873252E+04  0.10841873252E+04  0.50400001928E-02 0.  1.
    10030    2    1    2    0    0  0.00000000000E+00  0.00000000000E+00  0.14276576118E+04  0.35960322621E+04  0.33004911413E+04 0.  0.
        5    1    3    3  502    0 -0.61159621700E+03  0.15128085876E+04  0.44550735636E+03  0.16914900679E+04  0.46999998093E+01 0.  1.
       -5    1    3    3    0  502  0.61159621700E+03 -0.15128085876E+04  0.98215025543E+03  0.19045421942E+04  0.46999998093E+01 0. -1.
</event>
<event>
 5   0  0.2824402E-07  0.3297757E+04  0.7818609E-02  0.8163466E-01
       -2   -1    0    0    0  501  0.00000000000E+00  0.00000000000E+00  0.10994558172E+04  0.10994558172E+04  0.25500000920E-02 0.  1.
        2   -1    0    0  501    0  0.00000000000E+00  0.00000000000E+00 -0.24728598241E+04  0.24728598241E+04  0.25500000920E-02 0. -1.
    10030    2    1    2    0    0  0.00000000000E+00  0.00000000000E+00 -0.13734040068E+04  0.35723156413E+04  0.32977568854E+04 0.  0.
        1    1    3    3  502    0 -0.67413055120E+03  0.77156509632E+03  0.71276919872E+03  0.12481204383E+04  0.50400001928E-02 0.  1.
       -1    1    3    3    0  502  0.67413055120E+03 -0.77156509632E+03 -0.20861732056E+04  0.23241952030E+04  0.50400001928E-02 0. -1.
</event>
<event>
 5   0  0.9454010E-08  0.3292475E+04  0.7818609E-02  0.8164813E-01
       -1   -1    0    0    0  501  0.00000000000E+00  0.00000000000E+00  0.11932607190E+04  0.11932607190E+04  0.50400001928E-02 0. -1.
        1   -1    0    0  501    0  0.00000000000E+00  0.00000000000E+00 -0.22711694404E+04  0.22711694404E+04  0.50400001928E-02 0.  1.
    10030    2    1    2    0    0  0.00000000000E+00  0.00000000000E+00 -0.10779087214E+04  0.34644301594E+04  0.32924746191E+04 0.  0.
        2    1    3    3  502    0  0.13904435746E+04 -0.52374931792E+03  0.20690347793E+03  0.15001519027E+04  0.25500000920E-02 0. -1.
       -2    1    3    3    0  502 -0.13904435746E+04  0.52374931792E+03 -0.12848121993E+04  0.19642782566E+04  0.25500000920E-02 0.  1.
</event>
<event>
 5   0  0.8805125E-08  0.3296704E+04  0.7818609E-02  0.8163735E-01
        1   -1    0    0  501    0  0.00000000000E+00  0.00000000000E+00  0.14855038032E+04  0.14855038032E+04  0.50400001928E-02 0.  1.
       -1   -1    0    0    0  501  0.00000000000E+00  0.00000000000E+00 -0.18290519562E+04  0.18290519562E+04  0.50400001928E-02 0. -1.
    10030    2    1    2    0    0  0.00000000000E+00  0.00000000000E+00 -0.34354815306E+03  0.33145557594E+04  0.32967035882E+04 0.  0.
        4    1    3    3  502    0 -0.98814642648E+03  0.12091418103E+04  0.35891443270E+03  0.16022729045E+04  0.12699999809E+01 0.  1.
       -4    1    3    3    0  502  0.98814642648E+03 -0.12091418103E+04 -0.70246258576E+03  0.17122828548E+04  0.12699999809E+01 0. -1.
</event>
<event>
 5   0  0.9283910E-08  0.3298291E+04  0.7818609E-02  0.8163330E-01
        1   -1    0    0  501    0  0.00000000000E+00  0.00000000000E+00  0.21460129103E+04  0.21460129103E+04  0.50400001928E-02 0.  1.
       -1   -1    0    0    0  501  0.00000000000E+00  0.00000000000E+00 -0.12673179246E+04  0.12673179246E+04  0.50400001928E-02 0. -1.
    10030    2    1    2    0    0  0.00000000000E+00  0.00000000000E+00  0.87869498577E+03  0.34133308349E+04  0.32982908469E+04 0.  0.
        3    1    3    3  502    0 -0.82638794402E+03 -0.13516571261E+04 -0.34652465326E+02  0.15846434375E+04  0.10100000352E+00 0. -1.
       -3    1    3    3    0  502  0.82638794402E+03  0.13516571261E+04  0.91334745110E+03  0.18286873974E+04  0.10100000352E+00 0.  1.
</event>
<event>
 5   0  0.2824402E-07  0.3293977E+04  0.7818609E-02  0.8164430E-01
       -2   -1    0    0    0  501  0.00000000000E+00  0.00000000000E+00  0.27100084843E+04  0.27100084843E+04  0.25500000920E-02 0. -1.
        2   -1    0    0  501    0  0.00000000000E+00  0.00000000000E+00 -0.10009456588E+04  0.10009456588E+04  0.25500000920E-02 0.  1.
    10030    2    1    2    0    0  0.00000000000E+00  0.00000000000E+00  0.17090628254E+04  0.37109541431E+04  0.32939770660E+04 0.  0.
        1    1    3    3  502    0 -0.16488664051E+03  0.69335627584E+03 -0.81822971184E+03  0.10850946460E+04  0.50400001928E-02 0.  1.
       -1    1    3    3    0  502  0.16488664051E+03 -0.69335627584E+03  0.25272925373E+04  0.26258594971E+04  0.50400001928E-02 0. -1.
</event>
<event>
 5   0  0.8805125E-08  0.3310516E+04  0.7818609E-02  0.8160225E-01
       -1   -1    0    0    0  501  0.00000000000E+00  0.00000000000E+00  0.11613939920E+04  0.11613939920E+04  0.50400001928E-02 0. -1.
        1   -1    0    0  501    0  0.00000000000E+00  0.00000000000E+00 -0.23591303035E+04  0.23591303035E+04  0.50400001928E-02 0.  1.
    10030    2    1    2    0    0  0.00000000000E+00  0.00000000000E+00 -0.11977363115E+04  0.35205242955E+04  0.33105164315E+04 0.  0.
        4    1    3    3  502    0 -0.54989673325E+03  0.15395212080E+04 -0.87488307715E+03  0.18541666535E+04  0.12699999809E+01 0. -1.
       -4    1    3    3    0  502  0.54989673325E+03 -0.15395212080E+04 -0.32285323437E+03  0.16663576420E+04  0.12699999809E+01 0.  1.
</event>
<event>
 5   0  0.8805125E-08  0.3298780E+04  0.7818609E-02  0.8163206E-01
        1   -1    0    0  501    0  0.00000000000E+00  0.00000000000E+00  0.16892806297E+04  0.16892806297E+04  0.50400001928E-02 0.  1.
       -1   -1    0    0    0  501  0.00000000000E+00  0.00000000000E+00 -0.16104417996E+04  0.16104417996E+04  0.50400001928E-02 0. -1.
    10030    2    1    2    0    0  0.00000000000E+00  0.00000000000E+00  0.78838830055E+02  0.32997224293E+04  0.32987804639E+04 0.  0.
        4    1    3    3  502    0  0.12140717288E+04  0.67991757954E+03 -0.84640019582E+03  0.16286967127E+04  0.12699999809E+01 0. -1.
       -4    1    3    3    0  502 -0.12140717288E+04 -0.67991757954E+03  0.92523902588E+03  0.16710257166E+04  0.12699999809E+01 0.  1.
</event>
<event>
 5   0  0.9810351E-08  0.3298659E+04  0.7818609E-02  0.8163237E-01
       -1   -1    0    0    0  501  0.00000000000E+00  0.00000000000E+00  0.10886355721E+04  0.10886355721E+04  0.50400001928E-02 0. -1.
        1   -1    0    0  501    0  0.00000000000E+00  0.00000000000E+00 -0.24988054177E+04  0.24988054177E+04  0.50400001928E-02 0.  1.
    10030    2    1    2    0    0  0.00000000000E+00  0.00000000000E+00 -0.14101698455E+04  0.35874409898E+04  0.32986594038E+04 0.  0.
        5    1    3    3  502    0 -0.30495605904E+03 -0.58370908428E+03  0.93943000631E+03  0.11472860671E+04  0.46999998093E+01 0. -1.
       -5    1    3    3    0  502  0.30495605904E+03  0.58370908428E+03 -0.23495998518E+04  0.24401549227E+04  0.46999998093E+01 0.  1.
</event>
<event>
 5   0  0.2727168E-07  0.3307274E+04  0.7818609E-02  0.8161047E-01
        2   -1    0    0  501    0  0.00000000000E+00  0.00000000000E+00  0.20374661603E+04  0.20374661603E+04  0.25500000920E-02 0. -1.
       -2   -1    0    0    0  501  0.00000000000E+00  0.00000000000E+00 -0.13421154930E+04  0.13421154930E+04  0.25500000920E-02 0.  1.
    10030    2    1    2    0    0  0.00000000000E+00  0.00000000000E+00  0.69535066730E+03  0.33795816533E+04  0.33072737415E+04 0.  0.
        2    1    3    3  502    0 -0.21324743182E+02 -0.39225040555E+03  0.19890943765E+04  0.20275136409E+04  0.25500000920E-02 0. -1.
       -2    1    3    3    0  502  0.21324743182E+02  0.39225040555E+03 -0.12937437092E+04  0.13520680125E+04  0.25500000920E-02 0.  1.
</event>
<event>
 5   0  0.2713815E-07  0.3310129E+04  0.7818609E-02  0.8160323E-01
        2   -1    0    0  501    0  0.00000000000E+00  0.00000000000E+00  0.21688078151E+04  0.21688078151E+04  0.25500000920E-02 0. -1.
       -2   -1    0    0    0  501  0.00000000000E+00  0.00000000000E+00 -0.12630161567E+04  0.12630161567E+04  0.25500000920E-02 0.  1.
    10030    2    1    2    0    0  0.00000000000E+00  0.00000000000E+00  0.90579165831E+03  0.34318239718E+04  0.33101294907E+04 0.  0.
        4    1    3    3  502    0  0.71889158412E+03 -0.13394382585E+04 -0.22564063393E+03  0.15368198550E+04  0.12699999809E+01 0. -1.
       -4    1    3    3    0  502 -0.71889158412E+03  0.13394382585E+04  0.11314322922E+04  0.18950041168E+04  0.12699999809E+01 0.  1.
</event>
<event>
 5   0  0.2703956E-07  0.3301797E+04  0.7818609E-02  0.8162438E-01
        2   -1    0    0  501    0  0.00000000000E+00  0.00000000000E+00  0.23080204321E+04  0.23080204321E+04  0.25500000920E-02 0. -1.
       -2   -1    0    0    0  501  0.00000000000E+00  0.00000000000E+00 -0.11808671087E+04  0.11808671087E+04  0.25500000920E-02 0.  1.
    10030    2    1    2    0    0  0.00000000000E+00  0.00000000000E+00  0.11271533233E+04  0.34888875408E+04  0.33017967318E+04 0.  0.
        5    1    3    3  502    0  0.85620859452E+03 -0.13553193963E+04  0.98020160956E+03  0.18790426043E+04  0.46999998093E+01 0. -1.
       -5    1    3    3    0  502 -0.85620859452E+03  0.13553193963E+04  0.14695171379E+03  0.16098449365E+04  0.46999998093E+01 0.  1.
</event>
<event>
 5   0  0.2875829E-07  0.3301526E+04  0.7818609E-02  0.8162507E-01
        2   -1    0    0  501    0  0.00000000000E+00  0.00000000000E+00  0.11985630388E+04  0.11985630388E+04  0.25500000920E-02 0. -1.
       -2   -1    0    0    0  501  0.00000000000E+00  0.00000000000E+00 -0.22735715396E+04  0.22735715396E+04  0.25500000920E-02 0.  1.
    10030    2    1    2    0    0  0.00000000000E+00  0.00000000000E+00 -0.10750085008E+04  0.34721345784E+04  0.33015262007E+04 0.  0.
        3    1    3    3  502    0 -0.60657702183E+03 -0.40717671312E+03  0.10192919191E+04  0.12540672174E+04  0.10100000352E+00 0. -1.
       -3    1    3    3    0  502  0.60657702183E+03  0.40717671312E+03 -0.20943004199E+04  0.22180673610E+04  0.10100000352E+00 0.  1.
</event>
<event>
 5   0  0.2703956E-07  0.3306198E+04  0.7818609E-02  0.8161320E-01
        2   -1    0    0  501    0  0.00000000000E+00  0.00000000000E+00  0.21679064070E+04  0.21679064070E+04  0.25500000920E-02 0. -1.
       -2   -1    0    0    0  501  0.00000000000E+00  0.00000000000E+00 -0.12605414037E+04  0.12605414037E+04  0.25500000920E-02 0.  1.
    10030    2    1    2    0    0  0.00000000000E+00  0.00000000000E+00  0.90736500330E+03  0.34284478107E+04  0.33061976864E+04 0.  0.
        5    1    3    3  502    0 -0.11325738455E+04 -0.11805046676E+04  0.20741671564E+03  0.16490477766E+04  0.46999998093E+01 0. -1.
       -5    1    3    3    0  502  0.11325738455E+04  0.11805046676E+04  0.69994828766E+03  0.17794000340E+04  0.46999998093E+01 0.  1.
</event>
<event>
 5   0  0.2727168E-07  0.3305193E+04  0.7818609E-02  0.8161575E-01
        2   -1    0    0  501    0  0.00000000000E+00  0.00000000000E+00  0.16550091745E+04  0.16550091745E+04  0.25500000920E-02 0.  1.
       -2   -1    0    0    0  501  0.00000000000E+00  0.00000000000E+00 -0.16501873038E+04  0.16501873038E+04  0.25500000920E-02 0. -1.
    10030    2    1    2    0    0  0.00000000000E+00  0.00000000000E+00  0.48218706897E+01  0.33051964783E+04  0.33051929611E+04 0.  0.
        2    1    3    3  502    0  0.13072710985E+04  0.99610635828E+03  0.17529699340E+03  0.16528504584E+04  0.25500000920E-02 0. -1.
       -2    1    3    3    0  502 -0.13072710985E+04 -0.99610635828E+03 -0.17047512271E+03  0.16523460199E+04  0.25500000920E-02 0.  1.
</event>
<event>
 5   0  0.9181760E-08  0.3298236E+04  0.7818609E-02  0.8163344E-01
       -1   -1    0    0    0  501  0.00000000000E+00  0.00000000000E+00  0.16773773383E+04  0.16773773383E+04  0.50400001928E-02 0. -1.
        1   -1    0    0  501    0  0.00000000000E+00  0.00000000000E+00 -0.16213346073E+04  0.16213346073E+04  0.50400001928E-02 0.  1.
    10030    2    1    2    0    0  0.00000000000E+00  0.00000000000E+00  0.56042731049E+02  0.32987119456E+04  0.32982358485E+04 0.  0.
        1    1    3    3  502    0 -0.25782801259E+03 -0.78691033116E+03 -0.13983285201E+04  0.16251233195E+04  0.50400001928E-02 0.  1.
       -1    1    3    3    0  502  0.25782801259E+03  0.78691033116E+03  0.14543712511E+04  0.16735886261E+04  0.50400001928E-02 0. -1.
</event>
<event>
 5   0  0.8805125E-08  0.3291100E+04  0.7818609E-02  0.8165164E-01
       -1   -1    0    0    0  501  0.00000000000E+00  0.00000000000E+00  0.12014352369E+04  0.12014352369E+04  0.50400001928E-02 0. -1.
        1   -1    0    0  501    0  0.00000000000E+00  0.00000000000E+00 -0.22538327136E+04  0.22538327136E+04  0.50400001928E-02 0.  1.
    10030    2    1    2    0    0  0.00000000000E+00  0.00000000000E+00 -0.10523974767E+04  0.34552679505E+04  0.32910995367E+04 0.  0.
        4    1    3    3  502    0 -0.15579501421E+04  0.22068815725E+02 -0.10818800062E+04  0.18968820835E+04  0.12699999809E+01 0.  1.
       -4    1    3    3    0  502  0.15579501421E+04 -0.22068815725E+02  0.29482529477E+02  0.15583858670E+04  0.12699999809E+01 0. -1.
</event>
<event>
 5   0  0.2713815E-07  0.3308873E+04  0.7818609E-02  0.8160641E-01
       -2   -1    0    0    0  501  0.00000000000E+00  0.00000000000E+00  0.15990145773E+04  0.15990145773E+04  0.25500000920E-02 0. -1.
        2   -1    0    0  501    0  0.00000000000E+00  0.00000000000E+00 -0.17117792683E+04  0.17117792683E+04  0.25500000920E-02 0.  1.
    10030    2    1    2    0    0  0.00000000000E+00  0.00000000000E+00 -0.11276469092E+03  0.33107938456E+04  0.33088729218E+04 0.  0.
        4    1    3    3  502    0  0.55422965911E+03  0.90292951332E+03 -0.13278309317E+04  0.16987020978E+04  0.12699999809E+01 0.  1.
       -4    1    3    3    0  502 -0.55422965911E+03 -0.90292951332E+03  0.12150662408E+04  0.16120917478E+04  0.12699999809E+01 0. -1.
</event>
<event>
 5   0  0.2713815E-07  0.3286343E+04  0.7818609E-02  0.8166379E-01
       -2   -1    0    0    0  501  0.00000000000E+00  0.00000000000E+00  0.10797849979E+04  0.10797849979E+04  0.25500000920E-02 0. -1.
        2   -1    0    0  501    0  0.00000000000E+00  0.00000000000E+00 -0.25005099913E+04  0.25005099913E+04  0.25500000920E-02 0.  1.
    10030    2    1    2    0    0  0.00000000000E+00  0.00000000000E+00 -0.14207249933E+04  0.35802949892E+04  0.32863433636E+04 0.  0.
        4    1    3    3  502    0 -0.44156843609E+03  0.15698790388E+04 -0.92963285819E+03  0.18771578901E+04  0.12699999809E+01 0.  1.
       -4    1    3    3    0  502  0.44156843609E+03 -0.15698790388E+04 -0.49109213515E+03  0.17031370991E+04  0.12699999809E+01 0. -1.
</event>
<event>
 5   0  0.9454010E-08  0.3301668E+04  0.7818609E-02  0.8162471E-01
        1   -1    0    0  501    0  0.00000000000E+00  0.00000000000E+00  0.28719910992E+04  0.28719910992E+04  0.50400001928E-02 0.  1.
       -1   -1    0    0    0  501  0.00000000000E+00  0.00000000000E+00 -0.94890689765E+03  0.94890689766E+03  0.50400001928E-02 0. -1.
    10030    2    1    2    0    0  0.00000000000E+00  0.00000000000E+00  0.19230842015E+04  0.38208979968E+04  0.33016675569E+04 0.  0.
        2    1    3    3  502    0 -0.55158620675E+03 -0.28295523450E+03  0.27321701921E+04  0.28016182764E+04  0.25500000920E-02 0.  1.
       -2    1    3    3    0  502  0.55158620675E+03  0.28295523450E+03 -0.80908599060E+03  0.10192797204E+04  0.25500000920E-02 0. -1.
</event>
<event>
 5   0  0.9454010E-08  0.3298504E+04  0.7818609E-02  0.8163276E-01
        1   -1    0    0  501    0  0.00000000000E+00  0.00000000000E+00  0.28434598007E+04  0.28434598007E+04  0.50400001928E-02 0. -1.
       -1   -1    0    0    0  501  0.00000000000E+00  0.00000000000E+00 -0.95659272984E+03  0.95659272985E+03  0.50400001928E-02 0.  1.
    10030    2    1    2    0    0  0.00000000000E+00  0.00000000000E+00  0.18868670708E+04  0.38000525305E+04  0.32985044932E+04 0.  0.
        2    1    3    3  502    0  0.44791763617E+03 -0.69421109829E+03  0.25878754111E+04  0.27165526686E+04  0.25500000920E-02 0. -1.
       -2    1    3    3    0  502 -0.44791763617E+03  0.69421109829E+03 -0.70100834024E+03  0.10834998620E+04  0.25500000920E-02 0.  1.
</event>
<event>
 5   0  0.2727168E-07  0.3300657E+04  0.7818609E-02  0.8162728E-01
        2   -1    0    0  501    0  0.00000000000E+00  0.00000000000E+00  0.25481957509E+04  0.25481957509E+04  0.25500000920E-02 0.  1.
       -2   -1    0    0    0  501  0.00000000000E+00  0.00000000000E+00 -0.10688286509E+04  0.10688286509E+04  0.25500000920E-02 0. -1.
    10030    2    1    2    0    0  0.00000000000E+00  0.00000000000E+00  0.14793671000E+04  0.36170244019E+04  0.33006572841E+04 0.  0.
        2    1    3    3  502    0 -0.82818600738E+03 -0.71322347654E+03  0.20947339088E+04  0.23627293410E+04  0.25500000920E-02 0.  1.
       -2    1    3    3    0  502  0.82818600738E+03  0.71322347654E+03 -0.61536680877E+03  0.12542950608E+04  0.25500000920E-02 0. -1.
</event>
<event>
 5   0  0.2875829E-07  0.3298586E+04  0.7818609E-02  0.8163255E-01
        2   -1    0    0  501    0  0.00000000000E+00  0.00000000000E+00  0.16050792901E+04  0.16050792901E+04  0.25500000920E-02 0.  1.
       -2   -1    0    0    0  501  0.00000000000E+00  0.00000000000E+00 -0.16947242863E+04  0.16947242863E+04  0.25500000920E-02 0. -1.
    10030    2    1    2    0    0  0.00000000000E+00  0.00000000000E+00 -0.89644996210E+02  0.32998035764E+04  0.32985856693E+04 0.  0.
        3    1    3    3  502    0 -0.42574100325E+03  0.14975477630E+03  0.15421064766E+04  0.16067900579E+04  0.10100000352E+00 0.  1.
       -3    1    3    3    0  502  0.42574100325E+03 -0.14975477630E+03 -0.16317514728E+04  0.16930135185E+04  0.10100000352E+00 0. -1.
</event>
<event>
 5   0  0.2727168E-07  0.3296620E+04  0.7818609E-02  0.8163756E-01
       -2   -1    0    0    0  501  0.00000000000E+00  0.00000000000E+00  0.13332544658E+04  0.13332544658E+04  0.25500000920E-02 0. -1.
        2   -1    0    0  501    0  0.00000000000E+00  0.00000000000E+00 -0.20378149787E+04  0.20378149787E+04  0.25500000920E-02 0.  1.
    10030    2    1    2    0    0  0.00000000000E+00  0.00000000000E+00 -0.70456051293E+03  0.33710694446E+04  0.32966200393E+04 0.  0.
        2    1    3    3  502    0 -0.36255313215E+03 -0.15012491266E+03 -0.19893543443E+04  0.20276866055E+04  0.25500000920E-02 0.  1.
       -2    1    3    3    0  502  0.36255313215E+03  0.15012491266E+03  0.12847938314E+04  0.13433828390E+04  0.25500000920E-02 0. -1.
</event>
<event>
 5   0  0.2824402E-07  0.3303342E+04  0.7818609E-02  0.8162046E-01
       -2   -1    0    0    0  501  0.00000000000E+00  0.00000000000E+00  0.10878581670E+04  0.10878581670E+04  0.25500000920E-02 0.  1.
        2   -1    0    0  501    0  0.00000000000E+00  0.00000000000E+00 -0.25076954102E+04  0.25076954102E+04  0.25500000920E-02 0. -1.
    10030    2    1    2    0    0  0.00000000000E+00  0.00000000000E+00 -0.14198372432E+04  0.35955535773E+04  0.33033419033E+04 0.  0.
        1    1    3    3  502    0 -0.45797086659E+03 -0.15286410682E+04 -0.24615813662E+03  0.16146438178E+04  0.50400001928E-02 0.  1.
       -1    1    3    3    0  502  0.45797086659E+03  0.15286410682E+04 -0.11736791066E+04  0.19809097595E+04  0.50400001928E-02 0. -1.
</event>
<event>
 5   0  0.9810351E-08  0.3304376E+04  0.7818609E-02  0.8161783E-01
        1   -1    0    0  501    0  0.00000000000E+00  0.00000000000E+00  0.16343306899E+04  0.16343306899E+04  0.50400001928E-02 0.  1.
       -1   -1    0    0    0  501  0.00000000000E+00  0.00000000000E+00 -0.16702405099E+04  0.16702405099E+04  0.50400001928E-02 0. -1.
    10030    2    1    2    0    0  0.00000000000E+00  0.00000000000E+00 -0.35909820010E+02  0.33045711998E+04  0.33043760832E+04 0.  0.
        5    1    3    3  502    0  0.23826145332E+03 -0.42647383366E+03 -0.15963556753E+04  0.16694376248E+04  0.46999998093E+01 0. -1.
       -5    1    3    3    0  502 -0.23826145332E+03  0.42647383366E+03  0.15604458553E+04  0.16351335750E+04  0.46999998093E+01 0.  1.
</event>
<event>
 5   0  0.2703956E-07  0.3299158E+04  0.7818609E-02  0.8163110E-01
        2   -1    0    0  501    0  0.00000000000E+00  0.00000000000E+00  0.21191148794E+04  0.21191148794E+04  0.25500000920E-02 0. -1.
       -2   -1    0    0    0  501  0.00000000000E+00  0.00000000000E+00 -0.12840788954E+04  0.12840788954E+04  0.25500000920E-02 0.  1.
    10030    2    1    2    0    0  0.00000000000E+00  0.00000000000E+00  0.83503598406E+03  0.34031937748E+04  0.32991578886E+04 0.  0.
        5    1    3    3  502    0 -0.96607157813E+01 -0.85858475207E+03  0.18704173465E+04  0.20580923803E+04  0.46999998093E+01 0. -1.
       -5    1    3    3    0  502  0.96607157813E+01  0.85858475207E+03 -0.10353813624E+04  0.13451013945E+04  0.46999998093E+01 0.  1.
</event>
<event>
 5   0  0.2713815E-07  0.3296809E+04  0.7818609E-02  0.8163708E-01
       -2   -1    0    0    0  501  0.00000000000E+00  0.00000000000E+00  0.13294655482E+04  0.13294655482E+04  0.25500000920E-02 0. -1.
        2   -1    0    0  501    0  0.00000000000E+00  0.00000000000E+00 -0.20438565772E+04  0.20438565772E+04  0.25500000920E-02 0.  1.
    10030    2    1    2    0    0  0.00000000000E+00  0.00000000000E+00 -0.71439102908E+03  0.33733221254E+04  0.32968087023E+04 0.  0.
        4    1    3    3  502    0 -0.96996777669E+03 -0.54106446009E+03  0.88912391709E+03  0.14227196458E+04  0.12699999809E+01 0. -1.
       -4    1    3    3    0  502  0.96996777669E+03  0.54106446009E+03 -0.16035149462E+04  0.19506024796E+04  0.12699999809E+01 0.  1.
</event>
<event>
 5   0  0.2727168E-07  0.3303182E+04  0.7818609E-02  0.8162086E-01
        2   -1    0    0  501    0  0.00000000000E+00  0.00000000000E+00  0.21141849542E+04  0.21141849542E+04  0.25500000920E-02 0. -1.
       -2   -1    0    0    0  501  0.00000000000E+00  0.00000000000E+00 -0.12902147886E+04  0.12902147886E+04  0.25500000920E-02 0.  1.
    10030    2    1    2    0    0  0.00000000000E+00  0.00000000000E+00  0.82397016555E+03  0.34043997428E+04  0.33031819168E+04 0.  0.
        2    1    3    3  502    0 -0.15749483743E+04 -0.79893618125E+02  0.91784824747E+03  0.18246344229E+04  0.25500000920E-02 0. -1.
       -2    1    3    3    0  502  0.15749483743E+04  0.79893618125E+02 -0.93878081921E+02  0.15797653199E+04  0.25500000920E-02 0.  1.
</event>
<event>
 5   0  0.9810351E-08  0.3308883E+04  0.7818609E-02  0.8160639E-01
        1   -1    0    0  501    0  0.00000000000E+00  0.00000000000E+00  0.22481149915E+04  0.22481149915E+04  0.50400001928E-02 0. -1.
       -1   -1    0    0    0  501  0.00000000000E+00  0.00000000000E+00 -0.12175428162E+04  0.12175428162E+04  0.50400001928E-02 0.  1.
    10030    2    1    2    0    0  0.00000000000E+00  0.00000000000E+00  0.10305721753E+04  0.34656578077E+04  0.33088827467E+04 0.  0.
        5    1    3    3  502    0 -0.14612880907E+04 -0.73299439451E+03  0.78130928604E+03  0.18119354174E+04  0.46999998093E+01 0.  1.
       -5    1    3    3    0  502  0.14612880907E+04  0.73299439451E+03  0.24926288924E+03  0.16537223903E+04  0.46999998093E+01 0. -1.
</event>
<event>
 5   0  0.9810351E-08  0.3256534E+04  0.7818609E-02  0.8174044E-01
       -1   -1    0    0    0  501  0.00000000000E+00  0.00000000000E+00  0.13455729010E+04  0.13455729010E+04  0.50400001928E-02 0.  1.
        1   -1    0    0  501    0  0.00000000000E+00  0.00000000000E+00 -0.19703529060E+04  0.19703529060E+04  0.50400001928E-02 0. -1.
    10030    2    1    2    0    0  0.00000000000E+00  0.00000000000E+00 -0.62478000499E+03  0.33159258070E+04  0.32565340322E+04 0.  0.
        5    1    3    3  502    0  0.70651378024E+03 -0.13745604629E+04  0.20945380019E+03  0.15596381542E+04  0.46999998093E+01 0.  1.
       -5    1    3    3    0  502 -0.70651378024E+03  0.13745604629E+04 -0.83423380518E+03  0.17562876528E+04  0.46999998093E+01 0. -1.
</event>
<event>
 5   0  0.2824402E-07  0.3300711E+04  0.7818609E-02  0.8162714E-01
        2   -1    0    0  501    0  0.00000000000E+00  0.00000000000E+00  0.27010880026E+04  0.27010880026E+04  0.25500000920E-02 0. -1.
       -2   -1    0    0    0  501  0.00000000000E+00  0.00000000000E+00 -0.10083615811E+04  0.10083615811E+04  0.25500000920E-02 0.  1.
    10030    2    1    2    0    0  0.00000000000E+00  0.00000000000E+00  0.16927264216E+04  0.37094495837E+04  0.33007110561E+04 0.  0.
        1    1    3    3  502    0 -0.12991548246E+04 -0.89260790199E+03  0.13959180614E+04  0.21055021632E+04  0.50400001928E-02 0. -1.
       -1    1    3    3    0  502  0.12991548246E+04  0.89260790199E+03  0.29680836019E+03  0.16039474205E+04  0.50400001928E-02 0.  1.
</event>
<event>
 5   0  0.2703956E-07  0.3296203E+04  0.7818609E-02  0.8163862E-01
        2   -1    0    0  501    0  0.00000000000E+00  0.00000000000E+00  0.23123682539E+04  0.23123682539E+04  0.25500000920E-02 0. -1.
       -2   -1    0    0    0  501  0.00000000000E+00  0.00000000000E+00 -0.11746569097E+04  0.11746569097E+04  0.25500000920E-02 0.  1.
    10030    2    1    2    0    0  0.00000000000E+00  0.00000000000E+00  0.11377113442E+04  0.34870251636E+04  0.32962034811E+04 0.  0.
        5    1    3    3  502    0  0.15476740951E+04  0.13991388271E+03  0.11495852808E+04  0.19329871720E+04  0.46999998093E+01 0. -1.
       -5    1    3    3    0  502 -0.15476740951E+04 -0.13991388271E+03 -0.11873936592E+02  0.15540379917E+04  0.46999998093E+01 0.  1.
</event>
<event>
 5   0  0.2703956E-07  0.3296996E+04  0.7818609E-02  0.8163660E-01
       -2   -1    0    0    0  501  0.00000000000E+00  0.00000000000E+00  0.12110171223E+04  0.12110171223E+04  0.25500000920E-02 0. -1.
        2   -1    0    0  501    0  0.00000000000E+00  0.00000000000E+00 -0.22440197923E+04  0.22440197923E+04  0.25500000920E-02 0.  1.
    10030    2    1    2    0    0  0.00000000000E+00  0.00000000000E+00 -0.10330026700E+04  0.34550369146E+04  0.32969964460E+04 0.  0.
        5    1    3    3  502    0  0.46974187644E+01  0.12449972892E+04 -0.16487965678E+04  0.20660572421E+04  0.46999998093E+01 0.  1.
       -5    1    3    3    0  502 -0.46974187644E+01 -0.12449972892E+04  0.61579389776E+03  0.13889796725E+04  0.46999998093E+01 0. -1.
</event>
<event>
 5   0  0.8805125E-08  0.3303254E+04  0.7818609E-02  0.8162068E-01
       -1   -1    0    0    0  501  0.00000000000E+00  0.00000000000E+00  0.13716609192E+04  0.13716609193E+04  0.50400001928E-02 0.  1.
        1   -1    0    0  501    0  0.00000000000E+00  0.00000000000E+00 -0.19887361668E+04  0.19887361668E+04  0.50400001928E-02 0. -1.
    10030    2    1    2    0    0  0.00000000000E+00  0.00000000000E+00 -0.61707524759E+03  0.33603970861E+04  0.33032539586E+04 0.  0.
        4    1    3    3  502    0  0.14125344524E+04 -0.85411199585E+03 -0.25181295907E+03  0.16697820995E+04  0.12699999809E+01 0.  1.
       -4    1    3    3    0  502 -0.14125344524E+04  0.85411199585E+03 -0.36526228852E+03  0.16906149866E+04  0.12699999809E+01 0. -1.
</event>
<event>
 5   0  0.8805125E-08  0.3290846E+04  0.7818609E-02  0.8165229E-01
       -1   -1    0    0    0  501  0.00000000000E+00  0.00000000000E+00  0.12041917684E+04  0.12041917684E+04  0.50400001928E-02 0.  1.
        1   -1    0    0  501    0  0.00000000000E+00  0.00000000000E+00 -0.22483263527E+04  0.22483263527E+04  0.50400001928E-02 0. -1.
    10030    2    1    2    0    0  0.00000000000E+00  0.00000000000E+00 -0.10441345844E+04  0.34525181211E+04  0.32908455367E+04 0.  0.
        4    1    3    3  502    0 -0.16371521990E+04 -0.10835703115E+03 -0.65228560771E+03  0.17656405908E+04  0.12699999809E+01 0. -1.
       -4    1    3    3    0  502  0.16371521990E+04  0.10835703115E+03 -0.39184897666E+03  0.16868775303E+04  0.12699999809E+01 0.  1.
</event>
<event>
 5   0  0.9454010E-08  0.3302220E+04  0.7818609E-02  0.8162331E-01
       -1   -1    0    0    0  501  0.00000000000E+00  0.00000000000E+00  0.19057884219E+04  0.19057884219E+04  0.50400001928E-02 0.  1.
        1   -1    0    0  501    0  0.00000000000E+00  0.00000000000E+00 -0.14304654496E+04  0.14304654497E+04  0.50400001928E-02 0. -1.
    10030    2    1    2    0    0  0.00000000000E+00  0.00000000000E+00  0.47532297224E+03  0.33362538716E+04  0.33022201573E+04 0.  0.
        2    1    3    3  502    0  0.16175698585E+04 -0.26248064168E+03  0.33749339525E+02  0.16390751516E+04  0.25500000920E-02 0. -1.
       -2    1    3    3    0  502 -0.16175698585E+04  0.26248064168E+03  0.44157363271E+03  0.16971787200E+04  0.25500000920E-02 0.  1.
</event>
<event>
 5   0  0.2824402E-07  0.3280962E+04  0.7818609E-02  0.8167757E-01
       -2   -1    0    0    0  501  0.00000000000E+00  0.00000000000E+00  0.18052385328E+04  0.18052385328E+04  0.25500000920E-02 0. -1.
        2   -1    0    0  501    0  0.00000000000E+00  0.00000000000E+00 -0.14907600641E+04  0.14907600641E+04  0.25500000920E-02 0.  1.
    10030    2    1    2    0    0  0.00000000000E+00  0.00000000000E+00  0.31447846874E+03  0.32959985969E+04  0.32809617559E+04 0.  0.
        1    1    3    3  502    0  0.85418130285E+03  0.95246596476E+03 -0.87428727358E+03  0.15495790877E+04  0.50400001928E-02 0.  1.
       -1    1    3    3    0  502 -0.85418130285E+03 -0.95246596476E+03  0.11887657423E+04  0.17464195093E+04  0.50400001928E-02 0. -1.
</event>
<event>
 5   0  0.2703956E-07  0.3300673E+04  0.7818609E-02  0.8162724E-01
       -2   -1    0    0    0  501  0.00000000000E+00  0.00000000000E+00  0.89871402527E+03  0.89871402528E+03  0.25500000920E-02 0.  1.
        2   -1    0    0  501    0  0.00000000000E+00  0.00000000000E+00 -0.30305646120E+04  0.30305646120E+04  0.25500000920E-02 0. -1.
    10030    2    1    2    0    0  0.00000000000E+00  0.00000000000E+00 -0.21318505868E+04  0.39292786373E+04  0.33006732170E+04 0.  0.
        5    1    3    3  502    0  0.12539366137E+04 -0.19571670676E+03  0.18994154399E+03  0.12832622260E+04  0.46999998093E+01 0.  1.
       -5    1    3    3    0  502 -0.12539366137E+04  0.19571670676E+03 -0.23217921307E+04  0.26460164113E+04  0.46999998093E+01 0. -1.
</event>
<event>
 5   0  0.2875829E-07  0.3282496E+04  0.7818609E-02  0.8167364E-01
        2   -1    0    0  501    0  0.00000000000E+00  0.00000000000E+00  0.10424387599E+04  0.10424387599E+04  0.25500000920E-02 0.  1.
       -2   -1    0    0    0  501  0.00000000000E+00  0.00000000000E+00 -0.25840323013E+04  0.25840323013E+04  0.25500000920E-02 0. -1.
    10030    2    1    2    0    0  0.00000000000E+00  0.00000000000E+00 -0.15415935414E+04  0.36264710612E+04  0.32824962622E+04 0.  0.
        3    1    3    3  502    0 -0.10877476838E+03 -0.12070356322E+03 -0.25751245251E+04  0.25802456531E+04  0.10100000352E+00 0. -1.
       -3    1    3    3    0  502  0.10877476838E+03  0.12070356322E+03  0.10335309836E+04  0.10462254082E+04  0.10100000352E+00 0.  1.
</event>
<event>
 5   0  0.9181760E-08  0.3300605E+04  0.7818609E-02  0.8162741E-01
       -1   -1    0    0    0  501  0.00000000000E+00  0.00000000000E+00  0.10560366581E+04  0.10560366582E+04  0.50400001928E-02 0. -1.
        1   -1    0    0  501    0  0.00000000000E+00  0.00000000000E+00 -0.25789815021E+04  0.25789815021E+04  0.50400001928E-02 0.  1.
    10030    2    1    2    0    0  0.00000000000E+00  0.00000000000E+00 -0.15229448440E+04  0.36350181603E+04  0.33006054032E+04 0.  0.
        1    1    3    3  502    0  0.22760391482E+03 -0.20600405237E+03 -0.25472590380E+04  0.25656909047E+04  0.50400001928E-02 0.  1.
       -1    1    3    3    0  502 -0.22760391482E+03  0.20600405237E+03  0.10243141940E+04  0.10693272556E+04  0.50400001928E-02 0. -1.
</event>
<event>
 5   0  0.2824402E-07  0.3304271E+04  0.7818609E-02  0.8161809E-01
        2   -1    0    0  501    0  0.00000000000E+00  0.00000000000E+00  0.25063509071E+04  0.25063509071E+04  0.25500000920E-02 0. -1.
       -2   -1    0    0    0  501  0.00000000000E+00  0.00000000000E+00 -0.10890543647E+04  0.10890543647E+04  0.25500000920E-02 0.  1.
    10030    2    1    2    0    0  0.00000000000E+00  0.00000000000E+00  0.14172965424E+04  0.35954052718E+04  0.33042714143E+04 0.  0.
        1    1    3    3  502    0 -0.60518497199E+03 -0.99165061431E+02 -0.96062121912E+03  0.11396822743E+04  0.50400001928E-02 0.  1.
       -1    1    3    3    0  502  0.60518497199E+03  0.99165061431E+02  0.23779177615E+04  0.24557229975E+04  0.50400001928E-02 0. -1.
</event>
<event>
 5   0  0.8805125E-08  0.3311952E+04  0.7818609E-02  0.8159861E-01
        1   -1    0    0  501    0  0.00000000000E+00  0.00000000000E+00  0.23521712079E+04  0.23521712080E+04  0.50400001928E-02 0.  1.
       -1   -1    0    0    0  501  0.00000000000E+00  0.00000000000E+00 -0.11658403951E+04  0.11658403951E+04  0.50400001928E-02 0. -1.
    10030    2    1    2    0    0  0.00000000000E+00  0.00000000000E+00  0.11863308129E+04  0.35180116030E+04  0.33119518175E+04 0.  0.
        4    1    3    3  502    0 -0.17704642962E+03 -0.47750395320E+03  0.22669239082E+04  0.23234244300E+04  0.12699999809E+01 0.  1.
       -4    1    3    3    0  502  0.17704642962E+03  0.47750395320E+03 -0.10805930953E+04  0.11945871730E+04  0.12699999809E+01 0. -1.
</event>
<event>
 5   0  0.2875829E-07  0.3301993E+04  0.7818609E-02  0.8162389E-01
        2   -1    0    0  501    0  0.00000000000E+00  0.00000000000E+00  0.19976418828E+04  0.19976418828E+04  0.25500000920E-02 0.  1.
       -2   -1    0    0    0  501  0.00000000000E+00  0.00000000000E+00 -0.13645031557E+04  0.13645031557E+04  0.25500000920E-02 0. -1.
    10030    2    1    2    0    0  0.00000000000E+00  0.00000000000E+00  0.63313872709E+03  0.33621450385E+04  0.33019925215E+04 0.  0.
        3    1    3    3  502    0  0.91712402433E+02 -0.76785149976E+03 -0.11686954026E+04  0.14013764821E+04  0.10100000352E+00 0. -1.
       -3    1    3    3    0  502 -0.91712402433E+02  0.76785149976E+03  0.18018341297E+04  0.19607685563E+04  0.10100000352E+00 0.  1.
</event>
<event>
 5   0  0.2713815E-07  0.3302867E+04  0.7818609E-02  0.8162166E-01
       -2   -1    0    0    0  501  0.00000000000E+00  0.00000000000E+00  0.16301448795E+04  0.16301448795E+04  0.25500000920E-02 0.  1.
        2   -1    0    0  501    0  0.00000000000E+00  0.00000000000E+00 -0.16730005337E+04  0.16730005337E+04  0.25500000920E-02 0. -1.
    10030    2    1    2    0    0  0.00000000000E+00  0.00000000000E+00 -0.42855654270E+02  0.33031454132E+04  0.33028673927E+04 0.  0.
        4    1    3    3  502    0 -0.14544290885E+04 -0.54170113935E+03 -0.58576917120E+03  0.16588945815E+04  0.12699999809E+01 0. -1.
       -4    1    3    3    0  502  0.14544290885E+04  0.54170113935E+03  0.54291351693E+03  0.16442508317E+04  0.12699999809E+01 0.  1.
</event>
<event>
 5   0  0.9181760E-08  0.3297021E+04  0.7818609E-02  0.8163654E-01
        1   -1    0    0  501    0  0.00000000000E+00  0.00000000000E+00  0.10587003175E+04  0.10587003175E+04  0.50400001928E-02 0.  1.
       -1   -1    0    0    0  501  0.00000000000E+00  0.00000000000E+00 -0.25669082560E+04  0.25669082560E+04  0.50400001928E-02 0. -1.
    10030    2    1    2    0    0  0.00000000000E+00  0.00000000000E+00 -0.15082079385E+04  0.36256085735E+04  0.32970208284E+04 0.  0.
        1    1    3    3  502    0 -0.85276098189E+03  0.25304553225E+03 -0.22803592854E+04  0.24477074588E+04  0.50400001928E-02 0. -1.
       -1    1    3    3    0  502  0.85276098189E+03 -0.25304553225E+03  0.77215134685E+03  0.11779011147E+04  0.50400001928E-02 0.  1.
</event>
<event>
 5   0  0.2824402E-07  0.3294451E+04  0.7818609E-02  0.8164309E-01
        2   -1    0    0  501    0  0.00000000000E+00  0.00000000000E+00  0.20583720780E+04  0.20583720780E+04  0.25500000920E-02 0.  1.
       -2   -1    0    0    0  501  0.00000000000E+00  0.00000000000E+00 -0.13182026100E+04  0.13182026100E+04  0.25500000920E-02 0. -1.
    10030    2    1    2    0    0  0.00000000000E+00  0.00000000000E+00  0.74016946798E+03  0.33765746879E+04  0.32944507557E+04 0.  0.
        1    1    3    3  502    0 -0.10333789050E+04 -0.10294921543E+04  0.11544227917E+04  0.18602198900E+04  0.50400001928E-02 0.  1.
       -1    1    3    3    0  502  0.10333789050E+04  0.10294921543E+04 -0.41425332371E+03  0.15163547980E+04  0.50400001928E-02 0. -1.
</event>
<event>
 5   0  0.9810351E-08  0.3297804E+04  0.7818609E-02  0.8163454E-01
       -1   -1    0    0    0  501  0.00000000000E+00  0.00000000000E+00  0.10032885720E+04  0.10032885720E+04  0.50400001928E-02 0. -1.
        1   -1    0    0  501    0  0.00000000000E+00  0.00000000000E+00 -0.27099660025E+04  0.27099660025E+04  0.50400001928E-02 0.  1.
    10030    2    1    2    0    0  0.00000000000E+00  0.00000000000E+00 -0.17066774305E+04  0.37132545745E+04  0.32978040699E+04 0.  0.
        5    1    3    3  502    0  0.23867386752E+03 -0.67065730872E+03 -0.25280238862E+04  0.26263421902E+04  0.46999998093E+01 0.  1.
       -5    1    3    3    0  502 -0.23867386752E+03  0.67065730872E+03  0.82134645575E+03  0.10869123843E+04  0.46999998093E+01 0. -1.
</event>
<event>
 5   0  0.9810351E-08  0.3271897E+04  0.7818609E-02  0.8170083E-01
       -1   -1    0    0    0  501  0.00000000000E+00  0.00000000000E+00  0.19272026578E+04  0.19272026578E+04  0.50400001928E-02 0. -1.
        1   -1    0    0  501    0  0.00000000000E+00  0.00000000000E+00 -0.13887109065E+04  0.13887109065E+04  0.50400001928E-02 0.  1.
    10030    2    1    2    0    0  0.00000000000E+00  0.00000000000E+00  0.53849175132E+03  0.33159135644E+04  0.32718969116E+04 0.  0.
        5    1    3    3  502    0 -0.98134126672E+03 -0.80867392285E+03 -0.77383358485E+03  0.14885646450E+04  0.46999998093E+01 0.  1.
       -5    1    3    3    0  502  0.98134126672E+03  0.80867392285E+03  0.13123253362E+04  0.18273489194E+04  0.46999998093E+01 0. -1.
</event>
<event>
 5   0  0.9181760E-08  0.3302069E+04  0.7818609E-02  0.8162369E-01
       -1   -1    0    0    0  501  0.00000000000E+00  0.00000000000E+00  0.89332084418E+03  0.89332084420E+03  0.50400001928E-02 0. -1.
        1   -1    0    0  501    0  0.00000000000E+00  0.00000000000E+00 -0.30514400416E+04  0.30514400416E+04  0.50400001928E-02 0.  1.
    10030    2    1    2    0    0  0.00000000000E+00  0.00000000000E+00 -0.21581191975E+04  0.39447608858E+04  0.33020690447E+04 0.  0.
        1    1    3    3  502    0  0.13121293419E+03  0.80371216960E+03 -0.27948225874E+04  0.29110485020E+04  0.50400001928E-02 0.  1.
       -1    1    3    3    0  502 -0.13121293419E+03 -0.80371216960E+03  0.63670338999E+03  0.10337123838E+04  0.50400001928E-02 0. -1.
</event>
<event>
 5   0  0.9283910E-08  0.3300745E+04  0.7818609E-02  0.8162706E-01
        1   -1    0    0  501    0  0.00000000000E+00  0.00000000000E+00  0.25757037457E+04  0.25757037457E+04  0.50400001928E-02 0.  1.
       -1   -1    0    0    0  501  0.00000000000E+00  0.00000000000E+00 -0.10574702063E+04  0.10574702063E+04  0.50400001928E-02 0. -1.
    10030    2    1    2    0    0  0.00000000000E+00  0.00000000000E+00  0.15182335394E+04  0.36331739520E+04  0.33007453529E+04 0.  0.
        3    1    3    3  502    0  0.70469377986E+03  0.11102697219E+04  0.18567644895E+04  0.22752728536E+04  0.10100000352E+00 0.  1.
       -3    1    3    3    0  502 -0.70469377986E+03 -0.11102697219E+04 -0.33853095002E+03  0.13579010984E+04  0.10100000352E+00 0. -1.
</event>
<event>
 5   0  0.9283910E-08  0.3310189E+04  0.7818609E-02  0.8160308E-01
       -1   -1    0    0    0  501  0.00000000000E+00  0.00000000000E+00  0.14747076290E+04  0.14747076290E+04  0.50400001928E-02 0. -1.
        1   -1    0    0  501    0  0.00000000000E+00  0.00000000000E+00 -0.18575467582E+04  0.18575467582E+04  0.50400001928E-02 0.  1.
    10030    2    1    2    0    0  0.00000000000E+00  0.00000000000E+00 -0.38283912920E+03  0.33322543872E+04  0.33101893454E+04 0.  0.
        3    1    3    3  502    0 -0.97054095572E+03  0.13337959180E+04 -0.54953891512E+02  0.16504487989E+04  0.10100000352E+00 0. -1.
       -3    1    3    3    0  502  0.97054095572E+03 -0.13337959180E+04 -0.32788523769E+03  0.16818055883E+04  0.10100000352E+00 0.  1.
</event>
<event>
 5   0  0.8805125E-08  0.3309025E+04  0.7818609E-02  0.8160603E-01
       -1   -1    0    0    0  501  0.00000000000E+00  0.00000000000E+00  0.12690458770E+04  0.12690458770E+04  0.50400001928E-02 0. -1.
        1   -1    0    0  501    0  0.00000000000E+00  0.00000000000E+00 -0.21570622156E+04  0.21570622156E+04  0.50400001928E-02 0.  1.
    10030    2    1    2    0    0  0.00000000000E+00  0.00000000000E+00 -0.88801633859E+03  0.34261080926E+04  0.33090245760E+04 0.  0.
        4    1    3    3  502    0 -0.32817165700E+03 -0.16190971198E+04 -0.35003793523E+03  0.16886978086E+04  0.12699999809E+01 0. -1.
       -4    1    3    3    0  502  0.32817165700E+03  0.16190971198E+04 -0.53797840336E+03  0.17374102840E+04  0.12699999809E+01 0.  1.
</event>
<event>
 5   0  0.9283910E-08  0.3295209E+04  0.7818609E-02  0.8164115E-01
       -1   -1    0    0    0  501  0.00000000000E+00  0.00000000000E+00  0.25835922904E+04  0.25835922904E+04  0.50400001928E-02 0.  1.
        1   -1    0    0  501    0  0.00000000000E+00  0.00000000000E+00 -0.10507080489E+04  0.10507080489E+04  0.50400001928E-02 0. -1.
    10030    2    1    2    0    0  0.00000000000E+00  0.00000000000E+00  0.15328842415E+04  0.36343003393E+04  0.32952093801E+04 0.  0.
        3    1    3    3  502    0 -0.85427946275E+03 -0.83818660120E+03  0.20153325199E+04  0.23439102702E+04  0.10100000352E+00 0.  1.
       -3    1    3    3    0  502  0.85427946275E+03  0.83818660120E+03 -0.48244827837E+03  0.12903900691E+04  0.10100000352E+00 0. -1.
</event>
<event>
 5   0  0.9181760E-08  0.3297569E+04  0.7818609E-02  0.8163514E-01
        1   -1    0    0  501    0  0.00000000000E+00  0.00000000000E+00  0.15442950997E+04  0.15442950998E+04  0.50400001928E-02 0. -1.
       -1   -1    0    0    0  501  0.00000000000E+00  0.00000000000E+00 -0.17603436199E+04  0.17603436199E+04  0.50400001928E-02 0.  1.
    10030    2    1    2    0    0  0.00000000000E+00  0.00000000000E+00 -0.21604852013E+03  0.33046387196E+04  0.32975688172E+04 0.  0.
        1    1    3    3  502    0 -0.49120061940E+03 -0.12790745651E+04  0.81110088839E+03  0.15922293939E+04  0.50400001928E-02 0. -1.
       -1    1    3    3    0  502  0.49120061940E+03  0.12790745651E+04 -0.10271494085E+04  0.17124093258E+04  0.50400001928E-02 0.  1.
</event>
<event>
 5   0  0.9810351E-08  0.3297008E+04  0.7818609E-02  0.8163657E-01
        1   -1    0    0  501    0  0.00000000000E+00  0.00000000000E+00  0.14584078231E+04  0.14584078231E+04  0.50400001928E-02 0.  1.
       -1   -1    0    0    0  501  0.00000000000E+00  0.00000000000E+00 -0.18633783608E+04  0.18633783608E+04  0.50400001928E-02 0. -1.
    10030    2    1    2    0    0  0.00000000000E+00  0.00000000000E+00 -0.40497053769E+03  0.33217861839E+04  0.32970080854E+04 0.  0.
        5    1    3    3  502    0  0.79211418238E+03  0.13359503214E+04 -0.75920960445E+03  0.17287652972E+04  0.46999998093E+01 0.  1.
       -5    1    3    3    0  502 -0.79211418238E+03 -0.13359503214E+04  0.35423906676E+03  0.15930208867E+04  0.46999998093E+01 0. -1.
</event>
<event>
 5   0  0.2875829E-07  0.3300056E+04  0.7818609E-02  0.8162881E-01
        2   -1    0    0  501    0  0.00000000000E+00  0.00000000000E+00  0.17597592095E+04  0.17597592095E+04  0.25500000920E-02 0. -1.
       -2   -1    0    0    0  501  0.00000000000E+00  0.00000000000E+00 -0.15471388982E+04  0.15471388982E+04  0.25500000920E-02 0.  1.
    10030    2    1    2    0    0  0.00000000000E+00  0.00000000000E+00  0.21262031124E+03  0.33068981077E+04  0.33000557113E+04 0.  0.
        3    1    3    3  502    0 -0.78946364877E+02 -0.11425436422E+04  0.12966086353E+04  0.17299804815E+04  0.10100000352E+00 0. -1.
       -3    1    3    3    0  502  0.78946364877E+02  0.11425436422E+04 -0.10839883240E+04  0.15769176262E+04  0.10100000352E+00 0.  1.
</event>
<event>
 5   0  0.2727168E-07  0.3246497E+04  0.7818609E-02  0.8176644E-01
        2   -1    0    0  501    0  0.00000000000E+00  0.00000000000E+00  0.11995519325E+04  0.11995519325E+04  0.25500000920E-02 0. -1.
       -2   -1    0    0    0  501  0.00000000000E+00  0.00000000000E+00 -0.21965997934E+04  0.21965997934E+04  0.25500000920E-02 0.  1.
    10030    2    1    2    0    0  0.00000000000E+00  0.00000000000E+00 -0.99704786087E+03  0.33961517259E+04  0.32464968980E+04 0.  0.
        2    1    3    3  502    0  0.11179022208E+03  0.12390509180E+04  0.59222570277E+03  0.13778517751E+04  0.25500000920E-02 0. -1.
       -2    1    3    3    0  502 -0.11179022208E+03 -0.12390509180E+04 -0.15892735636E+04  0.20182999508E+04  0.25500000920E-02 0.  1.
</event>
<event>
 5   0  0.9810351E-08  0.3298555E+04  0.7818609E-02  0.8163263E-01
       -1   -1    0    0    0  501  0.00000000000E+00  0.00000000000E+00  0.29772309270E+04  0.29772309270E+04  0.50400001928E-02 0.  1.
        1   -1    0    0  501    0  0.00000000000E+00  0.00000000000E+00 -0.91363971878E+03  0.91363971880E+03  0.50400001928E-02 0. -1.
    10030    2    1    2    0    0  0.00000000000E+00  0.00000000000E+00  0.20635912082E+04  0.38908706458E+04  0.32985550939E+04 0.  0.
        5    1    3    3  502    0  0.37162332707E+03 -0.12578230603E+04 -0.14769684360E+03  0.13198709013E+04  0.46999998093E+01 0.  1.
       -5    1    3    3    0  502 -0.37162332707E+03  0.12578230603E+04  0.22112880518E+04  0.25709997446E+04  0.46999998093E+01 0. -1.
</event>
<event>
 5   0  0.2875829E-07  0.3349812E+04  0.7818609E-02  0.8150335E-01
        2   -1    0    0  501    0  0.00000000000E+00  0.00000000000E+00  0.15292562916E+04  0.15292562916E+04  0.25500000920E-02 0. -1.
       -2   -1    0    0    0  501  0.00000000000E+00  0.00000000000E+00 -0.18344279894E+04  0.18344279894E+04  0.25500000920E-02 0.  1.
    10030    2    1    2    0    0  0.00000000000E+00  0.00000000000E+00 -0.30517169782E+03  0.33636842809E+04  0.33498122599E+04 0.  0.
        3    1    3    3  502    0  0.75587863174E+03  0.94663100526E+02  0.13452336002E+04  0.15459518291E+04  0.10100000352E+00 0. -1.
       -3    1    3    3    0  502 -0.75587863174E+03 -0.94663100526E+02 -0.16504052980E+04  0.18177324519E+04  0.10100000352E+00 0.  1.
</event>
<event>
 5   0  0.2824402E-07  0.3313194E+04  0.7818609E-02  0.8159546E-01
        2   -1    0    0  501    0  0.00000000000E+00  0.00000000000E+00  0.18568743691E+04  0.18568743691E+04  0.25500000920E-02 0.  1.
       -2   -1    0    0    0  501  0.00000000000E+00  0.00000000000E+00 -0.14779209027E+04  0.14779209027E+04  0.25500000920E-02 0. -1.
    10030    2    1    2    0    0  0.00000000000E+00  0.00000000000E+00  0.37895346641E+03  0.33347952719E+04  0.33131938935E+04 0.  0.
        1    1    3    3  502    0 -0.15858398210E+04 -0.40558699797E+03  0.44594124488E+03  0.16965412888E+04  0.50400001928E-02 0. -1.
       -1    1    3    3    0  502  0.15858398210E+04  0.40558699797E+03 -0.66987778468E+02  0.16382539831E+04  0.50400001928E-02 0.  1.
</event>
<event>
 5   0  0.2713815E-07  0.3291516E+04  0.7818609E-02  0.8165057E-01
       -2   -1    0    0    0  501  0.00000000000E+00  0.00000000000E+00  0.16300482026E+04  0.16300482026E+04  0.25500000920E-02 0.  1.
        2   -1    0    0  501    0  0.00000000000E+00  0.00000000000E+00 -0.16616196740E+04  0.16616196740E+04  0.25500000920E-02 0. -1.
    10030    2    1    2    0    0  0.00000000000E+00  0.00000000000E+00 -0.31571471401E+02  0.32916678767E+04  0.32915164670E+04 0.  0.
        4    1    3    3  502    0 -0.51976308577E+03  0.11600375044E+04  0.10295746815E+04  0.16358075421E+04  0.12699999809E+01 0.  1.
       -4    1    3    3    0  502  0.51976308577E+03 -0.11600375044E+04 -0.10611461529E+04  0.16558603346E+04  0.12699999809E+01 0. -1.
</event>
<event>
 5   0  0.2727168E-07  0.3304736E+04  0.7818609E-02  0.8161691E-01
        2   -1    0    0  501    0  0.00000000000E+00  0.00000000000E+00  0.14869996317E+04  0.14869996317E+04  0.25500000920E-02 0.  1.
       -2   -1    0    0    0  501  0.00000000000E+00  0.00000000000E+00 -0.18361270912E+04  0.18361270912E+04  0.25500000920E-02 0. -1.
    10030    2    1    2    0    0  0.00000000000E+00  0.00000000000E+00 -0.34912745944E+03  0.33231267229E+04  0.33047361821E+04 0.  0.
        2    1    3    3  502    0 -0.11751519905E+04 -0.65726698280E+02 -0.13407667805E+04  0.17840845718E+04  0.25500000920E-02 0. -1.
       -2    1    3    3    0  502  0.11751519905E+04  0.65726698280E+02  0.99163932108E+03  0.15390421511E+04  0.25500000920E-02 0.  1.
</event>
<event>
 5   0  0.9810351E-08  0.3299333E+04  0.7818609E-02  0.8163065E-01
        1   -1    0    0  501    0  0.00000000000E+00  0.00000000000E+00  0.28850548741E+04  0.28850548741E+04  0.50400001928E-02 0. -1.
       -1   -1    0    0    0  501  0.00000000000E+00  0.00000000000E+00 -0.94327461820E+03  0.94327461821E+03  0.50400001928E-02 0.  1.
    10030    2    1    2    0    0  0.00000000000E+00  0.00000000000E+00  0.19417802559E+04  0.38283294923E+04  0.32993326809E+04 0.  0.
        5    1    3    3  502    0 -0.42633125506E+03 -0.13158491122E+04 -0.72223935008E+02  0.13850832509E+04  0.46999998093E+01 0.  1.
       -5    1    3    3    0  502  0.42633125506E+03  0.13158491122E+04  0.20140041909E+04  0.24432462414E+04  0.46999998093E+01 0. -1.
</event>
<event>
 5   0  0.2727168E-07  0.3297806E+04  0.7818609E-02  0.8163454E-01
       -2   -1    0    0    0  501  0.00000000000E+00  0.00000000000E+00  0.16033535219E+04  0.16033535219E+04  0.25500000920E-02 0.  1.
        2   -1    0    0  501    0  0.00000000000E+00  0.00000000000E+00 -0.16957463851E+04  0.16957463851E+04  0.25500000920E-02 0. -1.
    10030    2    1    2    0    0  0.00000000000E+00  0.00000000000E+00 -0.92392863188E+02  0.32990999069E+04  0.32978059001E+04 0.  0.
        2    1    3    3  502    0 -0.10945994460E+04  0.11040600709E+04  0.50336814942E+03  0.16341591358E+04  0.25500000920E-02 0.  1.
       -2    1    3    3    0  502  0.10945994460E+04 -0.11040600709E+04 -0.59576101260E+03  0.16649407711E+04  0.25500000920E-02 0. -1.
</event>
<event>
 5   0  0.9810351E-08  0.3296313E+04  0.7818609E-02  0.8163834E-01
       -1   -1    0    0    0  501  0.00000000000E+00  0.00000000000E+00  0.15110144710E+04  0.15110144710E+04  0.50400001928E-02 0. -1.
        1   -1    0    0  501    0  0.00000000000E+00  0.00000000000E+00 -0.17977453230E+04  0.17977453230E+04  0.50400001928E-02 0.  1.
    10030    2    1    2    0    0  0.00000000000E+00  0.00000000000E+00 -0.28673085202E+03  0.33087597940E+04  0.32963126054E+04 0.  0.
        5    1    3    3  502    0 -0.95263994299E+03 -0.13115906300E+04 -0.44215412391E+03  0.16802723592E+04  0.46999998093E+01 0. -1.
       -5    1    3    3    0  502  0.95263994299E+03  0.13115906300E+04  0.15542327189E+03  0.16284874348E+04  0.46999998093E+01 0.  1.
</event>
<event>
 5   0  0.8805125E-08  0.3288993E+04  0.7818609E-02  0.8165702E-01
       -1   -1    0    0    0  501  0.00000000000E+00  0.00000000000E+00  0.20258389709E+04  0.20258389709E+04  0.50400001928E-02 0. -1.
        1   -1    0    0  501    0  0.00000000000E+00  0.00000000000E+00 -0.13349379237E+04  0.13349379237E+04  0.50400001928E-02 0.  1.
    10030    2    1    2    0    0  0.00000000000E+00  0.00000000000E+00  0.69090104725E+03  0.33607768946E+04  0.32889933229E+04 0.  0.
        4    1    3    3  502    0  0.11090452193E+04  0.11775596695E+04  0.64812407583E+03  0.17426114037E+04  0.12699999809E+01 0. -1.
       -4    1    3    3    0  502 -0.11090452193E+04 -0.11775596695E+04  0.42776971417E+02  0.16181654909E+04  0.12699999809E+01 0.  1.
</event>
<event>
 5   0  0.9454010E-08  0.3235506E+04  0.7818609E-02  0.8179503E-01
        1   -1    0    0  501    0  0.00000000000E+00  0.00000000000E+00  0.17414463288E+04  0.17414463288E+04  0.50400001928E-02 0. -1.
       -1   -1    0    0    0  501  0.00000000000E+00  0.00000000000E+00 -0.15028455112E+04  0.15028455112E+04  0.50400001928E-02 0.  1.
    10030    2    1    2    0    0  0.00000000000E+00  0.00000000000E+00  0.23860081762E+03  0.32442918401E+04  0.32355060181E+04 0.  0.
        2    1    3    3  502    0 -0.14403346994E+04  0.46808861725E+03  0.68957474825E+03  0.16640866363E+04  0.25500000920E-02 0. -1.
       -2    1    3    3    0  502  0.14403346994E+04 -0.46808861725E+03 -0.45097393062E+03  0.15802052037E+04  0.25500000920E-02 0.  1.
</event>
<event>
 5   0  0.8805125E-08  0.3287260E+04  0.7818609E-02  0.8166145E-01
        1   -1    0    0  501    0  0.00000000000E+00  0.00000000000E+00  0.23393828347E+04  0.23393828347E+04  0.50400001928E-02 0. -1.
       -1   -1    0    0    0  501  0.00000000000E+00  0.00000000000E+00 -0.11548003841E+04  0.11548003841E+04  0.50400001928E-02 0.  1.
    10030    2    1    2    0    0  0.00000000000E+00  0.00000000000E+00  0.11845824506E+04  0.34941832188E+04  0.32872603767E+04 0.  0.
        4    1    3    3  502    0 -0.65263415686E+03  0.73429409583E+03  0.19929630249E+04  0.22219411319E+04  0.12699999809E+01 0. -1.
       -4    1    3    3    0  502  0.65263415686E+03 -0.73429409583E+03 -0.80838057432E+03  0.12722420869E+04  0.12699999809E+01 0.  1.
</event>
<event>
 5   0  0.2824402E-07  0.3314319E+04  0.7818609E-02  0.8159261E-01
        2   -1    0    0  501    0  0.00000000000E+00  0.00000000000E+00  0.14549848558E+04  0.14549848558E+04  0.25500000920E-02 0. -1.
       -2   -1    0    0    0  501  0.00000000000E+00  0.00000000000E+00 -0.18874272230E+04  0.18874272230E+04  0.25500000920E-02 0.  1.
    10030    2    1    2    0    0  0.00000000000E+00  0.00000000000E+00 -0.43244236728E+03  0.33424120788E+04  0.33143192519E+04 0.  0.
        1    1    3    3  502    0 -0.74451545556E+03 -0.40445595633E+03  0.12200309685E+04  0.14853832665E+04  0.50400001928E-02 0.  1.
       -1    1    3    3    0  502  0.74451545556E+03  0.40445595633E+03 -0.16524733358E+04  0.18570288123E+04  0.50400001928E-02 0. -1.
</event>
<event>
 5   0  0.2713815E-07  0.3338360E+04  0.7818609E-02  0.8153203E-01
       -2   -1    0    0    0  501  0.00000000000E+00  0.00000000000E+00  0.12341081365E+04  0.12341081365E+04  0.25500000920E-02 0.  1.
        2   -1    0    0  501    0  0.00000000000E+00  0.00000000000E+00 -0.22576320596E+04  0.22576320596E+04  0.25500000920E-02 0. -1.
    10030    2    1    2    0    0  0.00000000000E+00  0.00000000000E+00 -0.10235239230E+04  0.34917401961E+04  0.33383601328E+04 0.  0.
        4    1    3    3  502    0  0.52958034449E+03 -0.74195810930E+03  0.95076775245E+03  0.13171629016E+04  0.12699999809E+01 0.  1.
       -4    1    3    3    0  502 -0.52958034449E+03  0.74195810930E+03 -0.19742916755E+04  0.21745772946E+04  0.12699999809E+01 0. -1.
</event>
<event>
 5   0  0.9283910E-08  0.3229098E+04  0.7818609E-02  0.8181174E-01
       -1   -1    0    0    0  501  0.00000000000E+00  0.00000000000E+00  0.17799220456E+04  0.17799220456E+04  0.50400001928E-02 0.  1.
        1   -1    0    0  501    0  0.00000000000E+00  0.00000000000E+00 -0.14645411466E+04  0.14645411466E+04  0.50400001928E-02 0. -1.
    10030    2    1    2    0    0  0.00000000000E+00  0.00000000000E+00  0.31538089901E+03  0.32444631923E+04  0.32290983718E+04 0.  0.
        3    1    3    3  502    0 -0.10137033334E+04  0.11748893225E+03  0.14147915690E+04  0.17444292164E+04  0.10100000352E+00 0.  1.
       -3    1    3    3    0  502  0.10137033334E+04 -0.11748893225E+03 -0.10994106699E+04  0.15000339758E+04  0.10100000352E+00 0. -1.
</event>
<event>
 5   0  0.2875829E-07  0.3300418E+04  0.7818609E-02  0.8162789E-01
        2   -1    0    0  501    0  0.00000000000E+00  0.00000000000E+00  0.24887927217E+04  0.24887927217E+04  0.25500000920E-02 0. -1.
       -2   -1    0    0    0  501  0.00000000000E+00  0.00000000000E+00 -0.10941810372E+04  0.10941810372E+04  0.25500000920E-02 0.  1.
    10030    2    1    2    0    0  0.00000000000E+00  0.00000000000E+00  0.13946116846E+04  0.35829737589E+04  0.33004180351E+04 0.  0.
        3    1    3    3  502    0  0.79137262117E+02 -0.98540976393E+03 -0.73713848357E+03  0.12331537874E+04  0.10100000352E+00 0.  1.
       -3    1    3    3    0  502 -0.79137262117E+02  0.98540976393E+03  0.21317501681E+04  0.23498199715E+04  0.10100000352E+00 0. -1.
</event>
<event>
 5   0  0.9283910E-08  0.3299477E+04  0.7818609E-02  0.8163029E-01
       -1   -1    0    0    0  501  0.00000000000E+00  0.00000000000E+00  0.12109779769E+04  0.12109779769E+04  0.50400001928E-02 0. -1.
        1   -1    0    0  501    0  0.00000000000E+00  0.00000000000E+00 -0.22474701540E+04  0.22474701540E+04  0.50400001928E-02 0.  1.
    10030    2    1    2    0    0  0.00000000000E+00  0.00000000000E+00 -0.10364921771E+04  0.34584481309E+04  0.32994768435E+04 0.  0.
        3    1    3    3  502    0 -0.95225198691E+03 -0.37286823986E+03  0.83866115789E+03  0.13225608186E+04  0.10100000352E+00 0. -1.
       -3    1    3    3    0  502  0.95225198691E+03  0.37286823986E+03 -0.18751533350E+04  0.21358873123E+04  0.10100000352E+00 0.  1.
</event>
<event>
 5   0  0.9454010E-08  0.3300255E+04  0.7818609E-02  0.8162830E-01
        1   -1    0    0  501    0  0.00000000000E+00  0.00000000000E+00  0.17976430096E+04  0.17976430096E+04  0.50400001928E-02 0.  1.
       -1   -1    0    0    0  501  0.00000000000E+00  0.00000000000E+00 -0.15147174540E+04  0.15147174540E+04  0.50400001928E-02 0. -1.
    10030    2    1    2    0    0  0.00000000000E+00  0.00000000000E+00  0.28292555563E+03  0.33123604636E+04  0.33002552888E+04 0.  0.
        2    1    3    3  502    0  0.39313490004E+03 -0.10353362453E+04 -0.10863169091E+04  0.15513093236E+04  0.25500000920E-02 0. -1.
       -2    1    3    3    0  502 -0.39313490004E+03  0.10353362453E+04  0.13692424647E+04  0.17610511400E+04  0.25500000920E-02 0.  1.
</event>
<event>
 5   0  0.2727168E-07  0.3303957E+04  0.7818609E-02  0.8161889E-01
       -2   -1    0    0    0  501  0.00000000000E+00  0.00000000000E+00  0.19836485477E+04  0.19836485477E+04  0.25500000920E-02 0.  1.
        2   -1    0    0  501    0  0.00000000000E+00  0.00000000000E+00 -0.13757645693E+04  0.13757645693E+04  0.25500000920E-02 0. -1.
    10030    2    1    2    0    0  0.00000000000E+00  0.00000000000E+00  0.60788397842E+03  0.33594131171E+04  0.33039572576E+04 0.  0.
        2    1    3    3  502    0  0.99991895480E+03  0.41369286626E+03 -0.96522919275E+03  0.14500507227E+04  0.25500000920E-02 0. -1.
       -2    1    3    3    0  502 -0.99991895480E+03 -0.41369286626E+03  0.15731131712E+04  0.19093623944E+04  0.25500000920E-02 0.  1.
</event>
<event>
 5   0  0.8805125E-08  0.3262403E+04  0.7818609E-02  0.8172528E-01
        3   -1    0    0  501    0  0.00000000000E+00  0.00000000000E+00  0.19560020215E+04  0.19560020241E+04  0.10100000352E+00 0.  1.
       -3   -1    0    0    0  501  0.00000000000E+00  0.00000000000E+00 -0.13603353558E+04  0.13603353595E+04  0.10100000352E+00 0. -1.
    10030    2    1    2    0    0  0.00000000000E+00  0.00000000000E+00  0.59566666577E+03  0.33163373837E+04  0.32624032347E+04 0.  0.
        1    1    3    3  502    0  0.19004846582E+03  0.18889329679E+03 -0.13378104916E+04  0.13643811815E+04  0.50400001928E-02 0. -1.
       -1    1    3    3    0  502 -0.19004846582E+03 -0.18889329679E+03  0.19334771574E+04  0.19519562021E+04  0.50400001928E-02 0.  1.
</event>
<event>
 5   0  0.9181760E-08  0.3297684E+04  0.7818609E-02  0.8163485E-01
        1   -1    0    0  501    0  0.00000000000E+00  0.00000000000E+00  0.13146166960E+04  0.13146166960E+04  0.50400001928E-02 0. -1.
       -1   -1    0    0    0  501  0.00000000000E+00  0.00000000000E+00 -0.20680403164E+04  0.20680403164E+04  0.50400001928E-02 0.  1.
    10030    2    1    2    0    0  0.00000000000E+00  0.00000000000E+00 -0.75342362037E+03  0.33826570124E+04  0.32976842347E+04 0.  0.
        1    1    3    3  502    0 -0.12322826481E+03  0.29535914190E+03  0.12824517058E+04  0.13217808463E+04  0.50400001928E-02 0. -1.
       -1    1    3    3    0  502  0.12322826481E+03 -0.29535914190E+03 -0.20358753262E+04  0.20608761660E+04  0.50400001928E-02 0.  1.
</event>
<event>
 5   0  0.2713815E-07  0.3298928E+04  0.7818609E-02  0.8163168E-01
        2   -1    0    0  501    0  0.00000000000E+00  0.00000000000E+00  0.16616489411E+04  0.16616489411E+04  0.25500000920E-02 0. -1.
       -2   -1    0    0    0  501  0.00000000000E+00  0.00000000000E+00 -0.16373688444E+04  0.16373688444E+04  0.25500000920E-02 0.  1.
    10030    2    1    2    0    0  0.00000000000E+00  0.00000000000E+00  0.24280096698E+02  0.32990177856E+04  0.32989284361E+04 0.  0.
        4    1    3    3  502    0 -0.12309995615E+04 -0.10053026186E+04 -0.42916241825E+03  0.16462609968E+04  0.12699999809E+01 0. -1.
       -4    1    3    3    0  502  0.12309995615E+04  0.10053026186E+04  0.45344251495E+03  0.16527567887E+04  0.12699999809E+01 0.  1.
</event>
<event>
 5   0  0.9181760E-08  0.3320625E+04  0.7818609E-02  0.8157667E-01
       -1   -1    0    0    0  501  0.00000000000E+00  0.00000000000E+00  0.12377900384E+04  0.12377900384E+04  0.50400001928E-02 0.  1.
        1   -1    0    0  501    0  0.00000000000E+00  0.00000000000E+00 -0.22270640480E+04  0.22270640480E+04  0.50400001928E-02 0. -1.
    10030    2    1    2    0    0  0.00000000000E+00  0.00000000000E+00 -0.98927400959E+03  0.34648540865E+04  0.33206250578E+04 0.  0.
        1    1    3    3  502    0  0.86232890026E+03  0.12250360315E+04  0.25221219048E+03  0.15191890599E+04  0.50400001928E-02 0.  1.
       -1    1    3    3    0  502 -0.86232890026E+03 -0.12250360315E+04 -0.12414862001E+04  0.19456650266E+04  0.50400001928E-02 0. -1.
</event>
<event>
 5   0  0.2713815E-07  0.3303956E+04  0.7818609E-02  0.8161890E-01
       -2   -1    0    0    0  501  0.00000000000E+00  0.00000000000E+00  0.23146503041E+04  0.23146503041E+04  0.25500000920E-02 0.  1.
        2   -1    0    0  501    0  0.00000000000E+00  0.00000000000E+00 -0.11790251886E+04  0.11790251886E+04  0.25500000920E-02 0. -1.
    10030    2    1    2    0    0  0.00000000000E+00  0.00000000000E+00  0.11356251155E+04  0.34936754926E+04  0.33039558176E+04 0.  0.
        4    1    3    3  502    0 -0.87667748078E+03  0.11441285046E+04  0.14212745711E+04  0.20242570142E+04  0.12699999809E+01 0.  1.
       -4    1    3    3    0  502  0.87667748078E+03 -0.11441285046E+04 -0.28564945559E+03  0.14694184784E+04  0.12699999809E+01 0. -1.
</event>
<event>
 5   0  0.2703956E-07  0.3300283E+04  0.7818609E-02  0.8162823E-01
        2   -1    0    0  501    0  0.00000000000E+00  0.00000000000E+00  0.20989707810E+04  0.20989707810E+04  0.25500000920E-02 0. -1.
       -2   -1    0    0    0  501  0.00000000000E+00  0.00000000000E+00 -0.12972870988E+04  0.12972870988E+04  0.25500000920E-02 0.  1.
    10030    2    1    2    0    0  0.00000000000E+00  0.00000000000E+00  0.80168368218E+03  0.33962578798E+04  0.33002834515E+04 0.  0.
        5    1    3    3  502    0 -0.78318697661E+03  0.35266900340E+03 -0.10490989808E+04  0.13558716856E+04  0.46999998093E+01 0.  1.
       -5    1    3    3    0  502  0.78318697661E+03 -0.35266900340E+03  0.18507826629E+04  0.20403861943E+04  0.46999998093E+01 0. -1.
</event>
<event>
 5   0  0.8805125E-08  0.3300016E+04  0.7818609E-02  0.8162891E-01
        1   -1    0    0  501    0  0.00000000000E+00  0.00000000000E+00  0.95931467472E+03  0.95931467474E+03  0.50400001928E-02 0. -1.
       -1   -1    0    0    0  501  0.00000000000E+00  0.00000000000E+00 -0.28379908139E+04  0.28379908139E+04  0.50400001928E-02 0.  1.
    10030    2    1    2    0    0  0.00000000000E+00  0.00000000000E+00 -0.18786761392E+04  0.37973054887E+04  0.33000158997E+04 0.  0.
        4    1    3    3  502    0 -0.10016443289E+04 -0.47378067421E+03 -0.23461822037E+04  0.25946737819E+04  0.12699999809E+01 0.  1.
       -4    1    3    3    0  502  0.10016443289E+04  0.47378067421E+03  0.46750606449E+03  0.12026317067E+04  0.12699999809E+01 0. -1.
</event>
<event>
 5   0  0.2703956E-07  0.3297640E+04  0.7818609E-02  0.8163496E-01
        2   -1    0    0  501    0  0.00000000000E+00  0.00000000000E+00  0.13844922043E+04  0.13844922043E+04  0.25500000920E-02 0. -1.
       -2   -1    0    0    0  501  0.00000000000E+00  0.00000000000E+00 -0.19636138109E+04  0.19636138109E+04  0.25500000920E-02 0.  1.
    10030    2    1    2    0    0  0.00000000000E+00  0.00000000000E+00 -0.57912160663E+03  0.33481060151E+04  0.32976403766E+04 0.  0.
        5    1    3    3  502    0  0.13490067712E+04 -0.70855414462E+03 -0.92905511554E+03  0.17846662832E+04  0.46999998093E+01 0.  1.
       -5    1    3    3    0  502 -0.13490067712E+04  0.70855414462E+03  0.34993350891E+03  0.15634397319E+04  0.46999998093E+01 0. -1.
</event>
<event>
 5   0  0.9454010E-08  0.3304789E+04  0.7818609E-02  0.8161678E-01
        1   -1    0    0  501    0  0.00000000000E+00  0.00000000000E+00  0.29650370763E+04  0.29650370763E+04  0.50400001928E-02 0. -1.
       -1   -1    0    0    0  501  0.00000000000E+00  0.00000000000E+00 -0.92086810889E+03  0.92086810891E+03  0.50400001928E-02 0.  1.
    10030    2    1    2    0    0  0.00000000000E+00  0.00000000000E+00  0.20441689674E+04  0.38859051852E+04  0.33047893036E+04 0.  0.
        2    1    3    3  502    0 -0.79586131606E+02 -0.15776891407E+03  0.29538953147E+04  0.29591759855E+04  0.25500000920E-02 0. -1.
       -2    1    3    3    0  502  0.79586131606E+02  0.15776891407E+03 -0.90972634733E+03  0.92672919973E+03  0.25500000920E-02 0.  1.
</event>
<event>
 5   0  0.2727168E-07  0.3303064E+04  0.7818609E-02  0.8162116E-01
       -2   -1    0    0    0  501  0.00000000000E+00  0.00000000000E+00  0.11150323449E+04  0.11150323449E+04  0.25500000920E-02 0.  1.
        2   -1    0    0  501    0  0.00000000000E+00  0.00000000000E+00 -0.24461697988E+04  0.24461697988E+04  0.25500000920E-02 0. -1.
    10030    2    1    2    0    0  0.00000000000E+00  0.00000000000E+00 -0.13311374539E+04  0.35612021438E+04  0.33030643027E+04 0.  0.
        2    1    3    3  502    0 -0.53804986357E+03 -0.15396430517E+04 -0.94580517909E+03  0.18853503173E+04  0.25500000920E-02 0. -1.
       -2    1    3    3    0  502  0.53804986357E+03  0.15396430517E+04 -0.38533227481E+03  0.16758518265E+04  0.25500000920E-02 0.  1.
</event>
<event>
 5   0  0.9810351E-08  0.3281611E+04  0.7818609E-02  0.8167590E-01
       -1   -1    0    0    0  501  0.00000000000E+00  0.00000000000E+00  0.12210764424E+04  0.12210764424E+04  0.50400001928E-02 0. -1.
        1   -1    0    0  501    0  0.00000000000E+00  0.00000000000E+00 -0.22048111329E+04  0.22048111329E+04  0.50400001928E-02 0.  1.
    10030    2    1    2    0    0  0.00000000000E+00  0.00000000000E+00 -0.98373469054E+03  0.34258875754E+04  0.32816111497E+04 0.  0.
        5    1    3    3  502    0  0.63228502423E+03  0.94967817398E+03  0.73919191303E+03  0.13594483294E+04  0.46999998093E+01 0. -1.
       -5    1    3    3    0  502 -0.63228502423E+03 -0.94967817398E+03 -0.17229266036E+04  0.20664392460E+04  0.46999998093E+01 0.  1.
</event>
</LesHouchesEvents>
