<LesHouchesEvents version="3.0">
<header>
<!--
#*********************************************************************
#                                                                    *
#                        MadGraph5_aMC@NLO                           *
#                                                                    *
#                           Going Beyond                             *
#                                                                    *
#                   http://madgraph.hep.uiuc.edu                     *
#                   http://madgraph.phys.ucl.ac.be                   *
#                   http://amcatnlo.cern.ch                          *
#                                                                    *
#                     The MadGraph5_aMC@NLO team                     *
#                                                                    *
#....................................................................*
#                                                                    *
# This file contains all the information necessary to reproduce      *
# the events generated:                                              *
#                                                                    *
# 1. software version                                                *
# 2. proc_card          : code generation info including model       *
# 3. param_card         : model primary parameters in the LH format  *
# 4. run_card           : running parameters (collider and cuts)     *
# 5. pythia_card        : present only if pythia has been run        *
# 6. pgs_card           : present only if pgs has been run           *
# 7. delphes_cards      : present only if delphes has been run       *
#                                                                    *
#                                                                    *
#*********************************************************************
-->
<MGVersion>
#5.2.2.3
</MGVersion>
<MG5ProcCard>
#************************************************************
#*                     MadGraph5_aMC@NLO                    *
#*                                                          *
#*                *                       *                 *
#*                  *        * *        *                   *
#*                    * * * * 5 * * * *                     *
#*                  *        * *        *                   *
#*                *                       *                 *
#*                                                          *
#*                                                          *
#*         VERSION 2.2.3                 2015-02-10         *
#*                                                          *
#*    The MadGraph5_aMC@NLO Development Team - Find us at   *
#*    https://server06.fynu.ucl.ac.be/projects/madgraph     *
#*                                                          *
#************************************************************
#*                                                          *
#*               Command File for MadGraph5_aMC@NLO         *
#*                                                          *
#*     run as ./bin/mg5_aMC  filename                       *
#*                                                          *
#************************************************************
set group_subprocesses Auto
set ignore_six_quark_processes False
set loop_optimized_output True
set gauge unitary
set complex_mass_scheme False
import model sm
define p = g u c d s u~ c~ d~ s~
define j = g u c d s u~ c~ d~ s~
define l+ = e+ mu+
define l- = e- mu-
define vl = ve vm vt
define vl~ = ve~ vm~ vt~
import model Zprime_UFO
generate p p > zph, zph > j j
add process p p > zph, zph > b b~
output Dijet_signal
</MG5ProcCard>
<MGProcCard>
#*********************************************************************
#                        MadGraph/MadEvent                           *
#                   http://madgraph.hep.uiuc.edu                     *
#                                                                    *
#                          proc_card.dat                             *
#*********************************************************************
#                                                                    *
#            This Files is generated by MADGRAPH 5                   *
#                                                                    *
# WARNING: This Files is generated for MADEVENT (compatibility issue)*
#          This files is NOT a valid MG4 proc_card.dat               *
#          Running this in MG4 will NEVER reproduce the result of MG5*
#                                                                    *
#*********************************************************************
#*********************************************************************
# Process(es) requested : mg2 input                                  *
#*********************************************************************
# Begin PROCESS # This is TAG. Do not modify this line
p p > zph , zph > j j           #Process
# Be carefull the coupling are here in MG5 convention
          
end_coup           # End the couplings input

done               # this tells MG there are no more procs
# End PROCESS  # This is TAG. Do not modify this line
#*********************************************************************
# Model information                                                  *
#*********************************************************************
# Begin MODEL  # This is TAG. Do not modify this line
Zprime_UFO
# End   MODEL  # This is TAG. Do not modify this line
#*********************************************************************
# Start multiparticle definitions                                    *
#*********************************************************************
# Begin MULTIPARTICLES # This is TAG. Do not modify this line

# End  MULTIPARTICLES # This is TAG. Do not modify this line
</MGProcCard>
<MGRunCard>
#*********************************************************************
#                       MadGraph5_aMC@NLO                            *
#                                                                    *
#                     run_card.dat MadEvent                          *
#                                                                    *
#  This file is used to set the parameters of the run.               *
#                                                                    *
#  Some notation/conventions:                                        *
#                                                                    *
#   Lines starting with a '# ' are info or comments                  *
#                                                                    *
#   mind the format:   value    = variable     ! comment             *
#*********************************************************************
#
#*******************                                                 
# Running parameters
#*******************                                                 
#                                                                    
#*********************************************************************
# Tag name for the run (one word)                                    *
#*********************************************************************
  tag_1     = run_tag ! name of the run 
#*********************************************************************
# Run to generate the grid pack                                      *
#*********************************************************************
  .false.     = gridpack  !True = setting up the grid pack
#*********************************************************************
# Number of events and rnd seed                                      *
# Warning: Do not generate more than 1M events in a single run       *
# If you want to run Pythia, avoid more than 50k events in a run.    *
#*********************************************************************
  2000 = nevents ! Number of unweighted events requested 
 1416 = iseed   ! rnd seed (0=assigned automatically=default))
#*********************************************************************
# Collider type and energy                                           *
# lpp: 0=No PDF, 1=proton, -1=antiproton, 2=photon from proton,      *
#                                         3=photon from electron     *
#*********************************************************************
        1     = lpp1    ! beam 1 type 
        1     = lpp2    ! beam 2 type
     4000     = ebeam1  ! beam 1 total energy in GeV
     4000     = ebeam2  ! beam 2 total energy in GeV
#*********************************************************************
# Beam polarization from -100 (left-handed) to 100 (right-handed)    *
#*********************************************************************
        0     = polbeam1 ! beam polarization for beam 1
        0     = polbeam2 ! beam polarization for beam 2
#*********************************************************************
# PDF CHOICE: this automatically fixes also alpha_s and its evol.    *
#*********************************************************************
 'nn23lo1'    = pdlabel     ! PDF set                                     
 230000    = lhaid     ! if pdlabel=lhapdf, this is the lhapdf number
#*********************************************************************
# Renormalization and factorization scales                           *
#*********************************************************************
 F        = fixed_ren_scale  ! if .true. use fixed ren scale
 F        = fixed_fac_scale  ! if .true. use fixed fac scale
 91.1880  = scale            ! fixed ren scale
 91.1880  = dsqrt_q2fact1    ! fixed fact scale for pdf1
 91.1880  = dsqrt_q2fact2    ! fixed fact scale for pdf2
 1        = scalefact        ! scale factor for event-by-event scales
#*********************************************************************
# Matching - Warning! ickkw > 1 is still beta
#*********************************************************************
 0        = ickkw            ! 0 no matching, 1 MLM, 2 CKKW matching
 1        = highestmult      ! for ickkw=2, highest mult group
 1        = ktscheme         ! for ickkw=1, 1 Durham kT, 2 Pythia pTE
 1        = alpsfact         ! scale factor for QCD emission vx
 F        = chcluster        ! cluster only according to channel diag
 T        = pdfwgt           ! for ickkw=1, perform pdf reweighting
 5        = asrwgtflavor     ! highest quark flavor for a_s reweight
 T        = clusinfo         ! include clustering tag in output
 3.0      = lhe_version       ! Change the way clustering information pass to shower.        
#*********************************************************************
#**********************************************************
#
#**********************************************************
# Automatic ptj and mjj cuts if xqcut > 0
# (turn off for VBF and single top processes)
#**********************************************************
   T  = auto_ptj_mjj  ! Automatic setting of ptj and mjj
#**********************************************************
#                                                                    
#**********************************
# BW cutoff (M+/-bwcutoff*Gamma)
#**********************************
  15  = bwcutoff      ! (M+/-bwcutoff*Gamma)
#**********************************************************
# Apply pt/E/eta/dr/mij cuts on decay products or not
# (note that etmiss/ptll/ptheavy/ht/sorted cuts always apply)
#**********************************************************
   T  = cut_decays    ! Cut decay products 
#*************************************************************
# Number of helicities to sum per event (0 = all helicities)
# 0 gives more stable result, but longer run time (needed for
# long decay chains e.g.).
# Use >=2 if most helicities contribute, e.g. pure QCD.
#*************************************************************
   0  = nhel          ! Number of helicities used per event
#*******************                                                 
# Standard Cuts
#*******************                                                 
#                                                                    
#*********************************************************************
# Minimum and maximum pt's (for max, -1 means no cut)                *
#*********************************************************************
 20  = ptj       ! minimum pt for the jets 
  0  = ptb       ! minimum pt for the b 
 10  = pta       ! minimum pt for the photons 
 10  = ptl       ! minimum pt for the charged leptons 
  0  = misset    ! minimum missing Et (sum of neutrino's momenta)
  0  = ptheavy   ! minimum pt for one heavy final state
 1.0 = ptonium   ! minimum pt for the quarkonium states
 -1  = ptjmax    ! maximum pt for the jets
 -1  = ptbmax    ! maximum pt for the b
 -1  = ptamax    ! maximum pt for the photons
 -1  = ptlmax    ! maximum pt for the charged leptons
 -1  = missetmax ! maximum missing Et (sum of neutrino's momenta)
#*********************************************************************
# Minimum and maximum E's (in the center of mass frame)              *
#*********************************************************************
  0  = ej     ! minimum E for the jets 
  0  = eb     ! minimum E for the b 
  0  = ea     ! minimum E for the photons 
  0  = el     ! minimum E for the charged leptons 
 -1   = ejmax ! maximum E for the jets
 -1   = ebmax ! maximum E for the b
 -1   = eamax ! maximum E for the photons
 -1   = elmax ! maximum E for the charged leptons
#*********************************************************************
# Maximum and minimum absolute rapidity (for max, -1 means no cut)   *
#*********************************************************************
   5  = etaj    ! max rap for the jets 
  -1  = etab    ! max rap for the b
 2.5  = etaa    ! max rap for the photons 
 2.5  = etal    ! max rap for the charged leptons 
 0.6  = etaonium ! max rap for the quarkonium states
   0  = etajmin ! min rap for the jets
   0  = etabmin ! min rap for the b
   0  = etaamin ! min rap for the photons
   0  = etalmin ! main rap for the charged leptons
#*********************************************************************
# Minimum and maximum DeltaR distance                                *
#*********************************************************************
 0.4 = drjj    ! min distance between jets 
 0   = drbb    ! min distance between b's 
 0.4 = drll    ! min distance between leptons 
 0.4 = draa    ! min distance between gammas 
 0   = drbj    ! min distance between b and jet 
 0.4 = draj    ! min distance between gamma and jet 
 0.4 = drjl    ! min distance between jet and lepton 
 0   = drab    ! min distance between gamma and b 
 0   = drbl    ! min distance between b and lepton 
 0.4 = dral    ! min distance between gamma and lepton 
 -1  = drjjmax ! max distance between jets
 -1  = drbbmax ! max distance between b's
 -1  = drllmax ! max distance between leptons
 -1  = draamax ! max distance between gammas
 -1  = drbjmax ! max distance between b and jet
 -1  = drajmax ! max distance between gamma and jet
 -1  = drjlmax ! max distance between jet and lepton
 -1  = drabmax ! max distance between gamma and b
 -1  = drblmax ! max distance between b and lepton
 -1  = dralmax ! maxdistance between gamma and lepton
#*********************************************************************
# Minimum and maximum invariant mass for pairs                       *
# WARNING: for four lepton final state mmll cut require to have      *
#          different lepton masses for each flavor!                  *           
#*********************************************************************
 0   = mmjj    ! min invariant mass of a jet pair 
 0   = mmbb    ! min invariant mass of a b pair 
 0   = mmaa    ! min invariant mass of gamma gamma pair
 0   = mmll    ! min invariant mass of l+l- (same flavour) lepton pair
 -1  = mmjjmax ! max invariant mass of a jet pair
 -1  = mmbbmax ! max invariant mass of a b pair
 -1  = mmaamax ! max invariant mass of gamma gamma pair
 -1  = mmllmax ! max invariant mass of l+l- (same flavour) lepton pair
#*********************************************************************
# Minimum and maximum invariant mass for all letpons                 *
#*********************************************************************
 0   = mmnl    ! min invariant mass for all letpons (l+- and vl) 
 -1  = mmnlmax ! max invariant mass for all letpons (l+- and vl) 
#*********************************************************************
# Minimum and maximum pt for 4-momenta sum of leptons                *
#*********************************************************************
 0   = ptllmin  ! Minimum pt for 4-momenta sum of leptons(l and vl)
 -1  = ptllmax  ! Maximum pt for 4-momenta sum of leptons(l and vl)
#*********************************************************************
# Inclusive cuts                                                     *
#*********************************************************************
 0  = xptj ! minimum pt for at least one jet  
 0  = xptb ! minimum pt for at least one b 
 0  = xpta ! minimum pt for at least one photon 
 0  = xptl ! minimum pt for at least one charged lepton 
#*********************************************************************
# Control the pt's of the jets sorted by pt                          *
#*********************************************************************
 0   = ptj1min ! minimum pt for the leading jet in pt
 0   = ptj2min ! minimum pt for the second jet in pt
 0   = ptj3min ! minimum pt for the third jet in pt
 0   = ptj4min ! minimum pt for the fourth jet in pt
 -1  = ptj1max ! maximum pt for the leading jet in pt 
 -1  = ptj2max ! maximum pt for the second jet in pt
 -1  = ptj3max ! maximum pt for the third jet in pt
 -1  = ptj4max ! maximum pt for the fourth jet in pt
 0   = cutuse  ! reject event if fails any (0) / all (1) jet pt cuts
#*********************************************************************
# Control the pt's of leptons sorted by pt                           *
#*********************************************************************
 0   = ptl1min ! minimum pt for the leading lepton in pt
 0   = ptl2min ! minimum pt for the second lepton in pt
 0   = ptl3min ! minimum pt for the third lepton in pt
 0   = ptl4min ! minimum pt for the fourth lepton in pt
 -1  = ptl1max ! maximum pt for the leading lepton in pt 
 -1  = ptl2max ! maximum pt for the second lepton in pt
 -1  = ptl3max ! maximum pt for the third lepton in pt
 -1  = ptl4max ! maximum pt for the fourth lepton in pt
#*********************************************************************
# Control the Ht(k)=Sum of k leading jets                            *
#*********************************************************************
 0   = htjmin ! minimum jet HT=Sum(jet pt)
 -1  = htjmax ! maximum jet HT=Sum(jet pt)
 0   = ihtmin  !inclusive Ht for all partons (including b)
 -1  = ihtmax  !inclusive Ht for all partons (including b)
 0   = ht2min ! minimum Ht for the two leading jets
 0   = ht3min ! minimum Ht for the three leading jets
 0   = ht4min ! minimum Ht for the four leading jets
 -1  = ht2max ! maximum Ht for the two leading jets
 -1  = ht3max ! maximum Ht for the three leading jets
 -1  = ht4max ! maximum Ht for the four leading jets
#***********************************************************************
# Photon-isolation cuts, according to hep-ph/9801442                   *
# When ptgmin=0, all the other parameters are ignored                  *
# When ptgmin>0, pta and draj are not going to be used                 *
#***********************************************************************
   0 = ptgmin ! Min photon transverse momentum
 0.4 = R0gamma ! Radius of isolation code
 1.0 = xn ! n parameter of eq.(3.4) in hep-ph/9801442
 1.0 = epsgamma ! epsilon_gamma parameter of eq.(3.4) in hep-ph/9801442
 .true. = isoEM ! isolate photons from EM energy (photons and leptons)
#*********************************************************************
# WBF cuts                                                           *
#*********************************************************************
 0   = xetamin ! minimum rapidity for two jets in the WBF case  
 0   = deltaeta ! minimum rapidity for two jets in the WBF case 
#*********************************************************************
# KT DURHAM CUT                                                      *
#*********************************************************************
 -1    =  ktdurham        
 0.4  =  dparameter 
#*********************************************************************
# maximal pdg code for quark to be considered as a light jet         *
# (otherwise b cuts are applied)                                     *
#*********************************************************************
 4 = maxjetflavor    ! Maximum jet pdg code
#*********************************************************************
# Jet measure cuts                                                   *
#*********************************************************************
 0   = xqcut   ! minimum kt jet measure between partons
#*********************************************************************
#
#*********************************************************************
# Store info for systematics studies                                 *
# WARNING: If use_syst is T, matched Pythia output is                *
#          meaningful ONLY if plotted taking matchscale              *
#          reweighting into account!                                 *
#*********************************************************************
   F  = use_syst      ! Enable systematics studies
#
#**************************************
# Parameter of the systematics study
#  will be used by SysCalc (if installed)
#**************************************                                  
#
0.5 1 2 = sys_scalefact  # factorization/renormalization scale factor
0.5 1 2 = sys_alpsfact  # \alpha_s emission scale factors
30 50 = sys_matchscale # variation of merging scale
# PDF sets and number of members (0 or none for all members).
CT10nlo.LHgrid = sys_pdf # matching scales
# MSTW2008nlo68cl.LHgrid 1  = sys_pdf
</MGRunCard>
<slha>
######################################################################
## PARAM_CARD AUTOMATICALY GENERATED BY MG5 FOLLOWING UFO MODEL   ####
######################################################################
##                                                                  ##
##  Width set on Auto will be computed following the information    ##
##        present in the decay.py files of the model.               ##
##        See  arXiv:1402.1178 for more details.                    ##
##                                                                  ##
######################################################################

###################################
## INFORMATION FOR CKMBLOCK
###################################
Block ckmblock 
    1 2.277360e-01 # cabi 

###################################
## INFORMATION FOR FRBLOCK
###################################
Block frblock 
    1 6.000000e-01 # gz 

###################################
## INFORMATION FOR MASS
###################################
Block mass 
    1 5.040000e-03 # MD 
    2 2.550000e-03 # MU 
    3 1.010000e-01 # MS 
    4 1.270000e+00 # MC 
    5 4.700000e+00 # MB 
    6 1.720000e+02 # MT 
   11 5.110000e-04 # Me 
   13 1.056600e-01 # MM 
   15 1.777000e+00 # MTA 
   23 9.118760e+01 # MZ 
   25 1.200000e+02 # MH 
  10030 3.500000e+03 # MZph 
  10031 3.000000e+02 # MZpl 
## Dependent parameters, given by model restrictions.
## Those values should be edited following the 
## analytical expression. MG5 ignores those values 
## but they are important for interfacing the output of MG5
## to external program such as Pythia.
  12 0.000000 # ve : 0.0 
  14 0.000000 # vm : 0.0 
  16 0.000000 # vt : 0.0 
  21 0.000000 # g : 0.0 
  22 0.000000 # a : 0.0 
  24 79.824360 # w+ : cmath.sqrt(MZ__exp__2/2. + cmath.sqrt(MZ__exp__4/4. - (aEW*cmath.pi*MZ__exp__2)/(Gf*sqrt__2))) 

###################################
## INFORMATION FOR SMINPUTS
###################################
Block sminputs 
    1 1.279000e+02 # aEWM1 
    2 1.166370e-05 # Gf 
    3 1.184000e-01 # aS 

###################################
## INFORMATION FOR YUKAWA
###################################
Block yukawa 
    1 5.040000e-03 # ymdo 
    2 2.550000e-03 # ymup 
    3 1.010000e-01 # yms 
    4 1.270000e+00 # ymc 
    5 4.700000e+00 # ymb 
    6 1.720000e+02 # ymt 
   11 5.110000e-04 # yme 
   13 1.056600e-01 # ymm 
   15 1.777000e+00 # ymtau 

###################################
## INFORMATION FOR DECAY
###################################
DECAY   6 1.508336e+00 # WT 
DECAY  23 2.495200e+00 # WZ 
DECAY  24 2.085000e+00 # WW 
DECAY  25 5.753088e-03 # WH 
## Dependent parameters, given by model restrictions.
## Those values should be edited following the 
## analytical expression. MG5 ignores those values 
## but they are important for interfacing the output of MG5
## to external program such as Pythia.
DECAY  1 0.000000 # d : 0.0 
DECAY  2 0.000000 # u : 0.0 
DECAY  3 0.000000 # s : 0.0 
DECAY  4 0.000000 # c : 0.0 
DECAY  5 0.000000 # b : 0.0 
DECAY  11 0.000000 # e- : 0.0 
DECAY  12 0.000000 # ve : 0.0 
DECAY  13 0.000000 # mu- : 0.0 
DECAY  14 0.000000 # vm : 0.0 
DECAY  15 0.000000 # ta- : 0.0 
DECAY  16 0.000000 # vt : 0.0 
DECAY  21 0.000000 # g : 0.0 
DECAY  22 0.000000 # a : 0.0 
DECAY  10030 0.308725 # zph : (gz__exp__2*MZph*(5 + cmath.sqrt(1 - (4*MT__exp__2)/MZph__exp__2)))/(144.*cmath.pi) 
DECAY  10031 0.132629 # zpl : (5*gz__exp__2*MZpl)/(144.*cmath.pi) 
#===========================================================
# QUANTUM NUMBERS OF NEW STATE(S) (NON SM PDG CODE)
#===========================================================

Block QNUMBERS 10030  # zph 
        1 0  # 3 times electric charge
        2 3  # number of spin states (2S+1)
        3 1  # colour rep (1: singlet, 3: triplet, 8: octet)
        4 0  # Particle/Antiparticle distinction (0=own anti)
Block QNUMBERS 10031  # zpl 
        1 0  # 3 times electric charge
        2 3  # number of spin states (2S+1)
        3 1  # colour rep (1: singlet, 3: triplet, 8: octet)
        4 0  # Particle/Antiparticle distinction (0=own anti)
</slha>
## END BANNER##
<MGGenerationInfo>
#  Number of Events        :         4045
#  Integrated weight (pb)  :  0.81109E-04
#  Max wgt                 :  0.32192E-07
#  Average wgt             :  0.20052E-07
</MGGenerationInfo>
</header>
<init>
     2212     2212  0.40000000000E+04  0.40000000000E+04 0 0  247000  247000 2   1
  0.81128849570E-04  0.17923385265E-06  0.32192050000E-07   0
</init>
<event>
 5   0  0.3190185E-07  0.3629464E+04  0.7818609E-02  0.8083776E-01
       -2   -1    0    0    0  501  0.00000000000E+00  0.00000000000E+00  0.13690554399E+04  0.13690554399E+04  0.25500000920E-02 0. -1.
        2   -1    0    0  501    0  0.00000000000E+00  0.00000000000E+00 -0.24054921940E+04  0.24054921940E+04  0.25500000920E-02 0.  1.
    10030    2    1    2    0    0  0.00000000000E+00  0.00000000000E+00 -0.10364367541E+04  0.37745476339E+04  0.36294639680E+04 0.  0.
        1    1    3    3  502    0 -0.11301516743E+04 -0.13881115792E+04 -0.20769324151E+03  0.18020080593E+04  0.50400001928E-02 0. -1.
       -1    1    3    3    0  502  0.11301516743E+04  0.13881115792E+04 -0.82874351262E+03  0.19725395745E+04  0.50400001928E-02 0.  1.
</event>
<event>
 5   0  0.2180451E-07  0.3487799E+04  0.7818609E-02  0.8116688E-01
        2   -1    0    0  501    0  0.00000000000E+00  0.00000000000E+00  0.31336379097E+04  0.31336379097E+04  0.25500000920E-02 0.  1.
       -2   -1    0    0    0  501  0.00000000000E+00  0.00000000000E+00 -0.97049662146E+03  0.97049662147E+03  0.25500000920E-02 0. -1.
    10030    2    1    2    0    0  0.00000000000E+00  0.00000000000E+00  0.21631412883E+04  0.41041345312E+04  0.34877987352E+04 0.  0.
        4    1    3    3  502    0 -0.84588517016E+03 -0.31697302199E+03 -0.67373884292E+03  0.11269069434E+04  0.12699999809E+01 0. -1.
       -4    1    3    3    0  502  0.84588517016E+03  0.31697302199E+03  0.28368801312E+04  0.29772275878E+04  0.12699999809E+01 0.  1.
</event>
<event>
 5   0  0.3119048E-07  0.3482165E+04  0.7818609E-02  0.8118030E-01
        2   -1    0    0  501    0  0.00000000000E+00  0.00000000000E+00  0.12662307188E+04  0.12662307188E+04  0.25500000920E-02 0. -1.
       -2   -1    0    0    0  501  0.00000000000E+00  0.00000000000E+00 -0.23940095865E+04  0.23940095865E+04  0.25500000920E-02 0.  1.
    10030    2    1    2    0    0  0.00000000000E+00  0.00000000000E+00 -0.11277788677E+04  0.36602403053E+04  0.34821651193E+04 0.  0.
        3    1    3    3  502    0 -0.31954536937E+03 -0.15825187596E+04 -0.12490625806E+04  0.20412330117E+04  0.10100000352E+00 0.  1.
       -3    1    3    3    0  502  0.31954536937E+03  0.15825187596E+04  0.12128371282E+03  0.16190072936E+04  0.10100000352E+00 0. -1.
</event>
<event>
 5   0  0.3190185E-07  0.3493010E+04  0.7818609E-02  0.8115448E-01
        2   -1    0    0  501    0  0.00000000000E+00  0.00000000000E+00  0.22958651458E+04  0.22958651458E+04  0.25500000920E-02 0.  1.
       -2   -1    0    0    0  501  0.00000000000E+00  0.00000000000E+00 -0.13285972934E+04  0.13285972934E+04  0.25500000920E-02 0. -1.
    10030    2    1    2    0    0  0.00000000000E+00  0.00000000000E+00  0.96726785242E+03  0.36244624392E+04  0.34930102884E+04 0.  0.
        1    1    3    3  502    0 -0.45995918372E+03 -0.10305961128E+04 -0.89941414198E+03  0.14431342963E+04  0.50400001928E-02 0. -1.
       -1    1    3    3    0  502  0.45995918372E+03  0.10305961128E+04  0.18666819944E+04  0.21813281428E+04  0.50400001928E-02 0.  1.
</event>
<event>
 5   0  0.3190185E-07  0.3516832E+04  0.7818609E-02  0.8109813E-01
       -2   -1    0    0    0  501  0.00000000000E+00  0.00000000000E+00  0.19156411435E+04  0.19156411435E+04  0.25500000920E-02 0.  1.
        2   -1    0    0  501    0  0.00000000000E+00  0.00000000000E+00 -0.16140948949E+04  0.16140948949E+04  0.25500000920E-02 0. -1.
    10030    2    1    2    0    0  0.00000000000E+00  0.00000000000E+00  0.30154624862E+03  0.35297360384E+04  0.35168318642E+04 0.  0.
        1    1    3    3  502    0  0.34926805654E+03 -0.13168436734E+04 -0.96504403064E+03  0.16695434755E+04  0.50400001928E-02 0. -1.
       -1    1    3    3    0  502 -0.34926805654E+03  0.13168436734E+04  0.12665902793E+04  0.18601925629E+04  0.50400001928E-02 0.  1.
</event>
<event>
 5   0  0.1072381E-07  0.3513614E+04  0.7818609E-02  0.8110571E-01
        1   -1    0    0  501    0  0.00000000000E+00  0.00000000000E+00  0.15866750846E+04  0.15866750846E+04  0.50400001928E-02 0. -1.
       -1   -1    0    0    0  501  0.00000000000E+00  0.00000000000E+00 -0.19451808706E+04  0.19451808706E+04  0.50400001928E-02 0.  1.
    10030    2    1    2    0    0  0.00000000000E+00  0.00000000000E+00 -0.35850578605E+03  0.35318559552E+04  0.35136135374E+04 0.  0.
        1    1    3    3  502    0  0.12188003136E+04  0.78866737638E+03  0.81527750928E+03  0.16649768323E+04  0.50400001928E-02 0. -1.
       -1    1    3    3    0  502 -0.12188003136E+04 -0.78866737638E+03 -0.11737832953E+04  0.18668791229E+04  0.50400001928E-02 0.  1.
</event>
<event>
 5   0  0.1033796E-07  0.3517774E+04  0.7818609E-02  0.8109591E-01
        1   -1    0    0  501    0  0.00000000000E+00  0.00000000000E+00  0.20409712182E+04  0.20409712182E+04  0.50400001928E-02 0. -1.
       -1   -1    0    0    0  501  0.00000000000E+00  0.00000000000E+00 -0.15157895221E+04  0.15157895221E+04  0.50400001928E-02 0.  1.
    10030    2    1    2    0    0  0.00000000000E+00  0.00000000000E+00  0.52518169609E+03  0.35567607402E+04  0.35177736069E+04 0.  0.
        3    1    3    3  502    0 -0.16033276740E+03 -0.95471025007E+03 -0.12221886145E+04  0.15591418401E+04  0.10100000352E+00 0.  1.
       -3    1    3    3    0  502  0.16033276740E+03  0.95471025007E+03  0.17473703106E+04  0.19976189002E+04  0.10100000352E+00 0. -1.
</event>
<event>
 5   0  0.2180451E-07  0.3500642E+04  0.7818609E-02  0.8113638E-01
        2   -1    0    0  501    0  0.00000000000E+00  0.00000000000E+00  0.11330885624E+04  0.11330885624E+04  0.25500000920E-02 0. -1.
       -2   -1    0    0    0  501  0.00000000000E+00  0.00000000000E+00 -0.27037808428E+04  0.27037808428E+04  0.25500000920E-02 0.  1.
    10030    2    1    2    0    0  0.00000000000E+00  0.00000000000E+00 -0.15706922804E+04  0.38368694051E+04  0.35006417401E+04 0.  0.
        4    1    3    3  502    0  0.17350667182E+04 -0.16606868794E+03 -0.61002579118E+03  0.18466641288E+04  0.12699999809E+01 0. -1.
       -4    1    3    3    0  502 -0.17350667182E+04  0.16606868794E+03 -0.96066648925E+03  0.19902052764E+04  0.12699999809E+01 0.  1.
</event>
<event>
 5   0  0.3190112E-07  0.3522458E+04  0.7818609E-02  0.8108488E-01
       -2   -1    0    0    0  501  0.00000000000E+00  0.00000000000E+00  0.13950442648E+04  0.13950442648E+04  0.25500000920E-02 0.  1.
        2   -1    0    0  501    0  0.00000000000E+00  0.00000000000E+00 -0.22235334890E+04  0.22235334890E+04  0.25500000920E-02 0. -1.
    10030    2    1    2    0    0  0.00000000000E+00  0.00000000000E+00 -0.82848922428E+03  0.36185777538E+04  0.35224580289E+04 0.  0.
        5    1    3    3  502    0  0.95692319835E+03 -0.61755260828E+03 -0.17943444714E+04  0.21252687838E+04  0.46999998093E+01 0. -1.
       -5    1    3    3    0  502 -0.95692319835E+03  0.61755260828E+03  0.96585524709E+03  0.14933089700E+04  0.46999998093E+01 0.  1.
</event>
<event>
 5   0  0.3190185E-07  0.3485576E+04  0.7818609E-02  0.8117217E-01
        2   -1    0    0  501    0  0.00000000000E+00  0.00000000000E+00  0.20635407332E+04  0.20635407332E+04  0.25500000920E-02 0.  1.
       -2   -1    0    0    0  501  0.00000000000E+00  0.00000000000E+00 -0.14718921906E+04  0.14718921906E+04  0.25500000920E-02 0. -1.
    10030    2    1    2    0    0  0.00000000000E+00  0.00000000000E+00  0.59164854259E+03  0.35354329238E+04  0.34855757001E+04 0.  0.
        1    1    3    3  502    0 -0.85615520332E+03 -0.21624747175E+03  0.18198288452E+04  0.20227559732E+04  0.50400001928E-02 0.  1.
       -1    1    3    3    0  502  0.85615520332E+03  0.21624747175E+03 -0.12281803026E+04  0.15126769506E+04  0.50400001928E-02 0. -1.
</event>
<event>
 5   0  0.3190112E-07  0.3431480E+04  0.7818609E-02  0.8130223E-01
        2   -1    0    0  501    0  0.00000000000E+00  0.00000000000E+00  0.16239811103E+04  0.16239811103E+04  0.25500000920E-02 0.  1.
       -2   -1    0    0    0  501  0.00000000000E+00  0.00000000000E+00 -0.18126830665E+04  0.18126830665E+04  0.25500000920E-02 0. -1.
    10030    2    1    2    0    0  0.00000000000E+00  0.00000000000E+00 -0.18870195617E+03  0.34366641768E+04  0.34314795986E+04 0.  0.
        5    1    3    3  502    0  0.36096911248E+03  0.70498491523E+03 -0.16186355906E+04  0.18020282174E+04  0.46999998093E+01 0. -1.
       -5    1    3    3    0  502 -0.36096911248E+03 -0.70498491523E+03  0.14299336345E+04  0.16346359594E+04  0.46999998093E+01 0.  1.
</event>
<event>
 5   0  0.3190112E-07  0.3479291E+04  0.7818609E-02  0.8118715E-01
       -2   -1    0    0    0  501  0.00000000000E+00  0.00000000000E+00  0.16042755963E+04  0.16042755963E+04  0.25500000920E-02 0. -1.
        2   -1    0    0  501    0  0.00000000000E+00  0.00000000000E+00 -0.18864384156E+04  0.18864384156E+04  0.25500000920E-02 0.  1.
    10030    2    1    2    0    0  0.00000000000E+00  0.00000000000E+00 -0.28216281931E+03  0.34907140120E+04  0.34792913728E+04 0.  0.
        5    1    3    3  502    0 -0.16944993504E+04  0.95325983744E+02 -0.52434332009E+03  0.17763369891E+04  0.46999998093E+01 0.  1.
       -5    1    3    3    0  502  0.16944993504E+04 -0.95325983744E+02  0.24218050078E+03  0.17143770229E+04  0.46999998093E+01 0. -1.
</event>
<event>
 5   0  0.1013863E-07  0.3499146E+04  0.7818609E-02  0.8113992E-01
       -1   -1    0    0    0  501  0.00000000000E+00  0.00000000000E+00  0.11920272778E+04  0.11920272778E+04  0.50400001928E-02 0. -1.
        1   -1    0    0  501    0  0.00000000000E+00  0.00000000000E+00 -0.25678983446E+04  0.25678983446E+04  0.50400001928E-02 0.  1.
    10030    2    1    2    0    0  0.00000000000E+00  0.00000000000E+00 -0.13758710668E+04  0.37599256225E+04  0.34991455377E+04 0.  0.
        5    1    3    3  502    0 -0.13961569623E+04  0.10136079234E+04 -0.37590157911E+03  0.17657801032E+04  0.46999998093E+01 0. -1.
       -5    1    3    3    0  502  0.13961569623E+04 -0.10136079234E+04 -0.99996948769E+03  0.19941455193E+04  0.46999998093E+01 0.  1.
</event>
<event>
 5   0  0.1013863E-07  0.3498021E+04  0.7818609E-02  0.8114259E-01
        1   -1    0    0  501    0  0.00000000000E+00  0.00000000000E+00  0.20194186639E+04  0.20194186639E+04  0.50400001928E-02 0.  1.
       -1   -1    0    0    0  501  0.00000000000E+00  0.00000000000E+00 -0.15148112043E+04  0.15148112043E+04  0.50400001928E-02 0. -1.
    10030    2    1    2    0    0  0.00000000000E+00  0.00000000000E+00  0.50460745960E+03  0.35342298682E+04  0.34980211653E+04 0.  0.
        5    1    3    3  502    0 -0.92635197432E+03 -0.87513143113E+03  0.14626323217E+04  0.19399222666E+04  0.46999998093E+01 0.  1.
       -5    1    3    3    0  502  0.92635197432E+03  0.87513143113E+03 -0.95802486207E+03  0.15943076016E+04  0.46999998093E+01 0. -1.
</event>
<event>
 5   0  0.1072381E-07  0.3493305E+04  0.7818609E-02  0.8115378E-01
        1   -1    0    0  501    0  0.00000000000E+00  0.00000000000E+00  0.22736140640E+04  0.22736140640E+04  0.50400001928E-02 0. -1.
       -1   -1    0    0    0  501  0.00000000000E+00  0.00000000000E+00 -0.13418264538E+04  0.13418264538E+04  0.50400001928E-02 0.  1.
    10030    2    1    2    0    0  0.00000000000E+00  0.00000000000E+00  0.93178761021E+03  0.36154405177E+04  0.34933053097E+04 0.  0.
        1    1    3    3  502    0  0.15947193185E+04  0.70092084964E+03  0.59833568425E+03  0.18418537763E+04  0.50400001928E-02 0. -1.
       -1    1    3    3    0  502 -0.15947193185E+04 -0.70092084964E+03  0.33345192595E+03  0.17735867414E+04  0.50400001928E-02 0.  1.
</event>
<event>
 5   0  0.1033796E-07  0.3498690E+04  0.7818609E-02  0.8114100E-01
        1   -1    0    0  501    0  0.00000000000E+00  0.00000000000E+00  0.11623136891E+04  0.11623136891E+04  0.50400001928E-02 0.  1.
       -1   -1    0    0    0  501  0.00000000000E+00  0.00000000000E+00 -0.26328596418E+04  0.26328596418E+04  0.50400001928E-02 0. -1.
    10030    2    1    2    0    0  0.00000000000E+00  0.00000000000E+00 -0.14705459527E+04  0.37951733309E+04  0.34986904997E+04 0.  0.
        3    1    3    3  502    0 -0.16610137673E+04 -0.38408930569E+03 -0.11605654467E+04  0.20623781167E+04  0.10100000352E+00 0. -1.
       -3    1    3    3    0  502  0.16610137673E+04  0.38408930569E+03 -0.30998050602E+03  0.17327952142E+04  0.10100000352E+00 0.  1.
</event>
<event>
 5   0  0.1033796E-07  0.3513926E+04  0.7818609E-02  0.8110498E-01
        1   -1    0    0  501    0  0.00000000000E+00  0.00000000000E+00  0.21389094178E+04  0.21389094178E+04  0.50400001928E-02 0. -1.
       -1   -1    0    0    0  501  0.00000000000E+00  0.00000000000E+00 -0.14432208602E+04  0.14432208602E+04  0.50400001928E-02 0.  1.
    10030    2    1    2    0    0  0.00000000000E+00  0.00000000000E+00  0.69568855759E+03  0.35821302781E+04  0.35139258330E+04 0.  0.
        3    1    3    3  502    0  0.75346620806E+02  0.10141808921E+04 -0.11126816522E+04  0.15074151600E+04  0.10100000352E+00 0.  1.
       -3    1    3    3    0  502 -0.75346620806E+02 -0.10141808921E+04  0.18083702098E+04  0.20747151181E+04  0.10100000352E+00 0. -1.
</event>
<event>
 5   0  0.2180451E-07  0.3498708E+04  0.7818609E-02  0.8114096E-01
       -2   -1    0    0    0  501  0.00000000000E+00  0.00000000000E+00  0.18217697753E+04  0.18217697753E+04  0.25500000920E-02 0. -1.
        2   -1    0    0  501    0  0.00000000000E+00  0.00000000000E+00 -0.16798164708E+04  0.16798164708E+04  0.25500000920E-02 0.  1.
    10030    2    1    2    0    0  0.00000000000E+00  0.00000000000E+00  0.14195330449E+03  0.35015862462E+04  0.34987076898E+04 0.  0.
        4    1    3    3  502    0  0.49323744776E+03 -0.46239084462E+03  0.16857317495E+04  0.18162548327E+04  0.12699999809E+01 0. -1.
       -4    1    3    3    0  502 -0.49323744776E+03  0.46239084462E+03 -0.15437784450E+04  0.16853314135E+04  0.12699999809E+01 0.  1.
</event>
<event>
 5   0  0.1098171E-07  0.3525749E+04  0.7818609E-02  0.8107715E-01
        1   -1    0    0  501    0  0.00000000000E+00  0.00000000000E+00  0.12112376059E+04  0.12112376059E+04  0.50400001928E-02 0.  1.
       -1   -1    0    0    0  501  0.00000000000E+00  0.00000000000E+00 -0.25657441080E+04  0.25657441080E+04  0.50400001928E-02 0. -1.
    10030    2    1    2    0    0  0.00000000000E+00  0.00000000000E+00 -0.13545065021E+04  0.37769817140E+04  0.35257485735E+04 0.  0.
        4    1    3    3  502    0 -0.43337056814E+03 -0.46985048261E+03 -0.24372320027E+04  0.25196569158E+04  0.12699999809E+01 0. -1.
       -4    1    3    3    0  502  0.43337056814E+03  0.46985048261E+03  0.10827255007E+04  0.12573247981E+04  0.12699999809E+01 0.  1.
</event>
<event>
 5   0  0.1072381E-07  0.3502974E+04  0.7818609E-02  0.8113086E-01
        1   -1    0    0  501    0  0.00000000000E+00  0.00000000000E+00  0.23382380620E+04  0.23382380621E+04  0.50400001928E-02 0. -1.
       -1   -1    0    0    0  501  0.00000000000E+00  0.00000000000E+00 -0.13119734450E+04  0.13119734450E+04  0.50400001928E-02 0.  1.
    10030    2    1    2    0    0  0.00000000000E+00  0.00000000000E+00  0.10262646171E+04  0.36502115071E+04  0.35029737341E+04 0.  0.
        1    1    3    3  502    0  0.33166141844E+03 -0.31065130132E+02  0.23049253980E+04  0.23288721367E+04  0.50400001928E-02 0. -1.
       -1    1    3    3    0  502 -0.33166141844E+03  0.31065130132E+02 -0.12786607810E+04  0.13213393703E+04  0.50400001928E-02 0.  1.
</event>
<event>
 5   0  0.3219205E-07  0.3471506E+04  0.7818609E-02  0.8120576E-01
        2   -1    0    0  501    0  0.00000000000E+00  0.00000000000E+00  0.13506530606E+04  0.13506530606E+04  0.25500000920E-02 0. -1.
       -2   -1    0    0    0  501  0.00000000000E+00  0.00000000000E+00 -0.22306532294E+04  0.22306532294E+04  0.25500000920E-02 0.  1.
    10030    2    1    2    0    0  0.00000000000E+00  0.00000000000E+00 -0.88000016881E+03  0.35813062900E+04  0.34715060775E+04 0.  0.
        2    1    3    3  502    0  0.11874806333E+04 -0.48873275051E+03 -0.16447858004E+04  0.20866936251E+04  0.25500000920E-02 0.  1.
       -2    1    3    3    0  502 -0.11874806333E+04  0.48873275051E+03  0.76478563155E+03  0.14946126649E+04  0.25500000920E-02 0. -1.
</event>
<event>
 5   0  0.1033796E-07  0.3507254E+04  0.7818609E-02  0.8112073E-01
       -1   -1    0    0    0  501  0.00000000000E+00  0.00000000000E+00  0.15599679868E+04  0.15599679868E+04  0.50400001928E-02 0.  1.
        1   -1    0    0  501    0  0.00000000000E+00  0.00000000000E+00 -0.19713270495E+04  0.19713270495E+04  0.50400001928E-02 0. -1.
    10030    2    1    2    0    0  0.00000000000E+00  0.00000000000E+00 -0.41135906265E+03  0.35312950363E+04  0.35072536770E+04 0.  0.
        3    1    3    3  502    0 -0.15329966514E+04 -0.40688129456E+02 -0.10620820485E+04  0.18654094845E+04  0.10100000352E+00 0. -1.
       -3    1    3    3    0  502  0.15329966514E+04  0.40688129456E+02  0.65072298583E+03  0.16658855518E+04  0.10100000352E+00 0.  1.
</event>
<event>
 5   0  0.1013863E-07  0.3473388E+04  0.7818609E-02  0.8120126E-01
       -3   -1    0    0    0  501  0.00000000000E+00  0.00000000000E+00  0.22884774895E+04  0.22884774918E+04  0.10100000352E+00 0. -1.
        3   -1    0    0  501    0  0.00000000000E+00  0.00000000000E+00 -0.13179528118E+04  0.13179528156E+04  0.10100000352E+00 0.  1.
    10030    2    1    2    0    0  0.00000000000E+00  0.00000000000E+00  0.97052467779E+03  0.36064303074E+04  0.34733875989E+04 0.  0.
        4    1    3    3  502    0  0.86250737022E+02 -0.12428849328E+04  0.17415243775E+04  0.21412872101E+04  0.12699999809E+01 0. -1.
       -4    1    3    3    0  502 -0.86250737022E+02  0.12428849328E+04 -0.77099969973E+03  0.14651430973E+04  0.12699999809E+01 0.  1.
</event>
<event>
 5   0  0.3190185E-07  0.3500169E+04  0.7818609E-02  0.8113750E-01
       -2   -1    0    0    0  501  0.00000000000E+00  0.00000000000E+00  0.12953728094E+04  0.12953728094E+04  0.25500000920E-02 0. -1.
        2   -1    0    0  501    0  0.00000000000E+00  0.00000000000E+00 -0.23644126101E+04  0.23644126101E+04  0.25500000920E-02 0.  1.
    10030    2    1    2    0    0  0.00000000000E+00  0.00000000000E+00 -0.10690398006E+04  0.36597854195E+04  0.35001690275E+04 0.  0.
        1    1    3    3  502    0  0.10068792117E+04 -0.14286794962E+04 -0.44179107866E+03  0.18028062034E+04  0.50400001928E-02 0. -1.
       -1    1    3    3    0  502 -0.10068792117E+04  0.14286794962E+04 -0.62724872198E+03  0.18569792161E+04  0.50400001928E-02 0.  1.
</event>
<event>
 5   0  0.1098171E-07  0.3491173E+04  0.7818609E-02  0.8115885E-01
        1   -1    0    0  501    0  0.00000000000E+00  0.00000000000E+00  0.15881136209E+04  0.15881136209E+04  0.50400001928E-02 0.  1.
       -1   -1    0    0    0  501  0.00000000000E+00  0.00000000000E+00 -0.19186735383E+04  0.19186735384E+04  0.50400001928E-02 0. -1.
    10030    2    1    2    0    0  0.00000000000E+00  0.00000000000E+00 -0.33055991744E+03  0.35067871593E+04  0.34911726284E+04 0.  0.
        4    1    3    3  502    0 -0.80859223698E+03 -0.15047917137E+04  0.19528296815E+03  0.17194058735E+04  0.12699999809E+01 0. -1.
       -4    1    3    3    0  502  0.80859223698E+03  0.15047917137E+04 -0.52584288559E+03  0.17873812857E+04  0.12699999809E+01 0.  1.
</event>
<event>
 5   0  0.3219205E-07  0.3473268E+04  0.7818609E-02  0.8120154E-01
       -2   -1    0    0    0  501  0.00000000000E+00  0.00000000000E+00  0.15101914614E+04  0.15101914614E+04  0.25500000920E-02 0. -1.
        2   -1    0    0  501    0  0.00000000000E+00  0.00000000000E+00 -0.19970304336E+04  0.19970304336E+04  0.25500000920E-02 0.  1.
    10030    2    1    2    0    0  0.00000000000E+00  0.00000000000E+00 -0.48683897215E+03  0.35072218950E+04  0.34732683795E+04 0.  0.
        2    1    3    3  502    0 -0.46683126118E+03  0.47149290280E+03 -0.18639950259E+04  0.19785637317E+04  0.25500000920E-02 0.  1.
       -2    1    3    3    0  502  0.46683126118E+03 -0.47149290280E+03  0.13771560538E+04  0.15286581633E+04  0.25500000920E-02 0. -1.
</event>
<event>
 5   0  0.1013863E-07  0.3495289E+04  0.7818609E-02  0.8114907E-01
        1   -1    0    0  501    0  0.00000000000E+00  0.00000000000E+00  0.23927343565E+04  0.23927343565E+04  0.50400001928E-02 0.  1.
       -1   -1    0    0    0  501  0.00000000000E+00  0.00000000000E+00 -0.12764731124E+04  0.12764731124E+04  0.50400001928E-02 0. -1.
    10030    2    1    2    0    0  0.00000000000E+00  0.00000000000E+00  0.11162612440E+04  0.36692074689E+04  0.34952888700E+04 0.  0.
        2    1    3    3  502    0 -0.49602774131E+03  0.51098208194E+03  0.22335111356E+04  0.23442948196E+04  0.25500000920E-02 0.  1.
       -2    1    3    3    0  502  0.49602774131E+03 -0.51098208194E+03 -0.11172498916E+04  0.13249126493E+04  0.25500000920E-02 0. -1.
</event>
<event>
 5   0  0.3190185E-07  0.3482355E+04  0.7818609E-02  0.8117984E-01
       -2   -1    0    0    0  501  0.00000000000E+00  0.00000000000E+00  0.16186219186E+04  0.16186219186E+04  0.25500000920E-02 0. -1.
        2   -1    0    0  501    0  0.00000000000E+00  0.00000000000E+00 -0.18730126326E+04  0.18730126326E+04  0.25500000920E-02 0.  1.
    10030    2    1    2    0    0  0.00000000000E+00  0.00000000000E+00 -0.25439071399E+03  0.34916345512E+04  0.34823551231E+04 0.  0.
        1    1    3    3  502    0  0.21431938503E+02 -0.86840968555E+03 -0.16402242253E+04  0.18560523212E+04  0.50400001928E-02 0.  1.
       -1    1    3    3    0  502 -0.21431938503E+02  0.86840968555E+03  0.13858335113E+04  0.16355822299E+04  0.50400001928E-02 0. -1.
</event>
<event>
 5   0  0.3119048E-07  0.3501653E+04  0.7818609E-02  0.8113398E-01
        2   -1    0    0  501    0  0.00000000000E+00  0.00000000000E+00  0.10901333516E+04  0.10901333516E+04  0.25500000920E-02 0. -1.
       -2   -1    0    0    0  501  0.00000000000E+00  0.00000000000E+00 -0.28119429449E+04  0.28119429449E+04  0.25500000920E-02 0.  1.
    10030    2    1    2    0    0  0.00000000000E+00  0.00000000000E+00 -0.17218095933E+04  0.39020762965E+04  0.35016526310E+04 0.  0.
        3    1    3    3  502    0  0.13663552605E+04  0.29993533794E+03  0.31234773141E+03  0.14333349296E+04  0.10100000352E+00 0. -1.
       -3    1    3    3    0  502 -0.13663552605E+04 -0.29993533794E+03 -0.20341573247E+04  0.24687413669E+04  0.10100000352E+00 0.  1.
</event>
<event>
 5   0  0.1013863E-07  0.3518865E+04  0.7818609E-02  0.8109334E-01
       -1   -1    0    0    0  501  0.00000000000E+00  0.00000000000E+00  0.22508056600E+04  0.22508056600E+04  0.50400001928E-02 0. -1.
        1   -1    0    0  501    0  0.00000000000E+00  0.00000000000E+00 -0.13753312662E+04  0.13753312662E+04  0.50400001928E-02 0.  1.
    10030    2    1    2    0    0  0.00000000000E+00  0.00000000000E+00  0.87547439379E+03  0.36261369263E+04  0.35188653844E+04 0.  0.
        2    1    3    3  502    0 -0.12860941378E+04 -0.82635564806E+02 -0.79658244391E+03  0.15150611729E+04  0.25500000920E-02 0.  1.
       -2    1    3    3    0  502  0.12860941378E+04  0.82635564806E+02  0.16720568377E+04  0.21110757533E+04  0.25500000920E-02 0. -1.
</event>
<event>
 5   0  0.3190185E-07  0.3518235E+04  0.7818609E-02  0.8109482E-01
        2   -1    0    0  501    0  0.00000000000E+00  0.00000000000E+00  0.18478042831E+04  0.18478042831E+04  0.25500000920E-02 0.  1.
       -2   -1    0    0    0  501  0.00000000000E+00  0.00000000000E+00 -0.16746870994E+04  0.16746870994E+04  0.25500000920E-02 0. -1.
    10030    2    1    2    0    0  0.00000000000E+00  0.00000000000E+00  0.17311718368E+03  0.35224913824E+04  0.35182347818E+04 0.  0.
        1    1    3    3  502    0 -0.14777354878E+04  0.58133067501E+03  0.84434051659E+03  0.17984878186E+04  0.50400001928E-02 0. -1.
       -1    1    3    3    0  502  0.14777354878E+04 -0.58133067501E+03 -0.67122333292E+03  0.17240035639E+04  0.50400001928E-02 0.  1.
</event>
<event>
 5   0  0.3190185E-07  0.3508496E+04  0.7818609E-02  0.8111779E-01
        2   -1    0    0  501    0  0.00000000000E+00  0.00000000000E+00  0.10554529560E+04  0.10554529560E+04  0.25500000920E-02 0. -1.
       -2   -1    0    0    0  501  0.00000000000E+00  0.00000000000E+00 -0.29157016060E+04  0.29157016060E+04  0.25500000920E-02 0.  1.
    10030    2    1    2    0    0  0.00000000000E+00  0.00000000000E+00 -0.18602486500E+04  0.39711545619E+04  0.35084959049E+04 0.  0.
        1    1    3    3  502    0 -0.26240474155E+03  0.13930785495E+04  0.23951871046E+03  0.14376694008E+04  0.50400001928E-02 0. -1.
       -1    1    3    3    0  502  0.26240474155E+03 -0.13930785495E+04 -0.20997673605E+04  0.25334851611E+04  0.50400001928E-02 0.  1.
</event>
<event>
 5   0  0.1033796E-07  0.3496534E+04  0.7818609E-02  0.8114612E-01
       -1   -1    0    0    0  501  0.00000000000E+00  0.00000000000E+00  0.17023062111E+04  0.17023062111E+04  0.50400001928E-02 0.  1.
        1   -1    0    0  501    0  0.00000000000E+00  0.00000000000E+00 -0.17954685333E+04  0.17954685333E+04  0.50400001928E-02 0. -1.
    10030    2    1    2    0    0  0.00000000000E+00  0.00000000000E+00 -0.93162322140E+02  0.34977747444E+04  0.34965338472E+04 0.  0.
        3    1    3    3  502    0  0.32880271389E+02  0.16521709021E+04  0.52431167802E+03  0.17336817897E+04  0.10100000352E+00 0.  1.
       -3    1    3    3    0  502 -0.32880271389E+02 -0.16521709021E+04 -0.61747400016E+03  0.17640929548E+04  0.10100000352E+00 0. -1.
</event>
<event>
 5   0  0.3119048E-07  0.3478212E+04  0.7818609E-02  0.8118973E-01
       -2   -1    0    0    0  501  0.00000000000E+00  0.00000000000E+00  0.11741846648E+04  0.11741846648E+04  0.25500000920E-02 0.  1.
        2   -1    0    0  501    0  0.00000000000E+00  0.00000000000E+00 -0.25758213976E+04  0.25758213976E+04  0.25500000920E-02 0. -1.
    10030    2    1    2    0    0  0.00000000000E+00  0.00000000000E+00 -0.14016367328E+04  0.37500060623E+04  0.34782121754E+04 0.  0.
        3    1    3    3  502    0  0.54721319997E+03 -0.42200702258E+03 -0.24214455113E+04  0.25181204474E+04  0.10100000352E+00 0. -1.
       -3    1    3    3    0  502 -0.54721319997E+03  0.42200702258E+03  0.10198087785E+04  0.12318856149E+04  0.10100000352E+00 0.  1.
</event>
<event>
 5   0  0.1098171E-07  0.3525051E+04  0.7818609E-02  0.8107879E-01
       -1   -1    0    0    0  501  0.00000000000E+00  0.00000000000E+00  0.18981471976E+04  0.18981471977E+04  0.50400001928E-02 0. -1.
        1   -1    0    0  501    0  0.00000000000E+00  0.00000000000E+00 -0.16365942443E+04  0.16365942443E+04  0.50400001928E-02 0.  1.
    10030    2    1    2    0    0  0.00000000000E+00  0.00000000000E+00  0.26155295335E+03  0.35347414420E+04  0.35250513633E+04 0.  0.
        4    1    3    3  502    0  0.10608513407E+02 -0.48922051001E+03  0.18286663828E+04  0.18930059695E+04  0.12699999809E+01 0. -1.
       -4    1    3    3    0  502 -0.10608513407E+02  0.48922051001E+03 -0.15671134295E+04  0.16417354725E+04  0.12699999809E+01 0.  1.
</event>
<event>
 5   0  0.1098171E-07  0.3502509E+04  0.7818609E-02  0.8113196E-01
       -1   -1    0    0    0  501  0.00000000000E+00  0.00000000000E+00  0.16169513091E+04  0.16169513091E+04  0.50400001928E-02 0.  1.
        1   -1    0    0  501    0  0.00000000000E+00  0.00000000000E+00 -0.18967124298E+04  0.18967124298E+04  0.50400001928E-02 0. -1.
    10030    2    1    2    0    0  0.00000000000E+00  0.00000000000E+00 -0.27976112069E+03  0.35136637388E+04  0.35025086131E+04 0.  0.
        4    1    3    3  502    0  0.63124596059E+03 -0.52751962276E+03 -0.16908127213E+04  0.18803185067E+04  0.12699999809E+01 0. -1.
       -4    1    3    3    0  502 -0.63124596059E+03  0.52751962276E+03  0.14110516006E+04  0.16333452322E+04  0.12699999809E+01 0.  1.
</event>
<event>
 5   0  0.1033796E-07  0.3502983E+04  0.7818609E-02  0.8113083E-01
        1   -1    0    0  501    0  0.00000000000E+00  0.00000000000E+00  0.95698727920E+03  0.95698727921E+03  0.50400001928E-02 0.  1.
       -1   -1    0    0    0  501  0.00000000000E+00  0.00000000000E+00 -0.32056046674E+04  0.32056046674E+04  0.50400001928E-02 0. -1.
    10030    2    1    2    0    0  0.00000000000E+00  0.00000000000E+00 -0.22486173882E+04  0.41625919466E+04  0.35029832366E+04 0.  0.
        3    1    3    3  502    0  0.12116091978E+04 -0.11028934142E+04 -0.18600493088E+04  0.24787404407E+04  0.10100000352E+00 0. -1.
       -3    1    3    3    0  502 -0.12116091978E+04  0.11028934142E+04 -0.38856807945E+03  0.16838515059E+04  0.10100000352E+00 0.  1.
</event>
<event>
 5   0  0.2180451E-07  0.3491242E+04  0.7818609E-02  0.8115869E-01
        2   -1    0    0  501    0  0.00000000000E+00  0.00000000000E+00  0.25346468343E+04  0.25346468343E+04  0.25500000920E-02 0. -1.
       -2   -1    0    0    0  501  0.00000000000E+00  0.00000000000E+00 -0.12022161278E+04  0.12022161278E+04  0.25500000920E-02 0.  1.
    10030    2    1    2    0    0  0.00000000000E+00  0.00000000000E+00  0.13324307065E+04  0.37368629621E+04  0.34912423590E+04 0.  0.
        4    1    3    3  502    0  0.17357680969E+04  0.84666350270E+02  0.48990761291E+03  0.18055664926E+04  0.12699999809E+01 0.  1.
       -4    1    3    3    0  502 -0.17357680969E+04 -0.84666350270E+02  0.84252309362E+03  0.19312964695E+04  0.12699999809E+01 0. -1.
</event>
<event>
 5   0  0.2180451E-07  0.3463489E+04  0.7818609E-02  0.8122497E-01
        2   -1    0    0  501    0  0.00000000000E+00  0.00000000000E+00  0.21693189169E+04  0.21693189169E+04  0.25500000920E-02 0.  1.
       -2   -1    0    0    0  501  0.00000000000E+00  0.00000000000E+00 -0.13824338381E+04  0.13824338381E+04  0.25500000920E-02 0. -1.
    10030    2    1    2    0    0  0.00000000000E+00  0.00000000000E+00  0.78688507880E+03  0.35517527551E+04  0.34634894984E+04 0.  0.
        4    1    3    3  502    0  0.62945528751E+03  0.14374538798E+04 -0.35765050124E+03  0.16094729291E+04  0.12699999809E+01 0. -1.
       -4    1    3    3    0  502 -0.62945528751E+03 -0.14374538798E+04  0.11445355800E+04  0.19422798260E+04  0.12699999809E+01 0.  1.
</event>
<event>
 5   0  0.3190112E-07  0.3492713E+04  0.7818609E-02  0.8115519E-01
        2   -1    0    0  501    0  0.00000000000E+00  0.00000000000E+00  0.18354090623E+04  0.18354090623E+04  0.25500000920E-02 0. -1.
       -2   -1    0    0    0  501  0.00000000000E+00  0.00000000000E+00 -0.16616246117E+04  0.16616246117E+04  0.25500000920E-02 0.  1.
    10030    2    1    2    0    0  0.00000000000E+00  0.00000000000E+00  0.17378445060E+03  0.34970336740E+04  0.34927129115E+04 0.  0.
        5    1    3    3  502    0  0.15182497720E+04 -0.54022384772E+03  0.76063968010E+03  0.17819985939E+04  0.46999998093E+01 0. -1.
       -5    1    3    3    0  502 -0.15182497720E+04  0.54022384772E+03 -0.58685522951E+03  0.17150350801E+04  0.46999998093E+01 0.  1.
</event>
<event>
 5   0  0.1033796E-07  0.3494714E+04  0.7818609E-02  0.8115044E-01
       -1   -1    0    0    0  501  0.00000000000E+00  0.00000000000E+00  0.13584393813E+04  0.13584393814E+04  0.50400001928E-02 0. -1.
        1   -1    0    0  501    0  0.00000000000E+00  0.00000000000E+00 -0.22476201812E+04  0.22476201812E+04  0.50400001928E-02 0.  1.
    10030    2    1    2    0    0  0.00000000000E+00  0.00000000000E+00 -0.88918079983E+03  0.36060595625E+04  0.34947135897E+04 0.  0.
        3    1    3    3  502    0 -0.71365418564E+03 -0.10498142365E+04 -0.16836162680E+04  0.21085483101E+04  0.10100000352E+00 0.  1.
       -3    1    3    3    0  502  0.71365418564E+03  0.10498142365E+04  0.79443546822E+03  0.14975112524E+04  0.10100000352E+00 0. -1.
</event>
<event>
 5   0  0.1013863E-07  0.3506913E+04  0.7818609E-02  0.8112154E-01
       -1   -1    0    0    0  501  0.00000000000E+00  0.00000000000E+00  0.16714785961E+04  0.16714785962E+04  0.50400001928E-02 0.  1.
        1   -1    0    0  501    0  0.00000000000E+00  0.00000000000E+00 -0.18394545534E+04  0.18394545535E+04  0.50400001928E-02 0. -1.
    10030    2    1    2    0    0  0.00000000000E+00  0.00000000000E+00 -0.16797595730E+03  0.35109331496E+04  0.35069125536E+04 0.  0.
        5    1    3    3  502    0 -0.45356894739E+03 -0.12764652631E+04  0.10306160810E+04  0.17021398164E+04  0.46999998093E+01 0.  1.
       -5    1    3    3    0  502  0.45356894739E+03  0.12764652631E+04 -0.11985920383E+04  0.18087933332E+04  0.46999998093E+01 0. -1.
</event>
<event>
 5   0  0.3219205E-07  0.3485531E+04  0.7818609E-02  0.8117227E-01
        2   -1    0    0  501    0  0.00000000000E+00  0.00000000000E+00  0.24362222052E+04  0.24362222052E+04  0.25500000920E-02 0.  1.
       -2   -1    0    0    0  501  0.00000000000E+00  0.00000000000E+00 -0.12466974174E+04  0.12466974174E+04  0.25500000920E-02 0. -1.
    10030    2    1    2    0    0  0.00000000000E+00  0.00000000000E+00  0.11895247879E+04  0.36829196226E+04  0.34855311971E+04 0.  0.
        2    1    3    3  502    0 -0.88934756324E+03 -0.96421054220E+02  0.21751217546E+04  0.23518908893E+04  0.25500000920E-02 0.  1.
       -2    1    3    3    0  502  0.88934756324E+03  0.96421054220E+02 -0.98559696675E+03  0.13310287333E+04  0.25500000920E-02 0. -1.
</event>
<event>
 5   0  0.3119048E-07  0.3507330E+04  0.7818609E-02  0.8112055E-01
        2   -1    0    0  501    0  0.00000000000E+00  0.00000000000E+00  0.20276379602E+04  0.20276379602E+04  0.25500000920E-02 0.  1.
       -2   -1    0    0    0  501  0.00000000000E+00  0.00000000000E+00 -0.15167114405E+04  0.15167114405E+04  0.25500000920E-02 0. -1.
    10030    2    1    2    0    0  0.00000000000E+00  0.00000000000E+00  0.51092651967E+03  0.35443494007E+04  0.35073304329E+04 0.  0.
        3    1    3    3  502    0  0.14265267951E+04 -0.75362281759E+03 -0.43911626143E+03  0.16720493861E+04  0.10100000352E+00 0.  1.
       -3    1    3    3    0  502 -0.14265267951E+04  0.75362281759E+03  0.95004278110E+03  0.18723000145E+04  0.10100000352E+00 0. -1.
</event>
<event>
 5   0  0.2180451E-07  0.3502972E+04  0.7818609E-02  0.8113086E-01
        2   -1    0    0  501    0  0.00000000000E+00  0.00000000000E+00  0.11060567276E+04  0.11060567277E+04  0.25500000920E-02 0. -1.
       -2   -1    0    0    0  501  0.00000000000E+00  0.00000000000E+00 -0.27735491031E+04  0.27735491031E+04  0.25500000920E-02 0.  1.
    10030    2    1    2    0    0  0.00000000000E+00  0.00000000000E+00 -0.16674923754E+04  0.38796058307E+04  0.35029716784E+04 0.  0.
        4    1    3    3  502    0 -0.10330998600E+03 -0.68521949113E+03  0.94777647717E+03  0.11740871210E+04  0.12699999809E+01 0. -1.
       -4    1    3    3    0  502  0.10330998600E+03  0.68521949113E+03 -0.26152688526E+04  0.27055187097E+04  0.12699999809E+01 0.  1.
</event>
<event>
 5   0  0.3219205E-07  0.3505834E+04  0.7818609E-02  0.8112409E-01
        2   -1    0    0  501    0  0.00000000000E+00  0.00000000000E+00  0.16981664298E+04  0.16981664298E+04  0.25500000920E-02 0.  1.
       -2   -1    0    0    0  501  0.00000000000E+00  0.00000000000E+00 -0.18094323566E+04  0.18094323566E+04  0.25500000920E-02 0. -1.
    10030    2    1    2    0    0  0.00000000000E+00  0.00000000000E+00 -0.11126592680E+03  0.35075987864E+04  0.35058335871E+04 0.  0.
        2    1    3    3  502    0 -0.14566462515E+04  0.95599706310E+03 -0.24800197165E+03  0.17599016065E+04  0.25500000920E-02 0. -1.
       -2    1    3    3    0  502  0.14566462515E+04 -0.95599706310E+03  0.13673604486E+03  0.17476971799E+04  0.25500000920E-02 0.  1.
</event>
<event>
 5   0  0.3190185E-07  0.3490173E+04  0.7818609E-02  0.8116123E-01
        2   -1    0    0  501    0  0.00000000000E+00  0.00000000000E+00  0.14296216671E+04  0.14296216671E+04  0.25500000920E-02 0.  1.
       -2   -1    0    0    0  501  0.00000000000E+00  0.00000000000E+00 -0.21301621892E+04  0.21301621892E+04  0.25500000920E-02 0. -1.
    10030    2    1    2    0    0  0.00000000000E+00  0.00000000000E+00 -0.70054052213E+03  0.35597838563E+04  0.34901725001E+04 0.  0.
        1    1    3    3  502    0 -0.87600771630E+03 -0.23610478847E+03 -0.18707037683E+04  0.20791025898E+04  0.50400001928E-02 0. -1.
       -1    1    3    3    0  502  0.87600771630E+03  0.23610478847E+03  0.11701632462E+04  0.14806812665E+04  0.50400001928E-02 0.  1.
</event>
<event>
 5   0  0.1033796E-07  0.3509039E+04  0.7818609E-02  0.8111651E-01
       -1   -1    0    0    0  501  0.00000000000E+00  0.00000000000E+00  0.10636665245E+04  0.10636665246E+04  0.50400001928E-02 0. -1.
        1   -1    0    0  501    0  0.00000000000E+00  0.00000000000E+00 -0.28940818332E+04  0.28940818332E+04  0.50400001928E-02 0.  1.
    10030    2    1    2    0    0  0.00000000000E+00  0.00000000000E+00 -0.18304153086E+04  0.39577483577E+04  0.35090385950E+04 0.  0.
        3    1    3    3  502    0  0.12121280841E+04  0.74418891424E+03  0.24341248086E+03  0.14430250443E+04  0.10100000352E+00 0. -1.
       -3    1    3    3    0  502 -0.12121280841E+04 -0.74418891424E+03 -0.20738277895E+04  0.25147233134E+04  0.10100000352E+00 0.  1.
</event>
<event>
 5   0  0.3190112E-07  0.3492032E+04  0.7818609E-02  0.8115681E-01
       -2   -1    0    0    0  501  0.00000000000E+00  0.00000000000E+00  0.36562989597E+04  0.36562989597E+04  0.25500000920E-02 0.  1.
        2   -1    0    0  501    0  0.00000000000E+00  0.00000000000E+00 -0.83378605852E+03  0.83378605852E+03  0.25500000920E-02 0. -1.
    10030    2    1    2    0    0  0.00000000000E+00  0.00000000000E+00  0.28225129011E+04  0.44900850182E+04  0.34920315568E+04 0.  0.
        5    1    3    3  502    0  0.10572024671E+04  0.12814770917E+04  0.72039480457E+03  0.18107598840E+04  0.46999998093E+01 0.  1.
       -5    1    3    3    0  502 -0.10572024671E+04 -0.12814770917E+04  0.21021180966E+04  0.26793251342E+04  0.46999998093E+01 0. -1.
</event>
<event>
 5   0  0.1013863E-07  0.3499359E+04  0.7818609E-02  0.8113942E-01
        1   -1    0    0  501    0  0.00000000000E+00  0.00000000000E+00  0.11939623997E+04  0.11939623997E+04  0.50400001928E-02 0.  1.
       -1   -1    0    0    0  501  0.00000000000E+00  0.00000000000E+00 -0.25640485648E+04  0.25640485648E+04  0.50400001928E-02 0. -1.
    10030    2    1    2    0    0  0.00000000000E+00  0.00000000000E+00 -0.13700861651E+04  0.37580109646E+04  0.34993585569E+04 0.  0.
        5    1    3    3  502    0 -0.14018151167E+03  0.26769936844E+03  0.11657201821E+04  0.12042588763E+04  0.46999998093E+01 0.  1.
       -5    1    3    3    0  502  0.14018151167E+03 -0.26769936844E+03 -0.25358063472E+04  0.25537520883E+04  0.46999998093E+01 0. -1.
</event>
<event>
 5   0  0.1033796E-07  0.3442869E+04  0.7818609E-02  0.8127464E-01
        1   -1    0    0  501    0  0.00000000000E+00  0.00000000000E+00  0.18345486888E+04  0.18345486888E+04  0.50400001928E-02 0.  1.
       -1   -1    0    0    0  501  0.00000000000E+00  0.00000000000E+00 -0.16152945800E+04  0.16152945800E+04  0.50400001928E-02 0. -1.
    10030    2    1    2    0    0  0.00000000000E+00  0.00000000000E+00  0.21925410884E+03  0.34498432688E+04  0.34428688931E+04 0.  0.
        3    1    3    3  502    0 -0.11994275485E+04  0.67015549326E+03  0.11488401791E+04  0.17909686197E+04  0.10100000352E+00 0.  1.
       -3    1    3    3    0  502  0.11994275485E+04 -0.67015549326E+03 -0.92958607029E+03  0.16588746491E+04  0.10100000352E+00 0. -1.
</event>
<event>
 5   0  0.3190185E-07  0.3499121E+04  0.7818609E-02  0.8113998E-01
       -2   -1    0    0    0  501  0.00000000000E+00  0.00000000000E+00  0.14885482046E+04  0.14885482046E+04  0.25500000920E-02 0. -1.
        2   -1    0    0  501    0  0.00000000000E+00  0.00000000000E+00 -0.20563407304E+04  0.20563407304E+04  0.25500000920E-02 0.  1.
    10030    2    1    2    0    0  0.00000000000E+00  0.00000000000E+00 -0.56779252578E+03  0.35448889349E+04  0.34991212052E+04 0.  0.
        1    1    3    3  502    0  0.71586407289E+03 -0.47921583629E+03  0.12587994277E+04  0.15253475630E+04  0.50400001928E-02 0. -1.
       -1    1    3    3    0  502 -0.71586407289E+03  0.47921583629E+03 -0.18265919535E+04  0.20195413720E+04  0.50400001928E-02 0.  1.
</event>
<event>
 5   0  0.1072381E-07  0.3503234E+04  0.7818609E-02  0.8113024E-01
        1   -1    0    0  501    0  0.00000000000E+00  0.00000000000E+00  0.16152809218E+04  0.16152809218E+04  0.50400001928E-02 0.  1.
       -1   -1    0    0    0  501  0.00000000000E+00  0.00000000000E+00 -0.18994606002E+04  0.18994606002E+04  0.50400001928E-02 0. -1.
    10030    2    1    2    0    0  0.00000000000E+00  0.00000000000E+00 -0.28417967841E+03  0.35147415219E+04  0.35032342023E+04 0.  0.
        1    1    3    3  502    0  0.10941550158E+02 -0.10599543705E+04 -0.15411377998E+04  0.18704888941E+04  0.50400001928E-02 0. -1.
       -1    1    3    3    0  502 -0.10941550158E+02  0.10599543705E+04  0.12569581214E+04  0.16442526278E+04  0.50400001928E-02 0.  1.
</event>
<event>
 5   0  0.1033796E-07  0.3497733E+04  0.7818609E-02  0.8114327E-01
       -1   -1    0    0    0  501  0.00000000000E+00  0.00000000000E+00  0.19260235374E+04  0.19260235374E+04  0.50400001928E-02 0.  1.
        1   -1    0    0  501    0  0.00000000000E+00  0.00000000000E+00 -0.15880042108E+04  0.15880042108E+04  0.50400001928E-02 0. -1.
    10030    2    1    2    0    0  0.00000000000E+00  0.00000000000E+00  0.33801932656E+03  0.35140277482E+04  0.34977326871E+04 0.  0.
        3    1    3    3  502    0  0.13909020118E+04 -0.85872099219E+03  0.79361605801E+03  0.18170956515E+04  0.10100000352E+00 0.  1.
       -3    1    3    3    0  502 -0.13909020118E+04  0.85872099219E+03 -0.45559673145E+03  0.16969320967E+04  0.10100000352E+00 0. -1.
</event>
<event>
 5   0  0.1013863E-07  0.3503599E+04  0.7818609E-02  0.8112938E-01
       -1   -1    0    0    0  501  0.00000000000E+00  0.00000000000E+00  0.14149806545E+04  0.14149806545E+04  0.50400001928E-02 0.  1.
        1   -1    0    0  501    0  0.00000000000E+00  0.00000000000E+00 -0.21687941195E+04  0.21687941195E+04  0.50400001928E-02 0. -1.
    10030    2    1    2    0    0  0.00000000000E+00  0.00000000000E+00 -0.75381346497E+03  0.35837747740E+04  0.35035991339E+04 0.  0.
        2    1    3    3  502    0  0.20093426316E+03  0.10904264754E+04 -0.17641865365E+04  0.20836887032E+04  0.25500000920E-02 0. -1.
       -2    1    3    3    0  502 -0.20093426316E+03 -0.10904264754E+04  0.10103730715E+04  0.15000860708E+04  0.25500000920E-02 0.  1.
</event>
<event>
 5   0  0.1033796E-07  0.3502824E+04  0.7818609E-02  0.8113121E-01
       -1   -1    0    0    0  501  0.00000000000E+00  0.00000000000E+00  0.10191980624E+04  0.10191980624E+04  0.50400001928E-02 0. -1.
        1   -1    0    0  501    0  0.00000000000E+00  0.00000000000E+00 -0.30096639145E+04  0.30096639145E+04  0.50400001928E-02 0.  1.
    10030    2    1    2    0    0  0.00000000000E+00  0.00000000000E+00 -0.19904658521E+04  0.40288619768E+04  0.35028237923E+04 0.  0.
        3    1    3    3  502    0 -0.17480624875E+04 -0.44207130169E+02 -0.88156387593E+03  0.19582726082E+04  0.10100000352E+00 0. -1.
       -3    1    3    3    0  502  0.17480624875E+04  0.44207130169E+02 -0.11089019762E+04  0.20705893686E+04  0.10100000352E+00 0.  1.
</event>
<event>
 5   0  0.2180451E-07  0.3493873E+04  0.7818609E-02  0.8115244E-01
       -2   -1    0    0    0  501  0.00000000000E+00  0.00000000000E+00  0.16589593985E+04  0.16589593985E+04  0.25500000920E-02 0.  1.
        2   -1    0    0  501    0  0.00000000000E+00  0.00000000000E+00 -0.18395789596E+04  0.18395789596E+04  0.25500000920E-02 0. -1.
    10030    2    1    2    0    0  0.00000000000E+00  0.00000000000E+00 -0.18061956107E+03  0.34985383581E+04  0.34938728107E+04 0.  0.
        4    1    3    3  502    0 -0.28495653260E+03 -0.12096022293E+04 -0.13197308006E+04  0.18127406812E+04  0.12699999809E+01 0. -1.
       -4    1    3    3    0  502  0.28495653260E+03  0.12096022293E+04  0.11391112395E+04  0.16857976769E+04  0.12699999809E+01 0.  1.
</event>
<event>
 5   0  0.3190185E-07  0.3486732E+04  0.7818609E-02  0.8116942E-01
        2   -1    0    0  501    0  0.00000000000E+00  0.00000000000E+00  0.20447061956E+04  0.20447061956E+04  0.25500000920E-02 0.  1.
       -2   -1    0    0    0  501  0.00000000000E+00  0.00000000000E+00 -0.14864356442E+04  0.14864356442E+04  0.25500000920E-02 0. -1.
    10030    2    1    2    0    0  0.00000000000E+00  0.00000000000E+00  0.55827055144E+03  0.35311418398E+04  0.34867315188E+04 0.  0.
        1    1    3    3  502    0  0.11188205276E+03 -0.14585006210E+04 -0.68140849112E+03  0.16137097592E+04  0.50400001928E-02 0. -1.
       -1    1    3    3    0  502 -0.11188205276E+03  0.14585006210E+04  0.12396790426E+04  0.19174320806E+04  0.50400001928E-02 0.  1.
</event>
<event>
 5   0  0.1098171E-07  0.3501762E+04  0.7818609E-02  0.8113373E-01
       -1   -1    0    0    0  501  0.00000000000E+00  0.00000000000E+00  0.23582294506E+04  0.23582294506E+04  0.50400001928E-02 0. -1.
        1   -1    0    0  501    0  0.00000000000E+00  0.00000000000E+00 -0.12999512973E+04  0.12999512973E+04  0.50400001928E-02 0.  1.
    10030    2    1    2    0    0  0.00000000000E+00  0.00000000000E+00  0.10582781533E+04  0.36581807479E+04  0.35017615188E+04 0.  0.
        4    1    3    3  502    0 -0.25180020587E+03  0.14477144639E+04  0.15236622277E+04  0.21167968041E+04  0.12699999809E+01 0.  1.
       -4    1    3    3    0  502  0.25180020587E+03 -0.14477144639E+04 -0.46538407447E+03  0.15413839438E+04  0.12699999809E+01 0. -1.
</event>
<event>
 5   0  0.3219205E-07  0.3499771E+04  0.7818609E-02  0.8113844E-01
        2   -1    0    0  501    0  0.00000000000E+00  0.00000000000E+00  0.12547626682E+04  0.12547626682E+04  0.25500000920E-02 0.  1.
       -2   -1    0    0    0  501  0.00000000000E+00  0.00000000000E+00 -0.24403811517E+04  0.24403811517E+04  0.25500000920E-02 0. -1.
    10030    2    1    2    0    0  0.00000000000E+00  0.00000000000E+00 -0.11856184835E+04  0.36951438200E+04  0.34997709442E+04 0.  0.
        2    1    3    3  502    0 -0.10584063543E+04  0.56816916824E+03 -0.19362640318E+04  0.22786308643E+04  0.25500000920E-02 0. -1.
       -2    1    3    3    0  502  0.10584063543E+04 -0.56816916824E+03  0.75064554835E+03  0.14165129557E+04  0.25500000920E-02 0.  1.
</event>
<event>
 5   0  0.1033796E-07  0.3434028E+04  0.7818609E-02  0.8129605E-01
        1   -1    0    0  501    0  0.00000000000E+00  0.00000000000E+00  0.99628767578E+03  0.99628767579E+03  0.50400001928E-02 0.  1.
       -1   -1    0    0    0  501  0.00000000000E+00  0.00000000000E+00 -0.29591226161E+04  0.29591226161E+04  0.50400001928E-02 0. -1.
    10030    2    1    2    0    0  0.00000000000E+00  0.00000000000E+00 -0.19628349403E+04  0.39554102919E+04  0.34340281849E+04 0.  0.
        3    1    3    3  502    0  0.19720790133E+03 -0.24366197875E+03 -0.29258846180E+04  0.29426285740E+04  0.10100000352E+00 0. -1.
       -3    1    3    3    0  502 -0.19720790133E+03  0.24366197875E+03  0.96304967770E+03  0.10127817179E+04  0.10100000352E+00 0.  1.
</event>
<event>
 5   0  0.3219205E-07  0.3462630E+04  0.7818609E-02  0.8122704E-01
       -2   -1    0    0    0  501  0.00000000000E+00  0.00000000000E+00  0.14673633440E+04  0.14673633440E+04  0.25500000920E-02 0.  1.
        2   -1    0    0  501    0  0.00000000000E+00  0.00000000000E+00 -0.20427462250E+04  0.20427462250E+04  0.25500000920E-02 0. -1.
    10030    2    1    2    0    0  0.00000000000E+00  0.00000000000E+00 -0.57538288105E+03  0.35101095690E+04  0.34626295970E+04 0.  0.
        2    1    3    3  502    0 -0.14900527687E+04 -0.87374523534E+03 -0.16876723079E+03  0.17355605342E+04  0.25500000920E-02 0.  1.
       -2    1    3    3    0  502  0.14900527687E+04  0.87374523534E+03 -0.40661565027E+03  0.17745490348E+04  0.25500000920E-02 0. -1.
</event>
<event>
 5   0  0.1013863E-07  0.3510905E+04  0.7818609E-02  0.8111210E-01
        1   -1    0    0  501    0  0.00000000000E+00  0.00000000000E+00  0.18511016426E+04  0.18511016426E+04  0.50400001928E-02 0. -1.
       -1   -1    0    0    0  501  0.00000000000E+00  0.00000000000E+00 -0.16647455529E+04  0.16647455529E+04  0.50400001928E-02 0.  1.
    10030    2    1    2    0    0  0.00000000000E+00  0.00000000000E+00  0.18635608968E+03  0.35158471954E+04  0.35109048562E+04 0.  0.
        2    1    3    3  502    0  0.71029028497E+03  0.15836400788E+04  0.35657880706E+03  0.17718850509E+04  0.25500000920E-02 0. -1.
       -2    1    3    3    0  502 -0.71029028497E+03 -0.15836400788E+04 -0.17022271738E+03  0.17439621445E+04  0.25500000920E-02 0.  1.
</event>
<event>
 5   0  0.1013863E-07  0.3509606E+04  0.7818609E-02  0.8111517E-01
       -1   -1    0    0    0  501  0.00000000000E+00  0.00000000000E+00  0.30292134465E+04  0.30292134465E+04  0.50400001928E-02 0.  1.
        1   -1    0    0  501    0  0.00000000000E+00  0.00000000000E+00 -0.10165455205E+04  0.10165455205E+04  0.50400001928E-02 0. -1.
    10030    2    1    2    0    0  0.00000000000E+00  0.00000000000E+00  0.20126679261E+04  0.40457589670E+04  0.35096058808E+04 0.  0.
        2    1    3    3  502    0 -0.11201777320E+03 -0.16795737453E+04  0.15778757356E+04  0.23072077896E+04  0.25500000920E-02 0.  1.
       -2    1    3    3    0  502  0.11201777320E+03  0.16795737453E+04  0.43479219050E+03  0.17385511774E+04  0.25500000920E-02 0. -1.
</event>
<event>
 5   0  0.1013863E-07  0.3508239E+04  0.7818609E-02  0.8111840E-01
        1   -1    0    0  501    0  0.00000000000E+00  0.00000000000E+00  0.16703996969E+04  0.16703996969E+04  0.50400001928E-02 0.  1.
       -1   -1    0    0    0  501  0.00000000000E+00  0.00000000000E+00 -0.18420355648E+04  0.18420355648E+04  0.50400001928E-02 0. -1.
    10030    2    1    2    0    0  0.00000000000E+00  0.00000000000E+00 -0.17163586791E+03  0.35124352616E+04  0.35082392444E+04 0.  0.
        2    1    3    3  502    0 -0.17070660354E+04 -0.39891072936E+03 -0.14697642446E+03  0.17592061530E+04  0.25500000920E-02 0.  1.
       -2    1    3    3    0  502  0.17070660354E+04  0.39891072936E+03 -0.24659443456E+02  0.17532291087E+04  0.25500000920E-02 0. -1.
</event>
<event>
 5   0  0.3219205E-07  0.3476064E+04  0.7818609E-02  0.8119486E-01
       -2   -1    0    0    0  501  0.00000000000E+00  0.00000000000E+00  0.14856731642E+04  0.14856731642E+04  0.25500000920E-02 0. -1.
        2   -1    0    0  501    0  0.00000000000E+00  0.00000000000E+00 -0.20332567538E+04  0.20332567538E+04  0.25500000920E-02 0.  1.
    10030    2    1    2    0    0  0.00000000000E+00  0.00000000000E+00 -0.54758358955E+03  0.35189299180E+04  0.34760638631E+04 0.  0.
        2    1    3    3  502    0 -0.21532657051E+02  0.76254742782E+03  0.13071362371E+04  0.15134554428E+04  0.25500000920E-02 0.  1.
       -2    1    3    3    0  502  0.21532657051E+02 -0.76254742782E+03 -0.18547198267E+04  0.20054744751E+04  0.25500000920E-02 0. -1.
</event>
<event>
 5   0  0.1013863E-07  0.3520453E+04  0.7818609E-02  0.8108960E-01
        1   -1    0    0  501    0  0.00000000000E+00  0.00000000000E+00  0.15638314023E+04  0.15638314023E+04  0.50400001928E-02 0. -1.
       -1   -1    0    0    0  501  0.00000000000E+00  0.00000000000E+00 -0.19812861619E+04  0.19812861620E+04  0.50400001928E-02 0.  1.
    10030    2    1    2    0    0  0.00000000000E+00  0.00000000000E+00 -0.41745475967E+03  0.35451175642E+04  0.35204531055E+04 0.  0.
        5    1    3    3  502    0 -0.13367572409E+04 -0.19558232900E+03  0.92754098347E+03  0.16387576802E+04  0.46999998093E+01 0. -1.
       -5    1    3    3    0  502  0.13367572409E+04  0.19558232900E+03 -0.13449957431E+04  0.19063598840E+04  0.46999998093E+01 0.  1.
</event>
<event>
 5   0  0.3190112E-07  0.3500263E+04  0.7818609E-02  0.8113728E-01
        2   -1    0    0  501    0  0.00000000000E+00  0.00000000000E+00  0.20466024250E+04  0.20466024250E+04  0.25500000920E-02 0. -1.
       -2   -1    0    0    0  501  0.00000000000E+00  0.00000000000E+00 -0.14966076907E+04  0.14966076907E+04  0.25500000920E-02 0.  1.
    10030    2    1    2    0    0  0.00000000000E+00  0.00000000000E+00  0.54999473433E+03  0.35432101157E+04  0.35002633781E+04 0.  0.
        5    1    3    3  502    0  0.62785842669E+02 -0.93770705039E+03  0.17694934143E+04  0.20035881832E+04  0.46999998093E+01 0. -1.
       -5    1    3    3    0  502 -0.62785842669E+02  0.93770705039E+03 -0.12194986800E+04  0.15396219325E+04  0.46999998093E+01 0.  1.
</event>
<event>
 5   0  0.3119048E-07  0.3503674E+04  0.7818609E-02  0.8112920E-01
       -2   -1    0    0    0  501  0.00000000000E+00  0.00000000000E+00  0.10432606395E+04  0.10432606395E+04  0.25500000920E-02 0. -1.
        2   -1    0    0  501    0  0.00000000000E+00  0.00000000000E+00 -0.29416744888E+04  0.29416744888E+04  0.25500000920E-02 0.  1.
    10030    2    1    2    0    0  0.00000000000E+00  0.00000000000E+00 -0.18984138493E+04  0.39849351283E+04  0.35036741906E+04 0.  0.
        3    1    3    3  502    0  0.43208253652E+03 -0.25468678458E+03 -0.28582673686E+04  0.29019395303E+04  0.10100000352E+00 0.  1.
       -3    1    3    3    0  502 -0.43208253652E+03  0.25468678458E+03  0.95985351934E+03  0.10829955980E+04  0.10100000352E+00 0. -1.
</event>
<event>
 5   0  0.2180451E-07  0.3502504E+04  0.7818609E-02  0.8113197E-01
        2   -1    0    0  501    0  0.00000000000E+00  0.00000000000E+00  0.24815634513E+04  0.24815634513E+04  0.25500000920E-02 0. -1.
       -2   -1    0    0    0  501  0.00000000000E+00  0.00000000000E+00 -0.12358672730E+04  0.12358672730E+04  0.25500000920E-02 0.  1.
    10030    2    1    2    0    0  0.00000000000E+00  0.00000000000E+00  0.12456961783E+04  0.37174307243E+04  0.35025037075E+04 0.  0.
        4    1    3    3  502    0  0.73450932396E+03  0.14638730666E+04 -0.35242964185E+02  0.16381916803E+04  0.12699999809E+01 0.  1.
       -4    1    3    3    0  502 -0.73450932396E+03 -0.14638730666E+04  0.12809391425E+04  0.20792390439E+04  0.12699999809E+01 0. -1.
</event>
<event>
 5   0  0.1098171E-07  0.3499823E+04  0.7818609E-02  0.8113832E-01
       -1   -1    0    0    0  501  0.00000000000E+00  0.00000000000E+00  0.16854005153E+04  0.16854005154E+04  0.50400001928E-02 0.  1.
        1   -1    0    0  501    0  0.00000000000E+00  0.00000000000E+00 -0.18168914624E+04  0.18168914624E+04  0.50400001928E-02 0. -1.
    10030    2    1    2    0    0  0.00000000000E+00  0.00000000000E+00 -0.13149094706E+03  0.35022919778E+04  0.34998227424E+04 0.  0.
        4    1    3    3  502    0  0.12043735614E+04  0.11663677524E+04 -0.56735633067E+03  0.17699785954E+04  0.12699999809E+01 0. -1.
       -4    1    3    3    0  502 -0.12043735614E+04 -0.11663677524E+04  0.43586538361E+03  0.17323133824E+04  0.12699999809E+01 0.  1.
</event>
<event>
 5   0  0.3190112E-07  0.3498938E+04  0.7818609E-02  0.8114042E-01
        2   -1    0    0  501    0  0.00000000000E+00  0.00000000000E+00  0.18403454206E+04  0.18403454206E+04  0.25500000920E-02 0.  1.
       -2   -1    0    0    0  501  0.00000000000E+00  0.00000000000E+00 -0.16630800261E+04  0.16630800261E+04  0.25500000920E-02 0. -1.
    10030    2    1    2    0    0  0.00000000000E+00  0.00000000000E+00  0.17726539456E+03  0.35034254467E+04  0.34989379589E+04 0.  0.
        5    1    3    3  502    0  0.86854425256E+03 -0.12248462701E+04 -0.81029493228E+03  0.17062290208E+04  0.46999998093E+01 0. -1.
       -5    1    3    3    0  502 -0.86854425256E+03  0.12248462701E+04  0.98756032684E+03  0.17971964259E+04  0.46999998093E+01 0.  1.
</event>
<event>
 5   0  0.1013863E-07  0.3500716E+04  0.7818609E-02  0.8113620E-01
        3   -1    0    0  501    0  0.00000000000E+00  0.00000000000E+00  0.16571105290E+04  0.16571105320E+04  0.10100000352E+00 0.  1.
       -3   -1    0    0    0  501  0.00000000000E+00  0.00000000000E+00 -0.18488527898E+04  0.18488527925E+04  0.10100000352E+00 0. -1.
    10030    2    1    2    0    0  0.00000000000E+00  0.00000000000E+00 -0.19174226079E+03  0.35059633246E+04  0.35007161751E+04 0.  0.
        3    1    3    3  502    0 -0.15681079043E+04 -0.70539520583E+03 -0.42378919173E+03  0.17709156064E+04  0.10100000352E+00 0.  1.
       -3    1    3    3    0  502  0.15681079043E+04  0.70539520583E+03  0.23204693094E+03  0.17350477181E+04  0.10100000352E+00 0. -1.
</event>
<event>
 5   0  0.3219205E-07  0.3524266E+04  0.7818609E-02  0.8108063E-01
       -2   -1    0    0    0  501  0.00000000000E+00  0.00000000000E+00  0.24571235548E+04  0.24571235548E+04  0.25500000920E-02 0.  1.
        2   -1    0    0  501    0  0.00000000000E+00  0.00000000000E+00 -0.12637182904E+04  0.12637182904E+04  0.25500000920E-02 0. -1.
    10030    2    1    2    0    0  0.00000000000E+00  0.00000000000E+00  0.11934052645E+04  0.37208418452E+04  0.35242655848E+04 0.  0.
        2    1    3    3  502    0  0.55158922187E+03  0.83529572562E+03  0.21278144798E+04  0.23515025153E+04  0.25500000920E-02 0.  1.
       -2    1    3    3    0  502 -0.55158922187E+03 -0.83529572562E+03 -0.93440921532E+03  0.13693393300E+04  0.25500000920E-02 0. -1.
</event>
<event>
 5   0  0.1013863E-07  0.3481486E+04  0.7818609E-02  0.8118191E-01
        1   -1    0    0  501    0  0.00000000000E+00  0.00000000000E+00  0.23279250410E+04  0.23279250410E+04  0.50400001928E-02 0.  1.
       -1   -1    0    0    0  501  0.00000000000E+00  0.00000000000E+00 -0.13016685859E+04  0.13016685859E+04  0.50400001928E-02 0. -1.
    10030    2    1    2    0    0  0.00000000000E+00  0.00000000000E+00  0.10262564551E+04  0.36295936269E+04  0.34814864045E+04 0.  0.
        2    1    3    3  502    0 -0.90275612107E+03 -0.11604194063E+04  0.14847885821E+04  0.20895307957E+04  0.25500000920E-02 0. -1.
       -2    1    3    3    0  502  0.90275612107E+03  0.11604194063E+04 -0.45853212697E+03  0.15400628312E+04  0.25500000920E-02 0.  1.
</event>
<event>
 5   0  0.3119048E-07  0.3521313E+04  0.7818609E-02  0.8108758E-01
       -2   -1    0    0    0  501  0.00000000000E+00  0.00000000000E+00  0.13109173366E+04  0.13109173366E+04  0.25500000920E-02 0. -1.
        2   -1    0    0  501    0  0.00000000000E+00  0.00000000000E+00 -0.23646882209E+04  0.23646882209E+04  0.25500000920E-02 0.  1.
    10030    2    1    2    0    0  0.00000000000E+00  0.00000000000E+00 -0.10537708843E+04  0.36756055575E+04  0.35213127009E+04 0.  0.
        3    1    3    3  502    0  0.15429320873E+04  0.40573126810E+03  0.25049780970E+03  0.16149323363E+04  0.10100000352E+00 0.  1.
       -3    1    3    3    0  502 -0.15429320873E+04 -0.40573126810E+03 -0.13042686940E+04  0.20606732212E+04  0.10100000352E+00 0. -1.
</event>
<event>
 5   0  0.3119048E-07  0.3487035E+04  0.7818609E-02  0.8116869E-01
        2   -1    0    0  501    0  0.00000000000E+00  0.00000000000E+00  0.16125730098E+04  0.16125730098E+04  0.25500000920E-02 0.  1.
       -2   -1    0    0    0  501  0.00000000000E+00  0.00000000000E+00 -0.18850944333E+04  0.18850944333E+04  0.25500000920E-02 0. -1.
    10030    2    1    2    0    0  0.00000000000E+00  0.00000000000E+00 -0.27252142350E+03  0.34976674432E+04  0.34870345018E+04 0.  0.
        3    1    3    3  502    0 -0.14969067525E+04 -0.34240171542E+03  0.69201972444E+03  0.16842980940E+04  0.10100000352E+00 0.  1.
       -3    1    3    3    0  502  0.14969067525E+04  0.34240171542E+03 -0.96454114794E+03  0.18133693492E+04  0.10100000352E+00 0. -1.
</event>
<event>
 5   0  0.1013863E-07  0.3487689E+04  0.7818609E-02  0.8116714E-01
        1   -1    0    0  501    0  0.00000000000E+00  0.00000000000E+00  0.19486974643E+04  0.19486974643E+04  0.50400001928E-02 0.  1.
       -1   -1    0    0    0  501  0.00000000000E+00  0.00000000000E+00 -0.15605266345E+04  0.15605266345E+04  0.50400001928E-02 0. -1.
    10030    2    1    2    0    0  0.00000000000E+00  0.00000000000E+00  0.38817082979E+03  0.35092240988E+04  0.34876893759E+04 0.  0.
        5    1    3    3  502    0  0.66876702353E+03  0.15250725251E+04 -0.32667833800E+03  0.16970080628E+04  0.46999998093E+01 0. -1.
       -5    1    3    3    0  502 -0.66876702353E+03 -0.15250725251E+04  0.71484916779E+03  0.18122160361E+04  0.46999998093E+01 0.  1.
</event>
<event>
 5   0  0.1033796E-07  0.3496661E+04  0.7818609E-02  0.8114582E-01
        1   -1    0    0  501    0  0.00000000000E+00  0.00000000000E+00  0.24086780727E+04  0.24086780727E+04  0.50400001928E-02 0.  1.
       -1   -1    0    0    0  501  0.00000000000E+00  0.00000000000E+00 -0.12690192434E+04  0.12690192434E+04  0.50400001928E-02 0. -1.
    10030    2    1    2    0    0  0.00000000000E+00  0.00000000000E+00  0.11396588294E+04  0.36776973161E+04  0.34966605929E+04 0.  0.
        3    1    3    3  502    0  0.11880998883E+04  0.12892561993E+03  0.19120085155E+04  0.22547682217E+04  0.10100000352E+00 0.  1.
       -3    1    3    3    0  502 -0.11880998883E+04 -0.12892561993E+03 -0.77234968610E+03  0.14229290945E+04  0.10100000352E+00 0. -1.
</event>
<event>
 5   0  0.3190185E-07  0.3510969E+04  0.7818609E-02  0.8111195E-01
        2   -1    0    0  501    0  0.00000000000E+00  0.00000000000E+00  0.10998195932E+04  0.10998195932E+04  0.25500000920E-02 0. -1.
       -2   -1    0    0    0  501  0.00000000000E+00  0.00000000000E+00 -0.28020278373E+04  0.28020278373E+04  0.25500000920E-02 0.  1.
    10030    2    1    2    0    0  0.00000000000E+00  0.00000000000E+00 -0.17022082441E+04  0.39018474305E+04  0.35109685935E+04 0.  0.
        1    1    3    3  502    0  0.11874964912E+04 -0.42402759684E+03 -0.22084652524E+04  0.25430820063E+04  0.50400001928E-02 0.  1.
       -1    1    3    3    0  502 -0.11874964912E+04  0.42402759684E+03  0.50625700831E+03  0.13587654242E+04  0.50400001928E-02 0. -1.
</event>
<event>
 5   0  0.2180451E-07  0.3481006E+04  0.7818609E-02  0.8118306E-01
        2   -1    0    0  501    0  0.00000000000E+00  0.00000000000E+00  0.20095979407E+04  0.20095979407E+04  0.25500000920E-02 0.  1.
       -2   -1    0    0    0  501  0.00000000000E+00  0.00000000000E+00 -0.15074410777E+04  0.15074410777E+04  0.25500000920E-02 0. -1.
    10030    2    1    2    0    0  0.00000000000E+00  0.00000000000E+00  0.50215686298E+03  0.35170390184E+04  0.34810058808E+04 0.  0.
        4    1    3    3  502    0  0.15830497034E+04 -0.57819124368E+03  0.69031686952E+03  0.18212332281E+04  0.12699999809E+01 0. -1.
       -4    1    3    3    0  502 -0.15830497034E+04  0.57819124368E+03 -0.18816000654E+03  0.16958057904E+04  0.12699999809E+01 0.  1.
</event>
<event>
 5   0  0.2180451E-07  0.3479330E+04  0.7818609E-02  0.8118706E-01
        2   -1    0    0  501    0  0.00000000000E+00  0.00000000000E+00  0.24432387919E+04  0.24432387919E+04  0.25500000920E-02 0.  1.
       -2   -1    0    0    0  501  0.00000000000E+00  0.00000000000E+00 -0.12386977918E+04  0.12386977919E+04  0.25500000920E-02 0. -1.
    10030    2    1    2    0    0  0.00000000000E+00  0.00000000000E+00  0.12045410001E+04  0.36819365838E+04  0.34793301059E+04 0.  0.
        4    1    3    3  502    0 -0.12470454060E+03  0.16842459366E+04  0.10439440191E+04  0.19854612374E+04  0.12699999809E+01 0.  1.
       -4    1    3    3    0  502  0.12470454060E+03 -0.16842459366E+04  0.16059698098E+03  0.16964753463E+04  0.12699999809E+01 0. -1.
</event>
<event>
 5   0  0.3219205E-07  0.3497523E+04  0.7818609E-02  0.8114377E-01
        2   -1    0    0  501    0  0.00000000000E+00  0.00000000000E+00  0.22888732156E+04  0.22888732156E+04  0.25500000920E-02 0.  1.
       -2   -1    0    0    0  501  0.00000000000E+00  0.00000000000E+00 -0.13361013173E+04  0.13361013173E+04  0.25500000920E-02 0. -1.
    10030    2    1    2    0    0  0.00000000000E+00  0.00000000000E+00  0.95277189829E+03  0.36249745330E+04  0.34975228483E+04 0.  0.
        2    1    3    3  502    0  0.67734178674E+03 -0.15829278910E+04  0.79366868309E+03  0.18958804241E+04  0.25500000920E-02 0.  1.
       -2    1    3    3    0  502 -0.67734178674E+03  0.15829278910E+04  0.15910321521E+03  0.17290941088E+04  0.25500000920E-02 0. -1.
</event>
<event>
 5   0  0.1098171E-07  0.3518056E+04  0.7818609E-02  0.8109524E-01
       -1   -1    0    0    0  501  0.00000000000E+00  0.00000000000E+00  0.26594576809E+04  0.26594576809E+04  0.50400001928E-02 0.  1.
        1   -1    0    0  501    0  0.00000000000E+00  0.00000000000E+00 -0.11634625971E+04  0.11634625971E+04  0.50400001928E-02 0. -1.
    10030    2    1    2    0    0  0.00000000000E+00  0.00000000000E+00  0.14959950839E+04  0.38229202780E+04  0.35180560202E+04 0.  0.
        4    1    3    3  502    0  0.33724736370E+03 -0.63093734817E+02  0.26227443057E+04  0.26450909077E+04  0.12699999809E+01 0.  1.
       -4    1    3    3    0  502 -0.33724736370E+03  0.63093734817E+02 -0.11267492219E+04  0.11778293703E+04  0.12699999809E+01 0. -1.
</event>
<event>
 5   0  0.2180451E-07  0.3484992E+04  0.7818609E-02  0.8117356E-01
       -2   -1    0    0    0  501  0.00000000000E+00  0.00000000000E+00  0.17150210751E+04  0.17150210751E+04  0.25500000920E-02 0.  1.
        2   -1    0    0  501    0  0.00000000000E+00  0.00000000000E+00 -0.17704107307E+04  0.17704107307E+04  0.25500000920E-02 0. -1.
    10030    2    1    2    0    0  0.00000000000E+00  0.00000000000E+00 -0.55389655612E+02  0.34854318059E+04  0.34849916585E+04 0.  0.
        4    1    3    3  502    0 -0.57466929073E+03 -0.11516204197E+04  0.11471091027E+04  0.17240461975E+04  0.12699999809E+01 0.  1.
       -4    1    3    3    0  502  0.57466929073E+03  0.11516204197E+04 -0.12024987583E+04  0.17613856084E+04  0.12699999809E+01 0. -1.
</event>
<event>
 5   0  0.2180451E-07  0.3506625E+04  0.7818609E-02  0.8112222E-01
       -2   -1    0    0    0  501  0.00000000000E+00  0.00000000000E+00  0.20362089704E+04  0.20362089704E+04  0.25500000920E-02 0. -1.
        2   -1    0    0  501    0  0.00000000000E+00  0.00000000000E+00 -0.15097195679E+04  0.15097195679E+04  0.25500000920E-02 0.  1.
    10030    2    1    2    0    0  0.00000000000E+00  0.00000000000E+00  0.52648940245E+03  0.35459285383E+04  0.35066248884E+04 0.  0.
        4    1    3    3  502    0 -0.13171856812E+04 -0.11544848103E+04  0.34344071958E+03  0.17848715463E+04  0.12699999809E+01 0.  1.
       -4    1    3    3    0  502  0.13171856812E+04  0.11544848103E+04  0.18304868287E+03  0.17610569920E+04  0.12699999809E+01 0. -1.
</event>
<event>
 5   0  0.3119048E-07  0.3484448E+04  0.7818609E-02  0.8117485E-01
        2   -1    0    0  501    0  0.00000000000E+00  0.00000000000E+00  0.22941455502E+04  0.22941455502E+04  0.25500000920E-02 0.  1.
       -2   -1    0    0    0  501  0.00000000000E+00  0.00000000000E+00 -0.13230829338E+04  0.13230829338E+04  0.25500000920E-02 0. -1.
    10030    2    1    2    0    0  0.00000000000E+00  0.00000000000E+00  0.97106261638E+03  0.36172284841E+04  0.34844482061E+04 0.  0.
        3    1    3    3  502    0  0.55658201230E+03 -0.97088862209E+03  0.18716801746E+04  0.21807326611E+04  0.10100000352E+00 0. -1.
       -3    1    3    3    0  502 -0.55658201230E+03  0.97088862209E+03 -0.90061755826E+03  0.14364958229E+04  0.10100000352E+00 0.  1.
</event>
<event>
 5   0  0.1033796E-07  0.3502543E+04  0.7818609E-02  0.8113188E-01
       -1   -1    0    0    0  501  0.00000000000E+00  0.00000000000E+00  0.15298439748E+04  0.15298439748E+04  0.50400001928E-02 0.  1.
        1   -1    0    0  501    0  0.00000000000E+00  0.00000000000E+00 -0.20047481830E+04  0.20047481830E+04  0.50400001928E-02 0. -1.
    10030    2    1    2    0    0  0.00000000000E+00  0.00000000000E+00 -0.47490420818E+03  0.35345921578E+04  0.35025430355E+04 0.  0.
        3    1    3    3  502    0  0.14575451442E+03  0.16638912819E+04  0.29383779443E+03  0.16959125084E+04  0.10100000352E+00 0.  1.
       -3    1    3    3    0  502 -0.14575451442E+03 -0.16638912819E+04 -0.76874200261E+03  0.18386796494E+04  0.10100000352E+00 0. -1.
</event>
<event>
 5   0  0.3190112E-07  0.3499104E+04  0.7818609E-02  0.8114002E-01
       -2   -1    0    0    0  501  0.00000000000E+00  0.00000000000E+00  0.12788398225E+04  0.12788398225E+04  0.25500000920E-02 0.  1.
        2   -1    0    0  501    0  0.00000000000E+00  0.00000000000E+00 -0.23935225476E+04  0.23935225476E+04  0.25500000920E-02 0. -1.
    10030    2    1    2    0    0  0.00000000000E+00  0.00000000000E+00 -0.11146827251E+04  0.36723623702E+04  0.34991038567E+04 0.  0.
        5    1    3    3  502    0 -0.13257426362E+02 -0.86090311473E+03 -0.21557704229E+04  0.23213569606E+04  0.46999998093E+01 0. -1.
       -5    1    3    3    0  502  0.13257426362E+02  0.86090311473E+03  0.10410876978E+04  0.13510054096E+04  0.46999998093E+01 0.  1.
</event>
<event>
 5   0  0.2180451E-07  0.3498475E+04  0.7818609E-02  0.8114152E-01
        2   -1    0    0  501    0  0.00000000000E+00  0.00000000000E+00  0.18446435602E+04  0.18446435602E+04  0.25500000920E-02 0. -1.
       -2   -1    0    0    0  501  0.00000000000E+00  0.00000000000E+00 -0.16587654315E+04  0.16587654315E+04  0.25500000920E-02 0.  1.
    10030    2    1    2    0    0  0.00000000000E+00  0.00000000000E+00  0.18587812869E+03  0.35034089917E+04  0.34984745082E+04 0.  0.
        4    1    3    3  502    0  0.91235492669E+03  0.14672298109E+03 -0.13943864983E+04  0.16727924154E+04  0.12699999809E+01 0.  1.
       -4    1    3    3    0  502 -0.91235492669E+03 -0.14672298109E+03  0.15802646269E+04  0.18306165763E+04  0.12699999809E+01 0. -1.
</event>
<event>
 5   0  0.2180451E-07  0.3502639E+04  0.7818609E-02  0.8113165E-01
       -2   -1    0    0    0  501  0.00000000000E+00  0.00000000000E+00  0.11188669496E+04  0.11188669496E+04  0.25500000920E-02 0. -1.
        2   -1    0    0  501    0  0.00000000000E+00  0.00000000000E+00 -0.27412733432E+04  0.27412733432E+04  0.25500000920E-02 0.  1.
    10030    2    1    2    0    0  0.00000000000E+00  0.00000000000E+00 -0.16224063936E+04  0.38601402927E+04  0.35026390870E+04 0.  0.
        4    1    3    3  502    0  0.93364145053E+03  0.51254045314E+03 -0.23433267668E+04  0.25740174869E+04  0.12699999809E+01 0.  1.
       -4    1    3    3    0  502 -0.93364145053E+03 -0.51254045314E+03  0.72092037316E+03  0.12861228058E+04  0.12699999809E+01 0. -1.
</event>
<event>
 5   0  0.3190185E-07  0.3483007E+04  0.7818609E-02  0.8117829E-01
       -2   -1    0    0    0  501  0.00000000000E+00  0.00000000000E+00  0.19607541633E+04  0.19607541633E+04  0.25500000920E-02 0. -1.
        2   -1    0    0  501    0  0.00000000000E+00  0.00000000000E+00 -0.15467696238E+04  0.15467696238E+04  0.25500000920E-02 0.  1.
    10030    2    1    2    0    0  0.00000000000E+00  0.00000000000E+00  0.41398453952E+03  0.35075237870E+04  0.34830073095E+04 0.  0.
        1    1    3    3  502    0 -0.46369369397E+03  0.57741902146E+03 -0.13803036847E+04  0.15664171955E+04  0.50400001928E-02 0.  1.
       -1    1    3    3    0  502  0.46369369397E+03 -0.57741902146E+03  0.17942882242E+04  0.19411065916E+04  0.50400001928E-02 0. -1.
</event>
<event>
 5   0  0.1072381E-07  0.3498267E+04  0.7818609E-02  0.8114201E-01
       -1   -1    0    0    0  501  0.00000000000E+00  0.00000000000E+00  0.16245463699E+04  0.16245463699E+04  0.50400001928E-02 0. -1.
        1   -1    0    0  501    0  0.00000000000E+00  0.00000000000E+00 -0.18832750927E+04  0.18832750927E+04  0.50400001928E-02 0.  1.
    10030    2    1    2    0    0  0.00000000000E+00  0.00000000000E+00 -0.25872872282E+03  0.35078214626E+04  0.34982668368E+04 0.  0.
        1    1    3    3  502    0  0.43407808841E+03 -0.49998916250E+03 -0.17527533495E+04  0.18736481136E+04  0.50400001928E-02 0.  1.
       -1    1    3    3    0  502 -0.43407808841E+03  0.49998916250E+03  0.14940246266E+04  0.16341733490E+04  0.50400001928E-02 0. -1.
</event>
<event>
 5   0  0.3219205E-07  0.3476348E+04  0.7818609E-02  0.8119418E-01
       -2   -1    0    0    0  501  0.00000000000E+00  0.00000000000E+00  0.12643482837E+04  0.12643482837E+04  0.25500000920E-02 0. -1.
        2   -1    0    0  501    0  0.00000000000E+00  0.00000000000E+00 -0.23895695075E+04  0.23895695075E+04  0.25500000920E-02 0.  1.
    10030    2    1    2    0    0  0.00000000000E+00  0.00000000000E+00 -0.11252212238E+04  0.36539177911E+04  0.34763475692E+04 0.  0.
        2    1    3    3  502    0 -0.92436309032E+03  0.59904907736E+03 -0.19758890396E+04  0.22621769199E+04  0.25500000920E-02 0.  1.
       -2    1    3    3    0  502  0.92436309032E+03 -0.59904907736E+03  0.85066781583E+03  0.13917408713E+04  0.25500000920E-02 0. -1.
</event>
<event>
 5   0  0.1098171E-07  0.3491628E+04  0.7818609E-02  0.8115777E-01
        1   -1    0    0  501    0  0.00000000000E+00  0.00000000000E+00  0.17983229359E+04  0.17983229359E+04  0.50400001928E-02 0.  1.
       -1   -1    0    0    0  501  0.00000000000E+00  0.00000000000E+00 -0.16948378970E+04  0.16948378970E+04  0.50400001928E-02 0. -1.
    10030    2    1    2    0    0  0.00000000000E+00  0.00000000000E+00  0.10348503893E+03  0.34931608329E+04  0.34916276221E+04 0.  0.
        4    1    3    3  502    0 -0.23660329362E+03  0.10722626100E+04 -0.13061065829E+04  0.17063540788E+04  0.12699999809E+01 0. -1.
       -4    1    3    3    0  502  0.23660329362E+03 -0.10722626100E+04  0.14095916218E+04  0.17868067541E+04  0.12699999809E+01 0.  1.
</event>
<event>
 5   0  0.1013863E-07  0.3508743E+04  0.7818609E-02  0.8111721E-01
        1   -1    0    0  501    0  0.00000000000E+00  0.00000000000E+00  0.14242231903E+04  0.14242231903E+04  0.50400001928E-02 0.  1.
       -1   -1    0    0    0  501  0.00000000000E+00  0.00000000000E+00 -0.21610509284E+04  0.21610509284E+04  0.50400001928E-02 0. -1.
    10030    2    1    2    0    0  0.00000000000E+00  0.00000000000E+00 -0.73682773812E+03  0.35852741187E+04  0.35087427080E+04 0.  0.
        2    1    3    3  502    0  0.89505638928E+03 -0.48692288236E+03 -0.18277093571E+04  0.20925442235E+04  0.25500000920E-02 0. -1.
       -2    1    3    3    0  502 -0.89505638928E+03  0.48692288236E+03  0.10908816190E+04  0.14927298952E+04  0.25500000920E-02 0.  1.
</event>
<event>
 5   0  0.3119048E-07  0.3502301E+04  0.7818609E-02  0.8113245E-01
        2   -1    0    0  501    0  0.00000000000E+00  0.00000000000E+00  0.12722093625E+04  0.12722093625E+04  0.25500000920E-02 0. -1.
       -2   -1    0    0    0  501  0.00000000000E+00  0.00000000000E+00 -0.24103954448E+04  0.24103954448E+04  0.25500000920E-02 0.  1.
    10030    2    1    2    0    0  0.00000000000E+00  0.00000000000E+00 -0.11381860823E+04  0.36826048073E+04  0.35023007593E+04 0.  0.
        3    1    3    3  502    0 -0.41596176479E+03  0.11417835189E+04 -0.18948916134E+04  0.22510681976E+04  0.10100000352E+00 0.  1.
       -3    1    3    3    0  502  0.41596176479E+03 -0.11417835189E+04  0.75670553104E+03  0.14315366096E+04  0.10100000352E+00 0. -1.
</event>
<event>
 5   0  0.1072381E-07  0.3493793E+04  0.7818609E-02  0.8115262E-01
       -1   -1    0    0    0  501  0.00000000000E+00  0.00000000000E+00  0.10228129131E+04  0.10228129131E+04  0.50400001928E-02 0.  1.
        1   -1    0    0  501    0  0.00000000000E+00  0.00000000000E+00 -0.29835831658E+04  0.29835831658E+04  0.50400001928E-02 0. -1.
    10030    2    1    2    0    0  0.00000000000E+00  0.00000000000E+00 -0.19607702527E+04  0.40063960788E+04  0.34937930043E+04 0.  0.
        1    1    3    3  502    0  0.27236921649E+03  0.11553171561E+04 -0.24501113964E+04  0.27224967541E+04  0.50400001928E-02 0. -1.
       -1    1    3    3    0  502 -0.27236921649E+03 -0.11553171561E+04  0.48934114366E+03  0.12838993248E+04  0.50400001928E-02 0.  1.
</event>
<event>
 5   0  0.2180451E-07  0.3486841E+04  0.7818609E-02  0.8116916E-01
        2   -1    0    0  501    0  0.00000000000E+00  0.00000000000E+00  0.20212145439E+04  0.20212145439E+04  0.25500000920E-02 0.  1.
       -2   -1    0    0    0  501  0.00000000000E+00  0.00000000000E+00 -0.15038062696E+04  0.15038062696E+04  0.25500000920E-02 0. -1.
    10030    2    1    2    0    0  0.00000000000E+00  0.00000000000E+00  0.51740827428E+03  0.35250208136E+04  0.34868410365E+04 0.  0.
        4    1    3    3  502    0  0.23248203261E+03 -0.92641349286E+02 -0.14855526955E+04  0.15064855589E+04  0.12699999809E+01 0. -1.
       -4    1    3    3    0  502 -0.23248203261E+03  0.92641349286E+02  0.20029609698E+04  0.20185352547E+04  0.12699999809E+01 0.  1.
</event>
<event>
 5   0  0.1013863E-07  0.3505014E+04  0.7818609E-02  0.8112603E-01
       -1   -1    0    0    0  501  0.00000000000E+00  0.00000000000E+00  0.31764143704E+04  0.31764143704E+04  0.50400001928E-02 0.  1.
        1   -1    0    0  501    0  0.00000000000E+00  0.00000000000E+00 -0.96690163622E+03  0.96690163623E+03  0.50400001928E-02 0. -1.
    10030    2    1    2    0    0  0.00000000000E+00  0.00000000000E+00  0.22095127341E+04  0.41433160066E+04  0.35050136959E+04 0.  0.
        5    1    3    3  502    0  0.12141323366E+04  0.10939173949E+04  0.18528427883E+04  0.24705912421E+04  0.46999998093E+01 0.  1.
       -5    1    3    3    0  502 -0.12141323366E+04 -0.10939173949E+04  0.35666994588E+03  0.16727247645E+04  0.46999998093E+01 0. -1.
</event>
<event>
 5   0  0.3190185E-07  0.3399470E+04  0.7818609E-02  0.8138036E-01
       -2   -1    0    0    0  501  0.00000000000E+00  0.00000000000E+00  0.17167890696E+04  0.17167890696E+04  0.25500000920E-02 0.  1.
        2   -1    0    0  501    0  0.00000000000E+00  0.00000000000E+00 -0.16828500022E+04  0.16828500022E+04  0.25500000920E-02 0. -1.
    10030    2    1    2    0    0  0.00000000000E+00  0.00000000000E+00  0.33939067432E+02  0.33996390718E+04  0.33994696584E+04 0.  0.
        1    1    3    3  502    0 -0.12207696801E+04 -0.44846637492E+01 -0.11657980631E+04  0.16880118033E+04  0.50400001928E-02 0. -1.
       -1    1    3    3    0  502  0.12207696801E+04  0.44846637492E+01  0.11997371305E+04  0.17116272685E+04  0.50400001928E-02 0.  1.
</event>
<event>
 5   0  0.3119048E-07  0.3499367E+04  0.7818609E-02  0.8113940E-01
       -2   -1    0    0    0  501  0.00000000000E+00  0.00000000000E+00  0.22457712952E+04  0.22457712952E+04  0.25500000920E-02 0.  1.
        2   -1    0    0  501    0  0.00000000000E+00  0.00000000000E+00 -0.13631807225E+04  0.13631807225E+04  0.25500000920E-02 0. -1.
    10030    2    1    2    0    0  0.00000000000E+00  0.00000000000E+00  0.88259057268E+03  0.36089520177E+04  0.34993668781E+04 0.  0.
        3    1    3    3  502    0  0.15982651390E+04  0.94951984304E+02 -0.28644012281E+03  0.16265040080E+04  0.10100000352E+00 0. -1.
       -3    1    3    3    0  502 -0.15982651390E+04 -0.94951984304E+02  0.11690306955E+04  0.19824480097E+04  0.10100000352E+00 0.  1.
</event>
<event>
 5   0  0.1033796E-07  0.3503427E+04  0.7818609E-02  0.8112978E-01
       -1   -1    0    0    0  501  0.00000000000E+00  0.00000000000E+00  0.25796734452E+04  0.25796734452E+04  0.50400001928E-02 0.  1.
        1   -1    0    0  501    0  0.00000000000E+00  0.00000000000E+00 -0.11894915878E+04  0.11894915878E+04  0.50400001928E-02 0. -1.
    10030    2    1    2    0    0  0.00000000000E+00  0.00000000000E+00  0.13901818574E+04  0.37691650331E+04  0.35034268152E+04 0.  0.
        3    1    3    3  502    0 -0.17614361412E+03  0.13676373533E+04  0.18573293430E+04  0.23132511324E+04  0.10100000352E+00 0.  1.
       -3    1    3    3    0  502  0.17614361412E+03 -0.13676373533E+04 -0.46714748557E+03  0.14559139007E+04  0.10100000352E+00 0. -1.
</event>
<event>
 5   0  0.3219205E-07  0.3547611E+04  0.7818609E-02  0.8102598E-01
        2   -1    0    0  501    0  0.00000000000E+00  0.00000000000E+00  0.17275504106E+04  0.17275504106E+04  0.25500000920E-02 0.  1.
       -2   -1    0    0    0  501  0.00000000000E+00  0.00000000000E+00 -0.18212993959E+04  0.18212993959E+04  0.25500000920E-02 0. -1.
    10030    2    1    2    0    0  0.00000000000E+00  0.00000000000E+00 -0.93748985268E+02  0.35488498065E+04  0.35476113199E+04 0.  0.
        2    1    3    3  502    0 -0.90242699452E+03  0.12831496845E+04 -0.87513632248E+03  0.17963048673E+04  0.25500000920E-02 0. -1.
       -2    1    3    3    0  502  0.90242699452E+03 -0.12831496845E+04  0.78138733721E+03  0.17525449392E+04  0.25500000920E-02 0.  1.
</event>
<event>
 5   0  0.2180451E-07  0.3481472E+04  0.7818609E-02  0.8118195E-01
       -2   -1    0    0    0  501  0.00000000000E+00  0.00000000000E+00  0.14950804980E+04  0.14950804980E+04  0.25500000920E-02 0. -1.
        2   -1    0    0  501    0  0.00000000000E+00  0.00000000000E+00 -0.20267545550E+04  0.20267545550E+04  0.25500000920E-02 0.  1.
    10030    2    1    2    0    0  0.00000000000E+00  0.00000000000E+00 -0.53167405700E+03  0.35218350530E+04  0.34814716483E+04 0.  0.
        4    1    3    3  502    0 -0.68358958500E+03  0.80307515462E+03 -0.16667885610E+04  0.19724122654E+04  0.12699999809E+01 0.  1.
       -4    1    3    3    0  502  0.68358958500E+03 -0.80307515462E+03  0.11351145040E+04  0.15494227876E+04  0.12699999809E+01 0. -1.
</event>
<event>
 5   0  0.2180451E-07  0.3511662E+04  0.7818609E-02  0.8111032E-01
        2   -1    0    0  501    0  0.00000000000E+00  0.00000000000E+00  0.10081438335E+04  0.10081438335E+04  0.25500000920E-02 0.  1.
       -2   -1    0    0    0  501  0.00000000000E+00  0.00000000000E+00 -0.30580380887E+04  0.30580380887E+04  0.25500000920E-02 0. -1.
    10030    2    1    2    0    0  0.00000000000E+00  0.00000000000E+00 -0.20498942552E+04  0.40661819222E+04  0.35116618526E+04 0.  0.
        4    1    3    3  502    0 -0.97234880781E+03  0.12526343511E+04 -0.15198450024E+03  0.15930021729E+04  0.12699999809E+01 0.  1.
       -4    1    3    3    0  502  0.97234880781E+03 -0.12526343511E+04 -0.18979097550E+04  0.24731797493E+04  0.12699999809E+01 0. -1.
</event>
<event>
 5   0  0.1013863E-07  0.3505846E+04  0.7818609E-02  0.8112406E-01
       -1   -1    0    0    0  501  0.00000000000E+00  0.00000000000E+00  0.12001478920E+04  0.12001478921E+04  0.50400001928E-02 0.  1.
        1   -1    0    0  501    0  0.00000000000E+00  0.00000000000E+00 -0.25603010331E+04  0.25603010331E+04  0.50400001928E-02 0. -1.
    10030    2    1    2    0    0  0.00000000000E+00  0.00000000000E+00 -0.13601531410E+04  0.37604489251E+04  0.35058464814E+04 0.  0.
        2    1    3    3  502    0  0.13158206642E+04  0.43912433221E+02  0.56130820819E+03  0.14312159959E+04  0.25500000920E-02 0.  1.
       -2    1    3    3    0  502 -0.13158206642E+04 -0.43912433221E+02 -0.19214613492E+04  0.23292329293E+04  0.25500000920E-02 0. -1.
</event>
<event>
 5   0  0.1033796E-07  0.3486985E+04  0.7818609E-02  0.8116881E-01
       -1   -1    0    0    0  501  0.00000000000E+00  0.00000000000E+00  0.19318322434E+04  0.19318322434E+04  0.50400001928E-02 0.  1.
        1   -1    0    0  501    0  0.00000000000E+00  0.00000000000E+00 -0.15735149200E+04  0.15735149200E+04  0.50400001928E-02 0. -1.
    10030    2    1    2    0    0  0.00000000000E+00  0.00000000000E+00  0.35831732340E+03  0.35053471635E+04  0.34869854362E+04 0.  0.
        3    1    3    3  502    0 -0.10775889922E+04  0.69056436440E+03  0.13693227426E+04  0.18743324041E+04  0.10100000352E+00 0.  1.
       -3    1    3    3    0  502  0.10775889922E+04 -0.69056436440E+03 -0.10110054192E+04  0.16310147594E+04  0.10100000352E+00 0. -1.
</event>
<event>
 5   0  0.1098171E-07  0.3494193E+04  0.7818609E-02  0.8115167E-01
       -1   -1    0    0    0  501  0.00000000000E+00  0.00000000000E+00  0.16548873669E+04  0.16548873669E+04  0.50400001928E-02 0.  1.
        1   -1    0    0  501    0  0.00000000000E+00  0.00000000000E+00 -0.18444438429E+04  0.18444438429E+04  0.50400001928E-02 0. -1.
    10030    2    1    2    0    0  0.00000000000E+00  0.00000000000E+00 -0.18955647602E+03  0.34993312098E+04  0.34941933630E+04 0.  0.
        4    1    3    3  502    0 -0.40711123051E+03 -0.12530142706E+04 -0.12438802625E+04  0.18119117077E+04  0.12699999809E+01 0. -1.
       -4    1    3    3    0  502  0.40711123051E+03  0.12530142706E+04  0.10543237864E+04  0.16874195020E+04  0.12699999809E+01 0.  1.
</event>
<event>
 5   0  0.1013863E-07  0.3497448E+04  0.7818609E-02  0.8114395E-01
        1   -1    0    0  501    0  0.00000000000E+00  0.00000000000E+00  0.26591315262E+04  0.26591315262E+04  0.50400001928E-02 0.  1.
       -1   -1    0    0    0  501  0.00000000000E+00  0.00000000000E+00 -0.11500130810E+04  0.11500130810E+04  0.50400001928E-02 0. -1.
    10030    2    1    2    0    0  0.00000000000E+00  0.00000000000E+00  0.15091184452E+04  0.38091446072E+04  0.34974482350E+04 0.  0.
        2    1    3    3  502    0  0.15421328278E+04  0.47292457897E+02 -0.14198379512E+03  0.15493771760E+04  0.25500000920E-02 0. -1.
       -2    1    3    3    0  502 -0.15421328278E+04 -0.47292457897E+02  0.16511022403E+04  0.22597674312E+04  0.25500000920E-02 0.  1.
</event>
<event>
 5   0  0.1072381E-07  0.3491730E+04  0.7818609E-02  0.8115753E-01
        1   -1    0    0  501    0  0.00000000000E+00  0.00000000000E+00  0.21363390622E+04  0.21363390622E+04  0.50400001928E-02 0. -1.
       -1   -1    0    0    0  501  0.00000000000E+00  0.00000000000E+00 -0.14267609344E+04  0.14267609345E+04  0.50400001928E-02 0.  1.
    10030    2    1    2    0    0  0.00000000000E+00  0.00000000000E+00  0.70957812774E+03  0.35630999967E+04  0.34917302970E+04 0.  0.
        1    1    3    3  502    0  0.27591062966E+03  0.13288069866E+04  0.14755042567E+04  0.20047362656E+04  0.50400001928E-02 0. -1.
       -1    1    3    3    0  502 -0.27591062966E+03 -0.13288069866E+04 -0.76592612898E+03  0.15583637310E+04  0.50400001928E-02 0.  1.
</event>
<event>
 5   0  0.3219205E-07  0.3490617E+04  0.7818609E-02  0.8116017E-01
        2   -1    0    0  501    0  0.00000000000E+00  0.00000000000E+00  0.18652392112E+04  0.18652392112E+04  0.25500000920E-02 0.  1.
       -2   -1    0    0    0  501  0.00000000000E+00  0.00000000000E+00 -0.16330887837E+04  0.16330887837E+04  0.25500000920E-02 0. -1.
    10030    2    1    2    0    0  0.00000000000E+00  0.00000000000E+00  0.23215042743E+03  0.34983279949E+04  0.34906166989E+04 0.  0.
        2    1    3    3  502    0  0.14557835765E+04 -0.28802586559E+02 -0.84832176780E+03  0.16851662329E+04  0.25500000920E-02 0. -1.
       -2    1    3    3    0  502 -0.14557835765E+04  0.28802586559E+02  0.10804721952E+04  0.18131617620E+04  0.25500000920E-02 0.  1.
</event>
<event>
 5   0  0.1013863E-07  0.3503976E+04  0.7818609E-02  0.8112848E-01
       -1   -1    0    0    0  501  0.00000000000E+00  0.00000000000E+00  0.15125015532E+04  0.15125015533E+04  0.50400001928E-02 0.  1.
        1   -1    0    0  501    0  0.00000000000E+00  0.00000000000E+00 -0.20293940565E+04  0.20293940565E+04  0.50400001928E-02 0. -1.
    10030    2    1    2    0    0  0.00000000000E+00  0.00000000000E+00 -0.51689250326E+03  0.35418956098E+04  0.35039758348E+04 0.  0.
        2    1    3    3  502    0  0.44968491717E+03  0.16679572718E+04 -0.55343255926E+03  0.18139971287E+04  0.25500000920E-02 0. -1.
       -2    1    3    3    0  502 -0.44968491717E+03 -0.16679572718E+04  0.36540055996E+02  0.17278984811E+04  0.25500000920E-02 0.  1.
</event>
<event>
 5   0  0.2180451E-07  0.3501316E+04  0.7818609E-02  0.8113478E-01
        2   -1    0    0  501    0  0.00000000000E+00  0.00000000000E+00  0.21640792105E+04  0.21640792105E+04  0.25500000920E-02 0.  1.
       -2   -1    0    0    0  501  0.00000000000E+00  0.00000000000E+00 -0.14162160808E+04  0.14162160808E+04  0.25500000920E-02 0. -1.
    10030    2    1    2    0    0  0.00000000000E+00  0.00000000000E+00  0.74786312970E+03  0.35802952912E+04  0.35013161970E+04 0.  0.
        4    1    3    3  502    0  0.14793382395E+04 -0.93018256494E+03  0.48176616867E+03  0.18126724704E+04  0.12699999809E+01 0. -1.
       -4    1    3    3    0  502 -0.14793382395E+04  0.93018256494E+03  0.26609696103E+03  0.17676228208E+04  0.12699999809E+01 0.  1.
</event>
<event>
 5   0  0.1098171E-07  0.3505734E+04  0.7818609E-02  0.8112432E-01
        1   -1    0    0  501    0  0.00000000000E+00  0.00000000000E+00  0.13953265584E+04  0.13953265584E+04  0.50400001928E-02 0.  1.
       -1   -1    0    0    0  501  0.00000000000E+00  0.00000000000E+00 -0.22020239173E+04  0.22020239173E+04  0.50400001928E-02 0. -1.
    10030    2    1    2    0    0  0.00000000000E+00  0.00000000000E+00 -0.80669735893E+03  0.35973504757E+04  0.35057338484E+04 0.  0.
        4    1    3    3  502    0  0.90891150378E+03 -0.14967515410E+04 -0.48385630730E+03  0.18167288835E+04  0.12699999809E+01 0.  1.
       -4    1    3    3    0  502 -0.90891150378E+03  0.14967515410E+04 -0.32284105164E+03  0.17806215922E+04  0.12699999809E+01 0. -1.
</event>
<event>
 5   0  0.1033796E-07  0.3508606E+04  0.7818609E-02  0.8111753E-01
        1   -1    0    0  501    0  0.00000000000E+00  0.00000000000E+00  0.20174449307E+04  0.20174449307E+04  0.50400001928E-02 0.  1.
       -1   -1    0    0    0  501  0.00000000000E+00  0.00000000000E+00 -0.15254838089E+04  0.15254838089E+04  0.50400001928E-02 0. -1.
    10030    2    1    2    0    0  0.00000000000E+00  0.00000000000E+00  0.49196112181E+03  0.35429287397E+04  0.35086063201E+04 0.  0.
        3    1    3    3  502    0  0.86081581921E+03 -0.36562663958E+03 -0.12527531049E+04  0.15633544276E+04  0.10100000352E+00 0. -1.
       -3    1    3    3    0  502 -0.86081581921E+03  0.36562663958E+03  0.17447142267E+04  0.19795743121E+04  0.10100000352E+00 0.  1.
</event>
<event>
 5   0  0.3219205E-07  0.3510642E+04  0.7818609E-02  0.8111272E-01
       -2   -1    0    0    0  501  0.00000000000E+00  0.00000000000E+00  0.10786918359E+04  0.10786918359E+04  0.25500000920E-02 0.  1.
        2   -1    0    0  501    0  0.00000000000E+00  0.00000000000E+00 -0.28563789012E+04  0.28563789012E+04  0.25500000920E-02 0. -1.
    10030    2    1    2    0    0  0.00000000000E+00  0.00000000000E+00 -0.17776870653E+04  0.39350707371E+04  0.35106424489E+04 0.  0.
        2    1    3    3  502    0  0.12555681929E+04 -0.94486759312E+03 -0.17656737734E+04  0.23636476322E+04  0.25500000920E-02 0. -1.
       -2    1    3    3    0  502 -0.12555681929E+04  0.94486759312E+03 -0.12013291966E+02  0.15714231049E+04  0.25500000920E-02 0.  1.
</event>
<event>
 5   0  0.3190185E-07  0.3500470E+04  0.7818609E-02  0.8113679E-01
        2   -1    0    0  501    0  0.00000000000E+00  0.00000000000E+00  0.21153455911E+04  0.21153455911E+04  0.25500000920E-02 0. -1.
       -2   -1    0    0    0  501  0.00000000000E+00  0.00000000000E+00 -0.14481426209E+04  0.14481426209E+04  0.25500000920E-02 0.  1.
    10030    2    1    2    0    0  0.00000000000E+00  0.00000000000E+00  0.66720297021E+03  0.35634882121E+04  0.35004697448E+04 0.  0.
        1    1    3    3  502    0 -0.11576503382E+04  0.43844477518E+03 -0.92598278887E+03  0.15459082287E+04  0.50400001928E-02 0.  1.
       -1    1    3    3    0  502  0.11576503382E+04 -0.43844477518E+03  0.15931857591E+04  0.20175799834E+04  0.50400001928E-02 0. -1.
</event>
<event>
 5   0  0.3119048E-07  0.3498990E+04  0.7818609E-02  0.8114029E-01
        2   -1    0    0  501    0  0.00000000000E+00  0.00000000000E+00  0.14663099417E+04  0.14663099417E+04  0.25500000920E-02 0.  1.
       -2   -1    0    0    0  501  0.00000000000E+00  0.00000000000E+00 -0.20873713461E+04  0.20873713461E+04  0.25500000920E-02 0. -1.
    10030    2    1    2    0    0  0.00000000000E+00  0.00000000000E+00 -0.62106140436E+03  0.35536812878E+04  0.34989903439E+04 0.  0.
        3    1    3    3  502    0 -0.96772631997E+03 -0.11623785261E+04 -0.12035438632E+04  0.19329086654E+04  0.10100000352E+00 0. -1.
       -3    1    3    3    0  502  0.96772631997E+03  0.11623785261E+04  0.58248245880E+03  0.16207726223E+04  0.10100000352E+00 0.  1.
</event>
<event>
 5   0  0.1013863E-07  0.3502156E+04  0.7818609E-02  0.8113279E-01
       -1   -1    0    0    0  501  0.00000000000E+00  0.00000000000E+00  0.10521762235E+04  0.10521762235E+04  0.50400001928E-02 0. -1.
        1   -1    0    0  501    0  0.00000000000E+00  0.00000000000E+00 -0.29142214477E+04  0.29142214477E+04  0.50400001928E-02 0.  1.
    10030    2    1    2    0    0  0.00000000000E+00  0.00000000000E+00 -0.18620452241E+04  0.39663976712E+04  0.35021562028E+04 0.  0.
        2    1    3    3  502    0  0.79552071928E+03 -0.93572917257E+03  0.48255963592E+03  0.13195855794E+04  0.25500000920E-02 0. -1.
       -2    1    3    3    0  502 -0.79552071928E+03  0.93572917257E+03 -0.23446048601E+04  0.26468120918E+04  0.25500000920E-02 0.  1.
</event>
<event>
 5   0  0.1072381E-07  0.3519756E+04  0.7818609E-02  0.8109124E-01
        1   -1    0    0  501    0  0.00000000000E+00  0.00000000000E+00  0.21225732230E+04  0.21225732230E+04  0.50400001928E-02 0.  1.
       -1   -1    0    0    0  501  0.00000000000E+00  0.00000000000E+00 -0.14591582427E+04  0.14591582427E+04  0.50400001928E-02 0. -1.
    10030    2    1    2    0    0  0.00000000000E+00  0.00000000000E+00  0.66341498029E+03  0.35817314657E+04  0.35197557950E+04 0.  0.
        1    1    3    3  502    0 -0.86982598512E+03  0.23957224685E+03 -0.12059173467E+04  0.15060639936E+04  0.50400001928E-02 0. -1.
       -1    1    3    3    0  502  0.86982598512E+03 -0.23957224685E+03  0.18693323270E+04  0.20756674720E+04  0.50400001928E-02 0.  1.
</event>
<event>
 5   0  0.1033796E-07  0.3414499E+04  0.7818609E-02  0.8134357E-01
        1   -1    0    0  501    0  0.00000000000E+00  0.00000000000E+00  0.16142799896E+04  0.16142799896E+04  0.50400001928E-02 0. -1.
       -1   -1    0    0    0  501  0.00000000000E+00  0.00000000000E+00 -0.18055736209E+04  0.18055736209E+04  0.50400001928E-02 0.  1.
    10030    2    1    2    0    0  0.00000000000E+00  0.00000000000E+00 -0.19129363125E+03  0.34198536105E+04  0.34144992992E+04 0.  0.
        3    1    3    3  502    0 -0.12320912930E+04  0.27974069653E+03 -0.12456622814E+04  0.17742543056E+04  0.10100000352E+00 0.  1.
       -3    1    3    3    0  502  0.12320912930E+04 -0.27974069653E+03  0.10543686501E+04  0.16455993049E+04  0.10100000352E+00 0. -1.
</event>
<event>
 5   0  0.3190185E-07  0.3527415E+04  0.7818609E-02  0.8107323E-01
       -2   -1    0    0    0  501  0.00000000000E+00  0.00000000000E+00  0.15526786986E+04  0.15526786986E+04  0.25500000920E-02 0.  1.
        2   -1    0    0  501    0  0.00000000000E+00  0.00000000000E+00 -0.20034183513E+04  0.20034183513E+04  0.25500000920E-02 0. -1.
    10030    2    1    2    0    0  0.00000000000E+00  0.00000000000E+00 -0.45073965267E+03  0.35560970499E+04  0.35274154835E+04 0.  0.
        1    1    3    3  502    0 -0.22249090257E+03 -0.31390943532E+03 -0.19605925709E+04  0.19979901312E+04  0.50400001928E-02 0. -1.
       -1    1    3    3    0  502  0.22249090257E+03  0.31390943532E+03  0.15098529182E+04  0.15581069187E+04  0.50400001928E-02 0.  1.
</event>
<event>
 5   0  0.3219205E-07  0.3502010E+04  0.7818609E-02  0.8113314E-01
       -2   -1    0    0    0  501  0.00000000000E+00  0.00000000000E+00  0.13522780723E+04  0.13522780723E+04  0.25500000920E-02 0.  1.
        2   -1    0    0  501    0  0.00000000000E+00  0.00000000000E+00 -0.22672987721E+04  0.22672987721E+04  0.25500000920E-02 0. -1.
    10030    2    1    2    0    0  0.00000000000E+00  0.00000000000E+00 -0.91502069983E+03  0.36195768444E+04  0.35020099445E+04 0.  0.
        2    1    3    3  502    0  0.14461249777E+04  0.98153140101E+03 -0.34746014577E+03  0.17819679838E+04  0.25500000920E-02 0. -1.
       -2    1    3    3    0  502 -0.14461249777E+04 -0.98153140101E+03 -0.56756055406E+03  0.18376088607E+04  0.25500000920E-02 0.  1.
</event>
<event>
 5   0  0.3190112E-07  0.3505022E+04  0.7818609E-02  0.8112601E-01
        2   -1    0    0  501    0  0.00000000000E+00  0.00000000000E+00  0.15466685265E+04  0.15466685265E+04  0.25500000920E-02 0. -1.
       -2   -1    0    0    0  501  0.00000000000E+00  0.00000000000E+00 -0.19857488357E+04  0.19857488357E+04  0.25500000920E-02 0.  1.
    10030    2    1    2    0    0  0.00000000000E+00  0.00000000000E+00 -0.43908030924E+03  0.35324173622E+04  0.35050222400E+04 0.  0.
        5    1    3    3  502    0 -0.14770122741E+03 -0.12889934409E+03  0.15355771866E+04  0.15480471826E+04  0.46999998093E+01 0. -1.
       -5    1    3    3    0  502  0.14770122741E+03  0.12889934409E+03 -0.19746574959E+04  0.19843701796E+04  0.46999998093E+01 0.  1.
</event>
<event>
 5   0  0.3190112E-07  0.3485121E+04  0.7818609E-02  0.8117325E-01
       -2   -1    0    0    0  501  0.00000000000E+00  0.00000000000E+00  0.29832806007E+04  0.29832806007E+04  0.25500000920E-02 0. -1.
        2   -1    0    0  501    0  0.00000000000E+00  0.00000000000E+00 -0.10178449010E+04  0.10178449010E+04  0.25500000920E-02 0.  1.
    10030    2    1    2    0    0  0.00000000000E+00  0.00000000000E+00  0.19654356997E+04  0.40011255017E+04  0.34851209148E+04 0.  0.
        5    1    3    3  502    0  0.10074486900E+04  0.45735929720E+03  0.25282822048E+04  0.27597759668E+04  0.46999998093E+01 0. -1.
       -5    1    3    3    0  502 -0.10074486900E+04 -0.45735929720E+03 -0.56284650504E+03  0.12413495350E+04  0.46999998093E+01 0.  1.
</event>
<event>
 5   0  0.2180451E-07  0.3521388E+04  0.7818609E-02  0.8108740E-01
        2   -1    0    0  501    0  0.00000000000E+00  0.00000000000E+00  0.21703871762E+04  0.21703871762E+04  0.25500000920E-02 0. -1.
       -2   -1    0    0    0  501  0.00000000000E+00  0.00000000000E+00 -0.14283362634E+04  0.14283362634E+04  0.25500000920E-02 0.  1.
    10030    2    1    2    0    0  0.00000000000E+00  0.00000000000E+00  0.74205091285E+03  0.35987234396E+04  0.35213876296E+04 0.  0.
        4    1    3    3  502    0  0.15965745764E+04 -0.29518175114E+03  0.10670545219E+04  0.19428817796E+04  0.12699999809E+01 0. -1.
       -4    1    3    3    0  502 -0.15965745764E+04  0.29518175114E+03 -0.32500360900E+03  0.16558416600E+04  0.12699999809E+01 0.  1.
</event>
<event>
 5   0  0.1072381E-07  0.3492739E+04  0.7818609E-02  0.8115513E-01
        1   -1    0    0  501    0  0.00000000000E+00  0.00000000000E+00  0.20719665837E+04  0.20719665837E+04  0.50400001928E-02 0. -1.
       -1   -1    0    0    0  501  0.00000000000E+00  0.00000000000E+00 -0.14719378804E+04  0.14719378804E+04  0.50400001928E-02 0.  1.
    10030    2    1    2    0    0  0.00000000000E+00  0.00000000000E+00  0.60002870336E+03  0.35439044641E+04  0.34927388116E+04 0.  0.
        1    1    3    3  502    0  0.24193580589E+02 -0.53642360566E+03  0.19861251071E+04  0.20574325153E+04  0.50400001928E-02 0. -1.
       -1    1    3    3    0  502 -0.24193580589E+02  0.53642360566E+03 -0.13860964038E+04  0.14864719488E+04  0.50400001928E-02 0.  1.
</event>
<event>
 5   0  0.3190185E-07  0.3507031E+04  0.7818609E-02  0.8112126E-01
        2   -1    0    0  501    0  0.00000000000E+00  0.00000000000E+00  0.22106939528E+04  0.22106939528E+04  0.25500000920E-02 0. -1.
       -2   -1    0    0    0  501  0.00000000000E+00  0.00000000000E+00 -0.13908829475E+04  0.13908829475E+04  0.25500000920E-02 0.  1.
    10030    2    1    2    0    0  0.00000000000E+00  0.00000000000E+00  0.81981100530E+03  0.36015769003E+04  0.35070309500E+04 0.  0.
        1    1    3    3  502    0  0.17096376944E+03  0.18643679853E+03  0.21918581349E+04  0.22064064390E+04  0.50400001928E-02 0. -1.
       -1    1    3    3    0  502 -0.17096376944E+03 -0.18643679853E+03 -0.13720471296E+04  0.13951704613E+04  0.50400001928E-02 0.  1.
</event>
<event>
 5   0  0.3190112E-07  0.3501447E+04  0.7818609E-02  0.8113447E-01
       -2   -1    0    0    0  501  0.00000000000E+00  0.00000000000E+00  0.12197982248E+04  0.12197982248E+04  0.25500000920E-02 0. -1.
        2   -1    0    0  501    0  0.00000000000E+00  0.00000000000E+00 -0.25127379188E+04  0.25127379188E+04  0.25500000920E-02 0.  1.
    10030    2    1    2    0    0  0.00000000000E+00  0.00000000000E+00 -0.12929396940E+04  0.37325361437E+04  0.35014472738E+04 0.  0.
        5    1    3    3  502    0  0.16592042397E+04 -0.44441553478E+03 -0.10072551463E+04  0.19912430531E+04  0.46999998093E+01 0.  1.
       -5    1    3    3    0  502 -0.16592042397E+04  0.44441553478E+03 -0.28568454769E+03  0.17412930906E+04  0.46999998093E+01 0. -1.
</event>
<event>
 5   0  0.1013863E-07  0.3418926E+04  0.7818609E-02  0.8133277E-01
       -1   -1    0    0    0  501  0.00000000000E+00  0.00000000000E+00  0.19104614664E+04  0.19104614664E+04  0.50400001928E-02 0.  1.
        1   -1    0    0  501    0  0.00000000000E+00  0.00000000000E+00 -0.15296115192E+04  0.15296115192E+04  0.50400001928E-02 0. -1.
    10030    2    1    2    0    0  0.00000000000E+00  0.00000000000E+00  0.38084994725E+03  0.34400729856E+04  0.34189260688E+04 0.  0.
        2    1    3    3  502    0  0.23573971111E+03 -0.89583519716E+03  0.16360334073E+04  0.18800795785E+04  0.25500000920E-02 0.  1.
       -2    1    3    3    0  502 -0.23573971111E+03  0.89583519716E+03 -0.12551834600E+04  0.15599934071E+04  0.25500000920E-02 0. -1.
</event>
<event>
 5   0  0.2180451E-07  0.3501553E+04  0.7818609E-02  0.8113422E-01
       -2   -1    0    0    0  501  0.00000000000E+00  0.00000000000E+00  0.10430363808E+04  0.10430363808E+04  0.25500000920E-02 0.  1.
        2   -1    0    0  501    0  0.00000000000E+00  0.00000000000E+00 -0.29387460724E+04  0.29387460724E+04  0.25500000920E-02 0. -1.
    10030    2    1    2    0    0  0.00000000000E+00  0.00000000000E+00 -0.18957096916E+04  0.39817824532E+04  0.35015534081E+04 0.  0.
        4    1    3    3  502    0 -0.10116504108E+04 -0.36009383467E+03 -0.25202930546E+04  0.27395223703E+04  0.12699999809E+01 0. -1.
       -4    1    3    3    0  502  0.10116504108E+04  0.36009383467E+03  0.62458336297E+03  0.12422600830E+04  0.12699999809E+01 0.  1.
</event>
<event>
 5   0  0.3219205E-07  0.3514438E+04  0.7818609E-02  0.8110377E-01
       -2   -1    0    0    0  501  0.00000000000E+00  0.00000000000E+00  0.14220489503E+04  0.14220489503E+04  0.25500000920E-02 0.  1.
        2   -1    0    0  501    0  0.00000000000E+00  0.00000000000E+00 -0.21713874270E+04  0.21713874270E+04  0.25500000920E-02 0. -1.
    10030    2    1    2    0    0  0.00000000000E+00  0.00000000000E+00 -0.74933847672E+03  0.35934363772E+04  0.35144383399E+04 0.  0.
        2    1    3    3  502    0  0.83741834415E+03 -0.13780361925E+04  0.33928558094E+03  0.16478373513E+04  0.25500000920E-02 0.  1.
       -2    1    3    3    0  502 -0.83741834415E+03  0.13780361925E+04 -0.10886240577E+04  0.19455990260E+04  0.25500000920E-02 0. -1.
</event>
<event>
 5   0  0.1013863E-07  0.3500483E+04  0.7818609E-02  0.8113676E-01
       -1   -1    0    0    0  501  0.00000000000E+00  0.00000000000E+00  0.14908900386E+04  0.14908900386E+04  0.50400001928E-02 0. -1.
        1   -1    0    0  501    0  0.00000000000E+00  0.00000000000E+00 -0.20547088218E+04  0.20547088218E+04  0.50400001928E-02 0.  1.
    10030    2    1    2    0    0  0.00000000000E+00  0.00000000000E+00 -0.56381878321E+03  0.35455988604E+04  0.35004827751E+04 0.  0.
        5    1    3    3  502    0  0.15711240878E+04 -0.69673513266E+03  0.53190019378E+02  0.17195121438E+04  0.46999998093E+01 0.  1.
       -5    1    3    3    0  502 -0.15711240878E+04  0.69673513266E+03 -0.61700880259E+03  0.18260867167E+04  0.46999998093E+01 0. -1.
</event>
<event>
 5   0  0.3119048E-07  0.3497247E+04  0.7818609E-02  0.8114443E-01
        2   -1    0    0  501    0  0.00000000000E+00  0.00000000000E+00  0.15291604508E+04  0.15291604508E+04  0.25500000920E-02 0.  1.
       -2   -1    0    0    0  501  0.00000000000E+00  0.00000000000E+00 -0.19995831380E+04  0.19995831380E+04  0.25500000920E-02 0. -1.
    10030    2    1    2    0    0  0.00000000000E+00  0.00000000000E+00 -0.47042268728E+03  0.35287435888E+04  0.34972466042E+04 0.  0.
        3    1    3    3  502    0 -0.13142303600E+04  0.31226067075E+03  0.88518331361E+03  0.16150101159E+04  0.10100000352E+00 0.  1.
       -3    1    3    3    0  502  0.13142303600E+04 -0.31226067075E+03 -0.13556060009E+04  0.19137334729E+04  0.10100000352E+00 0. -1.
</event>
<event>
 5   0  0.3219205E-07  0.3526760E+04  0.7818609E-02  0.8107477E-01
        2   -1    0    0  501    0  0.00000000000E+00  0.00000000000E+00  0.26900654401E+04  0.26900654401E+04  0.25500000920E-02 0.  1.
       -2   -1    0    0    0  501  0.00000000000E+00  0.00000000000E+00 -0.11559232340E+04  0.11559232340E+04  0.25500000920E-02 0. -1.
    10030    2    1    2    0    0  0.00000000000E+00  0.00000000000E+00  0.15341422062E+04  0.38459886741E+04  0.35267600673E+04 0.  0.
        2    1    3    3  502    0 -0.16890370584E+04 -0.52523611464E+01  0.13195177514E+04  0.21433620479E+04  0.25500000920E-02 0.  1.
       -2    1    3    3    0  502  0.16890370584E+04  0.52523611464E+01  0.21462445472E+03  0.17026266262E+04  0.25500000920E-02 0. -1.
</event>
<event>
 5   0  0.3190112E-07  0.3501326E+04  0.7818609E-02  0.8113476E-01
        2   -1    0    0  501    0  0.00000000000E+00  0.00000000000E+00  0.24309154879E+04  0.24309154879E+04  0.25500000920E-02 0. -1.
       -2   -1    0    0    0  501  0.00000000000E+00  0.00000000000E+00 -0.12607680639E+04  0.12607680639E+04  0.25500000920E-02 0.  1.
    10030    2    1    2    0    0  0.00000000000E+00  0.00000000000E+00  0.11701474240E+04  0.36916835518E+04  0.35013258135E+04 0.  0.
        5    1    3    3  502    0  0.32619162291E+02  0.17471176883E+04  0.47292204861E+03  0.18102932306E+04  0.46999998093E+01 0.  1.
       -5    1    3    3    0  502 -0.32619162291E+02 -0.17471176883E+04  0.69722537541E+03  0.18813903212E+04  0.46999998093E+01 0. -1.
</event>
<event>
 5   0  0.1033796E-07  0.3531790E+04  0.7818609E-02  0.8106297E-01
       -1   -1    0    0    0  501  0.00000000000E+00  0.00000000000E+00  0.18798988881E+04  0.18798988881E+04  0.50400001928E-02 0.  1.
        1   -1    0    0  501    0  0.00000000000E+00  0.00000000000E+00 -0.16588051767E+04  0.16588051767E+04  0.50400001928E-02 0. -1.
    10030    2    1    2    0    0  0.00000000000E+00  0.00000000000E+00  0.22109371142E+03  0.35387040648E+04  0.35317904848E+04 0.  0.
        3    1    3    3  502    0  0.14920037956E+04  0.81947173302E+03 -0.36024179011E+03  0.17399377589E+04  0.10100000352E+00 0. -1.
       -3    1    3    3    0  502 -0.14920037956E+04 -0.81947173302E+03  0.58133550153E+03  0.17987663058E+04  0.10100000352E+00 0.  1.
</event>
<event>
 5   0  0.3190185E-07  0.3499204E+04  0.7818609E-02  0.8113979E-01
       -2   -1    0    0    0  501  0.00000000000E+00  0.00000000000E+00  0.18980035464E+04  0.18980035464E+04  0.25500000920E-02 0.  1.
        2   -1    0    0  501    0  0.00000000000E+00  0.00000000000E+00 -0.16128036849E+04  0.16128036849E+04  0.25500000920E-02 0. -1.
    10030    2    1    2    0    0  0.00000000000E+00  0.00000000000E+00  0.28519986145E+03  0.35108072313E+04  0.34992039744E+04 0.  0.
        1    1    3    3  502    0  0.79907451160E+03 -0.87120911673E+03 -0.11514761030E+04  0.16502795569E+04  0.50400001928E-02 0. -1.
       -1    1    3    3    0  502 -0.79907451160E+03  0.87120911673E+03  0.14366759645E+04  0.18605276744E+04  0.50400001928E-02 0.  1.
</event>
<event>
 5   0  0.1033796E-07  0.3487888E+04  0.7818609E-02  0.8116666E-01
       -1   -1    0    0    0  501  0.00000000000E+00  0.00000000000E+00  0.13543942839E+04  0.13543942839E+04  0.50400001928E-02 0. -1.
        1   -1    0    0  501    0  0.00000000000E+00  0.00000000000E+00 -0.22455361847E+04  0.22455361847E+04  0.50400001928E-02 0.  1.
    10030    2    1    2    0    0  0.00000000000E+00  0.00000000000E+00 -0.89114190082E+03  0.35999304686E+04  0.34878884000E+04 0.  0.
        3    1    3    3  502    0  0.65060479052E+03  0.11538283092E+03 -0.21113364105E+04  0.22123158092E+04  0.10100000352E+00 0.  1.
       -3    1    3    3    0  502 -0.65060479052E+03 -0.11538283092E+03  0.12201945097E+04  0.13876146593E+04  0.10100000352E+00 0. -1.
</event>
<event>
 5   0  0.3219205E-07  0.3492593E+04  0.7818609E-02  0.8115548E-01
        2   -1    0    0  501    0  0.00000000000E+00  0.00000000000E+00  0.26965113271E+04  0.26965113271E+04  0.25500000920E-02 0.  1.
       -2   -1    0    0    0  501  0.00000000000E+00  0.00000000000E+00 -0.11309246529E+04  0.11309246529E+04  0.25500000920E-02 0. -1.
    10030    2    1    2    0    0  0.00000000000E+00  0.00000000000E+00  0.15655866742E+04  0.38274359800E+04  0.34925928114E+04 0.  0.
        2    1    3    3  502    0  0.17005230238E+04  0.11478417378E+03  0.36607761644E+03  0.17432632567E+04  0.25500000920E-02 0. -1.
       -2    1    3    3    0  502 -0.17005230238E+04 -0.11478417378E+03  0.11995090577E+04  0.20841727233E+04  0.25500000920E-02 0.  1.
</event>
<event>
 5   0  0.3190185E-07  0.3505259E+04  0.7818609E-02  0.8112545E-01
        2   -1    0    0  501    0  0.00000000000E+00  0.00000000000E+00  0.19670123444E+04  0.19670123444E+04  0.25500000920E-02 0. -1.
       -2   -1    0    0    0  501  0.00000000000E+00  0.00000000000E+00 -0.15616118168E+04  0.15616118168E+04  0.25500000920E-02 0.  1.
    10030    2    1    2    0    0  0.00000000000E+00  0.00000000000E+00  0.40540052762E+03  0.35286241612E+04  0.35052587470E+04 0.  0.
        1    1    3    3  502    0 -0.76137983790E+03 -0.34755315124E+03 -0.13474399985E+04  0.15862178287E+04  0.50400001928E-02 0.  1.
       -1    1    3    3    0  502  0.76137983790E+03  0.34755315124E+03  0.17528405261E+04  0.19424063325E+04  0.50400001928E-02 0. -1.
</event>
<event>
 5   0  0.3190185E-07  0.3516700E+04  0.7818609E-02  0.8109844E-01
        2   -1    0    0  501    0  0.00000000000E+00  0.00000000000E+00  0.10268433161E+04  0.10268433161E+04  0.25500000920E-02 0.  1.
       -2   -1    0    0    0  501  0.00000000000E+00  0.00000000000E+00 -0.30109706399E+04  0.30109706399E+04  0.25500000920E-02 0. -1.
    10030    2    1    2    0    0  0.00000000000E+00  0.00000000000E+00 -0.19841273239E+04  0.40378139560E+04  0.35167002013E+04 0.  0.
        1    1    3    3  502    0  0.31344766193E+03 -0.48705608329E+02 -0.29778465033E+04  0.29946938859E+04  0.50400001928E-02 0. -1.
       -1    1    3    3    0  502 -0.31344766193E+03  0.48705608329E+02  0.99371917943E+03  0.10431200701E+04  0.50400001928E-02 0.  1.
</event>
<event>
 5   0  0.3119048E-07  0.3502183E+04  0.7818609E-02  0.8113273E-01
        2   -1    0    0  501    0  0.00000000000E+00  0.00000000000E+00  0.21178495254E+04  0.21178495254E+04  0.25500000920E-02 0.  1.
       -2   -1    0    0    0  501  0.00000000000E+00  0.00000000000E+00 -0.14478468860E+04  0.14478468860E+04  0.25500000920E-02 0. -1.
    10030    2    1    2    0    0  0.00000000000E+00  0.00000000000E+00  0.67000263936E+03  0.35656964115E+04  0.35021832279E+04 0.  0.
        3    1    3    3  502    0  0.36097588617E+02 -0.50145894486E+03 -0.13727845456E+04  0.14619512742E+04  0.10100000352E+00 0. -1.
       -3    1    3    3    0  502 -0.36097588617E+02  0.50145894486E+03  0.20427871850E+04  0.21037451373E+04  0.10100000352E+00 0.  1.
</event>
<event>
 5   0  0.1013863E-07  0.3492334E+04  0.7818609E-02  0.8115609E-01
        1   -1    0    0  501    0  0.00000000000E+00  0.00000000000E+00  0.23409308900E+04  0.23409308900E+04  0.50400001928E-02 0.  1.
       -1   -1    0    0    0  501  0.00000000000E+00  0.00000000000E+00 -0.13025153415E+04  0.13025153415E+04  0.50400001928E-02 0. -1.
    10030    2    1    2    0    0  0.00000000000E+00  0.00000000000E+00  0.10384155485E+04  0.36434462314E+04  0.34923335451E+04 0.  0.
        2    1    3    3  502    0  0.51740333035E+03 -0.93310433477E+03 -0.92288720924E+03  0.14107128364E+04  0.25500000920E-02 0. -1.
       -2    1    3    3    0  502 -0.51740333035E+03  0.93310433477E+03  0.19613027577E+04  0.22327333950E+04  0.25500000920E-02 0.  1.
</event>
<event>
 5   0  0.1033796E-07  0.3510494E+04  0.7818609E-02  0.8111307E-01
       -1   -1    0    0    0  501  0.00000000000E+00  0.00000000000E+00  0.12159302407E+04  0.12159302407E+04  0.50400001928E-02 0.  1.
        1   -1    0    0  501    0  0.00000000000E+00  0.00000000000E+00 -0.25337742001E+04  0.25337742001E+04  0.50400001928E-02 0. -1.
    10030    2    1    2    0    0  0.00000000000E+00  0.00000000000E+00 -0.13178439594E+04  0.37497044408E+04  0.35104943658E+04 0.  0.
        3    1    3    3  502    0  0.13969094329E+04 -0.79163948640E+02 -0.17909854899E+04  0.22727190609E+04  0.10100000352E+00 0. -1.
       -3    1    3    3    0  502 -0.13969094329E+04  0.79163948640E+02  0.47314153052E+03  0.14769853799E+04  0.10100000352E+00 0.  1.
</event>
<event>
 5   0  0.1013863E-07  0.3485838E+04  0.7818609E-02  0.8117154E-01
       -3   -1    0    0    0  501  0.00000000000E+00  0.00000000000E+00  0.13810604348E+04  0.13810604385E+04  0.10100000352E+00 0.  1.
        3   -1    0    0  501    0  0.00000000000E+00  0.00000000000E+00 -0.21995900502E+04  0.21995900525E+04  0.10100000352E+00 0. -1.
    10030    2    1    2    0    0  0.00000000000E+00  0.00000000000E+00 -0.81852961545E+03  0.35806504910E+04  0.34858380925E+04 0.  0.
        4    1    3    3  502    0  0.76973121838E+03  0.29854778487E+03 -0.19859900752E+04  0.21507615210E+04  0.12699999809E+01 0. -1.
       -4    1    3    3    0  502 -0.76973121838E+03 -0.29854778487E+03  0.11674604598E+04  0.14298889700E+04  0.12699999809E+01 0.  1.
</event>
<event>
 5   0  0.2180451E-07  0.3511296E+04  0.7818609E-02  0.8111118E-01
       -2   -1    0    0    0  501  0.00000000000E+00  0.00000000000E+00  0.27936415172E+04  0.27936415172E+04  0.25500000920E-02 0.  1.
        2   -1    0    0  501    0  0.00000000000E+00  0.00000000000E+00 -0.11033266344E+04  0.11033266344E+04  0.25500000920E-02 0. -1.
    10030    2    1    2    0    0  0.00000000000E+00  0.00000000000E+00  0.16903148828E+04  0.38969681516E+04  0.35112955403E+04 0.  0.
        4    1    3    3  502    0  0.94394496925E+03  0.23749967319E+02  0.24878302034E+04  0.26609954716E+04  0.12699999809E+01 0.  1.
       -4    1    3    3    0  502 -0.94394496925E+03 -0.23749967319E+02 -0.79751532069E+03  0.12359726799E+04  0.12699999809E+01 0. -1.
</event>
<event>
 5   0  0.1098171E-07  0.3507209E+04  0.7818609E-02  0.8112084E-01
       -1   -1    0    0    0  501  0.00000000000E+00  0.00000000000E+00  0.10454198099E+04  0.10454198099E+04  0.50400001928E-02 0.  1.
        1   -1    0    0  501    0  0.00000000000E+00  0.00000000000E+00 -0.29415249480E+04  0.29415249480E+04  0.50400001928E-02 0. -1.
    10030    2    1    2    0    0  0.00000000000E+00  0.00000000000E+00 -0.18961051381E+04  0.39869447580E+04  0.35072088344E+04 0.  0.
        4    1    3    3  502    0 -0.13587664322E+04  0.73862845911E+03 -0.83572965882E+01  0.15465735272E+04  0.12699999809E+01 0.  1.
       -4    1    3    3    0  502  0.13587664322E+04 -0.73862845911E+03 -0.18877478415E+04  0.24403712307E+04  0.12699999809E+01 0. -1.
</event>
<event>
 5   0  0.1013863E-07  0.3495633E+04  0.7818609E-02  0.8114826E-01
       -3   -1    0    0    0  501  0.00000000000E+00  0.00000000000E+00  0.15335518314E+04  0.15335518348E+04  0.10100000352E+00 0.  1.
        3   -1    0    0  501    0  0.00000000000E+00  0.00000000000E+00 -0.19920172794E+04  0.19920172819E+04  0.10100000352E+00 0. -1.
    10030    2    1    2    0    0  0.00000000000E+00  0.00000000000E+00 -0.45846544791E+03  0.35255691167E+04  0.34956325650E+04 0.  0.
        1    1    3    3  502    0 -0.12418438554E+04  0.11599626184E+04 -0.64160137457E+03  0.18164090291E+04  0.50400001928E-02 0. -1.
       -1    1    3    3    0  502  0.12418438554E+04 -0.11599626184E+04  0.18313592666E+03  0.17091600876E+04  0.50400001928E-02 0.  1.
</event>
<event>
 5   0  0.1072381E-07  0.3495797E+04  0.7818609E-02  0.8114787E-01
        1   -1    0    0  501    0  0.00000000000E+00  0.00000000000E+00  0.17484304979E+04  0.17484304979E+04  0.50400001928E-02 0. -1.
       -1   -1    0    0    0  501  0.00000000000E+00  0.00000000000E+00 -0.17473670154E+04  0.17473670154E+04  0.50400001928E-02 0.  1.
    10030    2    1    2    0    0  0.00000000000E+00  0.00000000000E+00  0.10634825040E+01  0.34957975134E+04  0.34957973516E+04 0.  0.
        1    1    3    3  502    0  0.11935368469E+04 -0.12640174246E+04  0.18185887505E+03  0.17479539196E+04  0.50400001928E-02 0. -1.
       -1    1    3    3    0  502 -0.11935368469E+04  0.12640174246E+04 -0.18079539255E+03  0.17478435938E+04  0.50400001928E-02 0.  1.
</event>
<event>
 5   0  0.3190185E-07  0.3517273E+04  0.7818609E-02  0.8109709E-01
       -2   -1    0    0    0  501  0.00000000000E+00  0.00000000000E+00  0.17088809788E+04  0.17088809788E+04  0.25500000920E-02 0. -1.
        2   -1    0    0  501    0  0.00000000000E+00  0.00000000000E+00 -0.18098411362E+04  0.18098411362E+04  0.25500000920E-02 0.  1.
    10030    2    1    2    0    0  0.00000000000E+00  0.00000000000E+00 -0.10096015741E+03  0.35187221150E+04  0.35172734283E+04 0.  0.
        1    1    3    3  502    0  0.58032718633E+03 -0.13280018804E+04 -0.10471004409E+04  0.17879563672E+04  0.50400001928E-02 0.  1.
       -1    1    3    3    0  502 -0.58032718633E+03  0.13280018804E+04  0.94614028352E+03  0.17307657478E+04  0.50400001928E-02 0. -1.
</event>
<event>
 5   0  0.1013863E-07  0.3504907E+04  0.7818609E-02  0.8112628E-01
       -1   -1    0    0    0  501  0.00000000000E+00  0.00000000000E+00  0.20325268248E+04  0.20325268248E+04  0.50400001928E-02 0.  1.
        1   -1    0    0  501    0  0.00000000000E+00  0.00000000000E+00 -0.15109733725E+04  0.15109733725E+04  0.50400001928E-02 0. -1.
    10030    2    1    2    0    0  0.00000000000E+00  0.00000000000E+00  0.52155345228E+03  0.35435001973E+04  0.35049073661E+04 0.  0.
        5    1    3    3  502    0  0.15144036909E+04 -0.50408916472E+03  0.99230972096E+03  0.18794214794E+04  0.46999998093E+01 0.  1.
       -5    1    3    3    0  502 -0.15144036909E+04  0.50408916472E+03 -0.47075626868E+03  0.16640787179E+04  0.46999998093E+01 0. -1.
</event>
<event>
 5   0  0.2180451E-07  0.3492793E+04  0.7818609E-02  0.8115500E-01
       -2   -1    0    0    0  501  0.00000000000E+00  0.00000000000E+00  0.12510715373E+04  0.12510715373E+04  0.25500000920E-02 0.  1.
        2   -1    0    0  501    0  0.00000000000E+00  0.00000000000E+00 -0.24378310715E+04  0.24378310715E+04  0.25500000920E-02 0. -1.
    10030    2    1    2    0    0  0.00000000000E+00  0.00000000000E+00 -0.11867595342E+04  0.36889026088E+04  0.34927931896E+04 0.  0.
        4    1    3    3  502    0  0.14696560671E+04 -0.83975386764E+03 -0.10474295054E+04  0.19905239751E+04  0.12699999809E+01 0.  1.
       -4    1    3    3    0  502 -0.14696560671E+04  0.83975386764E+03 -0.13933002880E+03  0.16983786338E+04  0.12699999809E+01 0. -1.
</event>
<event>
 5   0  0.2180451E-07  0.3503384E+04  0.7818609E-02  0.8112988E-01
        2   -1    0    0  501    0  0.00000000000E+00  0.00000000000E+00  0.17954688733E+04  0.17954688733E+04  0.25500000920E-02 0. -1.
       -2   -1    0    0    0  501  0.00000000000E+00  0.00000000000E+00 -0.17089826470E+04  0.17089826470E+04  0.25500000920E-02 0.  1.
    10030    2    1    2    0    0  0.00000000000E+00  0.00000000000E+00  0.86486226368E+02  0.35044515203E+04  0.35033841626E+04 0.  0.
        4    1    3    3  502    0 -0.72743988401E+03 -0.11698825394E+04  0.11255291205E+04  0.17789354555E+04  0.12699999809E+01 0. -1.
       -4    1    3    3    0  502  0.72743988401E+03  0.11698825394E+04 -0.10390428942E+04  0.17255160648E+04  0.12699999809E+01 0.  1.
</event>
<event>
 5   0  0.3190185E-07  0.3640937E+04  0.7818609E-02  0.8081178E-01
       -2   -1    0    0    0  501  0.00000000000E+00  0.00000000000E+00  0.15681259029E+04  0.15681259029E+04  0.25500000920E-02 0.  1.
        2   -1    0    0  501    0  0.00000000000E+00  0.00000000000E+00 -0.21134176835E+04  0.21134176835E+04  0.25500000920E-02 0. -1.
    10030    2    1    2    0    0  0.00000000000E+00  0.00000000000E+00 -0.54529178056E+03  0.36815435864E+04  0.36409366999E+04 0.  0.
        1    1    3    3  502    0  0.95503982253E+03  0.13329901212E+04  0.52683099050E+03  0.17223572854E+04  0.50400001928E-02 0. -1.
       -1    1    3    3    0  502 -0.95503982253E+03 -0.13329901212E+04 -0.10721227711E+04  0.19591863010E+04  0.50400001928E-02 0.  1.
</event>
<event>
 5   0  0.3219205E-07  0.3559471E+04  0.7818609E-02  0.8099839E-01
       -2   -1    0    0    0  501  0.00000000000E+00  0.00000000000E+00  0.12195491647E+04  0.12195491647E+04  0.25500000920E-02 0. -1.
        2   -1    0    0  501    0  0.00000000000E+00  0.00000000000E+00 -0.25972375279E+04  0.25972375279E+04  0.25500000920E-02 0.  1.
    10030    2    1    2    0    0  0.00000000000E+00  0.00000000000E+00 -0.13776883632E+04  0.38167866926E+04  0.35594712291E+04 0.  0.
        2    1    3    3  502    0 -0.65430905873E+03 -0.26700984393E+03 -0.24403392429E+04  0.25406043024E+04  0.25500000920E-02 0.  1.
       -2    1    3    3    0  502  0.65430905873E+03  0.26700984393E+03  0.10626508796E+04  0.12761823902E+04  0.25500000920E-02 0. -1.
</event>
<event>
 5   0  0.3190185E-07  0.3501353E+04  0.7818609E-02  0.8113469E-01
       -2   -1    0    0    0  501  0.00000000000E+00  0.00000000000E+00  0.13640611437E+04  0.13640611437E+04  0.25500000920E-02 0.  1.
        2   -1    0    0  501    0  0.00000000000E+00  0.00000000000E+00 -0.22468695322E+04  0.22468695322E+04  0.25500000920E-02 0. -1.
    10030    2    1    2    0    0  0.00000000000E+00  0.00000000000E+00 -0.88280838849E+03  0.36109306759E+04  0.35013525523E+04 0.  0.
        1    1    3    3  502    0  0.56931265434E+03 -0.11671662741E+03  0.12616797323E+04  0.13890915796E+04  0.50400001928E-02 0.  1.
       -1    1    3    3    0  502 -0.56931265434E+03  0.11671662741E+03 -0.21444881208E+04  0.22218390963E+04  0.50400001928E-02 0. -1.
</event>
<event>
 5   0  0.3119048E-07  0.3504119E+04  0.7818609E-02  0.8112815E-01
       -2   -1    0    0    0  501  0.00000000000E+00  0.00000000000E+00  0.13430790119E+04  0.13430790119E+04  0.25500000920E-02 0.  1.
        2   -1    0    0  501    0  0.00000000000E+00  0.00000000000E+00 -0.22855780891E+04  0.22855780891E+04  0.25500000920E-02 0. -1.
    10030    2    1    2    0    0  0.00000000000E+00  0.00000000000E+00 -0.94249907723E+03  0.36286571010E+04  0.35041186975E+04 0.  0.
        3    1    3    3  502    0  0.10644660794E+04  0.72570182971E+03 -0.17008774609E+04  0.21337092883E+04  0.10100000352E+00 0. -1.
       -3    1    3    3    0  502 -0.10644660794E+04 -0.72570182971E+03  0.75837838363E+03  0.14949478127E+04  0.10100000352E+00 0.  1.
</event>
<event>
 5   0  0.3219205E-07  0.3500576E+04  0.7818609E-02  0.8113653E-01
        2   -1    0    0  501    0  0.00000000000E+00  0.00000000000E+00  0.10829188128E+04  0.10829188128E+04  0.25500000920E-02 0. -1.
       -2   -1    0    0    0  501  0.00000000000E+00  0.00000000000E+00 -0.28289365451E+04  0.28289365451E+04  0.25500000920E-02 0.  1.
    10030    2    1    2    0    0  0.00000000000E+00  0.00000000000E+00 -0.17460177322E+04  0.39118553579E+04  0.35005762982E+04 0.  0.
        2    1    3    3  502    0 -0.48072851416E+03 -0.32182715289E+03  0.97299224021E+03  0.11319834452E+04  0.25500000920E-02 0. -1.
       -2    1    3    3    0  502  0.48072851416E+03  0.32182715289E+03 -0.27190099725E+04  0.27798719127E+04  0.25500000920E-02 0.  1.
</event>
<event>
 5   0  0.1033796E-07  0.3504600E+04  0.7818609E-02  0.8112701E-01
        1   -1    0    0  501    0  0.00000000000E+00  0.00000000000E+00  0.17490780222E+04  0.17490780222E+04  0.50400001928E-02 0.  1.
       -1   -1    0    0    0  501  0.00000000000E+00  0.00000000000E+00 -0.17555278915E+04  0.17555278915E+04  0.50400001928E-02 0. -1.
    10030    2    1    2    0    0  0.00000000000E+00  0.00000000000E+00 -0.64498692862E+01  0.35046059138E+04  0.35045999786E+04 0.  0.
        3    1    3    3  502    0 -0.12821210321E+04  0.11455766211E+04 -0.34141939627E+03  0.17529253693E+04  0.10100000352E+00 0. -1.
       -3    1    3    3    0  502  0.12821210321E+04 -0.11455766211E+04  0.33496952699E+03  0.17516805445E+04  0.10100000352E+00 0.  1.
</event>
<event>
 5   0  0.1072381E-07  0.3495672E+04  0.7818609E-02  0.8114816E-01
        1   -1    0    0  501    0  0.00000000000E+00  0.00000000000E+00  0.11304683001E+04  0.11304683002E+04  0.50400001928E-02 0.  1.
       -1   -1    0    0    0  501  0.00000000000E+00  0.00000000000E+00 -0.27023588564E+04  0.27023588564E+04  0.50400001928E-02 0. -1.
    10030    2    1    2    0    0  0.00000000000E+00  0.00000000000E+00 -0.15718905563E+04  0.38328271566E+04  0.34956721945E+04 0.  0.
        1    1    3    3  502    0 -0.14827164862E+04  0.72770168876E+03 -0.14128737284E+04  0.21735248098E+04  0.50400001928E-02 0. -1.
       -1    1    3    3    0  502  0.14827164862E+04 -0.72770168876E+03 -0.15901682783E+03  0.16593023468E+04  0.50400001928E-02 0.  1.
</event>
<event>
 5   0  0.3219205E-07  0.3504408E+04  0.7818609E-02  0.8112746E-01
       -2   -1    0    0    0  501  0.00000000000E+00  0.00000000000E+00  0.13309870993E+04  0.13309870993E+04  0.25500000920E-02 0. -1.
        2   -1    0    0  501    0  0.00000000000E+00  0.00000000000E+00 -0.23067227701E+04  0.23067227701E+04  0.25500000920E-02 0.  1.
    10030    2    1    2    0    0  0.00000000000E+00  0.00000000000E+00 -0.97573567082E+03  0.36377098694E+04  0.35044076525E+04 0.  0.
        2    1    3    3  502    0  0.13534559430E+04  0.49608987521E+02  0.66613692589E+03  0.15093185367E+04  0.25500000920E-02 0. -1.
       -2    1    3    3    0  502 -0.13534559430E+04 -0.49608987521E+02 -0.16418725967E+04  0.21283913327E+04  0.25500000920E-02 0.  1.
</event>
<event>
 5   0  0.3119048E-07  0.3500904E+04  0.7818609E-02  0.8113576E-01
        2   -1    0    0  501    0  0.00000000000E+00  0.00000000000E+00  0.15617194986E+04  0.15617194986E+04  0.25500000920E-02 0. -1.
       -2   -1    0    0    0  501  0.00000000000E+00  0.00000000000E+00 -0.19619925721E+04  0.19619925721E+04  0.25500000920E-02 0.  1.
    10030    2    1    2    0    0  0.00000000000E+00  0.00000000000E+00 -0.40027307355E+03  0.35237120707E+04  0.35009039152E+04 0.  0.
        3    1    3    3  502    0  0.85068956385E+03 -0.12184415169E+04  0.73099019497E+03  0.16560854868E+04  0.10100000352E+00 0.  1.
       -3    1    3    3    0  502 -0.85068956385E+03  0.12184415169E+04 -0.11312632685E+04  0.18676265839E+04  0.10100000352E+00 0. -1.
</event>
<event>
 5   0  0.3190112E-07  0.3415946E+04  0.7818609E-02  0.8134004E-01
        2   -1    0    0  501    0  0.00000000000E+00  0.00000000000E+00  0.18004520702E+04  0.18004520702E+04  0.25500000920E-02 0.  1.
       -2   -1    0    0    0  501  0.00000000000E+00  0.00000000000E+00 -0.16202440142E+04  0.16202440142E+04  0.25500000920E-02 0. -1.
    10030    2    1    2    0    0  0.00000000000E+00  0.00000000000E+00  0.18020805598E+03  0.34206960844E+04  0.34159459537E+04 0.  0.
        5    1    3    3  502    0  0.12162531534E+04  0.91002361592E+03  0.87204509269E+03  0.17515420202E+04  0.46999998093E+01 0.  1.
       -5    1    3    3    0  502 -0.12162531534E+04 -0.91002361592E+03 -0.69183703671E+03  0.16691540642E+04  0.46999998093E+01 0. -1.
</event>
<event>
 5   0  0.1013863E-07  0.3520020E+04  0.7818609E-02  0.8109062E-01
        1   -1    0    0  501    0  0.00000000000E+00  0.00000000000E+00  0.18243383792E+04  0.18243383792E+04  0.50400001928E-02 0.  1.
       -1   -1    0    0    0  501  0.00000000000E+00  0.00000000000E+00 -0.16979501509E+04  0.16979501509E+04  0.50400001928E-02 0. -1.
    10030    2    1    2    0    0  0.00000000000E+00  0.00000000000E+00  0.12638822830E+03  0.35222885302E+04  0.35200202422E+04 0.  0.
        2    1    3    3  502    0  0.10131550568E+04  0.13968638753E+04 -0.28332915755E+03  0.17487101723E+04  0.25500000920E-02 0. -1.
       -2    1    3    3    0  502 -0.10131550568E+04 -0.13968638753E+04  0.40971738585E+03  0.17735783579E+04  0.25500000920E-02 0.  1.
</event>
<event>
 5   0  0.1013863E-07  0.3501738E+04  0.7818609E-02  0.8113378E-01
        1   -1    0    0  501    0  0.00000000000E+00  0.00000000000E+00  0.21118460893E+04  0.21118460893E+04  0.50400001928E-02 0. -1.
       -1   -1    0    0    0  501  0.00000000000E+00  0.00000000000E+00 -0.14515937279E+04  0.14515937279E+04  0.50400001928E-02 0.  1.
    10030    2    1    2    0    0  0.00000000000E+00  0.00000000000E+00  0.66025236143E+03  0.35634398172E+04  0.35017381612E+04 0.  0.
        5    1    3    3  502    0  0.14339635376E+04  0.65497700965E+03  0.11053058369E+04  0.19253491614E+04  0.46999998093E+01 0. -1.
       -5    1    3    3    0  502 -0.14339635376E+04 -0.65497700965E+03 -0.44505347550E+03  0.16380906557E+04  0.46999998093E+01 0.  1.
</event>
<event>
 5   0  0.3190185E-07  0.3487065E+04  0.7818609E-02  0.8116862E-01
        2   -1    0    0  501    0  0.00000000000E+00  0.00000000000E+00  0.19839239133E+04  0.19839239133E+04  0.25500000920E-02 0.  1.
       -2   -1    0    0    0  501  0.00000000000E+00  0.00000000000E+00 -0.15322693843E+04  0.15322693843E+04  0.25500000920E-02 0. -1.
    10030    2    1    2    0    0  0.00000000000E+00  0.00000000000E+00  0.45165452901E+03  0.35161932977E+04  0.34870651690E+04 0.  0.
        1    1    3    3  502    0 -0.70460028814E+03  0.83747006474E+03  0.15944000130E+04  0.19338896237E+04  0.50400001928E-02 0.  1.
       -1    1    3    3    0  502  0.70460028814E+03 -0.83747006474E+03 -0.11427454840E+04  0.15823036739E+04  0.50400001928E-02 0. -1.
</event>
<event>
 5   0  0.2180451E-07  0.3477846E+04  0.7818609E-02  0.8119060E-01
       -2   -1    0    0    0  501  0.00000000000E+00  0.00000000000E+00  0.15960319112E+04  0.15960319112E+04  0.25500000920E-02 0.  1.
        2   -1    0    0  501    0  0.00000000000E+00  0.00000000000E+00 -0.18946067858E+04  0.18946067858E+04  0.25500000920E-02 0. -1.
    10030    2    1    2    0    0  0.00000000000E+00  0.00000000000E+00 -0.29857487460E+03  0.34906386971E+04  0.34778458215E+04 0.  0.
        4    1    3    3  502    0  0.17147577407E+04 -0.24831891014E+03 -0.29746139343E+03  0.17579935392E+04  0.12699999809E+01 0.  1.
       -4    1    3    3    0  502 -0.17147577407E+04  0.24831891014E+03 -0.11134811660E+01  0.17326451579E+04  0.12699999809E+01 0. -1.
</event>
<event>
 5   0  0.3219205E-07  0.3472219E+04  0.7818609E-02  0.8120405E-01
        2   -1    0    0  501    0  0.00000000000E+00  0.00000000000E+00  0.13592902222E+04  0.13592902222E+04  0.25500000920E-02 0. -1.
       -2   -1    0    0    0  501  0.00000000000E+00  0.00000000000E+00 -0.22173894384E+04  0.22173894384E+04  0.25500000920E-02 0.  1.
    10030    2    1    2    0    0  0.00000000000E+00  0.00000000000E+00 -0.85809921615E+03  0.35766796606E+04  0.34722187618E+04 0.  0.
        2    1    3    3  502    0 -0.79166589372E+03  0.13429799917E+04 -0.12160678330E+04  0.19771573331E+04  0.25500000920E-02 0.  1.
       -2    1    3    3    0  502  0.79166589372E+03 -0.13429799917E+04  0.35796861685E+03  0.15995223275E+04  0.25500000920E-02 0. -1.
</event>
<event>
 5   0  0.3219205E-07  0.3503209E+04  0.7818609E-02  0.8113030E-01
       -2   -1    0    0    0  501  0.00000000000E+00  0.00000000000E+00  0.33953223823E+04  0.33953223823E+04  0.25500000920E-02 0. -1.
        2   -1    0    0  501    0  0.00000000000E+00  0.00000000000E+00 -0.90363099905E+03  0.90363099905E+03  0.25500000920E-02 0.  1.
    10030    2    1    2    0    0  0.00000000000E+00  0.00000000000E+00  0.24916913833E+04  0.42989533814E+04  0.35032091325E+04 0.  0.
        2    1    3    3  502    0  0.85217210585E+03  0.15066102498E+04  0.15752308756E+04  0.23403897228E+04  0.25500000920E-02 0.  1.
       -2    1    3    3    0  502 -0.85217210585E+03 -0.15066102498E+04  0.91646050765E+03  0.19585636586E+04  0.25500000920E-02 0. -1.
</event>
<event>
 5   0  0.3190112E-07  0.3548165E+04  0.7818609E-02  0.8102469E-01
       -2   -1    0    0    0  501  0.00000000000E+00  0.00000000000E+00  0.14240910459E+04  0.14240910459E+04  0.25500000920E-02 0.  1.
        2   -1    0    0  501    0  0.00000000000E+00  0.00000000000E+00 -0.22100892887E+04  0.22100892887E+04  0.25500000920E-02 0. -1.
    10030    2    1    2    0    0  0.00000000000E+00  0.00000000000E+00 -0.78599824284E+03  0.36341803346E+04  0.35481648026E+04 0.  0.
        5    1    3    3  502    0  0.77288716003E+03 -0.15785617665E+04 -0.63995508980E+03  0.18705016492E+04  0.46999998093E+01 0.  1.
       -5    1    3    3    0  502 -0.77288716003E+03  0.15785617665E+04 -0.14604315303E+03  0.17636786854E+04  0.46999998093E+01 0. -1.
</event>
<event>
 5   0  0.1072381E-07  0.3479429E+04  0.7818609E-02  0.8118682E-01
       -1   -1    0    0    0  501  0.00000000000E+00  0.00000000000E+00  0.15300104046E+04  0.15300104046E+04  0.50400001928E-02 0.  1.
        1   -1    0    0  501    0  0.00000000000E+00  0.00000000000E+00 -0.19781602149E+04  0.19781602149E+04  0.50400001928E-02 0. -1.
    10030    2    1    2    0    0  0.00000000000E+00  0.00000000000E+00 -0.44814981035E+03  0.35081706195E+04  0.34794285225E+04 0.  0.
        1    1    3    3  502    0  0.11350368426E+04 -0.13178218000E+04 -0.26494094080E+03  0.17593057246E+04  0.50400001928E-02 0. -1.
       -1    1    3    3    0  502 -0.11350368426E+04  0.13178218000E+04 -0.18320886955E+03  0.17488648949E+04  0.50400001928E-02 0.  1.
</event>
<event>
 5   0  0.3190112E-07  0.3510922E+04  0.7818609E-02  0.8111207E-01
       -2   -1    0    0    0  501  0.00000000000E+00  0.00000000000E+00  0.13796788320E+04  0.13796788320E+04  0.25500000920E-02 0. -1.
        2   -1    0    0  501    0  0.00000000000E+00  0.00000000000E+00 -0.22335942515E+04  0.22335942515E+04  0.25500000920E-02 0.  1.
    10030    2    1    2    0    0  0.00000000000E+00  0.00000000000E+00 -0.85391541953E+03  0.36132730835E+04  0.35109216500E+04 0.  0.
        5    1    3    3  502    0  0.12170592090E+04  0.39223761797E+03  0.81082509170E+03  0.15141145552E+04  0.46999998093E+01 0. -1.
       -5    1    3    3    0  502 -0.12170592090E+04 -0.39223761797E+03 -0.16647405112E+04  0.20991585283E+04  0.46999998093E+01 0.  1.
</event>
<event>
 5   0  0.2180451E-07  0.3502141E+04  0.7818609E-02  0.8113283E-01
        2   -1    0    0  501    0  0.00000000000E+00  0.00000000000E+00  0.12478317740E+04  0.12478317740E+04  0.25500000920E-02 0.  1.
       -2   -1    0    0    0  501  0.00000000000E+00  0.00000000000E+00 -0.24572610109E+04  0.24572610109E+04  0.25500000920E-02 0. -1.
    10030    2    1    2    0    0  0.00000000000E+00  0.00000000000E+00 -0.12094292369E+04  0.37050927848E+04  0.35021412686E+04 0.  0.
        4    1    3    3  502    0  0.48553795688E+03 -0.28157611493E+03  0.11500855059E+04  0.12797384498E+04  0.12699999809E+01 0.  1.
       -4    1    3    3    0  502 -0.48553795688E+03  0.28157611493E+03 -0.23595147428E+04  0.24253543350E+04  0.12699999809E+01 0. -1.
</event>
<event>
 5   0  0.1098171E-07  0.3514577E+04  0.7818609E-02  0.8110344E-01
       -1   -1    0    0    0  501  0.00000000000E+00  0.00000000000E+00  0.12627594442E+04  0.12627594442E+04  0.50400001928E-02 0. -1.
        1   -1    0    0  501    0  0.00000000000E+00  0.00000000000E+00 -0.24454873830E+04  0.24454873831E+04  0.50400001928E-02 0.  1.
    10030    2    1    2    0    0  0.00000000000E+00  0.00000000000E+00 -0.11827279389E+04  0.37082468272E+04  0.35145766678E+04 0.  0.
        4    1    3    3  502    0  0.14863231643E+04 -0.91067732807E+03 -0.82627810480E+03  0.19290481756E+04  0.12699999809E+01 0.  1.
       -4    1    3    3    0  502 -0.14863231643E+04  0.91067732807E+03 -0.35644983409E+03  0.17791986516E+04  0.12699999809E+01 0. -1.
</event>
<event>
 5   0  0.1033796E-07  0.3512058E+04  0.7818609E-02  0.8110938E-01
        1   -1    0    0  501    0  0.00000000000E+00  0.00000000000E+00  0.17788985183E+04  0.17788985183E+04  0.50400001928E-02 0.  1.
       -1   -1    0    0    0  501  0.00000000000E+00  0.00000000000E+00 -0.17334539234E+04  0.17334539234E+04  0.50400001928E-02 0. -1.
    10030    2    1    2    0    0  0.00000000000E+00  0.00000000000E+00  0.45444594889E+02  0.35123524416E+04  0.35120584367E+04 0.  0.
        3    1    3    3  502    0  0.10101579696E+04 -0.14245310662E+04  0.20694065808E+03  0.17585597313E+04  0.10100000352E+00 0.  1.
       -3    1    3    3    0  502 -0.10101579696E+04  0.14245310662E+04 -0.16149606319E+03  0.17537927104E+04  0.10100000352E+00 0. -1.
</event>
<event>
 5   0  0.3190112E-07  0.3486098E+04  0.7818609E-02  0.8117092E-01
        2   -1    0    0  501    0  0.00000000000E+00  0.00000000000E+00  0.19587608738E+04  0.19587608738E+04  0.25500000920E-02 0. -1.
       -2   -1    0    0    0  501  0.00000000000E+00  0.00000000000E+00 -0.15510926153E+04  0.15510926153E+04  0.25500000920E-02 0.  1.
    10030    2    1    2    0    0  0.00000000000E+00  0.00000000000E+00  0.40766825849E+03  0.35098534891E+04  0.34860978337E+04 0.  0.
        5    1    3    3  502    0  0.36356240003E+03  0.18952896273E+03  0.19095151808E+04  0.19530410037E+04  0.46999998093E+01 0. -1.
       -5    1    3    3    0  502 -0.36356240003E+03 -0.18952896273E+03 -0.15018469224E+04  0.15568124854E+04  0.46999998093E+01 0.  1.
</event>
<event>
 5   0  0.3190112E-07  0.3499958E+04  0.7818609E-02  0.8113800E-01
        2   -1    0    0  501    0  0.00000000000E+00  0.00000000000E+00  0.19096683555E+04  0.19096683555E+04  0.25500000920E-02 0. -1.
       -2   -1    0    0    0  501  0.00000000000E+00  0.00000000000E+00 -0.16036428979E+04  0.16036428979E+04  0.25500000920E-02 0.  1.
    10030    2    1    2    0    0  0.00000000000E+00  0.00000000000E+00  0.30602545759E+03  0.35133112535E+04  0.34999577687E+04 0.  0.
        5    1    3    3  502    0 -0.26900554733E+03 -0.26573264081E+03  0.18681645633E+04  0.19060531857E+04  0.46999998093E+01 0. -1.
       -5    1    3    3    0  502  0.26900554733E+03  0.26573264081E+03 -0.15621391057E+04  0.16072580678E+04  0.46999998093E+01 0.  1.
</event>
<event>
 5   0  0.3219205E-07  0.3515999E+04  0.7818609E-02  0.8110009E-01
        2   -1    0    0  501    0  0.00000000000E+00  0.00000000000E+00  0.23650721663E+04  0.23650721663E+04  0.25500000920E-02 0.  1.
       -2   -1    0    0    0  501  0.00000000000E+00  0.00000000000E+00 -0.13067514643E+04  0.13067514643E+04  0.25500000920E-02 0. -1.
    10030    2    1    2    0    0  0.00000000000E+00  0.00000000000E+00  0.10583207020E+04  0.36718236306E+04  0.35159985874E+04 0.  0.
        2    1    3    3  502    0  0.88165613963E+03 -0.76613509445E+02 -0.10571645798E+04  0.13786892787E+04  0.25500000920E-02 0. -1.
       -2    1    3    3    0  502 -0.88165613963E+03  0.76613509445E+02  0.21154852818E+04  0.22931343519E+04  0.25500000920E-02 0.  1.
</event>
<event>
 5   0  0.2180451E-07  0.3480439E+04  0.7818609E-02  0.8118441E-01
        2   -1    0    0  501    0  0.00000000000E+00  0.00000000000E+00  0.21272791132E+04  0.21272791132E+04  0.25500000920E-02 0.  1.
       -2   -1    0    0    0  501  0.00000000000E+00  0.00000000000E+00 -0.14235856378E+04  0.14235856378E+04  0.25500000920E-02 0. -1.
    10030    2    1    2    0    0  0.00000000000E+00  0.00000000000E+00  0.70369347540E+03  0.35508647509E+04  0.34804390487E+04 0.  0.
        4    1    3    3  502    0 -0.52401962030E+03  0.12522140209E+03  0.20400455655E+04  0.21099915839E+04  0.12699999809E+01 0.  1.
       -4    1    3    3    0  502  0.52401962030E+03 -0.12522140209E+03 -0.13363520901E+04  0.14408731670E+04  0.12699999809E+01 0. -1.
</event>
<event>
 5   0  0.1072381E-07  0.3496207E+04  0.7818609E-02  0.8114690E-01
        1   -1    0    0  501    0  0.00000000000E+00  0.00000000000E+00  0.19943878899E+04  0.19943878899E+04  0.50400001928E-02 0. -1.
       -1   -1    0    0    0  501  0.00000000000E+00  0.00000000000E+00 -0.15322321397E+04  0.15322321397E+04  0.50400001928E-02 0.  1.
    10030    2    1    2    0    0  0.00000000000E+00  0.00000000000E+00  0.46215575020E+03  0.35266200295E+04  0.34962066437E+04 0.  0.
        1    1    3    3  502    0  0.10492700108E+04 -0.84988404797E+03 -0.88880276521E+03  0.16165521352E+04  0.50400001928E-02 0.  1.
       -1    1    3    3    0  502 -0.10492700108E+04  0.84988404797E+03  0.13509585154E+04  0.19100678943E+04  0.50400001928E-02 0. -1.
</event>
<event>
 5   0  0.1072381E-07  0.3505120E+04  0.7818609E-02  0.8112578E-01
        1   -1    0    0  501    0  0.00000000000E+00  0.00000000000E+00  0.25914294291E+04  0.25914294291E+04  0.50400001928E-02 0.  1.
       -1   -1    0    0    0  501  0.00000000000E+00  0.00000000000E+00 -0.11852401280E+04  0.11852401280E+04  0.50400001928E-02 0. -1.
    10030    2    1    2    0    0  0.00000000000E+00  0.00000000000E+00  0.14061893011E+04  0.37766695571E+04  0.35051197687E+04 0.  0.
        1    1    3    3  502    0 -0.41257475746E+03  0.16062974798E+04  0.13136104996E+04  0.21156516889E+04  0.50400001928E-02 0. -1.
       -1    1    3    3    0  502  0.41257475746E+03 -0.16062974798E+04  0.92578801512E+02  0.16610178682E+04  0.50400001928E-02 0.  1.
</event>
<event>
 5   0  0.1033796E-07  0.3493654E+04  0.7818609E-02  0.8115296E-01
        1   -1    0    0  501    0  0.00000000000E+00  0.00000000000E+00  0.17098965539E+04  0.17098965539E+04  0.50400001928E-02 0.  1.
       -1   -1    0    0    0  501  0.00000000000E+00  0.00000000000E+00 -0.17845549004E+04  0.17845549004E+04  0.50400001928E-02 0. -1.
    10030    2    1    2    0    0  0.00000000000E+00  0.00000000000E+00 -0.74658346493E+02  0.34944514543E+04  0.34936538320E+04 0.  0.
        3    1    3    3  502    0  0.12743272106E+04  0.23294397156E+03  0.11347879866E+04  0.17221836483E+04  0.10100000352E+00 0.  1.
       -3    1    3    3    0  502 -0.12743272106E+04 -0.23294397156E+03 -0.12094463331E+04  0.17722678061E+04  0.10100000352E+00 0. -1.
</event>
<event>
 5   0  0.2180451E-07  0.3491184E+04  0.7818609E-02  0.8115882E-01
        2   -1    0    0  501    0  0.00000000000E+00  0.00000000000E+00  0.27961811869E+04  0.27961811869E+04  0.25500000920E-02 0.  1.
       -2   -1    0    0    0  501  0.00000000000E+00  0.00000000000E+00 -0.10897329358E+04  0.10897329358E+04  0.25500000920E-02 0. -1.
    10030    2    1    2    0    0  0.00000000000E+00  0.00000000000E+00  0.17064482511E+04  0.38859141227E+04  0.34911836010E+04 0.  0.
        4    1    3    3  502    0  0.15333334491E+04 -0.14761466854E+03 -0.60701550247E+02  0.15416185804E+04  0.12699999809E+01 0. -1.
       -4    1    3    3    0  502 -0.15333334491E+04  0.14761466854E+03  0.17671498013E+04  0.23442955423E+04  0.12699999809E+01 0.  1.
</event>
<event>
 5   0  0.1013863E-07  0.3497652E+04  0.7818609E-02  0.8114347E-01
       -1   -1    0    0    0  501  0.00000000000E+00  0.00000000000E+00  0.16654654965E+04  0.16654654965E+04  0.50400001928E-02 0.  1.
        1   -1    0    0  501    0  0.00000000000E+00  0.00000000000E+00 -0.18363587721E+04  0.18363587721E+04  0.50400001928E-02 0. -1.
    10030    2    1    2    0    0  0.00000000000E+00  0.00000000000E+00 -0.17089327558E+03  0.35018242686E+04  0.34976518833E+04 0.  0.
        5    1    3    3  502    0 -0.69816235545E+03 -0.13849470645E+04 -0.89440867430E+03  0.17903904638E+04  0.46999998093E+01 0. -1.
       -5    1    3    3    0  502  0.69816235545E+03  0.13849470645E+04  0.72351539873E+03  0.17114338048E+04  0.46999998093E+01 0.  1.
</event>
<event>
 5   0  0.2180451E-07  0.3496593E+04  0.7818609E-02  0.8114598E-01
       -2   -1    0    0    0  501  0.00000000000E+00  0.00000000000E+00  0.17031418120E+04  0.17031418120E+04  0.25500000920E-02 0. -1.
        2   -1    0    0  501    0  0.00000000000E+00  0.00000000000E+00 -0.17946479908E+04  0.17946479908E+04  0.25500000920E-02 0.  1.
    10030    2    1    2    0    0  0.00000000000E+00  0.00000000000E+00 -0.91506178785E+02  0.34977898027E+04  0.34965926448E+04 0.  0.
        4    1    3    3  502    0  0.95426810318E+03 -0.13816120638E+04  0.44130056860E+03  0.17361530210E+04  0.12699999809E+01 0. -1.
       -4    1    3    3    0  502 -0.95426810318E+03  0.13816120638E+04 -0.53280674738E+03  0.17616367817E+04  0.12699999809E+01 0.  1.
</event>
<event>
 5   0  0.1098171E-07  0.3496099E+04  0.7818609E-02  0.8114715E-01
        1   -1    0    0  501    0  0.00000000000E+00  0.00000000000E+00  0.25247226446E+04  0.25247226446E+04  0.50400001928E-02 0.  1.
       -1   -1    0    0    0  501  0.00000000000E+00  0.00000000000E+00 -0.12103024008E+04  0.12103024008E+04  0.50400001928E-02 0. -1.
    10030    2    1    2    0    0  0.00000000000E+00  0.00000000000E+00  0.13144202438E+04  0.37350250454E+04  0.34960994712E+04 0.  0.
        4    1    3    3  502    0  0.72330271355E+02  0.11112304647E+04  0.20967416937E+04  0.23741087079E+04  0.12699999809E+01 0.  1.
       -4    1    3    3    0  502 -0.72330271355E+02 -0.11112304647E+04 -0.78232144993E+03  0.13609163375E+04  0.12699999809E+01 0. -1.
</event>
<event>
 5   0  0.1013863E-07  0.3503392E+04  0.7818609E-02  0.8112987E-01
       -1   -1    0    0    0  501  0.00000000000E+00  0.00000000000E+00  0.12755258567E+04  0.12755258567E+04  0.50400001928E-02 0.  1.
        1   -1    0    0  501    0  0.00000000000E+00  0.00000000000E+00 -0.24056260602E+04  0.24056260602E+04  0.50400001928E-02 0. -1.
    10030    2    1    2    0    0  0.00000000000E+00  0.00000000000E+00 -0.11301002035E+04  0.36811519169E+04  0.35033916375E+04 0.  0.
        5    1    3    3  502    0 -0.11975156169E+04 -0.74969987763E+03 -0.16531224654E+04  0.21746102030E+04  0.46999998093E+01 0. -1.
       -5    1    3    3    0  502  0.11975156169E+04  0.74969987763E+03  0.52302226191E+03  0.15065417139E+04  0.46999998093E+01 0.  1.
</event>
<event>
 5   0  0.2180451E-07  0.3513414E+04  0.7818609E-02  0.8110618E-01
       -2   -1    0    0    0  501  0.00000000000E+00  0.00000000000E+00  0.15466953184E+04  0.15466953184E+04  0.25500000920E-02 0. -1.
        2   -1    0    0  501    0  0.00000000000E+00  0.00000000000E+00 -0.19952341322E+04  0.19952341322E+04  0.25500000920E-02 0.  1.
    10030    2    1    2    0    0  0.00000000000E+00  0.00000000000E+00 -0.44853881384E+03  0.35419294506E+04  0.35134138904E+04 0.  0.
        4    1    3    3  502    0 -0.11111539397E+03  0.11884126862E+04  0.10751240676E+04  0.16064136195E+04  0.12699999809E+01 0. -1.
       -4    1    3    3    0  502  0.11111539397E+03 -0.11884126862E+04 -0.15236628814E+04  0.19355158311E+04  0.12699999809E+01 0.  1.
</event>
<event>
 5   0  0.1033796E-07  0.3662786E+04  0.7818609E-02  0.8076259E-01
       -1   -1    0    0    0  501  0.00000000000E+00  0.00000000000E+00  0.17460023997E+04  0.17460023997E+04  0.50400001928E-02 0.  1.
        1   -1    0    0  501    0  0.00000000000E+00  0.00000000000E+00 -0.19209600522E+04  0.19209600522E+04  0.50400001928E-02 0. -1.
    10030    2    1    2    0    0  0.00000000000E+00  0.00000000000E+00 -0.17495765249E+03  0.36669624519E+04  0.36627862951E+04 0.  0.
        3    1    3    3  502    0 -0.16345848447E+04 -0.74171499157E+03 -0.45120023469E+03  0.18508350562E+04  0.10100000352E+00 0. -1.
       -3    1    3    3    0  502  0.16345848447E+04  0.74171499157E+03  0.27624258220E+03  0.18161273958E+04  0.10100000352E+00 0.  1.
</event>
<event>
 5   0  0.3219205E-07  0.3509212E+04  0.7818609E-02  0.8111610E-01
       -2   -1    0    0    0  501  0.00000000000E+00  0.00000000000E+00  0.14456975183E+04  0.14456975183E+04  0.25500000920E-02 0. -1.
        2   -1    0    0  501    0  0.00000000000E+00  0.00000000000E+00 -0.21295198057E+04  0.21295198057E+04  0.25500000920E-02 0.  1.
    10030    2    1    2    0    0  0.00000000000E+00  0.00000000000E+00 -0.68382228748E+03  0.35752173240E+04  0.35092115914E+04 0.  0.
        2    1    3    3  502    0 -0.56312145482E+03  0.16586067950E+04 -0.23722024877E+03  0.17675847136E+04  0.25500000920E-02 0.  1.
       -2    1    3    3    0  502  0.56312145482E+03 -0.16586067950E+04 -0.44660203872E+03  0.18076326104E+04  0.25500000920E-02 0. -1.
</event>
<event>
 5   0  0.3219205E-07  0.3496715E+04  0.7818609E-02  0.8114569E-01
       -2   -1    0    0    0  501  0.00000000000E+00  0.00000000000E+00  0.14967762596E+04  0.14967762596E+04  0.25500000920E-02 0.  1.
        2   -1    0    0  501    0  0.00000000000E+00  0.00000000000E+00 -0.20422251816E+04  0.20422251816E+04  0.25500000920E-02 0. -1.
    10030    2    1    2    0    0  0.00000000000E+00  0.00000000000E+00 -0.54544892201E+03  0.35390014412E+04  0.34967151263E+04 0.  0.
        2    1    3    3  502    0 -0.17416934614E+04  0.14034134562E+02 -0.11902919919E+03  0.17458124243E+04  0.25500000920E-02 0.  1.
       -2    1    3    3    0  502  0.17416934614E+04 -0.14034134562E+02 -0.42641972282E+03  0.17931890169E+04  0.25500000920E-02 0. -1.
</event>
<event>
 5   0  0.2180451E-07  0.3507073E+04  0.7818609E-02  0.8112116E-01
        2   -1    0    0  501    0  0.00000000000E+00  0.00000000000E+00  0.18446939591E+04  0.18446939591E+04  0.25500000920E-02 0.  1.
       -2   -1    0    0    0  501  0.00000000000E+00  0.00000000000E+00 -0.16668834183E+04  0.16668834184E+04  0.25500000920E-02 0. -1.
    10030    2    1    2    0    0  0.00000000000E+00  0.00000000000E+00  0.17781054076E+03  0.35115773775E+04  0.35070727237E+04 0.  0.
        4    1    3    3  502    0 -0.86222684280E+03 -0.96190222790E+03 -0.10984497019E+04  0.16956663542E+04  0.12699999809E+01 0. -1.
       -4    1    3    3    0  502  0.86222684280E+03  0.96190222790E+03  0.12762602426E+04  0.18159110232E+04  0.12699999809E+01 0.  1.
</event>
<event>
 5   0  0.3119048E-07  0.3499044E+04  0.7818609E-02  0.8114017E-01
       -2   -1    0    0    0  501  0.00000000000E+00  0.00000000000E+00  0.11566640204E+04  0.11566640204E+04  0.25500000920E-02 0. -1.
        2   -1    0    0  501    0  0.00000000000E+00  0.00000000000E+00 -0.26462542228E+04  0.26462542228E+04  0.25500000920E-02 0.  1.
    10030    2    1    2    0    0  0.00000000000E+00  0.00000000000E+00 -0.14895902024E+04  0.38029182431E+04  0.34990438970E+04 0.  0.
        3    1    3    3  502    0  0.63151106172E+03  0.14509857368E+04 -0.15556872155E+04  0.22190828178E+04  0.10100000352E+00 0.  1.
       -3    1    3    3    0  502 -0.63151106172E+03 -0.14509857368E+04  0.66097013062E+02  0.15838354254E+04  0.10100000352E+00 0. -1.
</event>
<event>
 5   0  0.3190185E-07  0.3510256E+04  0.7818609E-02  0.8111364E-01
        2   -1    0    0  501    0  0.00000000000E+00  0.00000000000E+00  0.24822542227E+04  0.24822542227E+04  0.25500000920E-02 0.  1.
       -2   -1    0    0    0  501  0.00000000000E+00  0.00000000000E+00 -0.12409990236E+04  0.12409990236E+04  0.25500000920E-02 0. -1.
    10030    2    1    2    0    0  0.00000000000E+00  0.00000000000E+00  0.12412551991E+04  0.37232532464E+04  0.35102564390E+04 0.  0.
        1    1    3    3  502    0  0.11064025461E+04 -0.11881591611E+04  0.13278911825E+04  0.20974135926E+04  0.50400001928E-02 0.  1.
       -1    1    3    3    0  502 -0.11064025461E+04  0.11881591611E+04 -0.86635983332E+02  0.16258396538E+04  0.50400001928E-02 0. -1.
</event>
<event>
 5   0  0.3119048E-07  0.3511669E+04  0.7818609E-02  0.8111030E-01
        2   -1    0    0  501    0  0.00000000000E+00  0.00000000000E+00  0.19974794055E+04  0.19974794055E+04  0.25500000920E-02 0. -1.
       -2   -1    0    0    0  501  0.00000000000E+00  0.00000000000E+00 -0.15434226435E+04  0.15434226435E+04  0.25500000920E-02 0.  1.
    10030    2    1    2    0    0  0.00000000000E+00  0.00000000000E+00  0.45405676205E+03  0.35409020490E+04  0.35116690871E+04 0.  0.
        3    1    3    3  502    0 -0.50331195381E+03 -0.16300588141E+04  0.64586589203E+03  0.18241593738E+04  0.10100000352E+00 0. -1.
       -3    1    3    3    0  502  0.50331195381E+03  0.16300588141E+04 -0.19180912998E+03  0.17167426752E+04  0.10100000352E+00 0.  1.
</event>
<event>
 5   0  0.1013863E-07  0.3501404E+04  0.7818609E-02  0.8113457E-01
       -1   -1    0    0    0  501  0.00000000000E+00  0.00000000000E+00  0.19766347307E+04  0.19766347307E+04  0.50400001928E-02 0.  1.
        1   -1    0    0  501    0  0.00000000000E+00  0.00000000000E+00 -0.15505934820E+04  0.15505934820E+04  0.50400001928E-02 0. -1.
    10030    2    1    2    0    0  0.00000000000E+00  0.00000000000E+00  0.42604124867E+03  0.35272282127E+04  0.35014036784E+04 0.  0.
        2    1    3    3  502    0 -0.10635855866E+04 -0.13799117617E+04  0.39745717019E+02  0.17426848516E+04  0.25500000920E-02 0. -1.
       -2    1    3    3    0  502  0.10635855866E+04  0.13799117617E+04  0.38629553165E+03  0.17845433611E+04  0.25500000920E-02 0.  1.
</event>
<event>
 5   0  0.1033796E-07  0.3489204E+04  0.7818609E-02  0.8116353E-01
        1   -1    0    0  501    0  0.00000000000E+00  0.00000000000E+00  0.20590691242E+04  0.20590691242E+04  0.50400001928E-02 0.  1.
       -1   -1    0    0    0  501  0.00000000000E+00  0.00000000000E+00 -0.14781614711E+04  0.14781614712E+04  0.50400001928E-02 0. -1.
    10030    2    1    2    0    0  0.00000000000E+00  0.00000000000E+00  0.58090765310E+03  0.35372305954E+04  0.34892042909E+04 0.  0.
        3    1    3    3  502    0 -0.42918166658E+03  0.13797867329E+04 -0.70056402386E+03  0.16058637218E+04  0.10100000352E+00 0. -1.
       -3    1    3    3    0  502  0.42918166658E+03 -0.13797867329E+04  0.12814716770E+04  0.19313668736E+04  0.10100000352E+00 0.  1.
</event>
<event>
 5   0  0.2180451E-07  0.3492206E+04  0.7818609E-02  0.8115639E-01
       -2   -1    0    0    0  501  0.00000000000E+00  0.00000000000E+00  0.12411645157E+04  0.12411645157E+04  0.25500000920E-02 0. -1.
        2   -1    0    0  501    0  0.00000000000E+00  0.00000000000E+00 -0.24564642813E+04  0.24564642813E+04  0.25500000920E-02 0.  1.
    10030    2    1    2    0    0  0.00000000000E+00  0.00000000000E+00 -0.12152997656E+04  0.36976287970E+04  0.34922063513E+04 0.  0.
        4    1    3    3  502    0 -0.14188557938E+04 -0.75226743827E+02  0.46697152443E+03  0.14956185490E+04  0.12699999809E+01 0. -1.
       -4    1    3    3    0  502  0.14188557938E+04  0.75226743827E+02 -0.16822712900E+04  0.22020102480E+04  0.12699999809E+01 0.  1.
</event>
<event>
 5   0  0.3219205E-07  0.3516851E+04  0.7818609E-02  0.8109808E-01
        2   -1    0    0  501    0  0.00000000000E+00  0.00000000000E+00  0.19939078613E+04  0.19939078613E+04  0.25500000920E-02 0. -1.
       -2   -1    0    0    0  501  0.00000000000E+00  0.00000000000E+00 -0.15507538995E+04  0.15507538995E+04  0.25500000920E-02 0.  1.
    10030    2    1    2    0    0  0.00000000000E+00  0.00000000000E+00  0.44315396176E+03  0.35446617608E+04  0.35168510865E+04 0.  0.
        2    1    3    3  502    0  0.95820083140E+03  0.12673523081E+03 -0.12590014576E+04  0.15872288185E+04  0.25500000920E-02 0.  1.
       -2    1    3    3    0  502 -0.95820083140E+03 -0.12673523081E+03  0.17021554193E+04  0.19574329423E+04  0.25500000920E-02 0. -1.
</event>
<event>
 5   0  0.1013863E-07  0.3504509E+04  0.7818609E-02  0.8112722E-01
        1   -1    0    0  501    0  0.00000000000E+00  0.00000000000E+00  0.19541436598E+04  0.19541436598E+04  0.50400001928E-02 0.  1.
       -1   -1    0    0    0  501  0.00000000000E+00  0.00000000000E+00 -0.15712229766E+04  0.15712229766E+04  0.50400001928E-02 0. -1.
    10030    2    1    2    0    0  0.00000000000E+00  0.00000000000E+00  0.38292068317E+03  0.35253666364E+04  0.35045087632E+04 0.  0.
        5    1    3    3  502    0 -0.15801542362E+04 -0.72919106696E+03 -0.14124064852E+02  0.17403530106E+04  0.46999998093E+01 0. -1.
       -5    1    3    3    0  502  0.15801542362E+04  0.72919106696E+03  0.39704474802E+03  0.17850136258E+04  0.46999998093E+01 0.  1.
</event>
<event>
 5   0  0.1013863E-07  0.3516282E+04  0.7818609E-02  0.8109942E-01
        1   -1    0    0  501    0  0.00000000000E+00  0.00000000000E+00  0.20397708807E+04  0.20397708807E+04  0.50400001928E-02 0.  1.
       -1   -1    0    0    0  501  0.00000000000E+00  0.00000000000E+00 -0.15153957167E+04  0.15153957168E+04  0.50400001928E-02 0. -1.
    10030    2    1    2    0    0  0.00000000000E+00  0.00000000000E+00  0.52437516399E+03  0.35551665975E+04  0.35162821592E+04 0.  0.
        2    1    3    3  502    0 -0.17421612280E+04  0.23623408622E+03  0.27361603380E+03  0.17792689571E+04  0.25500000920E-02 0. -1.
       -2    1    3    3    0  502  0.17421612280E+04 -0.23623408622E+03  0.25075913019E+03  0.17758976404E+04  0.25500000920E-02 0.  1.
</event>
<event>
 5   0  0.3190112E-07  0.3455435E+04  0.7818609E-02  0.8124433E-01
       -2   -1    0    0    0  501  0.00000000000E+00  0.00000000000E+00  0.20691373214E+04  0.20691373214E+04  0.25500000920E-02 0. -1.
        2   -1    0    0  501    0  0.00000000000E+00  0.00000000000E+00 -0.14426339807E+04  0.14426339807E+04  0.25500000920E-02 0.  1.
    10030    2    1    2    0    0  0.00000000000E+00  0.00000000000E+00  0.62650334065E+03  0.35117713021E+04  0.34554350294E+04 0.  0.
        5    1    3    3  502    0 -0.14338007705E+04  0.40508199719E+03 -0.57571470172E+03  0.15972932047E+04  0.46999998093E+01 0.  1.
       -5    1    3    3    0  502  0.14338007705E+04 -0.40508199719E+03  0.12022180424E+04  0.19144780974E+04  0.46999998093E+01 0. -1.
</event>
<event>
 5   0  0.3190112E-07  0.3511334E+04  0.7818609E-02  0.8111109E-01
       -2   -1    0    0    0  501  0.00000000000E+00  0.00000000000E+00  0.12083508455E+04  0.12083508455E+04  0.25500000920E-02 0. -1.
        2   -1    0    0  501    0  0.00000000000E+00  0.00000000000E+00 -0.25508865663E+04  0.25508865663E+04  0.25500000920E-02 0.  1.
    10030    2    1    2    0    0  0.00000000000E+00  0.00000000000E+00 -0.13425357208E+04  0.37592374117E+04  0.35113336151E+04 0.  0.
        5    1    3    3  502    0  0.27995911642E+03 -0.75032009964E+03 -0.23439381690E+04  0.24769791257E+04  0.46999998093E+01 0.  1.
       -5    1    3    3    0  502 -0.27995911642E+03  0.75032009964E+03  0.10014024483E+04  0.12822582861E+04  0.46999998093E+01 0. -1.
</event>
<event>
 5   0  0.1072381E-07  0.3510802E+04  0.7818609E-02  0.8111235E-01
        1   -1    0    0  501    0  0.00000000000E+00  0.00000000000E+00  0.18754759524E+04  0.18754759524E+04  0.50400001928E-02 0. -1.
       -1   -1    0    0    0  501  0.00000000000E+00  0.00000000000E+00 -0.16430137862E+04  0.16430137862E+04  0.50400001928E-02 0.  1.
    10030    2    1    2    0    0  0.00000000000E+00  0.00000000000E+00  0.23246216617E+03  0.35184897386E+04  0.35108020995E+04 0.  0.
        1    1    3    3  502    0  0.14065651444E+03  0.17404059030E+04  0.29728070634E+03  0.17712065889E+04  0.50400001928E-02 0.  1.
       -1    1    3    3    0  502 -0.14065651444E+03 -0.17404059030E+04 -0.64818540167E+02  0.17472831497E+04  0.50400001928E-02 0. -1.
</event>
<event>
 5   0  0.1098171E-07  0.3493817E+04  0.7818609E-02  0.8115257E-01
       -1   -1    0    0    0  501  0.00000000000E+00  0.00000000000E+00  0.15110199545E+04  0.15110199545E+04  0.50400001928E-02 0. -1.
        1   -1    0    0  501    0  0.00000000000E+00  0.00000000000E+00 -0.20196217951E+04  0.20196217951E+04  0.50400001928E-02 0.  1.
    10030    2    1    2    0    0  0.00000000000E+00  0.00000000000E+00 -0.50860184053E+03  0.35306417496E+04  0.34938167284E+04 0.  0.
        4    1    3    3  502    0  0.63150454145E+02 -0.17349607650E+04 -0.45027896325E+03  0.17935522278E+04  0.12699999809E+01 0.  1.
       -4    1    3    3    0  502 -0.63150454145E+02  0.17349607650E+04 -0.58322877279E+02  0.17370895219E+04  0.12699999809E+01 0. -1.
</event>
<event>
 5   0  0.2180451E-07  0.3558219E+04  0.7818609E-02  0.8100130E-01
       -2   -1    0    0    0  501  0.00000000000E+00  0.00000000000E+00  0.14594973835E+04  0.14594973835E+04  0.25500000920E-02 0. -1.
        2   -1    0    0  501    0  0.00000000000E+00  0.00000000000E+00 -0.21687132986E+04  0.21687132986E+04  0.25500000920E-02 0.  1.
    10030    2    1    2    0    0  0.00000000000E+00  0.00000000000E+00 -0.70921591510E+03  0.36282106821E+04  0.35582194339E+04 0.  0.
        4    1    3    3  502    0 -0.66437233681E+03  0.39745732560E+03  0.12787329068E+04  0.14948318927E+04  0.12699999809E+01 0. -1.
       -4    1    3    3    0  502  0.66437233681E+03 -0.39745732560E+03 -0.19879488219E+04  0.21333787894E+04  0.12699999809E+01 0.  1.
</event>
<event>
 5   0  0.1013863E-07  0.3510462E+04  0.7818609E-02  0.8111315E-01
       -1   -1    0    0    0  501  0.00000000000E+00  0.00000000000E+00  0.17916194936E+04  0.17916194936E+04  0.50400001928E-02 0.  1.
        1   -1    0    0  501    0  0.00000000000E+00  0.00000000000E+00 -0.17195814535E+04  0.17195814535E+04  0.50400001928E-02 0. -1.
    10030    2    1    2    0    0  0.00000000000E+00  0.00000000000E+00  0.72038040080E+02  0.35112009471E+04  0.35104618801E+04 0.  0.
        5    1    3    3  502    0  0.13245436528E+04 -0.43084481401E+03 -0.10322743902E+04  0.17336826840E+04  0.46999998093E+01 0. -1.
       -5    1    3    3    0  502 -0.13245436528E+04  0.43084481401E+03  0.11043124303E+04  0.17775182631E+04  0.46999998093E+01 0.  1.
</event>
<event>
 5   0  0.3119048E-07  0.3706668E+04  0.7818609E-02  0.8066486E-01
       -2   -1    0    0    0  501  0.00000000000E+00  0.00000000000E+00  0.23180086658E+04  0.23180086658E+04  0.25500000920E-02 0. -1.
        2   -1    0    0  501    0  0.00000000000E+00  0.00000000000E+00 -0.14818089647E+04  0.14818089647E+04  0.25500000920E-02 0.  1.
    10030    2    1    2    0    0  0.00000000000E+00  0.00000000000E+00  0.83619970111E+03  0.37998176304E+04  0.37066675174E+04 0.  0.
        3    1    3    3  502    0  0.49080197172E+03  0.71467730916E+03  0.20973109735E+04  0.22694412443E+04  0.10100000352E+00 0. -1.
       -3    1    3    3    0  502 -0.49080197172E+03 -0.71467730916E+03 -0.12611112724E+04  0.15303763861E+04  0.10100000352E+00 0.  1.
</event>
<event>
 5   0  0.3119048E-07  0.3494550E+04  0.7818609E-02  0.8115083E-01
        2   -1    0    0  501    0  0.00000000000E+00  0.00000000000E+00  0.12121763472E+04  0.12121763472E+04  0.25500000920E-02 0.  1.
       -2   -1    0    0    0  501  0.00000000000E+00  0.00000000000E+00 -0.25185858816E+04  0.25185858816E+04  0.25500000920E-02 0. -1.
    10030    2    1    2    0    0  0.00000000000E+00  0.00000000000E+00 -0.13064095343E+04  0.37307622288E+04  0.34945501766E+04 0.  0.
        3    1    3    3  502    0 -0.12192169952E+04 -0.51488412770E+03 -0.18710929965E+04  0.22918518185E+04  0.10100000352E+00 0. -1.
       -3    1    3    3    0  502  0.12192169952E+04  0.51488412770E+03  0.56468346219E+03  0.14389104103E+04  0.10100000352E+00 0.  1.
</event>
<event>
 5   0  0.2180451E-07  0.3494242E+04  0.7818609E-02  0.8115156E-01
        2   -1    0    0  501    0  0.00000000000E+00  0.00000000000E+00  0.18573140222E+04  0.18573140222E+04  0.25500000920E-02 0. -1.
       -2   -1    0    0    0  501  0.00000000000E+00  0.00000000000E+00 -0.16434657641E+04  0.16434657641E+04  0.25500000920E-02 0.  1.
    10030    2    1    2    0    0  0.00000000000E+00  0.00000000000E+00  0.21384825815E+03  0.35007797863E+04  0.34942421259E+04 0.  0.
        4    1    3    3  502    0  0.15537735156E+04  0.33594097587E+03 -0.61925053444E+03  0.17060308656E+04  0.12699999809E+01 0.  1.
       -4    1    3    3    0  502 -0.15537735156E+04 -0.33594097587E+03  0.83309879259E+03  0.17947489207E+04  0.12699999809E+01 0. -1.
</event>
<event>
 5   0  0.2180451E-07  0.3518582E+04  0.7818609E-02  0.8109400E-01
       -2   -1    0    0    0  501  0.00000000000E+00  0.00000000000E+00  0.18987483255E+04  0.18987483256E+04  0.25500000920E-02 0.  1.
        2   -1    0    0  501    0  0.00000000000E+00  0.00000000000E+00 -0.16300768275E+04  0.16300768275E+04  0.25500000920E-02 0. -1.
    10030    2    1    2    0    0  0.00000000000E+00  0.00000000000E+00  0.26867149808E+03  0.35288251530E+04  0.35185824684E+04 0.  0.
        4    1    3    3  502    0  0.11892376510E+03 -0.23971494795E+03 -0.16095468440E+04  0.16316399033E+04  0.12699999809E+01 0. -1.
       -4    1    3    3    0  502 -0.11892376510E+03  0.23971494795E+03  0.18782183421E+04  0.18971852497E+04  0.12699999809E+01 0.  1.
</event>
<event>
 5   0  0.1013863E-07  0.3497110E+04  0.7818609E-02  0.8114475E-01
        1   -1    0    0  501    0  0.00000000000E+00  0.00000000000E+00  0.17067988610E+04  0.17067988611E+04  0.50400001928E-02 0. -1.
       -1   -1    0    0    0  501  0.00000000000E+00  0.00000000000E+00 -0.17913323415E+04  0.17913323416E+04  0.50400001928E-02 0.  1.
    10030    2    1    2    0    0  0.00000000000E+00  0.00000000000E+00 -0.84533480503E+02  0.34981312026E+04  0.34971096639E+04 0.  0.
        2    1    3    3  502    0 -0.13010429306E+04 -0.10840795414E+03 -0.12057827736E+04  0.17771823454E+04  0.25500000920E-02 0.  1.
       -2    1    3    3    0  502  0.13010429306E+04  0.10840795414E+03  0.11212492931E+04  0.17209488572E+04  0.25500000920E-02 0. -1.
</event>
<event>
 5   0  0.1033796E-07  0.3508954E+04  0.7818609E-02  0.8111671E-01
        1   -1    0    0  501    0  0.00000000000E+00  0.00000000000E+00  0.26020502327E+04  0.26020502327E+04  0.50400001928E-02 0.  1.
       -1   -1    0    0    0  501  0.00000000000E+00  0.00000000000E+00 -0.11829860202E+04  0.11829860203E+04  0.50400001928E-02 0. -1.
    10030    2    1    2    0    0  0.00000000000E+00  0.00000000000E+00  0.14190642124E+04  0.37850362529E+04  0.35089537183E+04 0.  0.
        3    1    3    3  502    0 -0.16316798401E+04  0.54443402011E+03  0.33679952174E+03  0.17527753509E+04  0.10100000352E+00 0. -1.
       -3    1    3    3    0  502  0.16316798401E+04 -0.54443402011E+03  0.10822646907E+04  0.20322609020E+04  0.10100000352E+00 0.  1.
</event>
<event>
 5   0  0.1013863E-07  0.3462194E+04  0.7818609E-02  0.8122808E-01
       -3   -1    0    0    0  501  0.00000000000E+00  0.00000000000E+00  0.16092218279E+04  0.16092218311E+04  0.10100000352E+00 0.  1.
        3   -1    0    0  501    0  0.00000000000E+00  0.00000000000E+00 -0.18622020998E+04  0.18622021026E+04  0.10100000352E+00 0. -1.
    10030    2    1    2    0    0  0.00000000000E+00  0.00000000000E+00 -0.25298027192E+03  0.34714239337E+04  0.34621936846E+04 0.  0.
        5    1    3    3  502    0 -0.10660343000E+03 -0.39307129970E+03  0.15604950115E+04  0.16127728014E+04  0.46999998093E+01 0.  1.
       -5    1    3    3    0  502  0.10660343000E+03  0.39307129970E+03 -0.18134752834E+04  0.18586511323E+04  0.46999998093E+01 0. -1.
</event>
<event>
 5   0  0.3119048E-07  0.3498702E+04  0.7818609E-02  0.8114098E-01
        2   -1    0    0  501    0  0.00000000000E+00  0.00000000000E+00  0.21926544329E+04  0.21926544329E+04  0.25500000920E-02 0. -1.
       -2   -1    0    0    0  501  0.00000000000E+00  0.00000000000E+00 -0.13956729989E+04  0.13956729989E+04  0.25500000920E-02 0.  1.
    10030    2    1    2    0    0  0.00000000000E+00  0.00000000000E+00  0.79698143396E+03  0.35883274318E+04  0.34987018095E+04 0.  0.
        3    1    3    3  502    0 -0.63010734672E+03  0.79356930941E+03 -0.10640263068E+04  0.14693330150E+04  0.10100000352E+00 0.  1.
       -3    1    3    3    0  502  0.63010734672E+03 -0.79356930941E+03  0.18610077407E+04  0.21189944168E+04  0.10100000352E+00 0. -1.
</event>
<event>
 5   0  0.3119048E-07  0.3501687E+04  0.7818609E-02  0.8113390E-01
       -2   -1    0    0    0  501  0.00000000000E+00  0.00000000000E+00  0.28980084054E+04  0.28980084054E+04  0.25500000920E-02 0. -1.
        2   -1    0    0  501    0  0.00000000000E+00  0.00000000000E+00 -0.10577791048E+04  0.10577791048E+04  0.25500000920E-02 0.  1.
    10030    2    1    2    0    0  0.00000000000E+00  0.00000000000E+00  0.18402293006E+04  0.39557875103E+04  0.35016868717E+04 0.  0.
        3    1    3    3  502    0  0.14344589712E+03 -0.15039909115E+04 -0.79437095243E+02  0.15129030536E+04  0.10100000352E+00 0.  1.
       -3    1    3    3    0  502 -0.14344589712E+03  0.15039909115E+04  0.19196663958E+04  0.24428844567E+04  0.10100000352E+00 0. -1.
</event>
<event>
 5   0  0.1013863E-07  0.3504821E+04  0.7818609E-02  0.8112648E-01
        1   -1    0    0  501    0  0.00000000000E+00  0.00000000000E+00  0.11716823108E+04  0.11716823108E+04  0.50400001928E-02 0. -1.
       -1   -1    0    0    0  501  0.00000000000E+00  0.00000000000E+00 -0.26209679668E+04  0.26209679668E+04  0.50400001928E-02 0.  1.
    10030    2    1    2    0    0  0.00000000000E+00  0.00000000000E+00 -0.14492856560E+04  0.37926502776E+04  0.35048205682E+04 0.  0.
        2    1    3    3  502    0 -0.15242701164E+03 -0.15766419759E+03 -0.26060608255E+04  0.26152715001E+04  0.25500000920E-02 0.  1.
       -2    1    3    3    0  502  0.15242701164E+03  0.15766419759E+03  0.11567751694E+04  0.11773787775E+04  0.25500000920E-02 0. -1.
</event>
<event>
 5   0  0.1072381E-07  0.3503238E+04  0.7818609E-02  0.8113023E-01
        1   -1    0    0  501    0  0.00000000000E+00  0.00000000000E+00  0.20481816698E+04  0.20481816698E+04  0.50400001928E-02 0. -1.
       -1   -1    0    0    0  501  0.00000000000E+00  0.00000000000E+00 -0.14979966098E+04  0.14979966098E+04  0.50400001928E-02 0.  1.
    10030    2    1    2    0    0  0.00000000000E+00  0.00000000000E+00  0.55018505999E+03  0.35461782796E+04  0.35032380436E+04 0.  0.
        1    1    3    3  502    0  0.14019684909E+04  0.84803852231E+03  0.90194401897E+03  0.18703443528E+04  0.50400001928E-02 0. -1.
       -1    1    3    3    0  502 -0.14019684909E+04 -0.84803852231E+03 -0.35175895898E+03  0.16758339268E+04  0.50400001928E-02 0.  1.
</event>
<event>
 5   0  0.3190112E-07  0.3510954E+04  0.7818609E-02  0.8111199E-01
       -2   -1    0    0    0  501  0.00000000000E+00  0.00000000000E+00  0.13421330318E+04  0.13421330318E+04  0.25500000920E-02 0.  1.
        2   -1    0    0  501    0  0.00000000000E+00  0.00000000000E+00 -0.22961205985E+04  0.22961205985E+04  0.25500000920E-02 0. -1.
    10030    2    1    2    0    0  0.00000000000E+00  0.00000000000E+00 -0.95398756668E+03  0.36382536303E+04  0.35109538876E+04 0.  0.
        5    1    3    3  502    0 -0.13488202045E+04 -0.26741402366E+03  0.65383423333E+03  0.15226120645E+04  0.46999998093E+01 0.  1.
       -5    1    3    3    0  502  0.13488202045E+04  0.26741402366E+03 -0.16078218000E+04  0.21156415658E+04  0.46999998093E+01 0. -1.
</event>
<event>
 5   0  0.1098171E-07  0.3514437E+04  0.7818609E-02  0.8110377E-01
       -1   -1    0    0    0  501  0.00000000000E+00  0.00000000000E+00  0.14141710239E+04  0.14141710240E+04  0.50400001928E-02 0. -1.
        1   -1    0    0  501    0  0.00000000000E+00  0.00000000000E+00 -0.21834817268E+04  0.21834817268E+04  0.50400001928E-02 0.  1.
    10030    2    1    2    0    0  0.00000000000E+00  0.00000000000E+00 -0.76931070282E+03  0.35976527507E+04  0.35144368478E+04 0.  0.
        4    1    3    3  502    0  0.14425306319E+04 -0.21587923833E+03  0.61850577806E+03  0.15843135674E+04  0.12699999809E+01 0. -1.
       -4    1    3    3    0  502 -0.14425306319E+04  0.21587923833E+03 -0.13878164809E+04  0.20133391833E+04  0.12699999809E+01 0.  1.
</event>
<event>
 5   0  0.1098171E-07  0.3465901E+04  0.7818609E-02  0.8121919E-01
        1   -1    0    0  501    0  0.00000000000E+00  0.00000000000E+00  0.20662087152E+04  0.20662087152E+04  0.50400001928E-02 0.  1.
       -1   -1    0    0    0  501  0.00000000000E+00  0.00000000000E+00 -0.14534431424E+04  0.14534431424E+04  0.50400001928E-02 0. -1.
    10030    2    1    2    0    0  0.00000000000E+00  0.00000000000E+00  0.61276557278E+03  0.35196518576E+04  0.34659006840E+04 0.  0.
        4    1    3    3  502    0 -0.12868033177E+04  0.23709654076E+03  0.14602426337E+04  0.19607110217E+04  0.12699999809E+01 0.  1.
       -4    1    3    3    0  502  0.12868033177E+04 -0.23709654076E+03 -0.84747706096E+03  0.15589408359E+04  0.12699999809E+01 0. -1.
</event>
<event>
 5   0  0.2180451E-07  0.3506570E+04  0.7818609E-02  0.8112235E-01
        2   -1    0    0  501    0  0.00000000000E+00  0.00000000000E+00  0.11076204944E+04  0.11076204944E+04  0.25500000920E-02 0. -1.
       -2   -1    0    0    0  501  0.00000000000E+00  0.00000000000E+00 -0.27753258800E+04  0.27753258800E+04  0.25500000920E-02 0.  1.
    10030    2    1    2    0    0  0.00000000000E+00  0.00000000000E+00 -0.16677053856E+04  0.38829463744E+04  0.35065697332E+04 0.  0.
        4    1    3    3  502    0 -0.59096358878E+03 -0.13183283304E+04 -0.19338428205E+04  0.24139132580E+04  0.12699999809E+01 0.  1.
       -4    1    3    3    0  502  0.59096358878E+03  0.13183283304E+04  0.26613743489E+03  0.14690331164E+04  0.12699999809E+01 0. -1.
</event>
<event>
 5   0  0.1072381E-07  0.3516659E+04  0.7818609E-02  0.8109853E-01
       -1   -1    0    0    0  501  0.00000000000E+00  0.00000000000E+00  0.13690426455E+04  0.13690426455E+04  0.50400001928E-02 0. -1.
        1   -1    0    0  501    0  0.00000000000E+00  0.00000000000E+00 -0.22583105210E+04  0.22583105210E+04  0.50400001928E-02 0.  1.
    10030    2    1    2    0    0  0.00000000000E+00  0.00000000000E+00 -0.88926787548E+03  0.36273531665E+04  0.35166594433E+04 0.  0.
        1    1    3    3  502    0  0.11137502893E+04 -0.13016979071E+04 -0.36103610498E+02  0.17135228680E+04  0.50400001928E-02 0. -1.
       -1    1    3    3    0  502 -0.11137502893E+04  0.13016979071E+04 -0.85316426498E+03  0.19138302985E+04  0.50400001928E-02 0.  1.
</event>
<event>
 5   0  0.1072381E-07  0.3491580E+04  0.7818609E-02  0.8115788E-01
        1   -1    0    0  501    0  0.00000000000E+00  0.00000000000E+00  0.27417236891E+04  0.27417236891E+04  0.50400001928E-02 0. -1.
       -1   -1    0    0    0  501  0.00000000000E+00  0.00000000000E+00 -0.11116299045E+04  0.11116299046E+04  0.50400001928E-02 0.  1.
    10030    2    1    2    0    0  0.00000000000E+00  0.00000000000E+00  0.16300937846E+04  0.38533535937E+04  0.34915796098E+04 0.  0.
        1    1    3    3  502    0  0.11858771006E+04  0.80009358569E+03  0.19193926086E+04  0.23938509205E+04  0.50400001928E-02 0. -1.
       -1    1    3    3    0  502 -0.11858771006E+04 -0.80009358569E+03 -0.28929882397E+03  0.14595026732E+04  0.50400001928E-02 0.  1.
</event>
<event>
 5   0  0.1072381E-07  0.3461170E+04  0.7818609E-02  0.8123054E-01
        1   -1    0    0  501    0  0.00000000000E+00  0.00000000000E+00  0.16147735628E+04  0.16147735628E+04  0.50400001928E-02 0.  1.
       -1   -1    0    0    0  501  0.00000000000E+00  0.00000000000E+00 -0.18547019403E+04  0.18547019403E+04  0.50400001928E-02 0. -1.
    10030    2    1    2    0    0  0.00000000000E+00  0.00000000000E+00 -0.23992837751E+03  0.34694755032E+04  0.34611695481E+04 0.  0.
        1    1    3    3  502    0 -0.61327951107E+03  0.14701653703E+04 -0.79791974618E+03  0.17816211427E+04  0.50400001928E-02 0. -1.
       -1    1    3    3    0  502  0.61327951107E+03 -0.14701653703E+04  0.55799136867E+03  0.16878543605E+04  0.50400001928E-02 0.  1.
</event>
<event>
 5   0  0.1013863E-07  0.3519417E+04  0.7818609E-02  0.8109204E-01
       -1   -1    0    0    0  501  0.00000000000E+00  0.00000000000E+00  0.22307331799E+04  0.22307331799E+04  0.50400001928E-02 0. -1.
        1   -1    0    0  501    0  0.00000000000E+00  0.00000000000E+00 -0.13881415570E+04  0.13881415570E+04  0.50400001928E-02 0.  1.
    10030    2    1    2    0    0  0.00000000000E+00  0.00000000000E+00  0.84259162293E+03  0.36188747369E+04  0.35194166730E+04 0.  0.
        5    1    3    3  502    0  0.48934042019E+03  0.13671967530E+04 -0.60070875164E+03  0.15714814993E+04  0.46999998093E+01 0.  1.
       -5    1    3    3    0  502 -0.48934042019E+03 -0.13671967530E+04  0.14433003746E+04  0.20473932376E+04  0.46999998093E+01 0. -1.
</event>
<event>
 5   0  0.1033796E-07  0.3479623E+04  0.7818609E-02  0.8118636E-01
        1   -1    0    0  501    0  0.00000000000E+00  0.00000000000E+00  0.20609967562E+04  0.20609967562E+04  0.50400001928E-02 0.  1.
       -1   -1    0    0    0  501  0.00000000000E+00  0.00000000000E+00 -0.14686797085E+04  0.14686797085E+04  0.50400001928E-02 0. -1.
    10030    2    1    2    0    0  0.00000000000E+00  0.00000000000E+00  0.59231704768E+03  0.35296764646E+04  0.34796230342E+04 0.  0.
        3    1    3    3  502    0  0.11455996344E+03  0.17201981927E+04  0.58830870405E+02  0.17250121416E+04  0.10100000352E+00 0. -1.
       -3    1    3    3    0  502 -0.11455996344E+03 -0.17201981927E+04  0.53348617728E+03  0.18046643230E+04  0.10100000352E+00 0.  1.
</event>
<event>
 5   0  0.1013863E-07  0.3503525E+04  0.7818609E-02  0.8112955E-01
        4   -1    0    0  501    0  0.00000000000E+00  0.00000000000E+00  0.21205104905E+04  0.21205108708E+04  0.12699999809E+01 0.  1.
       -4   -1    0    0    0  501  0.00000000000E+00  0.00000000000E+00 -0.14471371827E+04  0.14471377400E+04  0.12699999809E+01 0. -1.
    10030    2    1    2    0    0  0.00000000000E+00  0.00000000000E+00  0.67337330780E+03  0.35676486107E+04  0.35035246536E+04 0.  0.
        4    1    3    3  502    0  0.15000525073E+04  0.81599692020E+03  0.73455660721E+03  0.18589199876E+04  0.12699999809E+01 0.  1.
       -4    1    3    3    0  502 -0.15000525073E+04 -0.81599692020E+03 -0.61183299410E+02  0.17087286231E+04  0.12699999809E+01 0. -1.
</event>
<event>
 5   0  0.1013863E-07  0.3512985E+04  0.7818609E-02  0.8110720E-01
       -1   -1    0    0    0  501  0.00000000000E+00  0.00000000000E+00  0.14200817803E+04  0.14200817803E+04  0.50400001928E-02 0. -1.
        1   -1    0    0  501    0  0.00000000000E+00  0.00000000000E+00 -0.21725970798E+04  0.21725970798E+04  0.50400001928E-02 0.  1.
    10030    2    1    2    0    0  0.00000000000E+00  0.00000000000E+00 -0.75251529950E+03  0.35926788601E+04  0.35129847873E+04 0.  0.
        2    1    3    3  502    0  0.97888912138E+03 -0.13397033618E+04  0.21321792350E+03  0.16728690602E+04  0.25500000920E-02 0. -1.
       -2    1    3    3    0  502 -0.97888912138E+03  0.13397033618E+04 -0.96573322300E+03  0.19198097999E+04  0.25500000920E-02 0.  1.
</event>
<event>
 5   0  0.3190112E-07  0.3505483E+04  0.7818609E-02  0.8112492E-01
       -2   -1    0    0    0  501  0.00000000000E+00  0.00000000000E+00  0.14088181935E+04  0.14088181935E+04  0.25500000920E-02 0. -1.
        2   -1    0    0  501    0  0.00000000000E+00  0.00000000000E+00 -0.21806235749E+04  0.21806235749E+04  0.25500000920E-02 0.  1.
    10030    2    1    2    0    0  0.00000000000E+00  0.00000000000E+00 -0.77180538146E+03  0.35894417684E+04  0.35054826575E+04 0.  0.
        5    1    3    3  502    0  0.11983978863E+04  0.10470516120E+04 -0.11380748845E+04  0.19564537063E+04  0.46999998093E+01 0.  1.
       -5    1    3    3    0  502 -0.11983978863E+04 -0.10470516120E+04  0.36626950308E+03  0.16329880621E+04  0.46999998093E+01 0. -1.
</event>
<event>
 5   0  0.3119048E-07  0.3494943E+04  0.7818609E-02  0.8114989E-01
        2   -1    0    0  501    0  0.00000000000E+00  0.00000000000E+00  0.15372171067E+04  0.15372171067E+04  0.25500000920E-02 0. -1.
       -2   -1    0    0    0  501  0.00000000000E+00  0.00000000000E+00 -0.19864834044E+04  0.19864834044E+04  0.25500000920E-02 0.  1.
    10030    2    1    2    0    0  0.00000000000E+00  0.00000000000E+00 -0.44926629762E+03  0.35237005111E+04  0.34949427872E+04 0.  0.
        3    1    3    3  502    0  0.39014307647E+03  0.16972928209E+04 -0.79778688372E+02  0.17433815387E+04  0.10100000352E+00 0. -1.
       -3    1    3    3    0  502 -0.39014307647E+03 -0.16972928209E+04 -0.36948760925E+03  0.17803189724E+04  0.10100000352E+00 0.  1.
</event>
<event>
 5   0  0.1072381E-07  0.3494622E+04  0.7818609E-02  0.8115066E-01
       -1   -1    0    0    0  501  0.00000000000E+00  0.00000000000E+00  0.14009094547E+04  0.14009094547E+04  0.50400001928E-02 0.  1.
        1   -1    0    0  501    0  0.00000000000E+00  0.00000000000E+00 -0.21793672201E+04  0.21793672201E+04  0.50400001928E-02 0. -1.
    10030    2    1    2    0    0  0.00000000000E+00  0.00000000000E+00 -0.77845776541E+03  0.35802766749E+04  0.34946222366E+04 0.  0.
        1    1    3    3  502    0  0.59935291352E+03  0.57244358665E+02  0.12912789605E+04  0.14247463582E+04  0.50400001928E-02 0.  1.
       -1    1    3    3    0  502 -0.59935291352E+03 -0.57244358665E+02 -0.20697367259E+04  0.21555303167E+04  0.50400001928E-02 0. -1.
</event>
<event>
 5   0  0.1013863E-07  0.3480863E+04  0.7818609E-02  0.8118340E-01
        1   -1    0    0  501    0  0.00000000000E+00  0.00000000000E+00  0.22102376449E+04  0.22102376449E+04  0.50400001928E-02 0. -1.
       -1   -1    0    0    0  501  0.00000000000E+00  0.00000000000E+00 -0.13704868350E+04  0.13704868351E+04  0.50400001928E-02 0.  1.
    10030    2    1    2    0    0  0.00000000000E+00  0.00000000000E+00  0.83975080981E+03  0.35807244799E+04  0.34808628784E+04 0.  0.
        5    1    3    3  502    0  0.13574782448E+04 -0.85276671483E+03 -0.27714852240E+03  0.16268963239E+04  0.46999998093E+01 0.  1.
       -5    1    3    3    0  502 -0.13574782448E+04  0.85276671483E+03  0.11168993322E+04  0.19538281561E+04  0.46999998093E+01 0. -1.
</event>
<event>
 5   0  0.3119048E-07  0.3500558E+04  0.7818609E-02  0.8113658E-01
       -2   -1    0    0    0  501  0.00000000000E+00  0.00000000000E+00  0.22748834319E+04  0.22748834319E+04  0.25500000920E-02 0. -1.
        2   -1    0    0  501    0  0.00000000000E+00  0.00000000000E+00 -0.13466520455E+04  0.13466520455E+04  0.25500000920E-02 0.  1.
    10030    2    1    2    0    0  0.00000000000E+00  0.00000000000E+00  0.92823138636E+03  0.36215354773E+04  0.35005579137E+04 0.  0.
        3    1    3    3  502    0  0.97510966832E+03 -0.12917195447E+03  0.19618892523E+04  0.21946602715E+04  0.10100000352E+00 0. -1.
       -3    1    3    3    0  502 -0.97510966832E+03  0.12917195447E+03 -0.10336578659E+04  0.14268752058E+04  0.10100000352E+00 0.  1.
</event>
<event>
 5   0  0.1098171E-07  0.3515741E+04  0.7818609E-02  0.8110070E-01
       -1   -1    0    0    0  501  0.00000000000E+00  0.00000000000E+00  0.20392348131E+04  0.20392348131E+04  0.50400001928E-02 0.  1.
        1   -1    0    0  501    0  0.00000000000E+00  0.00000000000E+00 -0.15153274836E+04  0.15153274837E+04  0.50400001928E-02 0. -1.
    10030    2    1    2    0    0  0.00000000000E+00  0.00000000000E+00  0.52390732947E+03  0.35545622968E+04  0.35157409222E+04 0.  0.
        4    1    3    3  502    0 -0.51471230577E+03 -0.12181001844E+04 -0.90902789635E+03  0.16046900468E+04  0.12699999809E+01 0. -1.
       -4    1    3    3    0  502  0.51471230577E+03  0.12181001844E+04  0.14329352258E+04  0.19498722500E+04  0.12699999809E+01 0.  1.
</event>
<event>
 5   0  0.2180451E-07  0.3502789E+04  0.7818609E-02  0.8113129E-01
       -2   -1    0    0    0  501  0.00000000000E+00  0.00000000000E+00  0.96072626198E+03  0.96072626198E+03  0.25500000920E-02 0. -1.
        2   -1    0    0  501    0  0.00000000000E+00  0.00000000000E+00 -0.31927754493E+04  0.31927754493E+04  0.25500000920E-02 0.  1.
    10030    2    1    2    0    0  0.00000000000E+00  0.00000000000E+00 -0.22320491873E+04  0.41535017113E+04  0.35027893015E+04 0.  0.
        4    1    3    3  502    0  0.69590873599E+03 -0.60858154524E+03  0.64783382416E+03  0.11288714465E+04  0.12699999809E+01 0. -1.
       -4    1    3    3    0  502 -0.69590873599E+03  0.60858154524E+03 -0.28798830115E+04  0.30246302648E+04  0.12699999809E+01 0.  1.
</event>
<event>
 5   0  0.3190185E-07  0.3491392E+04  0.7818609E-02  0.8115833E-01
        2   -1    0    0  501    0  0.00000000000E+00  0.00000000000E+00  0.18531167888E+04  0.18531167888E+04  0.25500000920E-02 0.  1.
       -2   -1    0    0    0  501  0.00000000000E+00  0.00000000000E+00 -0.16445019484E+04  0.16445019484E+04  0.25500000920E-02 0. -1.
    10030    2    1    2    0    0  0.00000000000E+00  0.00000000000E+00  0.20861484038E+03  0.34976187372E+04  0.34913917969E+04 0.  0.
        1    1    3    3  502    0  0.39030167305E+03  0.61350054347E+03  0.16941905171E+04  0.18436376599E+04  0.50400001928E-02 0.  1.
       -1    1    3    3    0  502 -0.39030167305E+03 -0.61350054347E+03 -0.14855756767E+04  0.16539810773E+04  0.50400001928E-02 0. -1.
</event>
<event>
 5   0  0.1033796E-07  0.3491387E+04  0.7818609E-02  0.8115834E-01
        1   -1    0    0  501    0  0.00000000000E+00  0.00000000000E+00  0.88196885732E+03  0.88196885734E+03  0.50400001928E-02 0.  1.
       -1   -1    0    0    0  501  0.00000000000E+00  0.00000000000E+00 -0.34552768237E+04  0.34552768237E+04  0.50400001928E-02 0. -1.
    10030    2    1    2    0    0  0.00000000000E+00  0.00000000000E+00 -0.25733079664E+04  0.43372456811E+04  0.34913874331E+04 0.  0.
        3    1    3    3  502    0 -0.16698334892E+04 -0.46086402336E+03 -0.10181770231E+04  0.20093342157E+04  0.10100000352E+00 0.  1.
       -3    1    3    3    0  502  0.16698334892E+04  0.46086402336E+03 -0.15551309433E+04  0.23279114654E+04  0.10100000352E+00 0. -1.
</event>
<event>
 5   0  0.3119048E-07  0.3502926E+04  0.7818609E-02  0.8113097E-01
       -2   -1    0    0    0  501  0.00000000000E+00  0.00000000000E+00  0.11056296689E+04  0.11056296689E+04  0.25500000920E-02 0. -1.
        2   -1    0    0  501    0  0.00000000000E+00  0.00000000000E+00 -0.27745485048E+04  0.27745485048E+04  0.25500000920E-02 0.  1.
    10030    2    1    2    0    0  0.00000000000E+00  0.00000000000E+00 -0.16689188359E+04  0.38801781736E+04  0.35029262879E+04 0.  0.
        3    1    3    3  502    0 -0.65322214069E+03 -0.82045735900E+03 -0.23883063862E+04  0.26084203740E+04  0.10100000352E+00 0.  1.
       -3    1    3    3    0  502  0.65322214069E+03  0.82045735900E+03  0.71938755035E+03  0.12717577996E+04  0.10100000352E+00 0. -1.
</event>
<event>
 5   0  0.1098171E-07  0.3498894E+04  0.7818609E-02  0.8114052E-01
        1   -1    0    0  501    0  0.00000000000E+00  0.00000000000E+00  0.21303336994E+04  0.21303336994E+04  0.50400001928E-02 0.  1.
       -1   -1    0    0    0  501  0.00000000000E+00  0.00000000000E+00 -0.14366595687E+04  0.14366595688E+04  0.50400001928E-02 0. -1.
    10030    2    1    2    0    0  0.00000000000E+00  0.00000000000E+00  0.69367413068E+03  0.35669932682E+04  0.34988937074E+04 0.  0.
        4    1    3    3  502    0  0.13243055442E+03  0.50216769848E+03  0.20499363917E+04  0.21146988136E+04  0.12699999809E+01 0.  1.
       -4    1    3    3    0  502 -0.13243055442E+03 -0.50216769848E+03 -0.13562622611E+04  0.14522944546E+04  0.12699999809E+01 0. -1.
</event>
<event>
 5   0  0.3219205E-07  0.3493979E+04  0.7818609E-02  0.8115218E-01
        2   -1    0    0  501    0  0.00000000000E+00  0.00000000000E+00  0.20400886886E+04  0.20400886886E+04  0.25500000920E-02 0.  1.
       -2   -1    0    0    0  501  0.00000000000E+00  0.00000000000E+00 -0.14959996342E+04  0.14959996342E+04  0.25500000920E-02 0. -1.
    10030    2    1    2    0    0  0.00000000000E+00  0.00000000000E+00  0.54408905442E+03  0.35360883228E+04  0.34939787818E+04 0.  0.
        2    1    3    3  502    0  0.62628802501E+03  0.74910748604E+03  0.17381489492E+04  0.19936299771E+04  0.25500000920E-02 0.  1.
       -2    1    3    3    0  502 -0.62628802501E+03 -0.74910748604E+03 -0.11940598948E+04  0.15424583457E+04  0.25500000920E-02 0. -1.
</event>
<event>
 5   0  0.1098171E-07  0.3550685E+04  0.7818609E-02  0.8101882E-01
        1   -1    0    0  501    0  0.00000000000E+00  0.00000000000E+00  0.24198695320E+04  0.24198695320E+04  0.50400001928E-02 0. -1.
       -1   -1    0    0    0  501  0.00000000000E+00  0.00000000000E+00 -0.13024836527E+04  0.13024836527E+04  0.50400001928E-02 0.  1.
    10030    2    1    2    0    0  0.00000000000E+00  0.00000000000E+00  0.11173858793E+04  0.37223531847E+04  0.35506847267E+04 0.  0.
        4    1    3    3  502    0 -0.99333349827E+03  0.33328853950E+03  0.20611794096E+04  0.23121969771E+04  0.12699999809E+01 0. -1.
       -4    1    3    3    0  502  0.99333349827E+03 -0.33328853950E+03 -0.94379353026E+03  0.14101562077E+04  0.12699999809E+01 0.  1.
</event>
<event>
 5   0  0.1098171E-07  0.3503932E+04  0.7818609E-02  0.8112859E-01
       -1   -1    0    0    0  501  0.00000000000E+00  0.00000000000E+00  0.14450688599E+04  0.14450688599E+04  0.50400001928E-02 0.  1.
        1   -1    0    0  501    0  0.00000000000E+00  0.00000000000E+00 -0.21240409813E+04  0.21240409813E+04  0.50400001928E-02 0. -1.
    10030    2    1    2    0    0  0.00000000000E+00  0.00000000000E+00 -0.67897212140E+03  0.35691098412E+04  0.35039323505E+04 0.  0.
        4    1    3    3  502    0  0.61357414922E+03  0.17707660150E+03 -0.20012597685E+04  0.21006836109E+04  0.12699999809E+01 0. -1.
       -4    1    3    3    0  502 -0.61357414922E+03 -0.17707660150E+03  0.13222876471E+04  0.14684262303E+04  0.12699999809E+01 0.  1.
</event>
<event>
 5   0  0.3190112E-07  0.3549982E+04  0.7818609E-02  0.8102046E-01
       -2   -1    0    0    0  501  0.00000000000E+00  0.00000000000E+00  0.14223971191E+04  0.14223971191E+04  0.25500000920E-02 0. -1.
        2   -1    0    0  501    0  0.00000000000E+00  0.00000000000E+00 -0.22149881819E+04  0.22149881819E+04  0.25500000920E-02 0.  1.
    10030    2    1    2    0    0  0.00000000000E+00  0.00000000000E+00 -0.79259106283E+03  0.36373853010E+04  0.35499818641E+04 0.  0.
        5    1    3    3  502    0 -0.10317517837E+03 -0.17093766049E+04  0.82057804622E+02  0.17144588266E+04  0.46999998093E+01 0. -1.
       -5    1    3    3    0  502  0.10317517837E+03  0.17093766049E+04 -0.87464886745E+03  0.19229264744E+04  0.46999998093E+01 0.  1.
</event>
<event>
 5   0  0.3219205E-07  0.3500671E+04  0.7818609E-02  0.8113631E-01
        2   -1    0    0  501    0  0.00000000000E+00  0.00000000000E+00  0.21210231372E+04  0.21210231372E+04  0.25500000920E-02 0. -1.
       -2   -1    0    0    0  501  0.00000000000E+00  0.00000000000E+00 -0.14444327000E+04  0.14444327000E+04  0.25500000920E-02 0.  1.
    10030    2    1    2    0    0  0.00000000000E+00  0.00000000000E+00  0.67659043726E+03  0.35654558372E+04  0.35006714652E+04 0.  0.
        2    1    3    3  502    0 -0.12403515349E+04  0.62402052571E+03  0.14237580350E+04  0.19887082462E+04  0.25500000920E-02 0. -1.
       -2    1    3    3    0  502  0.12403515349E+04 -0.62402052571E+03 -0.74716759771E+03  0.15767475910E+04  0.25500000920E-02 0.  1.
</event>
<event>
 5   0  0.2180451E-07  0.3498212E+04  0.7818609E-02  0.8114214E-01
       -2   -1    0    0    0  501  0.00000000000E+00  0.00000000000E+00  0.13267956890E+04  0.13267956890E+04  0.25500000920E-02 0.  1.
        2   -1    0    0  501    0  0.00000000000E+00  0.00000000000E+00 -0.23058345635E+04  0.23058345635E+04  0.25500000920E-02 0. -1.
    10030    2    1    2    0    0  0.00000000000E+00  0.00000000000E+00 -0.97903887450E+03  0.36326302525E+04  0.34982117480E+04 0.  0.
        4    1    3    3  502    0  0.78993667337E+03  0.32649687935E+03 -0.20741877058E+04  0.22434028644E+04  0.12699999809E+01 0. -1.
       -4    1    3    3    0  502 -0.78993667337E+03 -0.32649687935E+03  0.10951488313E+04  0.13892273881E+04  0.12699999809E+01 0.  1.
</event>
<event>
 5   0  0.3190112E-07  0.3495189E+04  0.7818609E-02  0.8114931E-01
        2   -1    0    0  501    0  0.00000000000E+00  0.00000000000E+00  0.21991957130E+04  0.21991957130E+04  0.25500000920E-02 0. -1.
       -2   -1    0    0    0  501  0.00000000000E+00  0.00000000000E+00 -0.13887291561E+04  0.13887291561E+04  0.25500000920E-02 0.  1.
    10030    2    1    2    0    0  0.00000000000E+00  0.00000000000E+00  0.81046655690E+03  0.35879248691E+04  0.34951893835E+04 0.  0.
        5    1    3    3  502    0 -0.15484250894E+04 -0.81019716937E+03  0.41040744854E+03  0.17951312137E+04  0.46999998093E+01 0. -1.
       -5    1    3    3    0  502  0.15484250894E+04  0.81019716937E+03  0.40005910836E+03  0.17927936554E+04  0.46999998093E+01 0.  1.
</event>
<event>
 5   0  0.2180451E-07  0.3502068E+04  0.7818609E-02  0.8113300E-01
        2   -1    0    0  501    0  0.00000000000E+00  0.00000000000E+00  0.19050890501E+04  0.19050890501E+04  0.25500000920E-02 0.  1.
       -2   -1    0    0    0  501  0.00000000000E+00  0.00000000000E+00 -0.16094367240E+04  0.16094367240E+04  0.25500000920E-02 0. -1.
    10030    2    1    2    0    0  0.00000000000E+00  0.00000000000E+00  0.29565232614E+03  0.35145257741E+04  0.35020681202E+04 0.  0.
        4    1    3    3  502    0 -0.12038834385E+04 -0.87788833974E+03  0.10709326632E+04  0.18349173422E+04  0.12699999809E+01 0.  1.
       -4    1    3    3    0  502  0.12038834385E+04  0.87788833974E+03 -0.77528033708E+03  0.16796084319E+04  0.12699999809E+01 0. -1.
</event>
<event>
 5   0  0.1072381E-07  0.3495878E+04  0.7818609E-02  0.8114768E-01
       -1   -1    0    0    0  501  0.00000000000E+00  0.00000000000E+00  0.11396071726E+04  0.11396071726E+04  0.50400001928E-02 0.  1.
        1   -1    0    0  501    0  0.00000000000E+00  0.00000000000E+00 -0.26810033030E+04  0.26810033030E+04  0.50400001928E-02 0. -1.
    10030    2    1    2    0    0  0.00000000000E+00  0.00000000000E+00 -0.15413961305E+04  0.38206104756E+04  0.34958779120E+04 0.  0.
        1    1    3    3  502    0  0.12161392180E+04  0.80783317112E+03  0.27967201987E+03  0.14865414453E+04  0.50400001928E-02 0.  1.
       -1    1    3    3    0  502 -0.12161392180E+04 -0.80783317112E+03 -0.18210681503E+04  0.23340690303E+04  0.50400001928E-02 0. -1.
</event>
<event>
 5   0  0.3190112E-07  0.3514975E+04  0.7818609E-02  0.8110250E-01
       -2   -1    0    0    0  501  0.00000000000E+00  0.00000000000E+00  0.99044930389E+03  0.99044930389E+03  0.25500000920E-02 0. -1.
        2   -1    0    0  501    0  0.00000000000E+00  0.00000000000E+00 -0.31185461294E+04  0.31185461294E+04  0.25500000920E-02 0.  1.
    10030    2    1    2    0    0  0.00000000000E+00  0.00000000000E+00 -0.21280968255E+04  0.41089954333E+04  0.35149747328E+04 0.  0.
        5    1    3    3  502    0  0.12995131955E+04  0.22483731446E+03 -0.24220253535E+04  0.27578098677E+04  0.46999998093E+01 0.  1.
       -5    1    3    3    0  502 -0.12995131955E+04 -0.22483731446E+03  0.29392852797E+03  0.13511855656E+04  0.46999998093E+01 0. -1.
</event>
<event>
 5   0  0.1013863E-07  0.3507597E+04  0.7818609E-02  0.8111992E-01
        1   -1    0    0  501    0  0.00000000000E+00  0.00000000000E+00  0.16589241461E+04  0.16589241461E+04  0.50400001928E-02 0.  1.
       -1   -1    0    0    0  501  0.00000000000E+00  0.00000000000E+00 -0.18540991930E+04  0.18540991930E+04  0.50400001928E-02 0. -1.
    10030    2    1    2    0    0  0.00000000000E+00  0.00000000000E+00 -0.19517504695E+03  0.35130233391E+04  0.35075974231E+04 0.  0.
        5    1    3    3  502    0 -0.98168123862E+03  0.10566332707E+04  0.90176153178E+03  0.17009902625E+04  0.46999998093E+01 0.  1.
       -5    1    3    3    0  502  0.98168123862E+03 -0.10566332707E+04 -0.10969365787E+04  0.18120330766E+04  0.46999998093E+01 0. -1.
</event>
<event>
 5   0  0.2180451E-07  0.3464643E+04  0.7818609E-02  0.8122221E-01
        2   -1    0    0  501    0  0.00000000000E+00  0.00000000000E+00  0.22873801675E+04  0.22873801675E+04  0.25500000920E-02 0. -1.
       -2   -1    0    0    0  501  0.00000000000E+00  0.00000000000E+00 -0.13119542866E+04  0.13119542866E+04  0.25500000920E-02 0.  1.
    10030    2    1    2    0    0  0.00000000000E+00  0.00000000000E+00  0.97542588088E+03  0.35993344541E+04  0.34646432520E+04 0.  0.
        4    1    3    3  502    0  0.19777622207E+02 -0.20496641779E+03 -0.12991941787E+04  0.13154122980E+04  0.12699999809E+01 0.  1.
       -4    1    3    3    0  502 -0.19777622207E+02  0.20496641779E+03  0.22746200596E+04  0.22839221561E+04  0.12699999809E+01 0. -1.
</event>
<event>
 5   0  0.2180451E-07  0.3482653E+04  0.7818609E-02  0.8117913E-01
        2   -1    0    0  501    0  0.00000000000E+00  0.00000000000E+00  0.22489455035E+04  0.22489455035E+04  0.25500000920E-02 0. -1.
       -2   -1    0    0    0  501  0.00000000000E+00  0.00000000000E+00 -0.13482845391E+04  0.13482845391E+04  0.25500000920E-02 0.  1.
    10030    2    1    2    0    0  0.00000000000E+00  0.00000000000E+00  0.90066096435E+03  0.35972300426E+04  0.34826532711E+04 0.  0.
        4    1    3    3  502    0  0.12743109188E+04  0.11003708586E+04  0.90939872160E+03  0.19135548051E+04  0.12699999809E+01 0. -1.
       -4    1    3    3    0  502 -0.12743109188E+04 -0.11003708586E+04 -0.87377572493E+01  0.16836752376E+04  0.12699999809E+01 0.  1.
</event>
<event>
 5   0  0.3190112E-07  0.3481929E+04  0.7818609E-02  0.8118086E-01
        2   -1    0    0  501    0  0.00000000000E+00  0.00000000000E+00  0.21363647497E+04  0.21363647497E+04  0.25500000920E-02 0.  1.
       -2   -1    0    0    0  501  0.00000000000E+00  0.00000000000E+00 -0.14187451998E+04  0.14187451998E+04  0.25500000920E-02 0. -1.
    10030    2    1    2    0    0  0.00000000000E+00  0.00000000000E+00  0.71761954993E+03  0.35551099494E+04  0.34819289100E+04 0.  0.
        5    1    3    3  502    0  0.88711203672E+03 -0.54818026809E+03 -0.10645726035E+04  0.14902369912E+04  0.46999998093E+01 0. -1.
       -5    1    3    3    0  502 -0.88711203672E+03  0.54818026809E+03  0.17821921534E+04  0.20648729582E+04  0.46999998093E+01 0.  1.
</event>
<event>
 5   0  0.1072381E-07  0.3512699E+04  0.7818609E-02  0.8110787E-01
       -1   -1    0    0    0  501  0.00000000000E+00  0.00000000000E+00  0.14141704227E+04  0.14141704227E+04  0.50400001928E-02 0. -1.
        1   -1    0    0  501    0  0.00000000000E+00  0.00000000000E+00 -0.21813242679E+04  0.21813242679E+04  0.50400001928E-02 0.  1.
    10030    2    1    2    0    0  0.00000000000E+00  0.00000000000E+00 -0.76715384522E+03  0.35954946906E+04  0.35126993962E+04 0.  0.
        1    1    3    3  502    0 -0.54925014610E+03 -0.51967710675E+03 -0.20061938597E+04  0.21439575138E+04  0.50400001928E-02 0.  1.
       -1    1    3    3    0  502  0.54925014610E+03  0.51967710675E+03  0.12390400145E+04  0.14515371768E+04  0.50400001928E-02 0. -1.
</event>
<event>
 5   0  0.1013863E-07  0.3503059E+04  0.7818609E-02  0.8113065E-01
        1   -1    0    0  501    0  0.00000000000E+00  0.00000000000E+00  0.22852797175E+04  0.22852797175E+04  0.50400001928E-02 0. -1.
       -1   -1    0    0    0  501  0.00000000000E+00  0.00000000000E+00 -0.13424421310E+04  0.13424421310E+04  0.50400001928E-02 0.  1.
    10030    2    1    2    0    0  0.00000000000E+00  0.00000000000E+00  0.94283758654E+03  0.36277218485E+04  0.35030591053E+04 0.  0.
        5    1    3    3  502    0 -0.11511580747E+04 -0.12612111176E+04  0.67652418423E+02  0.17089228584E+04  0.46999998093E+01 0.  1.
       -5    1    3    3    0  502  0.11511580747E+04  0.12612111176E+04  0.87518516812E+03  0.19187989901E+04  0.46999998093E+01 0. -1.
</event>
<event>
 5   0  0.2180451E-07  0.3500440E+04  0.7818609E-02  0.8113686E-01
       -2   -1    0    0    0  501  0.00000000000E+00  0.00000000000E+00  0.12751517397E+04  0.12751517398E+04  0.25500000920E-02 0. -1.
        2   -1    0    0  501    0  0.00000000000E+00  0.00000000000E+00 -0.24022787434E+04  0.24022787434E+04  0.25500000920E-02 0.  1.
    10030    2    1    2    0    0  0.00000000000E+00  0.00000000000E+00 -0.11271270037E+04  0.36774304832E+04  0.35004399261E+04 0.  0.
        4    1    3    3  502    0 -0.48962193637E+03 -0.57811250220E+03  0.10939711197E+04  0.13306833318E+04  0.12699999809E+01 0. -1.
       -4    1    3    3    0  502  0.48962193637E+03  0.57811250220E+03 -0.22210981234E+04  0.23467471514E+04  0.12699999809E+01 0.  1.
</event>
<event>
 5   0  0.3190112E-07  0.3503997E+04  0.7818609E-02  0.8112843E-01
        2   -1    0    0  501    0  0.00000000000E+00  0.00000000000E+00  0.15015091584E+04  0.15015091584E+04  0.25500000920E-02 0. -1.
       -2   -1    0    0    0  501  0.00000000000E+00  0.00000000000E+00 -0.20442754789E+04  0.20442754789E+04  0.25500000920E-02 0.  1.
    10030    2    1    2    0    0  0.00000000000E+00  0.00000000000E+00 -0.54276632045E+03  0.35457846374E+04  0.35039967774E+04 0.  0.
        5    1    3    3  502    0 -0.16105630797E+04  0.11914397391E+03 -0.95872404205E+03  0.18781061203E+04  0.46999998093E+01 0.  1.
       -5    1    3    3    0  502  0.16105630797E+04 -0.11914397391E+03  0.41595772159E+03  0.16676785171E+04  0.46999998093E+01 0. -1.
</event>
<event>
 5   0  0.3190185E-07  0.3473236E+04  0.7818609E-02  0.8120162E-01
       -2   -1    0    0    0  501  0.00000000000E+00  0.00000000000E+00  0.12188183019E+04  0.12188183019E+04  0.25500000920E-02 0. -1.
        2   -1    0    0  501    0  0.00000000000E+00  0.00000000000E+00 -0.24743985094E+04  0.24743985094E+04  0.25500000920E-02 0.  1.
    10030    2    1    2    0    0  0.00000000000E+00  0.00000000000E+00 -0.12555802075E+04  0.36932168114E+04  0.34732360643E+04 0.  0.
        1    1    3    3  502    0  0.28832293330E+03 -0.16418218970E+04 -0.11455953420E+04  0.20226462723E+04  0.50400001928E-02 0.  1.
       -1    1    3    3    0  502 -0.28832293330E+03  0.16418218970E+04 -0.10998486544E+03  0.16705705390E+04  0.50400001928E-02 0. -1.
</event>
<event>
 5   0  0.2180451E-07  0.3459954E+04  0.7818609E-02  0.8123346E-01
       -2   -1    0    0    0  501  0.00000000000E+00  0.00000000000E+00  0.11356750884E+04  0.11356750884E+04  0.25500000920E-02 0. -1.
        2   -1    0    0  501    0  0.00000000000E+00  0.00000000000E+00 -0.26352791260E+04  0.26352791260E+04  0.25500000920E-02 0.  1.
    10030    2    1    2    0    0  0.00000000000E+00  0.00000000000E+00 -0.14996040376E+04  0.37709542144E+04  0.34599542508E+04 0.  0.
        4    1    3    3  502    0 -0.97433544103E+03 -0.79554506719E+03  0.54463967847E+03  0.13707134995E+04  0.12699999809E+01 0. -1.
       -4    1    3    3    0  502  0.97433544103E+03  0.79554506719E+03 -0.20442437161E+04  0.24002407148E+04  0.12699999809E+01 0.  1.
</event>
<event>
 5   0  0.1013863E-07  0.3492586E+04  0.7818609E-02  0.8115549E-01
       -1   -1    0    0    0  501  0.00000000000E+00  0.00000000000E+00  0.12936518907E+04  0.12936518907E+04  0.50400001928E-02 0. -1.
        1   -1    0    0  501    0  0.00000000000E+00  0.00000000000E+00 -0.23573101471E+04  0.23573101471E+04  0.50400001928E-02 0.  1.
    10030    2    1    2    0    0  0.00000000000E+00  0.00000000000E+00 -0.10636582565E+04  0.36509620378E+04  0.34925857062E+04 0.  0.
        5    1    3    3  502    0  0.11987321329E+04 -0.41527801071E+03 -0.17862893214E+04  0.21909509767E+04  0.46999998093E+01 0.  1.
       -5    1    3    3    0  502 -0.11987321329E+04  0.41527801071E+03  0.72263106488E+03  0.14600110611E+04  0.46999998093E+01 0. -1.
</event>
<event>
 5   0  0.1013863E-07  0.3504863E+04  0.7818609E-02  0.8112638E-01
        1   -1    0    0  501    0  0.00000000000E+00  0.00000000000E+00  0.21212975095E+04  0.21212975095E+04  0.50400001928E-02 0.  1.
       -1   -1    0    0    0  501  0.00000000000E+00  0.00000000000E+00 -0.14477064234E+04  0.14477064234E+04  0.50400001928E-02 0. -1.
    10030    2    1    2    0    0  0.00000000000E+00  0.00000000000E+00  0.67359108618E+03  0.35690039329E+04  0.35048629248E+04 0.  0.
        5    1    3    3  502    0  0.83972932245E+03 -0.14900228035E+04 -0.51870792030E+02  0.17111475562E+04  0.46999998093E+01 0. -1.
       -5    1    3    3    0  502 -0.83972932245E+03  0.14900228035E+04  0.72546187821E+03  0.18578563767E+04  0.46999998093E+01 0.  1.
</event>
<event>
 5   0  0.2180451E-07  0.3500227E+04  0.7818609E-02  0.8113736E-01
       -2   -1    0    0    0  501  0.00000000000E+00  0.00000000000E+00  0.14288408036E+04  0.14288408036E+04  0.25500000920E-02 0. -1.
        2   -1    0    0  501    0  0.00000000000E+00  0.00000000000E+00 -0.21436236803E+04  0.21436236803E+04  0.25500000920E-02 0.  1.
    10030    2    1    2    0    0  0.00000000000E+00  0.00000000000E+00 -0.71478287665E+03  0.35724644839E+04  0.35002268395E+04 0.  0.
        4    1    3    3  502    0  0.55592834324E+02 -0.24612581454E+03 -0.21249604936E+04  0.21398895280E+04  0.12699999809E+01 0.  1.
       -4    1    3    3    0  502 -0.55592834324E+02  0.24612581454E+03  0.14101776170E+04  0.14325749559E+04  0.12699999809E+01 0. -1.
</event>
<event>
 5   0  0.1098171E-07  0.3516694E+04  0.7818609E-02  0.8109845E-01
       -1   -1    0    0    0  501  0.00000000000E+00  0.00000000000E+00  0.15362830749E+04  0.15362830749E+04  0.50400001928E-02 0.  1.
        1   -1    0    0  501    0  0.00000000000E+00  0.00000000000E+00 -0.20125091321E+04  0.20125091321E+04  0.50400001928E-02 0. -1.
    10030    2    1    2    0    0  0.00000000000E+00  0.00000000000E+00 -0.47622605727E+03  0.35487922070E+04  0.35166937414E+04 0.  0.
        4    1    3    3  502    0  0.11703472079E+04  0.27456625125E+03 -0.15330570918E+04  0.19481696213E+04  0.12699999809E+01 0. -1.
       -4    1    3    3    0  502 -0.11703472079E+04 -0.27456625125E+03  0.10568310346E+04  0.16006225857E+04  0.12699999809E+01 0.  1.
</event>
<event>
 5   0  0.2180451E-07  0.3500517E+04  0.7818609E-02  0.8113667E-01
        2   -1    0    0  501    0  0.00000000000E+00  0.00000000000E+00  0.22712318786E+04  0.22712318786E+04  0.25500000920E-02 0. -1.
       -2   -1    0    0    0  501  0.00000000000E+00  0.00000000000E+00 -0.13487854793E+04  0.13487854793E+04  0.25500000920E-02 0.  1.
    10030    2    1    2    0    0  0.00000000000E+00  0.00000000000E+00  0.92244639924E+03  0.36200173579E+04  0.35005168636E+04 0.  0.
        4    1    3    3  502    0 -0.39502912298E+03  0.10777642934E+04 -0.90516191410E+03  0.14618288490E+04  0.12699999809E+01 0.  1.
       -4    1    3    3    0  502  0.39502912298E+03 -0.10777642934E+04  0.18276083133E+04  0.21581885089E+04  0.12699999809E+01 0. -1.
</event>
<event>
 5   0  0.1033796E-07  0.3497902E+04  0.7818609E-02  0.8114287E-01
        1   -1    0    0  501    0  0.00000000000E+00  0.00000000000E+00  0.18849116099E+04  0.18849116099E+04  0.50400001928E-02 0. -1.
       -1   -1    0    0    0  501  0.00000000000E+00  0.00000000000E+00 -0.16227971617E+04  0.16227971617E+04  0.50400001928E-02 0.  1.
    10030    2    1    2    0    0  0.00000000000E+00  0.00000000000E+00  0.26211444821E+03  0.35077087716E+04  0.34979017771E+04 0.  0.
        3    1    3    3  502    0  0.13528604825E+04 -0.52830727820E+03 -0.84609206059E+03  0.16808366519E+04  0.10100000352E+00 0.  1.
       -3    1    3    3    0  502 -0.13528604825E+04  0.52830727820E+03  0.11082065088E+04  0.18268721197E+04  0.10100000352E+00 0. -1.
</event>
<event>
 5   0  0.1098171E-07  0.3517205E+04  0.7818609E-02  0.8109725E-01
       -1   -1    0    0    0  501  0.00000000000E+00  0.00000000000E+00  0.19039978650E+04  0.19039978650E+04  0.50400001928E-02 0. -1.
        1   -1    0    0  501    0  0.00000000000E+00  0.00000000000E+00 -0.16243095959E+04  0.16243095959E+04  0.50400001928E-02 0.  1.
    10030    2    1    2    0    0  0.00000000000E+00  0.00000000000E+00  0.27968826909E+03  0.35283074609E+04  0.35172045733E+04 0.  0.
        4    1    3    3  502    0 -0.10239901048E+04  0.14080968431E+04  0.38839215410E+03  0.17838560852E+04  0.12699999809E+01 0.  1.
       -4    1    3    3    0  502  0.10239901048E+04 -0.14080968431E+04 -0.10870388500E+03  0.17444513756E+04  0.12699999809E+01 0. -1.
</event>
<event>
 5   0  0.1013863E-07  0.3506913E+04  0.7818609E-02  0.8112154E-01
        1   -1    0    0  501    0  0.00000000000E+00  0.00000000000E+00  0.15955787451E+04  0.15955787451E+04  0.50400001928E-02 0.  1.
       -1   -1    0    0    0  501  0.00000000000E+00  0.00000000000E+00 -0.19269560523E+04  0.19269560523E+04  0.50400001928E-02 0. -1.
    10030    2    1    2    0    0  0.00000000000E+00  0.00000000000E+00 -0.33137730724E+03  0.35225347974E+04  0.35069132409E+04 0.  0.
        2    1    3    3  502    0 -0.10203505028E+04 -0.14008387791E+04  0.10223098988E+03  0.17360632502E+04  0.25500000920E-02 0.  1.
       -2    1    3    3    0  502  0.10203505028E+04  0.14008387791E+04 -0.43360829712E+03  0.17864715472E+04  0.25500000920E-02 0. -1.
</event>
<event>
 5   0  0.2180451E-07  0.3475888E+04  0.7818609E-02  0.8119528E-01
        2   -1    0    0  501    0  0.00000000000E+00  0.00000000000E+00  0.20232369773E+04  0.20232369773E+04  0.25500000920E-02 0.  1.
       -2   -1    0    0    0  501  0.00000000000E+00  0.00000000000E+00 -0.14928799730E+04  0.14928799730E+04  0.25500000920E-02 0. -1.
    10030    2    1    2    0    0  0.00000000000E+00  0.00000000000E+00  0.53035700434E+03  0.35161169503E+04  0.34758883550E+04 0.  0.
        4    1    3    3  502    0 -0.10669708836E+03  0.14727184490E+04  0.11923917850E+04  0.18979156147E+04  0.12699999809E+01 0.  1.
       -4    1    3    3    0  502  0.10669708836E+03 -0.14727184490E+04 -0.66203478065E+03  0.16182013356E+04  0.12699999809E+01 0. -1.
</event>
<event>
 5   0  0.1072381E-07  0.3482379E+04  0.7818609E-02  0.8117979E-01
       -1   -1    0    0    0  501  0.00000000000E+00  0.00000000000E+00  0.14638006868E+04  0.14638006868E+04  0.50400001928E-02 0. -1.
        1   -1    0    0  501    0  0.00000000000E+00  0.00000000000E+00 -0.20711438053E+04  0.20711438053E+04  0.50400001928E-02 0.  1.
    10030    2    1    2    0    0  0.00000000000E+00  0.00000000000E+00 -0.60734311854E+03  0.35349444921E+04  0.34823794881E+04 0.  0.
        1    1    3    3  502    0  0.66648674324E+03 -0.15794651136E+04 -0.61294590436E+03  0.18206090480E+04  0.50400001928E-02 0. -1.
       -1    1    3    3    0  502 -0.66648674324E+03  0.15794651136E+04  0.56027858207E+01  0.17143354442E+04  0.50400001928E-02 0.  1.
</event>
<event>
 5   0  0.3190185E-07  0.3483386E+04  0.7818609E-02  0.8117739E-01
       -2   -1    0    0    0  501  0.00000000000E+00  0.00000000000E+00  0.14792018582E+04  0.14792018582E+04  0.25500000920E-02 0. -1.
        2   -1    0    0  501    0  0.00000000000E+00  0.00000000000E+00 -0.20507642023E+04  0.20507642023E+04  0.25500000920E-02 0.  1.
    10030    2    1    2    0    0  0.00000000000E+00  0.00000000000E+00 -0.57156234410E+03  0.35299660604E+04  0.34833858349E+04 0.  0.
        1    1    3    3  502    0  0.12280522103E+04 -0.76758403882E+03 -0.12662922583E+04  0.19237446742E+04  0.50400001928E-02 0.  1.
       -1    1    3    3    0  502 -0.12280522103E+04  0.76758403882E+03  0.69472991418E+03  0.16062213863E+04  0.50400001928E-02 0. -1.
</event>
<event>
 5   0  0.3219205E-07  0.3509934E+04  0.7818609E-02  0.8111440E-01
       -2   -1    0    0    0  501  0.00000000000E+00  0.00000000000E+00  0.12314329944E+04  0.12314329944E+04  0.25500000920E-02 0. -1.
        2   -1    0    0  501    0  0.00000000000E+00  0.00000000000E+00 -0.25010774440E+04  0.25010774440E+04  0.25500000920E-02 0.  1.
    10030    2    1    2    0    0  0.00000000000E+00  0.00000000000E+00 -0.12696444496E+04  0.37325104383E+04  0.35099340654E+04 0.  0.
        2    1    3    3  502    0 -0.70436566690E+02 -0.17221419651E+03  0.12209147392E+04  0.12350108663E+04  0.25500000920E-02 0. -1.
       -2    1    3    3    0  502  0.70436566690E+02  0.17221419651E+03 -0.24905591888E+04  0.24974995720E+04  0.25500000920E-02 0.  1.
</event>
<event>
 5   0  0.2180451E-07  0.3459544E+04  0.7818609E-02  0.8123445E-01
       -2   -1    0    0    0  501  0.00000000000E+00  0.00000000000E+00  0.14371874341E+04  0.14371874341E+04  0.25500000920E-02 0.  1.
        2   -1    0    0  501    0  0.00000000000E+00  0.00000000000E+00 -0.20819213886E+04  0.20819213886E+04  0.25500000920E-02 0. -1.
    10030    2    1    2    0    0  0.00000000000E+00  0.00000000000E+00 -0.64473395458E+03  0.35191088227E+04  0.34595440500E+04 0.  0.
        4    1    3    3  502    0 -0.75935469881E+03  0.14899022178E+04  0.12760832915E+03  0.16771146877E+04  0.12699999809E+01 0.  1.
       -4    1    3    3    0  502  0.75935469881E+03 -0.14899022178E+04 -0.77234228373E+03  0.18419941350E+04  0.12699999809E+01 0. -1.
</event>
<event>
 5   0  0.1013863E-07  0.3503337E+04  0.7818609E-02  0.8112999E-01
       -1   -1    0    0    0  501  0.00000000000E+00  0.00000000000E+00  0.13412523131E+04  0.13412523132E+04  0.50400001928E-02 0. -1.
        1   -1    0    0  501    0  0.00000000000E+00  0.00000000000E+00 -0.22876703945E+04  0.22876703945E+04  0.50400001928E-02 0.  1.
    10030    2    1    2    0    0  0.00000000000E+00  0.00000000000E+00 -0.94641808133E+03  0.36289227076E+04  0.35033373850E+04 0.  0.
        2    1    3    3  502    0 -0.11334279167E+04 -0.59070919143E+03 -0.17139565725E+04  0.21380466140E+04  0.25500000920E-02 0.  1.
       -2    1    3    3    0  502  0.11334279167E+04  0.59070919143E+03  0.76753849113E+03  0.14908760937E+04  0.25500000920E-02 0. -1.
</event>
<event>
 5   0  0.1072381E-07  0.3506678E+04  0.7818609E-02  0.8112209E-01
        1   -1    0    0  501    0  0.00000000000E+00  0.00000000000E+00  0.16005082590E+04  0.16005082590E+04  0.50400001928E-02 0. -1.
       -1   -1    0    0    0  501  0.00000000000E+00  0.00000000000E+00 -0.19207633004E+04  0.19207633004E+04  0.50400001928E-02 0.  1.
    10030    2    1    2    0    0  0.00000000000E+00  0.00000000000E+00 -0.32025504143E+03  0.35212715594E+04  0.35066779298E+04 0.  0.
        1    1    3    3  502    0 -0.29515146694E+02  0.17528992426E+04 -0.18613176554E+03  0.17630008318E+04  0.50400001928E-02 0.  1.
       -1    1    3    3    0  502  0.29515146694E+02 -0.17528992426E+04 -0.13412327589E+03  0.17582707277E+04  0.50400001928E-02 0. -1.
</event>
<event>
 5   0  0.2180451E-07  0.3495281E+04  0.7818609E-02  0.8114909E-01
        2   -1    0    0  501    0  0.00000000000E+00  0.00000000000E+00  0.19006109151E+04  0.19006109151E+04  0.25500000920E-02 0.  1.
       -2   -1    0    0    0  501  0.00000000000E+00  0.00000000000E+00 -0.16069818661E+04  0.16069818661E+04  0.25500000920E-02 0. -1.
    10030    2    1    2    0    0  0.00000000000E+00  0.00000000000E+00  0.29362904899E+03  0.35075927812E+04  0.34952809758E+04 0.  0.
        4    1    3    3  502    0  0.10397589594E+04  0.39479065704E+03 -0.12060019108E+04  0.16405488650E+04  0.12699999809E+01 0. -1.
       -4    1    3    3    0  502 -0.10397589594E+04 -0.39479065704E+03  0.14996309598E+04  0.18670439162E+04  0.12699999809E+01 0.  1.
</event>
<event>
 5   0  0.3119048E-07  0.3453990E+04  0.7818609E-02  0.8124781E-01
        2   -1    0    0  501    0  0.00000000000E+00  0.00000000000E+00  0.24302847289E+04  0.24302847289E+04  0.25500000920E-02 0.  1.
       -2   -1    0    0    0  501  0.00000000000E+00  0.00000000000E+00 -0.12272269797E+04  0.12272269797E+04  0.25500000920E-02 0. -1.
    10030    2    1    2    0    0  0.00000000000E+00  0.00000000000E+00  0.12030577492E+04  0.36575117086E+04  0.34539895701E+04 0.  0.
        3    1    3    3  502    0 -0.13652737908E+04 -0.10572825565E+04  0.57367194569E+03  0.18195929324E+04  0.10100000352E+00 0. -1.
       -3    1    3    3    0  502  0.13652737908E+04  0.10572825565E+04  0.62938580349E+03  0.18379187762E+04  0.10100000352E+00 0.  1.
</event>
<event>
 5   0  0.3190112E-07  0.3511562E+04  0.7818609E-02  0.8111055E-01
        2   -1    0    0  501    0  0.00000000000E+00  0.00000000000E+00  0.16203746434E+04  0.16203746434E+04  0.25500000920E-02 0.  1.
       -2   -1    0    0    0  501  0.00000000000E+00  0.00000000000E+00 -0.19025022961E+04  0.19025022961E+04  0.25500000920E-02 0. -1.
    10030    2    1    2    0    0  0.00000000000E+00  0.00000000000E+00 -0.28212765276E+03  0.35228769395E+04  0.35115617492E+04 0.  0.
        5    1    3    3  502    0  0.79952839329E+03  0.27436580997E+03 -0.16849254842E+04  0.18850777774E+04  0.46999998093E+01 0. -1.
       -5    1    3    3    0  502 -0.79952839329E+03 -0.27436580997E+03  0.14027978315E+04  0.16377991621E+04  0.46999998093E+01 0.  1.
</event>
<event>
 5   0  0.1013863E-07  0.3454087E+04  0.7818609E-02  0.8124758E-01
        3   -1    0    0  501    0  0.00000000000E+00  0.00000000000E+00  0.18025715812E+04  0.18025715840E+04  0.10100000352E+00 0. -1.
       -3   -1    0    0    0  501  0.00000000000E+00  0.00000000000E+00 -0.16546803021E+04  0.16546803051E+04  0.10100000352E+00 0.  1.
    10030    2    1    2    0    0  0.00000000000E+00  0.00000000000E+00  0.14789127916E+03  0.34572518892E+04  0.34540872593E+04 0.  0.
        2    1    3    3  502    0 -0.11609123811E+03 -0.62195171899E+03  0.16823960408E+04  0.17974308205E+04  0.25500000920E-02 0. -1.
       -2    1    3    3    0  502  0.11609123811E+03  0.62195171899E+03 -0.15345047617E+04  0.16598210687E+04  0.25500000920E-02 0.  1.
</event>
<event>
 5   0  0.1033796E-07  0.3673196E+04  0.7818609E-02  0.8073928E-01
       -1   -1    0    0    0  501  0.00000000000E+00  0.00000000000E+00  0.16228837292E+04  0.16228837293E+04  0.50400001928E-02 0.  1.
        1   -1    0    0  501    0  0.00000000000E+00  0.00000000000E+00 -0.20784555821E+04  0.20784555821E+04  0.50400001928E-02 0. -1.
    10030    2    1    2    0    0  0.00000000000E+00  0.00000000000E+00 -0.45557185284E+03  0.37013393113E+04  0.36731957455E+04 0.  0.
        3    1    3    3  502    0  0.11237695271E+04 -0.90970335264E+03  0.91344335101E+03  0.17102037614E+04  0.10100000352E+00 0.  1.
       -3    1    3    3    0  502 -0.11237695271E+04  0.90970335264E+03 -0.13690152039E+04  0.19911355500E+04  0.10100000352E+00 0. -1.
</event>
<event>
 5   0  0.3219205E-07  0.3519979E+04  0.7818609E-02  0.8109071E-01
        2   -1    0    0  501    0  0.00000000000E+00  0.00000000000E+00  0.17646900779E+04  0.17646900779E+04  0.25500000920E-02 0. -1.
       -2   -1    0    0    0  501  0.00000000000E+00  0.00000000000E+00 -0.17553015305E+04  0.17553015305E+04  0.25500000920E-02 0.  1.
    10030    2    1    2    0    0  0.00000000000E+00  0.00000000000E+00  0.93885473994E+01  0.35199916083E+04  0.35199790877E+04 0.  0.
        2    1    3    3  502    0  0.93030596710E+03  0.14912898403E+04  0.94964270019E+02  0.17602365730E+04  0.25500000920E-02 0.  1.
       -2    1    3    3    0  502 -0.93030596710E+03 -0.14912898403E+04 -0.85575722620E+02  0.17597550354E+04  0.25500000920E-02 0. -1.
</event>
<event>
 5   0  0.2180451E-07  0.3538987E+04  0.7818609E-02  0.8104612E-01
        2   -1    0    0  501    0  0.00000000000E+00  0.00000000000E+00  0.11830435297E+04  0.11830435297E+04  0.25500000920E-02 0. -1.
       -2   -1    0    0    0  501  0.00000000000E+00  0.00000000000E+00 -0.26466536020E+04  0.26466536020E+04  0.25500000920E-02 0.  1.
    10030    2    1    2    0    0  0.00000000000E+00  0.00000000000E+00 -0.14636100722E+04  0.38296971317E+04  0.35389865324E+04 0.  0.
        4    1    3    3  502    0  0.79127726774E+03 -0.91310746942E+03  0.66714534559E+03  0.13802063216E+04  0.12699999809E+01 0. -1.
       -4    1    3    3    0  502 -0.79127726774E+03  0.91310746942E+03 -0.21307554178E+04  0.24494908101E+04  0.12699999809E+01 0.  1.
</event>
<event>
 5   0  0.1072381E-07  0.3494730E+04  0.7818609E-02  0.8115040E-01
        1   -1    0    0  501    0  0.00000000000E+00  0.00000000000E+00  0.26033662050E+04  0.26033662050E+04  0.50400001928E-02 0.  1.
       -1   -1    0    0    0  501  0.00000000000E+00  0.00000000000E+00 -0.11728215455E+04  0.11728215455E+04  0.50400001928E-02 0. -1.
    10030    2    1    2    0    0  0.00000000000E+00  0.00000000000E+00  0.14305446595E+04  0.37761877505E+04  0.34947297327E+04 0.  0.
        1    1    3    3  502    0 -0.65904523890E+03 -0.15109701011E+04  0.13415302014E+04  0.21253410443E+04  0.50400001928E-02 0.  1.
       -1    1    3    3    0  502  0.65904523890E+03  0.15109701011E+04  0.89014458082E+02  0.16508467062E+04  0.50400001928E-02 0. -1.
</event>
<event>
 5   0  0.1072381E-07  0.3500614E+04  0.7818609E-02  0.8113645E-01
       -1   -1    0    0    0  501  0.00000000000E+00  0.00000000000E+00  0.34121313365E+04  0.34121313365E+04  0.50400001928E-02 0. -1.
        1   -1    0    0  501    0  0.00000000000E+00  0.00000000000E+00 -0.89784756187E+03  0.89784756189E+03  0.50400001928E-02 0.  1.
    10030    2    1    2    0    0  0.00000000000E+00  0.00000000000E+00  0.25142837746E+04  0.43099788984E+04  0.35006135470E+04 0.  0.
        1    1    3    3  502    0  0.15518298147E+03 -0.16572187809E+03 -0.87964150196E+03  0.90846831018E+03  0.50400001928E-02 0.  1.
       -1    1    3    3    0  502 -0.15518298147E+03  0.16572187809E+03  0.33939252766E+04  0.34015105882E+04  0.50400001928E-02 0. -1.
</event>
<event>
 5   0  0.3119048E-07  0.3501847E+04  0.7818609E-02  0.8113352E-01
        2   -1    0    0  501    0  0.00000000000E+00  0.00000000000E+00  0.19515019888E+04  0.19515019888E+04  0.25500000920E-02 0. -1.
       -2   -1    0    0    0  501  0.00000000000E+00  0.00000000000E+00 -0.15709603915E+04  0.15709603915E+04  0.25500000920E-02 0.  1.
    10030    2    1    2    0    0  0.00000000000E+00  0.00000000000E+00  0.38054159728E+03  0.35224623802E+04  0.35018465576E+04 0.  0.
        3    1    3    3  502    0  0.12940254958E+04  0.88692193327E+03  0.97240856604E+03  0.18457277505E+04  0.10100000352E+00 0. -1.
       -3    1    3    3    0  502 -0.12940254958E+04 -0.88692193327E+03 -0.59186696876E+03  0.16767346297E+04  0.10100000352E+00 0.  1.
</event>
<event>
 5   0  0.1098171E-07  0.3496131E+04  0.7818609E-02  0.8114708E-01
       -1   -1    0    0    0  501  0.00000000000E+00  0.00000000000E+00  0.17083440448E+04  0.17083440449E+04  0.50400001928E-02 0. -1.
        1   -1    0    0  501    0  0.00000000000E+00  0.00000000000E+00 -0.17887102619E+04  0.17887102619E+04  0.50400001928E-02 0.  1.
    10030    2    1    2    0    0  0.00000000000E+00  0.00000000000E+00 -0.80366217077E+02  0.34970543068E+04  0.34961307321E+04 0.  0.
        4    1    3    3  502    0  0.13901417176E+04 -0.95631809691E+03  0.41676643885E+03  0.17380259420E+04  0.12699999809E+01 0. -1.
       -4    1    3    3    0  502 -0.13901417176E+04  0.95631809691E+03 -0.49713265593E+03  0.17590283648E+04  0.12699999809E+01 0.  1.
</event>
<event>
 5   0  0.1072381E-07  0.3512462E+04  0.7818609E-02  0.8110843E-01
       -1   -1    0    0    0  501  0.00000000000E+00  0.00000000000E+00  0.13680389774E+04  0.13680389774E+04  0.50400001928E-02 0.  1.
        1   -1    0    0  501    0  0.00000000000E+00  0.00000000000E+00 -0.22545757681E+04  0.22545757681E+04  0.50400001928E-02 0. -1.
    10030    2    1    2    0    0  0.00000000000E+00  0.00000000000E+00 -0.88653679064E+03  0.36226147455E+04  0.35124621156E+04 0.  0.
        1    1    3    3  502    0  0.63226592678E+02 -0.10822374590E+04 -0.18683056115E+04  0.21600466147E+04  0.50400001928E-02 0. -1.
       -1    1    3    3    0  502 -0.63226592678E+02  0.10822374590E+04  0.98176882084E+03  0.14625681308E+04  0.50400001928E-02 0.  1.
</event>
<event>
 5   0  0.1013863E-07  0.3484599E+04  0.7818609E-02  0.8117449E-01
       -3   -1    0    0    0  501  0.00000000000E+00  0.00000000000E+00  0.25241917795E+04  0.25241917815E+04  0.10100000352E+00 0. -1.
        3   -1    0    0  501    0  0.00000000000E+00  0.00000000000E+00 -0.12026059969E+04  0.12026060011E+04  0.10100000352E+00 0.  1.
    10030    2    1    2    0    0  0.00000000000E+00  0.00000000000E+00  0.13215857826E+04  0.37267977826E+04  0.34845993646E+04 0.  0.
        4    1    3    3  502    0 -0.89851432933E+03  0.78804388618E+03  0.20166901216E+04  0.23442230752E+04  0.12699999809E+01 0. -1.
       -4    1    3    3    0  502  0.89851432933E+03 -0.78804388618E+03 -0.69510433902E+03  0.13825747074E+04  0.12699999809E+01 0.  1.
</event>
<event>
 5   0  0.1072381E-07  0.3464090E+04  0.7818609E-02  0.8122353E-01
        1   -1    0    0  501    0  0.00000000000E+00  0.00000000000E+00  0.14852914580E+04  0.14852914580E+04  0.50400001928E-02 0. -1.
       -1   -1    0    0    0  501  0.00000000000E+00  0.00000000000E+00 -0.20197922215E+04  0.20197922215E+04  0.50400001928E-02 0.  1.
    10030    2    1    2    0    0  0.00000000000E+00  0.00000000000E+00 -0.53450076347E+03  0.35050836796E+04  0.34640901453E+04 0.  0.
        1    1    3    3  502    0  0.14985670920E+03 -0.69215553201E+03 -0.18666021682E+04  0.19964318091E+04  0.50400001928E-02 0.  1.
       -1    1    3    3    0  502 -0.14985670920E+03  0.69215553201E+03  0.13321014048E+04  0.15086518705E+04  0.50400001928E-02 0. -1.
</event>
<event>
 5   0  0.1033796E-07  0.3508108E+04  0.7818609E-02  0.8111871E-01
       -1   -1    0    0    0  501  0.00000000000E+00  0.00000000000E+00  0.17605873839E+04  0.17605873839E+04  0.50400001928E-02 0. -1.
        1   -1    0    0  501    0  0.00000000000E+00  0.00000000000E+00 -0.17475448496E+04  0.17475448496E+04  0.50400001928E-02 0.  1.
    10030    2    1    2    0    0  0.00000000000E+00  0.00000000000E+00  0.13042534315E+02  0.35081322335E+04  0.35081079886E+04 0.  0.
        3    1    3    3  502    0  0.11061897761E+04  0.12489466077E+04 -0.53494526690E+03  0.17520530524E+04  0.10100000352E+00 0.  1.
       -3    1    3    3    0  502 -0.11061897761E+04 -0.12489466077E+04  0.54798780121E+03  0.17560791811E+04  0.10100000352E+00 0. -1.
</event>
<event>
 5   0  0.3190112E-07  0.3494072E+04  0.7818609E-02  0.8115196E-01
       -2   -1    0    0    0  501  0.00000000000E+00  0.00000000000E+00  0.99197361013E+03  0.99197361014E+03  0.25500000920E-02 0. -1.
        2   -1    0    0  501    0  0.00000000000E+00  0.00000000000E+00 -0.30768300190E+04  0.30768300190E+04  0.25500000920E-02 0.  1.
    10030    2    1    2    0    0  0.00000000000E+00  0.00000000000E+00 -0.20848564089E+04  0.40688036291E+04  0.34940716545E+04 0.  0.
        5    1    3    3  502    0 -0.15865100463E+04  0.28842812294E+03 -0.18252439370E+04  0.24355168709E+04  0.46999998093E+01 0.  1.
       -5    1    3    3    0  502  0.15865100463E+04 -0.28842812294E+03 -0.25961247187E+03  0.16332867582E+04  0.46999998093E+01 0. -1.
</event>
<event>
 5   0  0.1098171E-07  0.3498351E+04  0.7818609E-02  0.8114181E-01
        1   -1    0    0  501    0  0.00000000000E+00  0.00000000000E+00  0.13208048759E+04  0.13208048759E+04  0.50400001928E-02 0.  1.
       -1   -1    0    0    0  501  0.00000000000E+00  0.00000000000E+00 -0.23164778923E+04  0.23164778923E+04  0.50400001928E-02 0. -1.
    10030    2    1    2    0    0  0.00000000000E+00  0.00000000000E+00 -0.99567301635E+03  0.36372827682E+04  0.34983512089E+04 0.  0.
        4    1    3    3  502    0 -0.69158371634E+03 -0.13582818264E+04 -0.13900512717E+04  0.20628770461E+04  0.12699999809E+01 0. -1.
       -4    1    3    3    0  502  0.69158371634E+03  0.13582818264E+04  0.39437825537E+03  0.15744057221E+04  0.12699999809E+01 0.  1.
</event>
<event>
 5   0  0.1072381E-07  0.3500045E+04  0.7818609E-02  0.8113779E-01
       -1   -1    0    0    0  501  0.00000000000E+00  0.00000000000E+00  0.10820916720E+04  0.10820916720E+04  0.50400001928E-02 0. -1.
        1   -1    0    0  501    0  0.00000000000E+00  0.00000000000E+00 -0.28302393023E+04  0.28302393023E+04  0.50400001928E-02 0.  1.
    10030    2    1    2    0    0  0.00000000000E+00  0.00000000000E+00 -0.17481476303E+04  0.39123309743E+04  0.35000447876E+04 0.  0.
        1    1    3    3  502    0  0.16069928005E+04 -0.16803530712E+03 -0.16255083646E+04  0.22919291369E+04  0.50400001928E-02 0.  1.
       -1    1    3    3    0  502 -0.16069928005E+04  0.16803530712E+03 -0.12263926567E+03  0.16204018374E+04  0.50400001928E-02 0. -1.
</event>
<event>
 5   0  0.1072381E-07  0.3544555E+04  0.7818609E-02  0.8103311E-01
       -1   -1    0    0    0  501  0.00000000000E+00  0.00000000000E+00  0.16450821815E+04  0.16450821815E+04  0.50400001928E-02 0. -1.
        1   -1    0    0  501    0  0.00000000000E+00  0.00000000000E+00 -0.19093079034E+04  0.19093079034E+04  0.50400001928E-02 0.  1.
    10030    2    1    2    0    0  0.00000000000E+00  0.00000000000E+00 -0.26422572186E+03  0.35543900849E+04  0.35445554931E+04 0.  0.
        1    1    3    3  502    0  0.14399933795E+04 -0.46555769285E+03  0.79274950098E+03  0.17084427616E+04  0.50400001928E-02 0. -1.
       -1    1    3    3    0  502 -0.14399933795E+04  0.46555769285E+03 -0.10569752228E+04  0.18459473232E+04  0.50400001928E-02 0.  1.
</event>
<event>
 5   0  0.3119048E-07  0.3500049E+04  0.7818609E-02  0.8113778E-01
        2   -1    0    0  501    0  0.00000000000E+00  0.00000000000E+00  0.12884234340E+04  0.12884234340E+04  0.25500000920E-02 0. -1.
       -2   -1    0    0    0  501  0.00000000000E+00  0.00000000000E+00 -0.23770027677E+04  0.23770027677E+04  0.25500000920E-02 0.  1.
    10030    2    1    2    0    0  0.00000000000E+00  0.00000000000E+00 -0.10885793336E+04  0.36654262017E+04  0.35000491817E+04 0.  0.
        3    1    3    3  502    0  0.84665551190E+03 -0.36175138788E+03  0.10142829626E+04  0.13698392463E+04  0.10100000352E+00 0. -1.
       -3    1    3    3    0  502 -0.84665551190E+03  0.36175138788E+03 -0.21028622962E+04  0.22955869553E+04  0.10100000352E+00 0.  1.
</event>
<event>
 5   0  0.2180451E-07  0.3489135E+04  0.7818609E-02  0.8116370E-01
       -2   -1    0    0    0  501  0.00000000000E+00  0.00000000000E+00  0.14969852938E+04  0.14969852938E+04  0.25500000920E-02 0. -1.
        2   -1    0    0  501    0  0.00000000000E+00  0.00000000000E+00 -0.20330961028E+04  0.20330961028E+04  0.25500000920E-02 0.  1.
    10030    2    1    2    0    0  0.00000000000E+00  0.00000000000E+00 -0.53611080898E+03  0.35300813966E+04  0.34891345441E+04 0.  0.
        4    1    3    3  502    0 -0.40366748614E+03  0.38071790548E+03 -0.19414365502E+04  0.20191758354E+04  0.12699999809E+01 0.  1.
       -4    1    3    3    0  502  0.40366748614E+03 -0.38071790548E+03  0.14053257412E+04  0.15109055612E+04  0.12699999809E+01 0. -1.
</event>
<event>
 5   0  0.1013863E-07  0.3486860E+04  0.7818609E-02  0.8116911E-01
       -1   -1    0    0    0  501  0.00000000000E+00  0.00000000000E+00  0.18499976462E+04  0.18499976462E+04  0.50400001928E-02 0. -1.
        1   -1    0    0  501    0  0.00000000000E+00  0.00000000000E+00 -0.16430006461E+04  0.16430006461E+04  0.50400001928E-02 0.  1.
    10030    2    1    2    0    0  0.00000000000E+00  0.00000000000E+00  0.20699700016E+03  0.34929982923E+04  0.34868595199E+04 0.  0.
        5    1    3    3  502    0 -0.15736580079E+04 -0.58789880124E+03  0.57068928059E+03  0.17741851288E+04  0.46999998093E+01 0. -1.
       -5    1    3    3    0  502  0.15736580079E+04  0.58789880124E+03 -0.36369228043E+03  0.17188131635E+04  0.46999998093E+01 0.  1.
</event>
<event>
 5   0  0.2180451E-07  0.3493549E+04  0.7818609E-02  0.8115320E-01
        2   -1    0    0  501    0  0.00000000000E+00  0.00000000000E+00  0.19729139312E+04  0.19729139312E+04  0.25500000920E-02 0.  1.
       -2   -1    0    0    0  501  0.00000000000E+00  0.00000000000E+00 -0.15465555921E+04  0.15465555921E+04  0.25500000920E-02 0. -1.
    10030    2    1    2    0    0  0.00000000000E+00  0.00000000000E+00  0.42635833905E+03  0.35194695233E+04  0.34935489537E+04 0.  0.
        4    1    3    3  502    0 -0.14599689803E+02 -0.14572265430E+04  0.11833912065E+04  0.18772689496E+04  0.12699999809E+01 0.  1.
       -4    1    3    3    0  502  0.14599689803E+02  0.14572265430E+04 -0.75703286750E+03  0.16422005736E+04  0.12699999809E+01 0. -1.
</event>
<event>
 5   0  0.1033796E-07  0.3499572E+04  0.7818609E-02  0.8113891E-01
        1   -1    0    0  501    0  0.00000000000E+00  0.00000000000E+00  0.95448380578E+03  0.95448380579E+03  0.50400001928E-02 0.  1.
       -1   -1    0    0    0  501  0.00000000000E+00  0.00000000000E+00 -0.32077556191E+04  0.32077556191E+04  0.50400001928E-02 0. -1.
    10030    2    1    2    0    0  0.00000000000E+00  0.00000000000E+00 -0.22532718133E+04  0.41622394249E+04  0.34995718546E+04 0.  0.
        3    1    3    3  502    0  0.41935513735E+02  0.51046004995E+03  0.86333343661E+03  0.10038290108E+04  0.10100000352E+00 0.  1.
       -3    1    3    3    0  502 -0.41935513735E+02 -0.51046004995E+03 -0.31166052499E+04  0.31584104141E+04  0.10100000352E+00 0. -1.
</event>
<event>
 5   0  0.3219205E-07  0.3448767E+04  0.7818609E-02  0.8126040E-01
       -2   -1    0    0    0  501  0.00000000000E+00  0.00000000000E+00  0.12041498329E+04  0.12041498329E+04  0.25500000920E-02 0. -1.
        2   -1    0    0  501    0  0.00000000000E+00  0.00000000000E+00 -0.24693753457E+04  0.24693753457E+04  0.25500000920E-02 0.  1.
    10030    2    1    2    0    0  0.00000000000E+00  0.00000000000E+00 -0.12652255128E+04  0.36735251786E+04  0.34487666838E+04 0.  0.
        2    1    3    3  502    0 -0.18047112262E+03 -0.17146486938E+04 -0.66470853574E+03  0.18478169300E+04  0.25500000920E-02 0.  1.
       -2    1    3    3    0  502  0.18047112262E+03  0.17146486938E+04 -0.60051697706E+03  0.18257082486E+04  0.25500000920E-02 0. -1.
</event>
<event>
 5   0  0.2180451E-07  0.3487281E+04  0.7818609E-02  0.8116811E-01
        2   -1    0    0  501    0  0.00000000000E+00  0.00000000000E+00  0.20801151625E+04  0.20801151625E+04  0.25500000920E-02 0.  1.
       -2   -1    0    0    0  501  0.00000000000E+00  0.00000000000E+00 -0.14615936043E+04  0.14615936043E+04  0.25500000920E-02 0. -1.
    10030    2    1    2    0    0  0.00000000000E+00  0.00000000000E+00  0.61852155815E+03  0.35417087668E+04  0.34872814728E+04 0.  0.
        4    1    3    3  502    0  0.17415879690E+03  0.14065802664E+04 -0.72220942261E+03  0.15907191440E+04  0.12699999809E+01 0. -1.
       -4    1    3    3    0  502 -0.17415879690E+03 -0.14065802664E+04  0.13407309808E+04  0.19509896227E+04  0.12699999809E+01 0.  1.
</event>
<event>
 5   0  0.1013863E-07  0.3516872E+04  0.7818609E-02  0.8109803E-01
        1   -1    0    0  501    0  0.00000000000E+00  0.00000000000E+00  0.20998248321E+04  0.20998248321E+04  0.50400001928E-02 0. -1.
       -1   -1    0    0    0  501  0.00000000000E+00  0.00000000000E+00 -0.14725496383E+04  0.14725496383E+04  0.50400001928E-02 0.  1.
    10030    2    1    2    0    0  0.00000000000E+00  0.00000000000E+00  0.62727519383E+03  0.35723744704E+04  0.35168715057E+04 0.  0.
        2    1    3    3  502    0  0.79421003924E+03 -0.12087576929E+04  0.13295371068E+04  0.19645695877E+04  0.25500000920E-02 0. -1.
       -2    1    3    3    0  502 -0.79421003924E+03  0.12087576929E+04 -0.70226191293E+03  0.16078048827E+04  0.25500000920E-02 0.  1.
</event>
<event>
 5   0  0.2180451E-07  0.3558571E+04  0.7818609E-02  0.8100048E-01
        2   -1    0    0  501    0  0.00000000000E+00  0.00000000000E+00  0.16859590338E+04  0.16859590338E+04  0.25500000920E-02 0.  1.
       -2   -1    0    0    0  501  0.00000000000E+00  0.00000000000E+00 -0.18777779630E+04  0.18777779630E+04  0.25500000920E-02 0. -1.
    10030    2    1    2    0    0  0.00000000000E+00  0.00000000000E+00 -0.19181892918E+03  0.35637369969E+04  0.35585709043E+04 0.  0.
        4    1    3    3  502    0  0.69415135009E+03  0.16285888686E+04 -0.27423342669E+03  0.17914668250E+04  0.12699999809E+01 0. -1.
       -4    1    3    3    0  502 -0.69415135009E+03 -0.16285888686E+04  0.82414497515E+02  0.17722701719E+04  0.12699999809E+01 0.  1.
</event>
<event>
 5   0  0.3190112E-07  0.3502443E+04  0.7818609E-02  0.8113211E-01
        2   -1    0    0  501    0  0.00000000000E+00  0.00000000000E+00  0.22400349592E+04  0.22400349592E+04  0.25500000920E-02 0. -1.
       -2   -1    0    0    0  501  0.00000000000E+00  0.00000000000E+00 -0.13690750297E+04  0.13690750297E+04  0.25500000920E-02 0.  1.
    10030    2    1    2    0    0  0.00000000000E+00  0.00000000000E+00  0.87095992954E+03  0.36091099889E+04  0.35024425354E+04 0.  0.
        5    1    3    3  502    0  0.29762375333E+03 -0.13437276188E+04 -0.68035121607E+03  0.15352796746E+04  0.46999998093E+01 0.  1.
       -5    1    3    3    0  502 -0.29762375333E+03  0.13437276188E+04  0.15513111456E+04  0.20738303143E+04  0.46999998093E+01 0. -1.
</event>
<event>
 5   0  0.2180451E-07  0.3486004E+04  0.7818609E-02  0.8117115E-01
       -2   -1    0    0    0  501  0.00000000000E+00  0.00000000000E+00  0.96429441793E+03  0.96429441793E+03  0.25500000920E-02 0. -1.
        2   -1    0    0  501    0  0.00000000000E+00  0.00000000000E+00 -0.31505486976E+04  0.31505486976E+04  0.25500000920E-02 0.  1.
    10030    2    1    2    0    0  0.00000000000E+00  0.00000000000E+00 -0.21862542796E+04  0.41148431155E+04  0.34860043158E+04 0.  0.
        4    1    3    3  502    0 -0.99442284897E+03  0.36226743684E+03  0.54159112946E+03  0.11888805923E+04  0.12699999809E+01 0. -1.
       -4    1    3    3    0  502  0.99442284897E+03 -0.36226743684E+03 -0.27278454091E+04  0.29259625232E+04  0.12699999809E+01 0.  1.
</event>
<event>
 5   0  0.3119048E-07  0.3504082E+04  0.7818609E-02  0.8112823E-01
        2   -1    0    0  501    0  0.00000000000E+00  0.00000000000E+00  0.16451101999E+04  0.16451101999E+04  0.25500000920E-02 0.  1.
       -2   -1    0    0    0  501  0.00000000000E+00  0.00000000000E+00 -0.18659219067E+04  0.18659219067E+04  0.25500000920E-02 0. -1.
    10030    2    1    2    0    0  0.00000000000E+00  0.00000000000E+00 -0.22081170676E+03  0.35110321066E+04  0.35040817119E+04 0.  0.
        3    1    3    3  502    0  0.15766641083E+04 -0.51741646041E+03 -0.67371101034E+03  0.17909427795E+04  0.10100000352E+00 0. -1.
       -3    1    3    3    0  502 -0.15766641083E+04  0.51741646041E+03  0.45289930358E+03  0.17200893271E+04  0.10100000352E+00 0.  1.
</event>
<event>
 5   0  0.1013863E-07  0.3473577E+04  0.7818609E-02  0.8120081E-01
       -1   -1    0    0    0  501  0.00000000000E+00  0.00000000000E+00  0.11578204037E+04  0.11578204037E+04  0.50400001928E-02 0. -1.
        1   -1    0    0  501    0  0.00000000000E+00  0.00000000000E+00 -0.26052691149E+04  0.26052691149E+04  0.50400001928E-02 0.  1.
    10030    2    1    2    0    0  0.00000000000E+00  0.00000000000E+00 -0.14474487111E+04  0.37630895186E+04  0.34735766802E+04 0.  0.
        2    1    3    3  502    0 -0.49261782708E+03  0.14165630826E+04 -0.16725722716E+04  0.22465131413E+04  0.25500000920E-02 0.  1.
       -2    1    3    3    0  502  0.49261782708E+03 -0.14165630826E+04  0.22512356043E+03  0.15165763772E+04  0.25500000920E-02 0. -1.
</event>
<event>
 5   0  0.1098171E-07  0.3505313E+04  0.7818609E-02  0.8112532E-01
        1   -1    0    0  501    0  0.00000000000E+00  0.00000000000E+00  0.18299009614E+04  0.18299009614E+04  0.50400001928E-02 0. -1.
       -1   -1    0    0    0  501  0.00000000000E+00  0.00000000000E+00 -0.16786727920E+04  0.16786727920E+04  0.50400001928E-02 0.  1.
    10030    2    1    2    0    0  0.00000000000E+00  0.00000000000E+00  0.15122816934E+03  0.35085737534E+04  0.35053130850E+04 0.  0.
        4    1    3    3  502    0 -0.12617501187E+04 -0.68971868062E+03  0.10785831736E+04  0.17975173145E+04  0.12699999809E+01 0. -1.
       -4    1    3    3    0  502  0.12617501187E+04  0.68971868062E+03 -0.92735500424E+03  0.17110564390E+04  0.12699999809E+01 0.  1.
</event>
<event>
 5   0  0.1033796E-07  0.3496160E+04  0.7818609E-02  0.8114701E-01
       -1   -1    0    0    0  501  0.00000000000E+00  0.00000000000E+00  0.34845658623E+04  0.34845658623E+04  0.50400001928E-02 0.  1.
        1   -1    0    0  501    0  0.00000000000E+00  0.00000000000E+00 -0.87694811768E+03  0.87694811770E+03  0.50400001928E-02 0. -1.
    10030    2    1    2    0    0  0.00000000000E+00  0.00000000000E+00  0.26076177446E+04  0.43615139800E+04  0.34961598785E+04 0.  0.
        3    1    3    3  502    0 -0.18805404059E+03  0.85823697692E+03 -0.58148746424E+03  0.10535951367E+04  0.10100000352E+00 0. -1.
       -3    1    3    3    0  502  0.18805404059E+03 -0.85823697692E+03  0.31891052089E+04  0.33079188433E+04  0.10100000352E+00 0.  1.
</event>
<event>
 5   0  0.1033796E-07  0.3483905E+04  0.7818609E-02  0.8117615E-01
        1   -1    0    0  501    0  0.00000000000E+00  0.00000000000E+00  0.23115017900E+04  0.23115017900E+04  0.50400001928E-02 0.  1.
       -1   -1    0    0    0  501  0.00000000000E+00  0.00000000000E+00 -0.13127392570E+04  0.13127392570E+04  0.50400001928E-02 0. -1.
    10030    2    1    2    0    0  0.00000000000E+00  0.00000000000E+00  0.99876253292E+03  0.36242410470E+04  0.34839053618E+04 0.  0.
        3    1    3    3  502    0  0.28319889075E+03 -0.75444363481E+03  0.21059378982E+04  0.22548528225E+04  0.10100000352E+00 0.  1.
       -3    1    3    3    0  502 -0.28319889075E+03  0.75444363481E+03 -0.11071753653E+04  0.13693882245E+04  0.10100000352E+00 0. -1.
</event>
<event>
 5   0  0.3190185E-07  0.3509393E+04  0.7818609E-02  0.8111568E-01
        2   -1    0    0  501    0  0.00000000000E+00  0.00000000000E+00  0.15213795667E+04  0.15213795667E+04  0.25500000920E-02 0.  1.
       -2   -1    0    0    0  501  0.00000000000E+00  0.00000000000E+00 -0.20237941794E+04  0.20237941794E+04  0.25500000920E-02 0. -1.
    10030    2    1    2    0    0  0.00000000000E+00  0.00000000000E+00 -0.50241461265E+03  0.35451737461E+04  0.35093926037E+04 0.  0.
        1    1    3    3  502    0 -0.36779676450E+03  0.15396768737E+04  0.51353146578E+03  0.16642096928E+04  0.50400001928E-02 0. -1.
       -1    1    3    3    0  502  0.36779676450E+03 -0.15396768737E+04 -0.10159460784E+04  0.18809640533E+04  0.50400001928E-02 0.  1.
</event>
<event>
 5   0  0.3119048E-07  0.3504652E+04  0.7818609E-02  0.8112688E-01
        2   -1    0    0  501    0  0.00000000000E+00  0.00000000000E+00  0.17295131705E+04  0.17295131705E+04  0.25500000920E-02 0. -1.
       -2   -1    0    0    0  501  0.00000000000E+00  0.00000000000E+00 -0.17754395106E+04  0.17754395106E+04  0.25500000920E-02 0.  1.
    10030    2    1    2    0    0  0.00000000000E+00  0.00000000000E+00 -0.45926340098E+02  0.35049526811E+04  0.35046517755E+04 0.  0.
        3    1    3    3  502    0 -0.16307195388E+04 -0.58756610888E+03  0.23428616921E+03  0.17491055331E+04  0.10100000352E+00 0. -1.
       -3    1    3    3    0  502  0.16307195388E+04  0.58756610888E+03 -0.28021250931E+03  0.17558471480E+04  0.10100000352E+00 0.  1.
</event>
<event>
 5   0  0.3219205E-07  0.3509404E+04  0.7818609E-02  0.8111565E-01
       -2   -1    0    0    0  501  0.00000000000E+00  0.00000000000E+00  0.11227300392E+04  0.11227300392E+04  0.25500000920E-02 0. -1.
        2   -1    0    0  501    0  0.00000000000E+00  0.00000000000E+00 -0.27424043856E+04  0.27424043856E+04  0.25500000920E-02 0.  1.
    10030    2    1    2    0    0  0.00000000000E+00  0.00000000000E+00 -0.16196743465E+04  0.38651344248E+04  0.35094043844E+04 0.  0.
        2    1    3    3  502    0  0.10752503289E+04 -0.12130340161E+04 -0.69899527852E+02  0.16224983013E+04  0.25500000920E-02 0. -1.
       -2    1    3    3    0  502 -0.10752503289E+04  0.12130340161E+04 -0.15497748186E+04  0.22426361235E+04  0.25500000920E-02 0.  1.
</event>
<event>
 5   0  0.1072381E-07  0.3504256E+04  0.7818609E-02  0.8112782E-01
       -1   -1    0    0    0  501  0.00000000000E+00  0.00000000000E+00  0.15445995989E+04  0.15445995989E+04  0.50400001928E-02 0.  1.
        1   -1    0    0  501    0  0.00000000000E+00  0.00000000000E+00 -0.19875388566E+04  0.19875388566E+04  0.50400001928E-02 0. -1.
    10030    2    1    2    0    0  0.00000000000E+00  0.00000000000E+00 -0.44293925768E+03  0.35321384555E+04  0.35042555390E+04 0.  0.
        1    1    3    3  502    0 -0.12695116856E+04  0.90881290308E+03  0.58006266307E+03  0.16655550144E+04  0.50400001928E-02 0.  1.
       -1    1    3    3    0  502  0.12695116856E+04 -0.90881290308E+03 -0.10230019207E+04  0.18665834411E+04  0.50400001928E-02 0. -1.
</event>
<event>
 5   0  0.3219205E-07  0.3506700E+04  0.7818609E-02  0.8112204E-01
        2   -1    0    0  501    0  0.00000000000E+00  0.00000000000E+00  0.20174484331E+04  0.20174484331E+04  0.25500000920E-02 0. -1.
       -2   -1    0    0    0  501  0.00000000000E+00  0.00000000000E+00 -0.15238238738E+04  0.15238238738E+04  0.25500000920E-02 0.  1.
    10030    2    1    2    0    0  0.00000000000E+00  0.00000000000E+00  0.49362455936E+03  0.35412723069E+04  0.35066999225E+04 0.  0.
        2    1    3    3  502    0 -0.10925560518E+04 -0.87719606416E+03 -0.81765973802E+03  0.16222574113E+04  0.25500000920E-02 0.  1.
       -2    1    3    3    0  502  0.10925560518E+04  0.87719606416E+03  0.13112842974E+04  0.19190148957E+04  0.25500000920E-02 0. -1.
</event>
<event>
 5   0  0.1072381E-07  0.3502247E+04  0.7818609E-02  0.8113258E-01
        1   -1    0    0  501    0  0.00000000000E+00  0.00000000000E+00  0.18336914193E+04  0.18336914193E+04  0.50400001928E-02 0. -1.
       -1   -1    0    0    0  501  0.00000000000E+00  0.00000000000E+00 -0.16722738693E+04  0.16722738693E+04  0.50400001928E-02 0.  1.
    10030    2    1    2    0    0  0.00000000000E+00  0.00000000000E+00  0.16141754997E+03  0.35059652886E+04  0.35022474183E+04 0.  0.
        1    1    3    3  502    0 -0.11530882021E+04  0.12003340807E+04  0.62536349239E+03  0.17780589992E+04  0.50400001928E-02 0. -1.
       -1    1    3    3    0  502  0.11530882021E+04 -0.12003340807E+04 -0.46394594241E+03  0.17279062893E+04  0.50400001928E-02 0.  1.
</event>
<event>
 5   0  0.1013863E-07  0.3723878E+04  0.7818609E-02  0.8062691E-01
        1   -1    0    0  501    0  0.00000000000E+00  0.00000000000E+00  0.20335958788E+04  0.20335958788E+04  0.50400001928E-02 0. -1.
       -1   -1    0    0    0  501  0.00000000000E+00  0.00000000000E+00 -0.17047720210E+04  0.17047720210E+04  0.50400001928E-02 0.  1.
    10030    2    1    2    0    0  0.00000000000E+00  0.00000000000E+00  0.32882385782E+03  0.37383678998E+04  0.37238782774E+04 0.  0.
        5    1    3    3  502    0 -0.17139212413E+04  0.70839630307E+03  0.33071859392E+03  0.18838121515E+04  0.46999998093E+01 0. -1.
       -5    1    3    3    0  502  0.17139212413E+04 -0.70839630307E+03 -0.18947360978E+01  0.18545557483E+04  0.46999998093E+01 0.  1.
</event>
<event>
 5   0  0.2180451E-07  0.3506003E+04  0.7818609E-02  0.8112369E-01
        2   -1    0    0  501    0  0.00000000000E+00  0.00000000000E+00  0.20181060088E+04  0.20181060088E+04  0.25500000920E-02 0.  1.
       -2   -1    0    0    0  501  0.00000000000E+00  0.00000000000E+00 -0.15227222591E+04  0.15227222591E+04  0.25500000920E-02 0. -1.
    10030    2    1    2    0    0  0.00000000000E+00  0.00000000000E+00  0.49538374963E+03  0.35408282679E+04  0.35060033889E+04 0.  0.
        4    1    3    3  502    0 -0.30289624667E+03 -0.79347206856E+03 -0.13010557527E+04  0.15537347728E+04  0.12699999809E+01 0. -1.
       -4    1    3    3    0  502  0.30289624667E+03  0.79347206856E+03  0.17964395023E+04  0.19870934951E+04  0.12699999809E+01 0.  1.
</event>
<event>
 5   0  0.1072381E-07  0.3501124E+04  0.7818609E-02  0.8113524E-01
        1   -1    0    0  501    0  0.00000000000E+00  0.00000000000E+00  0.23984262323E+04  0.23984262323E+04  0.50400001928E-02 0.  1.
       -1   -1    0    0    0  501  0.00000000000E+00  0.00000000000E+00 -0.12776994715E+04  0.12776994715E+04  0.50400001928E-02 0. -1.
    10030    2    1    2    0    0  0.00000000000E+00  0.00000000000E+00  0.11207267608E+04  0.36761257038E+04  0.35011243505E+04 0.  0.
        1    1    3    3  502    0  0.60536395168E+03  0.49511525680E+02 -0.11635148925E+04  0.13125104991E+04  0.50400001928E-02 0. -1.
       -1    1    3    3    0  502 -0.60536395168E+03 -0.49511525680E+02  0.22842416533E+04  0.23636152047E+04  0.50400001928E-02 0.  1.
</event>
<event>
 5   0  0.1013863E-07  0.3488845E+04  0.7818609E-02  0.8116439E-01
       -1   -1    0    0    0  501  0.00000000000E+00  0.00000000000E+00  0.11368705179E+04  0.11368705179E+04  0.50400001928E-02 0.  1.
        1   -1    0    0  501    0  0.00000000000E+00  0.00000000000E+00 -0.26766545524E+04  0.26766545524E+04  0.50400001928E-02 0. -1.
    10030    2    1    2    0    0  0.00000000000E+00  0.00000000000E+00 -0.15397840345E+04  0.38135250703E+04  0.34888448789E+04 0.  0.
        5    1    3    3  502    0 -0.53985458109E+03 -0.37884830057E+03  0.99533385410E+03  0.11940186660E+04  0.46999998093E+01 0.  1.
       -5    1    3    3    0  502  0.53985458109E+03  0.37884830057E+03 -0.25351178886E+04  0.26195064044E+04  0.46999998093E+01 0. -1.
</event>
<event>
 5   0  0.1072381E-07  0.3504801E+04  0.7818609E-02  0.8112653E-01
        1   -1    0    0  501    0  0.00000000000E+00  0.00000000000E+00  0.24718185723E+04  0.24718185723E+04  0.50400001928E-02 0.  1.
       -1   -1    0    0    0  501  0.00000000000E+00  0.00000000000E+00 -0.12423677264E+04  0.12423677264E+04  0.50400001928E-02 0. -1.
    10030    2    1    2    0    0  0.00000000000E+00  0.00000000000E+00  0.12294508459E+04  0.37141862987E+04  0.35048010612E+04 0.  0.
        1    1    3    3  502    0  0.37186984438E+03 -0.13997478050E+04 -0.43078794580E+03  0.15110126912E+04  0.50400001928E-02 0. -1.
       -1    1    3    3    0  502 -0.37186984438E+03  0.13997478050E+04  0.16602387917E+04  0.22031736074E+04  0.50400001928E-02 0.  1.
</event>
<event>
 5   0  0.1013863E-07  0.3561125E+04  0.7818609E-02  0.8099455E-01
       -4   -1    0    0    0  501  0.00000000000E+00  0.00000000000E+00  0.15702346279E+04  0.15702351415E+04  0.12699999809E+01 0. -1.
        4   -1    0    0  501    0  0.00000000000E+00  0.00000000000E+00 -0.20190624397E+04  0.20190628391E+04  0.12699999809E+01 0.  1.
    10030    2    1    2    0    0  0.00000000000E+00  0.00000000000E+00 -0.44882781183E+03  0.35892979806E+04  0.35611253262E+04 0.  0.
        3    1    3    3  502    0 -0.63588726160E+03 -0.55538590333E+03  0.13556607789E+04  0.15970667703E+04  0.10100000352E+00 0. -1.
       -3    1    3    3    0  502  0.63588726160E+03  0.55538590333E+03 -0.18044885907E+04  0.19922312103E+04  0.10100000352E+00 0.  1.
</event>
<event>
 5   0  0.1013863E-07  0.3509183E+04  0.7818609E-02  0.8111617E-01
       -1   -1    0    0    0  501  0.00000000000E+00  0.00000000000E+00  0.13562354338E+04  0.13562354338E+04  0.50400001928E-02 0.  1.
        1   -1    0    0  501    0  0.00000000000E+00  0.00000000000E+00 -0.22699529336E+04  0.22699529336E+04  0.50400001928E-02 0. -1.
    10030    2    1    2    0    0  0.00000000000E+00  0.00000000000E+00 -0.91371749972E+03  0.36261883674E+04  0.35091825838E+04 0.  0.
        2    1    3    3  502    0 -0.67518384202E+03 -0.12400845802E+04  0.61945967279E+03  0.15418862710E+04  0.25500000920E-02 0.  1.
       -2    1    3    3    0  502  0.67518384202E+03  0.12400845802E+04 -0.15331771725E+04  0.20843020964E+04  0.25500000920E-02 0. -1.
</event>
<event>
 5   0  0.1013863E-07  0.3499940E+04  0.7818609E-02  0.8113804E-01
       -1   -1    0    0    0  501  0.00000000000E+00  0.00000000000E+00  0.16161431283E+04  0.16161431283E+04  0.50400001928E-02 0.  1.
        1   -1    0    0  501    0  0.00000000000E+00  0.00000000000E+00 -0.18948789885E+04  0.18948789885E+04  0.50400001928E-02 0. -1.
    10030    2    1    2    0    0  0.00000000000E+00  0.00000000000E+00 -0.27873586020E+03  0.35110221168E+04  0.34999403745E+04 0.  0.
        5    1    3    3  502    0  0.69121577187E+02 -0.11027001399E+04  0.12220023114E+04  0.16474334979E+04  0.46999998093E+01 0.  1.
       -5    1    3    3    0  502 -0.69121577187E+02  0.11027001399E+04 -0.15007381716E+04  0.18635886189E+04  0.46999998093E+01 0. -1.
</event>
<event>
 5   0  0.3190185E-07  0.3494052E+04  0.7818609E-02  0.8115201E-01
        2   -1    0    0  501    0  0.00000000000E+00  0.00000000000E+00  0.25159802114E+04  0.25159802114E+04  0.25500000920E-02 0. -1.
       -2   -1    0    0    0  501  0.00000000000E+00  0.00000000000E+00 -0.12130859966E+04  0.12130859966E+04  0.25500000920E-02 0.  1.
    10030    2    1    2    0    0  0.00000000000E+00  0.00000000000E+00  0.13028942147E+04  0.37290662080E+04  0.34940522962E+04 0.  0.
        1    1    3    3  502    0  0.53488819298E+03 -0.15802987572E+04  0.98269260788E+02  0.16712589233E+04  0.50400001928E-02 0. -1.
       -1    1    3    3    0  502 -0.53488819298E+03  0.15802987572E+04  0.12046249540E+04  0.20578072847E+04  0.50400001928E-02 0.  1.
</event>
<event>
 5   0  0.3190112E-07  0.3462840E+04  0.7818609E-02  0.8122653E-01
        2   -1    0    0  501    0  0.00000000000E+00  0.00000000000E+00  0.16426751866E+04  0.16426751866E+04  0.25500000920E-02 0. -1.
       -2   -1    0    0    0  501  0.00000000000E+00  0.00000000000E+00 -0.18249595769E+04  0.18249595769E+04  0.25500000920E-02 0.  1.
    10030    2    1    2    0    0  0.00000000000E+00  0.00000000000E+00 -0.18228439034E+03  0.34676347635E+04  0.34628403449E+04 0.  0.
        5    1    3    3  502    0 -0.15162542751E+04 -0.49684940658E+03 -0.76431348995E+03  0.17692042167E+04  0.46999998093E+01 0.  1.
       -5    1    3    3    0  502  0.15162542751E+04  0.49684940658E+03  0.58202909961E+03  0.16984305468E+04  0.46999998093E+01 0. -1.
</event>
<event>
 5   0  0.3190185E-07  0.3476438E+04  0.7818609E-02  0.8119397E-01
        2   -1    0    0  501    0  0.00000000000E+00  0.00000000000E+00  0.28502494461E+04  0.28502494461E+04  0.25500000920E-02 0. -1.
       -2   -1    0    0    0  501  0.00000000000E+00  0.00000000000E+00 -0.10600496074E+04  0.10600496074E+04  0.25500000920E-02 0.  1.
    10030    2    1    2    0    0  0.00000000000E+00  0.00000000000E+00  0.17901998387E+04  0.39102990535E+04  0.34764382959E+04 0.  0.
        1    1    3    3  502    0  0.12264042616E+04  0.11834144194E+04  0.12796249045E+04  0.21311914501E+04  0.50400001928E-02 0. -1.
       -1    1    3    3    0  502 -0.12264042616E+04 -0.11834144194E+04  0.51057493423E+03  0.17791076034E+04  0.50400001928E-02 0.  1.
</event>
<event>
 5   0  0.1098171E-07  0.3499632E+04  0.7818609E-02  0.8113877E-01
       -1   -1    0    0    0  501  0.00000000000E+00  0.00000000000E+00  0.25649079677E+04  0.25649079677E+04  0.50400001928E-02 0.  1.
        1   -1    0    0  501    0  0.00000000000E+00  0.00000000000E+00 -0.11937491848E+04  0.11937491848E+04  0.50400001928E-02 0. -1.
    10030    2    1    2    0    0  0.00000000000E+00  0.00000000000E+00  0.13711587829E+04  0.37586571525E+04  0.34996324353E+04 0.  0.
        4    1    3    3  502    0  0.58879754879E+03 -0.11272806676E+04  0.19763696006E+04  0.23502090690E+04  0.12699999809E+01 0.  1.
       -4    1    3    3    0  502 -0.58879754879E+03  0.11272806676E+04 -0.60521081777E+03  0.14084480835E+04  0.12699999809E+01 0. -1.
</event>
<event>
 5   0  0.3190185E-07  0.3407818E+04  0.7818609E-02  0.8135990E-01
        2   -1    0    0  501    0  0.00000000000E+00  0.00000000000E+00  0.26889408053E+04  0.26889408053E+04  0.25500000920E-02 0.  1.
       -2   -1    0    0    0  501  0.00000000000E+00  0.00000000000E+00 -0.10797210901E+04  0.10797210901E+04  0.25500000920E-02 0. -1.
    10030    2    1    2    0    0  0.00000000000E+00  0.00000000000E+00  0.16092197152E+04  0.37686618954E+04  0.34078181275E+04 0.  0.
        1    1    3    3  502    0 -0.14588215322E+04 -0.84132635687E+03  0.10915354320E+04  0.20068482506E+04  0.50400001928E-02 0. -1.
       -1    1    3    3    0  502  0.14588215322E+04  0.84132635687E+03  0.51768428316E+03  0.17618136447E+04  0.50400001928E-02 0.  1.
</event>
<event>
 5   0  0.1072381E-07  0.3531249E+04  0.7818609E-02  0.8106424E-01
       -1   -1    0    0    0  501  0.00000000000E+00  0.00000000000E+00  0.11800295959E+04  0.11800295959E+04  0.50400001928E-02 0.  1.
        1   -1    0    0  501    0  0.00000000000E+00  0.00000000000E+00 -0.26418234238E+04  0.26418234238E+04  0.50400001928E-02 0. -1.
    10030    2    1    2    0    0  0.00000000000E+00  0.00000000000E+00 -0.14617938279E+04  0.38218530197E+04  0.35312489729E+04 0.  0.
        1    1    3    3  502    0  0.77865171551E+03  0.15718670655E+04 -0.94834196483E+03  0.19940955463E+04  0.50400001928E-02 0. -1.
       -1    1    3    3    0  502 -0.77865171551E+03 -0.15718670655E+04 -0.51345186304E+03  0.18277574733E+04  0.50400001928E-02 0.  1.
</event>
<event>
 5   0  0.2180451E-07  0.3522674E+04  0.7818609E-02  0.8108437E-01
        2   -1    0    0  501    0  0.00000000000E+00  0.00000000000E+00  0.17698478177E+04  0.17698478177E+04  0.25500000920E-02 0. -1.
       -2   -1    0    0    0  501  0.00000000000E+00  0.00000000000E+00 -0.17528675344E+04  0.17528675344E+04  0.25500000920E-02 0.  1.
    10030    2    1    2    0    0  0.00000000000E+00  0.00000000000E+00  0.16980283263E+02  0.35227153521E+04  0.35226744275E+04 0.  0.
        4    1    3    3  502    0  0.13458323798E+03 -0.14210758678E+03 -0.17419586996E+04  0.17529201175E+04  0.12699999809E+01 0.  1.
       -4    1    3    3    0  502 -0.13458323798E+03  0.14210758678E+03  0.17589389829E+04  0.17697952346E+04  0.12699999809E+01 0. -1.
</event>
<event>
 5   0  0.1013863E-07  0.3500512E+04  0.7818609E-02  0.8113669E-01
        1   -1    0    0  501    0  0.00000000000E+00  0.00000000000E+00  0.24031213157E+04  0.24031213157E+04  0.50400001928E-02 0.  1.
       -1   -1    0    0    0  501  0.00000000000E+00  0.00000000000E+00 -0.12747570708E+04  0.12747570708E+04  0.50400001928E-02 0. -1.
    10030    2    1    2    0    0  0.00000000000E+00  0.00000000000E+00  0.11283642449E+04  0.36778783865E+04  0.35005118993E+04 0.  0.
        5    1    3    3  502    0  0.85577153183E+02 -0.92514976588E+03 -0.99426395480E+03  0.13608116843E+04  0.46999998093E+01 0. -1.
       -5    1    3    3    0  502 -0.85577153183E+02  0.92514976588E+03  0.21226281997E+04  0.23170667022E+04  0.46999998093E+01 0.  1.
</event>
<event>
 5   0  0.2180451E-07  0.3492669E+04  0.7818609E-02  0.8115529E-01
       -2   -1    0    0    0  501  0.00000000000E+00  0.00000000000E+00  0.17962738297E+04  0.17962738297E+04  0.25500000920E-02 0.  1.
        2   -1    0    0  501    0  0.00000000000E+00  0.00000000000E+00 -0.16977835657E+04  0.16977835657E+04  0.25500000920E-02 0. -1.
    10030    2    1    2    0    0  0.00000000000E+00  0.00000000000E+00  0.98490263987E+02  0.34940573954E+04  0.34926690009E+04 0.  0.
        4    1    3    3  502    0 -0.13190197344E+04 -0.97545136131E+03  0.64811834448E+03  0.17639096971E+04  0.12699999809E+01 0.  1.
       -4    1    3    3    0  502  0.13190197344E+04  0.97545136131E+03 -0.54962808049E+03  0.17301476983E+04  0.12699999809E+01 0. -1.
</event>
<event>
 5   0  0.3190112E-07  0.3494072E+04  0.7818609E-02  0.8115196E-01
       -2   -1    0    0    0  501  0.00000000000E+00  0.00000000000E+00  0.12914328191E+04  0.12914328191E+04  0.25500000920E-02 0. -1.
        2   -1    0    0  501    0  0.00000000000E+00  0.00000000000E+00 -0.23633705840E+04  0.23633705840E+04  0.25500000920E-02 0.  1.
    10030    2    1    2    0    0  0.00000000000E+00  0.00000000000E+00 -0.10719377649E+04  0.36548034031E+04  0.34940717428E+04 0.  0.
        5    1    3    3  502    0  0.66178210511E+03 -0.11432923471E+04  0.65988061618E+03  0.14766643028E+04  0.46999998093E+01 0.  1.
       -5    1    3    3    0  502 -0.66178210511E+03  0.11432923471E+04 -0.17318183810E+04  0.21781391003E+04  0.46999998093E+01 0. -1.
</event>
<event>
 5   0  0.3219205E-07  0.3451093E+04  0.7818609E-02  0.8125479E-01
        2   -1    0    0  501    0  0.00000000000E+00  0.00000000000E+00  0.12630323935E+04  0.12630323935E+04  0.25500000920E-02 0. -1.
       -2   -1    0    0    0  501  0.00000000000E+00  0.00000000000E+00 -0.23574297293E+04  0.23574297293E+04  0.25500000920E-02 0.  1.
    10030    2    1    2    0    0  0.00000000000E+00  0.00000000000E+00 -0.10943973358E+04  0.36204621228E+04  0.34510926464E+04 0.  0.
        2    1    3    3  502    0 -0.60396191854E+03  0.35661738407E+03  0.11067418197E+04  0.13102760828E+04  0.25500000920E-02 0. -1.
       -2    1    3    3    0  502  0.60396191854E+03 -0.35661738407E+03 -0.22011391555E+04  0.23101860400E+04  0.25500000920E-02 0.  1.
</event>
<event>
 5   0  0.3119048E-07  0.3495058E+04  0.7818609E-02  0.8114962E-01
        2   -1    0    0  501    0  0.00000000000E+00  0.00000000000E+00  0.24645243133E+04  0.24645243133E+04  0.25500000920E-02 0. -1.
       -2   -1    0    0    0  501  0.00000000000E+00  0.00000000000E+00 -0.12391267819E+04  0.12391267819E+04  0.25500000920E-02 0.  1.
    10030    2    1    2    0    0  0.00000000000E+00  0.00000000000E+00  0.12253975313E+04  0.37036510952E+04  0.34950582720E+04 0.  0.
        3    1    3    3  502    0  0.27658962457E+02 -0.10066956263E+04  0.21261004492E+04  0.23525527055E+04  0.10100000352E+00 0. -1.
       -3    1    3    3    0  502 -0.27658962457E+02  0.10066956263E+04 -0.90070291782E+03  0.13510983897E+04  0.10100000352E+00 0.  1.
</event>
<event>
 5   0  0.3119048E-07  0.3546267E+04  0.7818609E-02  0.8102912E-01
       -2   -1    0    0    0  501  0.00000000000E+00  0.00000000000E+00  0.20337443731E+04  0.20337443731E+04  0.25500000920E-02 0.  1.
        2   -1    0    0  501    0  0.00000000000E+00  0.00000000000E+00 -0.15459184418E+04  0.15459184418E+04  0.25500000920E-02 0. -1.
    10030    2    1    2    0    0  0.00000000000E+00  0.00000000000E+00  0.48782593129E+03  0.35796628149E+04  0.35462672952E+04 0.  0.
        3    1    3    3  502    0  0.14021156467E+04  0.26740691202E+03  0.13057545810E+04  0.19345360631E+04  0.10100000352E+00 0.  1.
       -3    1    3    3    0  502 -0.14021156467E+04 -0.26740691202E+03 -0.81792864967E+03  0.16451267518E+04  0.10100000352E+00 0. -1.
</event>
<event>
 5   0  0.3219205E-07  0.3512281E+04  0.7818609E-02  0.8110886E-01
        2   -1    0    0  501    0  0.00000000000E+00  0.00000000000E+00  0.12355717794E+04  0.12355717794E+04  0.25500000920E-02 0.  1.
       -2   -1    0    0    0  501  0.00000000000E+00  0.00000000000E+00 -0.24960335966E+04  0.24960335966E+04  0.25500000920E-02 0. -1.
    10030    2    1    2    0    0  0.00000000000E+00  0.00000000000E+00 -0.12604618172E+04  0.37316053759E+04  0.35122805539E+04 0.  0.
        2    1    3    3  502    0 -0.16322913068E+04  0.86156278081E+02  0.51914185115E+02  0.16353876902E+04  0.25500000920E-02 0. -1.
       -2    1    3    3    0  502  0.16322913068E+04 -0.86156278081E+02 -0.13123760023E+04  0.20962176857E+04  0.25500000920E-02 0.  1.
</event>
<event>
 5   0  0.1013863E-07  0.3455220E+04  0.7818609E-02  0.8124485E-01
       -1   -1    0    0    0  501  0.00000000000E+00  0.00000000000E+00  0.18346001797E+04  0.18346001797E+04  0.50400001928E-02 0. -1.
        1   -1    0    0  501    0  0.00000000000E+00  0.00000000000E+00 -0.16268592745E+04  0.16268592745E+04  0.50400001928E-02 0.  1.
    10030    2    1    2    0    0  0.00000000000E+00  0.00000000000E+00  0.20774090522E+03  0.34614594542E+04  0.34552200030E+04 0.  0.
        5    1    3    3  502    0  0.17119878541E+04 -0.22547007473E+03  0.15758686439E+03  0.17339535395E+04  0.46999998093E+01 0.  1.
       -5    1    3    3    0  502 -0.17119878541E+04  0.22547007473E+03  0.50154040836E+02  0.17275059147E+04  0.46999998093E+01 0. -1.
</event>
<event>
 5   0  0.3190112E-07  0.3499463E+04  0.7818609E-02  0.8113917E-01
       -2   -1    0    0    0  501  0.00000000000E+00  0.00000000000E+00  0.22606888395E+04  0.22606888395E+04  0.25500000920E-02 0. -1.
        2   -1    0    0  501    0  0.00000000000E+00  0.00000000000E+00 -0.13542597392E+04  0.13542597392E+04  0.25500000920E-02 0.  1.
    10030    2    1    2    0    0  0.00000000000E+00  0.00000000000E+00  0.90642910031E+03  0.36149485788E+04  0.34994627464E+04 0.  0.
        5    1    3    3  502    0  0.28815616189E+02 -0.14530990056E+04 -0.55321196140E+03  0.15551182026E+04  0.46999998093E+01 0.  1.
       -5    1    3    3    0  502 -0.28815616189E+02  0.14530990056E+04  0.14596410617E+04  0.20598303762E+04  0.46999998093E+01 0. -1.
</event>
<event>
 5   0  0.3119048E-07  0.3497938E+04  0.7818609E-02  0.8114279E-01
       -2   -1    0    0    0  501  0.00000000000E+00  0.00000000000E+00  0.11146965502E+04  0.11146965502E+04  0.25500000920E-02 0.  1.
        2   -1    0    0  501    0  0.00000000000E+00  0.00000000000E+00 -0.27441483761E+04  0.27441483761E+04  0.25500000920E-02 0. -1.
    10030    2    1    2    0    0  0.00000000000E+00  0.00000000000E+00 -0.16294518259E+04  0.38588449262E+04  0.34979380943E+04 0.  0.
        3    1    3    3  502    0 -0.13797528499E+04 -0.67765937502E+03 -0.17350377883E+04  0.23180371637E+04  0.10100000352E+00 0. -1.
       -3    1    3    3    0  502  0.13797528499E+04  0.67765937502E+03  0.10558596234E+03  0.15408077625E+04  0.10100000352E+00 0.  1.
</event>
<event>
 5   0  0.1098171E-07  0.3508441E+04  0.7818609E-02  0.8111792E-01
       -1   -1    0    0    0  501  0.00000000000E+00  0.00000000000E+00  0.19248911001E+04  0.19248911001E+04  0.50400001928E-02 0.  1.
        1   -1    0    0  501    0  0.00000000000E+00  0.00000000000E+00 -0.15986822828E+04  0.15986822828E+04  0.50400001928E-02 0. -1.
    10030    2    1    2    0    0  0.00000000000E+00  0.00000000000E+00  0.32620881734E+03  0.35235733829E+04  0.35084408492E+04 0.  0.
        4    1    3    3  502    0  0.23155713357E+03 -0.14570732437E+04 -0.78999173060E+03  0.16735500264E+04  0.12699999809E+01 0. -1.
       -4    1    3    3    0  502 -0.23155713357E+03  0.14570732437E+04  0.11162005479E+04  0.18500233565E+04  0.12699999809E+01 0.  1.
</event>
<event>
 5   0  0.3190185E-07  0.3466950E+04  0.7818609E-02  0.8121667E-01
       -2   -1    0    0    0  501  0.00000000000E+00  0.00000000000E+00  0.91001741939E+03  0.91001741940E+03  0.25500000920E-02 0. -1.
        2   -1    0    0  501    0  0.00000000000E+00  0.00000000000E+00 -0.33020630758E+04  0.33020630758E+04  0.25500000920E-02 0.  1.
    10030    2    1    2    0    0  0.00000000000E+00  0.00000000000E+00 -0.23920456565E+04  0.42120804952E+04  0.34669496212E+04 0.  0.
        1    1    3    3  502    0 -0.76282684796E+03  0.15060191489E+04 -0.16742408303E+04  0.23776208349E+04  0.50400001928E-02 0.  1.
       -1    1    3    3    0  502  0.76282684796E+03 -0.15060191489E+04 -0.71780482619E+03  0.18344596603E+04  0.50400001928E-02 0. -1.
</event>
<event>
 5   0  0.3219205E-07  0.3497139E+04  0.7818609E-02  0.8114468E-01
       -2   -1    0    0    0  501  0.00000000000E+00  0.00000000000E+00  0.24158578610E+04  0.24158578610E+04  0.25500000920E-02 0. -1.
        2   -1    0    0  501    0  0.00000000000E+00  0.00000000000E+00 -0.12655942462E+04  0.12655942462E+04  0.25500000920E-02 0.  1.
    10030    2    1    2    0    0  0.00000000000E+00  0.00000000000E+00  0.11502636148E+04  0.36814521072E+04  0.34971392929E+04 0.  0.
        2    1    3    3  502    0 -0.14412486934E+04 -0.13731005058E+03  0.16073421645E+04  0.21632384705E+04  0.25500000920E-02 0. -1.
       -2    1    3    3    0  502  0.14412486934E+04  0.13731005058E+03 -0.45707854973E+03  0.15182136368E+04  0.25500000920E-02 0.  1.
</event>
<event>
 5   0  0.1013863E-07  0.3509262E+04  0.7818609E-02  0.8111598E-01
        1   -1    0    0  501    0  0.00000000000E+00  0.00000000000E+00  0.19921542590E+04  0.19921542590E+04  0.50400001928E-02 0.  1.
       -1   -1    0    0    0  501  0.00000000000E+00  0.00000000000E+00 -0.15454278777E+04  0.15454278778E+04  0.50400001928E-02 0. -1.
    10030    2    1    2    0    0  0.00000000000E+00  0.00000000000E+00  0.44672638122E+03  0.35375821367E+04  0.35092624459E+04 0.  0.
        2    1    3    3  502    0 -0.78325690208E+03 -0.47447614113E+03  0.17321418233E+04  0.19593198512E+04  0.25500000920E-02 0.  1.
       -2    1    3    3    0  502  0.78325690208E+03  0.47447614113E+03 -0.12854154421E+04  0.15782622855E+04  0.25500000920E-02 0. -1.
</event>
<event>
 5   0  0.3190112E-07  0.3504488E+04  0.7818609E-02  0.8112727E-01
       -2   -1    0    0    0  501  0.00000000000E+00  0.00000000000E+00  0.15022378155E+04  0.15022378155E+04  0.25500000920E-02 0. -1.
        2   -1    0    0  501    0  0.00000000000E+00  0.00000000000E+00 -0.20438565643E+04  0.20438565643E+04  0.25500000920E-02 0.  1.
    10030    2    1    2    0    0  0.00000000000E+00  0.00000000000E+00 -0.54161874879E+03  0.35460943799E+04  0.35044877631E+04 0.  0.
        5    1    3    3  502    0 -0.17005552700E+04 -0.17669047613E+03  0.11745013274E+03  0.17137457146E+04  0.46999998093E+01 0. -1.
       -5    1    3    3    0  502  0.17005552700E+04  0.17669047613E+03 -0.65906888153E+03  0.18323486653E+04  0.46999998093E+01 0.  1.
</event>
<event>
 5   0  0.1033796E-07  0.3483780E+04  0.7818609E-02  0.8117645E-01
       -1   -1    0    0    0  501  0.00000000000E+00  0.00000000000E+00  0.14799419159E+04  0.14799419159E+04  0.50400001928E-02 0. -1.
        1   -1    0    0  501    0  0.00000000000E+00  0.00000000000E+00 -0.20502028584E+04  0.20502028584E+04  0.50400001928E-02 0.  1.
    10030    2    1    2    0    0  0.00000000000E+00  0.00000000000E+00 -0.57026094249E+03  0.35301447744E+04  0.34837802149E+04 0.  0.
        3    1    3    3  502    0 -0.15130424024E+04 -0.81582820084E+03  0.23454882743E+00  0.17189744123E+04  0.10100000352E+00 0. -1.
       -3    1    3    3    0  502  0.15130424024E+04  0.81582820084E+03 -0.57049549132E+03  0.18111703621E+04  0.10100000352E+00 0.  1.
</event>
<event>
 5   0  0.1033796E-07  0.3497197E+04  0.7818609E-02  0.8114455E-01
        1   -1    0    0  501    0  0.00000000000E+00  0.00000000000E+00  0.17571521472E+04  0.17571521472E+04  0.50400001928E-02 0.  1.
       -1   -1    0    0    0  501  0.00000000000E+00  0.00000000000E+00 -0.17400860973E+04  0.17400860973E+04  0.50400001928E-02 0. -1.
    10030    2    1    2    0    0  0.00000000000E+00  0.00000000000E+00  0.17066049927E+02  0.34972382445E+04  0.34971966042E+04 0.  0.
        3    1    3    3  502    0  0.13502397543E+04 -0.92111612468E+03  0.62982433716E+03  0.17516509399E+04  0.10100000352E+00 0.  1.
       -3    1    3    3    0  502 -0.13502397543E+04  0.92111612468E+03 -0.61275828723E+03  0.17455873046E+04  0.10100000352E+00 0. -1.
</event>
<event>
 5   0  0.1013863E-07  0.3482133E+04  0.7818609E-02  0.8118037E-01
       -1   -1    0    0    0  501  0.00000000000E+00  0.00000000000E+00  0.16247703511E+04  0.16247703511E+04  0.50400001928E-02 0. -1.
        1   -1    0    0  501    0  0.00000000000E+00  0.00000000000E+00 -0.18656869182E+04  0.18656869182E+04  0.50400001928E-02 0.  1.
    10030    2    1    2    0    0  0.00000000000E+00  0.00000000000E+00 -0.24091656711E+03  0.34904572693E+04  0.34821331331E+04 0.  0.
        2    1    3    3  502    0 -0.14467363239E+03 -0.78316323261E+03 -0.16723963458E+04  0.18523457146E+04  0.25500000920E-02 0.  1.
       -2    1    3    3    0  502  0.14467363239E+03  0.78316323261E+03  0.14314797787E+04  0.16381115547E+04  0.25500000920E-02 0. -1.
</event>
<event>
 5   0  0.2180451E-07  0.3491958E+04  0.7818609E-02  0.8115698E-01
       -2   -1    0    0    0  501  0.00000000000E+00  0.00000000000E+00  0.22409934693E+04  0.22409934693E+04  0.25500000920E-02 0.  1.
        2   -1    0    0  501    0  0.00000000000E+00  0.00000000000E+00 -0.13603089059E+04  0.13603089059E+04  0.25500000920E-02 0. -1.
    10030    2    1    2    0    0  0.00000000000E+00  0.00000000000E+00  0.88068456345E+03  0.36013023752E+04  0.34919584043E+04 0.  0.
        4    1    3    3  502    0  0.82018605767E+03  0.96629510048E+03  0.16787815599E+04  0.21035067219E+04  0.12699999809E+01 0.  1.
       -4    1    3    3    0  502 -0.82018605767E+03 -0.96629510048E+03 -0.79809699643E+03  0.14977956533E+04  0.12699999809E+01 0. -1.
</event>
<event>
 5   0  0.3219205E-07  0.3526778E+04  0.7818609E-02  0.8107473E-01
       -2   -1    0    0    0  501  0.00000000000E+00  0.00000000000E+00  0.16820486501E+04  0.16820486501E+04  0.25500000920E-02 0. -1.
        2   -1    0    0  501    0  0.00000000000E+00  0.00000000000E+00 -0.18486630932E+04  0.18486630932E+04  0.25500000920E-02 0.  1.
    10030    2    1    2    0    0  0.00000000000E+00  0.00000000000E+00 -0.16661444306E+03  0.35307117434E+04  0.35267782808E+04 0.  0.
        2    1    3    3  502    0  0.73466665132E+03  0.15404087591E+04  0.36097488143E+03  0.17443901796E+04  0.25500000920E-02 0. -1.
       -2    1    3    3    0  502 -0.73466665132E+03 -0.15404087591E+04 -0.52758932449E+03  0.17863215637E+04  0.25500000920E-02 0.  1.
</event>
<event>
 5   0  0.2180451E-07  0.3502748E+04  0.7818609E-02  0.8113139E-01
        2   -1    0    0  501    0  0.00000000000E+00  0.00000000000E+00  0.15944216549E+04  0.15944216549E+04  0.25500000920E-02 0. -1.
       -2   -1    0    0    0  501  0.00000000000E+00  0.00000000000E+00 -0.19237768679E+04  0.19237768679E+04  0.25500000920E-02 0.  1.
    10030    2    1    2    0    0  0.00000000000E+00  0.00000000000E+00 -0.32935521291E+03  0.35181985228E+04  0.35027483480E+04 0.  0.
        4    1    3    3  502    0 -0.11308568889E+04 -0.10619752018E+04 -0.98108587878E+03  0.18355271033E+04  0.12699999809E+01 0.  1.
       -4    1    3    3    0  502  0.11308568889E+04  0.10619752018E+04  0.65173066587E+03  0.16826714195E+04  0.12699999809E+01 0. -1.
</event>
<event>
 5   0  0.3190185E-07  0.3546904E+04  0.7818609E-02  0.8102763E-01
       -2   -1    0    0    0  501  0.00000000000E+00  0.00000000000E+00  0.96355156795E+03  0.96355156795E+03  0.25500000920E-02 0. -1.
        2   -1    0    0  501    0  0.00000000000E+00  0.00000000000E+00 -0.32641036758E+04  0.32641036758E+04  0.25500000920E-02 0.  1.
    10030    2    1    2    0    0  0.00000000000E+00  0.00000000000E+00 -0.23005521078E+04  0.42276552437E+04  0.35469041232E+04 0.  0.
        1    1    3    3  502    0  0.13374988689E+04  0.68479195711E+03 -0.27527109212E+02  0.15028642622E+04  0.50400001928E-02 0. -1.
       -1    1    3    3    0  502 -0.13374988689E+04 -0.68479195711E+03 -0.22730249986E+04  0.27247909816E+04  0.50400001928E-02 0.  1.
</event>
<event>
 5   0  0.3119048E-07  0.3536998E+04  0.7818609E-02  0.8105077E-01
       -2   -1    0    0    0  501  0.00000000000E+00  0.00000000000E+00  0.13433957368E+04  0.13433957368E+04  0.25500000920E-02 0.  1.
        2   -1    0    0  501    0  0.00000000000E+00  0.00000000000E+00 -0.23281218339E+04  0.23281218339E+04  0.25500000920E-02 0. -1.
    10030    2    1    2    0    0  0.00000000000E+00  0.00000000000E+00 -0.98472609714E+03  0.36715175707E+04  0.35369981320E+04 0.  0.
        3    1    3    3  502    0  0.14590599845E+04 -0.78478076395E+02  0.54180769486E+03  0.15583871263E+04  0.10100000352E+00 0.  1.
       -3    1    3    3    0  502 -0.14590599845E+04  0.78478076395E+02 -0.15265337920E+04  0.21131304444E+04  0.10100000352E+00 0. -1.
</event>
<event>
 5   0  0.1072381E-07  0.3613174E+04  0.7818609E-02  0.8087481E-01
        1   -1    0    0  501    0  0.00000000000E+00  0.00000000000E+00  0.14191235494E+04  0.14191235494E+04  0.50400001928E-02 0. -1.
       -1   -1    0    0    0  501  0.00000000000E+00  0.00000000000E+00 -0.22998391067E+04  0.22998391067E+04  0.50400001928E-02 0.  1.
    10030    2    1    2    0    0  0.00000000000E+00  0.00000000000E+00 -0.88071555728E+03  0.37189626561E+04  0.36131735835E+04 0.  0.
        1    1    3    3  502    0 -0.92660212496E+03 -0.54294758921E+03  0.10548877941E+04  0.15053809620E+04  0.50400001928E-02 0. -1.
       -1    1    3    3    0  502  0.92660212496E+03  0.54294758921E+03 -0.19356033514E+04  0.22135816941E+04  0.50400001928E-02 0.  1.
</event>
<event>
 5   0  0.3219205E-07  0.3497066E+04  0.7818609E-02  0.8114486E-01
        2   -1    0    0  501    0  0.00000000000E+00  0.00000000000E+00  0.23600437161E+04  0.23600437161E+04  0.25500000920E-02 0. -1.
       -2   -1    0    0    0  501  0.00000000000E+00  0.00000000000E+00 -0.12954707297E+04  0.12954707297E+04  0.25500000920E-02 0.  1.
    10030    2    1    2    0    0  0.00000000000E+00  0.00000000000E+00  0.10645729864E+04  0.36555144458E+04  0.34970659445E+04 0.  0.
        2    1    3    3  502    0  0.28506212005E+03  0.10722748882E+04 -0.88036407942E+03  0.14163596861E+04  0.25500000920E-02 0.  1.
       -2    1    3    3    0  502 -0.28506212005E+03 -0.10722748882E+04  0.19449370658E+04  0.22391547597E+04  0.25500000920E-02 0. -1.
</event>
<event>
 5   0  0.1013863E-07  0.3492469E+04  0.7818609E-02  0.8115577E-01
       -1   -1    0    0    0  501  0.00000000000E+00  0.00000000000E+00  0.13104839896E+04  0.13104839896E+04  0.50400001928E-02 0.  1.
        1   -1    0    0  501    0  0.00000000000E+00  0.00000000000E+00 -0.23268767759E+04  0.23268767759E+04  0.50400001928E-02 0. -1.
    10030    2    1    2    0    0  0.00000000000E+00  0.00000000000E+00 -0.10163927863E+04  0.36373607655E+04  0.34924689036E+04 0.  0.
        2    1    3    3  502    0  0.79154777563E+03  0.74362951967E+03  0.91594018768E+03  0.14207319139E+04  0.25500000920E-02 0.  1.
       -2    1    3    3    0  502 -0.79154777563E+03 -0.74362951967E+03 -0.19323329740E+04  0.22166288517E+04  0.25500000920E-02 0. -1.
</event>
<event>
 5   0  0.2180451E-07  0.3510283E+04  0.7818609E-02  0.8111357E-01
       -2   -1    0    0    0  501  0.00000000000E+00  0.00000000000E+00  0.98063131674E+03  0.98063131675E+03  0.25500000920E-02 0. -1.
        2   -1    0    0  501    0  0.00000000000E+00  0.00000000000E+00 -0.31413658223E+04  0.31413658223E+04  0.25500000920E-02 0.  1.
    10030    2    1    2    0    0  0.00000000000E+00  0.00000000000E+00 -0.21607345056E+04  0.41219971391E+04  0.35102830101E+04 0.  0.
        4    1    3    3  502    0  0.45445048689E+03 -0.16881432732E+04 -0.89781881167E+03  0.19653074028E+04  0.12699999809E+01 0. -1.
       -4    1    3    3    0  502 -0.45445048689E+03  0.16881432732E+04 -0.12629156939E+04  0.21566897363E+04  0.12699999809E+01 0.  1.
</event>
<event>
 5   0  0.2180451E-07  0.3492397E+04  0.7818609E-02  0.8115594E-01
       -2   -1    0    0    0  501  0.00000000000E+00  0.00000000000E+00  0.16752289910E+04  0.16752289910E+04  0.25500000920E-02 0. -1.
        2   -1    0    0  501    0  0.00000000000E+00  0.00000000000E+00 -0.18201748031E+04  0.18201748031E+04  0.25500000920E-02 0.  1.
    10030    2    1    2    0    0  0.00000000000E+00  0.00000000000E+00 -0.14494581209E+03  0.34954037940E+04  0.34923972275E+04 0.  0.
        4    1    3    3  502    0  0.82579901677E+01  0.65583789367E+03  0.15472578601E+04  0.16805356395E+04  0.12699999809E+01 0. -1.
       -4    1    3    3    0  502 -0.82579901677E+01 -0.65583789367E+03 -0.16922036722E+04  0.18148681545E+04  0.12699999809E+01 0.  1.
</event>
<event>
 5   0  0.1098171E-07  0.3477766E+04  0.7818609E-02  0.8119079E-01
        1   -1    0    0  501    0  0.00000000000E+00  0.00000000000E+00  0.18267123216E+04  0.18267123216E+04  0.50400001928E-02 0.  1.
       -1   -1    0    0    0  501  0.00000000000E+00  0.00000000000E+00 -0.16552767208E+04  0.16552767208E+04  0.50400001928E-02 0. -1.
    10030    2    1    2    0    0  0.00000000000E+00  0.00000000000E+00  0.17143560080E+03  0.34819890425E+04  0.34777661691E+04 0.  0.
        4    1    3    3  502    0  0.50622726764E+03 -0.32718155095E+01  0.17512990231E+04  0.18229993507E+04  0.12699999809E+01 0.  1.
       -4    1    3    3    0  502 -0.50622726764E+03  0.32718155095E+01 -0.15798634223E+04  0.16589896918E+04  0.12699999809E+01 0. -1.
</event>
<event>
 5   0  0.1033796E-07  0.3498360E+04  0.7818609E-02  0.8114179E-01
        1   -1    0    0  501    0  0.00000000000E+00  0.00000000000E+00  0.18193624516E+04  0.18193624516E+04  0.50400001928E-02 0. -1.
       -1   -1    0    0    0  501  0.00000000000E+00  0.00000000000E+00 -0.16817052647E+04  0.16817052647E+04  0.50400001928E-02 0.  1.
    10030    2    1    2    0    0  0.00000000000E+00  0.00000000000E+00  0.13765718693E+03  0.35010677163E+04  0.34983604235E+04 0.  0.
        3    1    3    3  502    0 -0.40154646706E+02  0.55294920523E+03 -0.15914507959E+04  0.16852539467E+04  0.10100000352E+00 0.  1.
       -3    1    3    3    0  502  0.40154646706E+02 -0.55294920523E+03  0.17291079828E+04  0.18158137695E+04  0.10100000352E+00 0. -1.
</event>
<event>
 5   0  0.3119048E-07  0.3478500E+04  0.7818609E-02  0.8118904E-01
        2   -1    0    0  501    0  0.00000000000E+00  0.00000000000E+00  0.95228667862E+03  0.95228667863E+03  0.25500000920E-02 0. -1.
       -2   -1    0    0    0  501  0.00000000000E+00  0.00000000000E+00 -0.31765543989E+04  0.31765543989E+04  0.25500000920E-02 0.  1.
    10030    2    1    2    0    0  0.00000000000E+00  0.00000000000E+00 -0.22242677203E+04  0.41288410776E+04  0.34784999284E+04 0.  0.
        3    1    3    3  502    0 -0.15580464763E+04 -0.60817582925E+03 -0.54586081417E+03  0.17593608784E+04  0.10100000352E+00 0. -1.
       -3    1    3    3    0  502  0.15580464763E+04  0.60817582925E+03 -0.16784069062E+04  0.23694801992E+04  0.10100000352E+00 0.  1.
</event>
<event>
 5   0  0.1013863E-07  0.3526451E+04  0.7818609E-02  0.8107550E-01
       -1   -1    0    0    0  501  0.00000000000E+00  0.00000000000E+00  0.16561134354E+04  0.16561134354E+04  0.50400001928E-02 0. -1.
        1   -1    0    0  501    0  0.00000000000E+00  0.00000000000E+00 -0.18772657093E+04  0.18772657093E+04  0.50400001928E-02 0.  1.
    10030    2    1    2    0    0  0.00000000000E+00  0.00000000000E+00 -0.22115227386E+03  0.35333791447E+04  0.35264514532E+04 0.  0.
        5    1    3    3  502    0  0.64314917780E+03 -0.71721135212E+03  0.13691154081E+04  0.16740764854E+04  0.46999998093E+01 0. -1.
       -5    1    3    3    0  502 -0.64314917780E+03  0.71721135212E+03 -0.15902676819E+04  0.18593026593E+04  0.46999998093E+01 0.  1.
</event>
<event>
 5   0  0.1098171E-07  0.3357022E+04  0.7818609E-02  0.8148536E-01
        1   -1    0    0  501    0  0.00000000000E+00  0.00000000000E+00  0.26513461845E+04  0.26513461845E+04  0.50400001928E-02 0. -1.
       -1   -1    0    0    0  501  0.00000000000E+00  0.00000000000E+00 -0.10626297425E+04  0.10626297425E+04  0.50400001928E-02 0.  1.
    10030    2    1    2    0    0  0.00000000000E+00  0.00000000000E+00  0.15887164421E+04  0.37139759270E+04  0.33570220811E+04 0.  0.
        4    1    3    3  502    0 -0.20865355405E+03  0.87615461222E+03 -0.77265827381E+03  0.11866699757E+04  0.12699999809E+01 0.  1.
       -4    1    3    3    0  502  0.20865355405E+03 -0.87615461222E+03  0.23613747159E+04  0.25273059514E+04  0.12699999809E+01 0. -1.
</event>
<event>
 5   0  0.2180451E-07  0.3372242E+04  0.7818609E-02  0.8144753E-01
       -2   -1    0    0    0  501  0.00000000000E+00  0.00000000000E+00  0.18664315693E+04  0.18664315693E+04  0.25500000920E-02 0.  1.
        2   -1    0    0  501    0  0.00000000000E+00  0.00000000000E+00 -0.15232293994E+04  0.15232293994E+04  0.25500000920E-02 0. -1.
    10030    2    1    2    0    0  0.00000000000E+00  0.00000000000E+00  0.34320216987E+03  0.33896609687E+04  0.33722416511E+04 0.  0.
        4    1    3    3  502    0  0.15015925365E+04 -0.32684737703E+03  0.86900956156E+03  0.17654428862E+04  0.12699999809E+01 0.  1.
       -4    1    3    3    0  502 -0.15015925365E+04  0.32684737703E+03 -0.52580739168E+03  0.16242180825E+04  0.12699999809E+01 0. -1.
</event>
<event>
 5   0  0.3190185E-07  0.3504039E+04  0.7818609E-02  0.8112833E-01
       -2   -1    0    0    0  501  0.00000000000E+00  0.00000000000E+00  0.14788977082E+04  0.14788977082E+04  0.25500000920E-02 0. -1.
        2   -1    0    0  501    0  0.00000000000E+00  0.00000000000E+00 -0.20755816335E+04  0.20755816335E+04  0.25500000920E-02 0.  1.
    10030    2    1    2    0    0  0.00000000000E+00  0.00000000000E+00 -0.59668392524E+03  0.35544793417E+04  0.35040393383E+04 0.  0.
        1    1    3    3  502    0 -0.85055784124E+01 -0.64987442896E+03 -0.19487731784E+04  0.20542945308E+04  0.50400001928E-02 0.  1.
       -1    1    3    3    0  502  0.85055784124E+01  0.64987442896E+03  0.13520892532E+04  0.15001848109E+04  0.50400001928E-02 0. -1.
</event>
<event>
 5   0  0.1013863E-07  0.3509208E+04  0.7818609E-02  0.8111611E-01
        1   -1    0    0  501    0  0.00000000000E+00  0.00000000000E+00  0.17570649112E+04  0.17570649112E+04  0.50400001928E-02 0.  1.
       -1   -1    0    0    0  501  0.00000000000E+00  0.00000000000E+00 -0.17521466304E+04  0.17521466304E+04  0.50400001928E-02 0. -1.
    10030    2    1    2    0    0  0.00000000000E+00  0.00000000000E+00  0.49182808723E+01  0.35092115416E+04  0.35092080950E+04 0.  0.
        2    1    3    3  502    0  0.58596408944E+03 -0.14217864639E+04  0.84732960540E+03  0.17557898859E+04  0.25500000920E-02 0.  1.
       -2    1    3    3    0  502 -0.58596408944E+03  0.14217864639E+04 -0.84241132452E+03  0.17534216557E+04  0.25500000920E-02 0. -1.
</event>
<event>
 5   0  0.3219205E-07  0.3502893E+04  0.7818609E-02  0.8113105E-01
        2   -1    0    0  501    0  0.00000000000E+00  0.00000000000E+00  0.24654546026E+04  0.24654546026E+04  0.25500000920E-02 0. -1.
       -2   -1    0    0    0  501  0.00000000000E+00  0.00000000000E+00 -0.12442188651E+04  0.12442188651E+04  0.25500000920E-02 0.  1.
    10030    2    1    2    0    0  0.00000000000E+00  0.00000000000E+00  0.12212357375E+04  0.37096734677E+04  0.35028931628E+04 0.  0.
        2    1    3    3  502    0 -0.15974642885E+04  0.60270903336E+03  0.19716847814E+03  0.17187279426E+04  0.25500000920E-02 0.  1.
       -2    1    3    3    0  502  0.15974642885E+04 -0.60270903336E+03  0.10240672593E+04  0.19909455250E+04  0.25500000920E-02 0. -1.
</event>
<event>
 5   0  0.1013863E-07  0.3485111E+04  0.7818609E-02  0.8117327E-01
       -3   -1    0    0    0  501  0.00000000000E+00  0.00000000000E+00  0.11606087523E+04  0.11606087567E+04  0.10100000352E+00 0.  1.
        3   -1    0    0  501    0  0.00000000000E+00  0.00000000000E+00 -0.26162993288E+04  0.26162993307E+04  0.10100000352E+00 0. -1.
    10030    2    1    2    0    0  0.00000000000E+00  0.00000000000E+00 -0.14556905765E+04  0.37769080874E+04  0.34851111383E+04 0.  0.
        5    1    3    3  502    0  0.93069997396E+03 -0.75084117411E+03  0.64575981070E+03  0.13590411081E+04  0.46999998093E+01 0.  1.
       -5    1    3    3    0  502 -0.93069997396E+03  0.75084117411E+03 -0.21014503872E+04  0.24178669794E+04  0.46999998093E+01 0. -1.
</event>
<event>
 5   0  0.2180451E-07  0.3518032E+04  0.7818609E-02  0.8109530E-01
        2   -1    0    0  501    0  0.00000000000E+00  0.00000000000E+00  0.27238860986E+04  0.27238860986E+04  0.25500000920E-02 0.  1.
       -2   -1    0    0    0  501  0.00000000000E+00  0.00000000000E+00 -0.11359277062E+04  0.11359277062E+04  0.25500000920E-02 0. -1.
    10030    2    1    2    0    0  0.00000000000E+00  0.00000000000E+00  0.15879583925E+04  0.38598138048E+04  0.35180322272E+04 0.  0.
        4    1    3    3  502    0  0.92037885760E+03 -0.13719499253E+04  0.13132136489E+03  0.16572841497E+04  0.12699999809E+01 0. -1.
       -4    1    3    3    0  502 -0.92037885760E+03  0.13719499253E+04  0.14566370276E+04  0.22025296552E+04  0.12699999809E+01 0.  1.
</event>
<event>
 5   0  0.3119048E-07  0.3491263E+04  0.7818609E-02  0.8115864E-01
        2   -1    0    0  501    0  0.00000000000E+00  0.00000000000E+00  0.23988564880E+04  0.23988564880E+04  0.25500000920E-02 0.  1.
       -2   -1    0    0    0  501  0.00000000000E+00  0.00000000000E+00 -0.12702844321E+04  0.12702844321E+04  0.25500000920E-02 0. -1.
    10030    2    1    2    0    0  0.00000000000E+00  0.00000000000E+00  0.11285720559E+04  0.36691409202E+04  0.34912634113E+04 0.  0.
        3    1    3    3  502    0 -0.28181997937E+03 -0.37723296375E+03  0.23308511364E+04  0.23779390741E+04  0.10100000352E+00 0.  1.
       -3    1    3    3    0  502  0.28181997937E+03  0.37723296375E+03 -0.12022790805E+04  0.12912018461E+04  0.10100000352E+00 0. -1.
</event>
<event>
 5   0  0.3219205E-07  0.3494756E+04  0.7818609E-02  0.8115034E-01
        2   -1    0    0  501    0  0.00000000000E+00  0.00000000000E+00  0.24260929663E+04  0.24260929663E+04  0.25500000920E-02 0. -1.
       -2   -1    0    0    0  501  0.00000000000E+00  0.00000000000E+00 -0.12585378143E+04  0.12585378143E+04  0.25500000920E-02 0.  1.
    10030    2    1    2    0    0  0.00000000000E+00  0.00000000000E+00  0.11675551520E+04  0.36846307807E+04  0.34947559224E+04 0.  0.
        2    1    3    3  502    0  0.10923651724E+04 -0.35274585902E+03  0.19727919975E+04  0.22824547260E+04  0.25500000920E-02 0. -1.
       -2    1    3    3    0  502 -0.10923651724E+04  0.35274585902E+03 -0.80523684544E+03  0.14021760547E+04  0.25500000920E-02 0.  1.
</event>
<event>
 5   0  0.1013863E-07  0.3507878E+04  0.7818609E-02  0.8111926E-01
        1   -1    0    0  501    0  0.00000000000E+00  0.00000000000E+00  0.12368012635E+04  0.12368012635E+04  0.50400001928E-02 0. -1.
       -1   -1    0    0    0  501  0.00000000000E+00  0.00000000000E+00 -0.24873045307E+04  0.24873045307E+04  0.50400001928E-02 0.  1.
    10030    2    1    2    0    0  0.00000000000E+00  0.00000000000E+00 -0.12505032673E+04  0.37241057942E+04  0.35078776411E+04 0.  0.
        5    1    3    3  502    0  0.68121490578E+03  0.19471554424E+03  0.10781149146E+04  0.12900859468E+04  0.46999998093E+01 0. -1.
       -5    1    3    3    0  502 -0.68121490578E+03 -0.19471554424E+03 -0.23286181818E+04  0.24340198474E+04  0.46999998093E+01 0.  1.
</event>
<event>
 5   0  0.2180451E-07  0.3497623E+04  0.7818609E-02  0.8114354E-01
        2   -1    0    0  501    0  0.00000000000E+00  0.00000000000E+00  0.16672655685E+04  0.16672655685E+04  0.25500000920E-02 0.  1.
       -2   -1    0    0    0  501  0.00000000000E+00  0.00000000000E+00 -0.18343454128E+04  0.18343454128E+04  0.25500000920E-02 0. -1.
    10030    2    1    2    0    0  0.00000000000E+00  0.00000000000E+00 -0.16707984427E+03  0.35016109813E+04  0.34976225911E+04 0.  0.
        4    1    3    3  502    0 -0.10583453848E+04 -0.13760239072E+04  0.12836766220E+03  0.17406942914E+04  0.12699999809E+01 0.  1.
       -4    1    3    3    0  502  0.10583453848E+04  0.13760239072E+04 -0.29544750647E+03  0.17609166898E+04  0.12699999809E+01 0. -1.
</event>
<event>
 5   0  0.1072381E-07  0.3521811E+04  0.7818609E-02  0.8108640E-01
        1   -1    0    0  501    0  0.00000000000E+00  0.00000000000E+00  0.18248338897E+04  0.18248338897E+04  0.50400001928E-02 0. -1.
       -1   -1    0    0    0  501  0.00000000000E+00  0.00000000000E+00 -0.16992167717E+04  0.16992167717E+04  0.50400001928E-02 0.  1.
    10030    2    1    2    0    0  0.00000000000E+00  0.00000000000E+00  0.12561711799E+03  0.35240506613E+04  0.35218110971E+04 0.  0.
        1    1    3    3  502    0  0.27027336968E+02 -0.15988410322E+04 -0.67506475115E+03  0.17357233482E+04  0.50400001928E-02 0. -1.
       -1    1    3    3    0  502 -0.27027336968E+02  0.15988410322E+04  0.80068186914E+03  0.17883273131E+04  0.50400001928E-02 0.  1.
</event>
<event>
 5   0  0.1072381E-07  0.3464557E+04  0.7818609E-02  0.8122241E-01
        1   -1    0    0  501    0  0.00000000000E+00  0.00000000000E+00  0.21544659516E+04  0.21544659516E+04  0.50400001928E-02 0.  1.
       -1   -1    0    0    0  501  0.00000000000E+00  0.00000000000E+00 -0.13928224137E+04  0.13928224137E+04  0.50400001928E-02 0. -1.
    10030    2    1    2    0    0  0.00000000000E+00  0.00000000000E+00  0.76164353796E+03  0.35472883653E+04  0.34645568068E+04 0.  0.
        1    1    3    3  502    0  0.49707727911E+03 -0.10240754313E+03 -0.13149943469E+04  0.14095329931E+04  0.50400001928E-02 0. -1.
       -1    1    3    3    0  502 -0.49707727911E+03  0.10240754313E+03  0.20766378849E+04  0.21377553722E+04  0.50400001928E-02 0.  1.
</event>
<event>
 5   0  0.3119048E-07  0.3487814E+04  0.7818609E-02  0.8116684E-01
       -2   -1    0    0    0  501  0.00000000000E+00  0.00000000000E+00  0.14226044429E+04  0.14226044429E+04  0.25500000920E-02 0. -1.
        2   -1    0    0  501    0  0.00000000000E+00  0.00000000000E+00 -0.21377772446E+04  0.21377772446E+04  0.25500000920E-02 0.  1.
    10030    2    1    2    0    0  0.00000000000E+00  0.00000000000E+00 -0.71517280171E+03  0.35603816875E+04  0.34878138746E+04 0.  0.
        3    1    3    3  502    0  0.22371541786E+03 -0.87501686398E+02 -0.21208073394E+04  0.21343685048E+04  0.10100000352E+00 0.  1.
       -3    1    3    3    0  502 -0.22371541786E+03  0.87501686398E+02  0.14056345377E+04  0.14260131826E+04  0.10100000352E+00 0. -1.
</event>
<event>
 5   0  0.1013863E-07  0.3495327E+04  0.7818609E-02  0.8114898E-01
        1   -1    0    0  501    0  0.00000000000E+00  0.00000000000E+00  0.17209119849E+04  0.17209119849E+04  0.50400001928E-02 0. -1.
       -1   -1    0    0    0  501  0.00000000000E+00  0.00000000000E+00 -0.17748310473E+04  0.17748310473E+04  0.50400001928E-02 0.  1.
    10030    2    1    2    0    0  0.00000000000E+00  0.00000000000E+00 -0.53919062401E+02  0.34957430321E+04  0.34953271780E+04 0.  0.
        5    1    3    3  502    0  0.14430030217E+04  0.45431089584E+03  0.84815875553E+03  0.17343735109E+04  0.46999998093E+01 0. -1.
       -5    1    3    3    0  502 -0.14430030217E+04 -0.45431089584E+03 -0.90207781793E+03  0.17613695212E+04  0.46999998093E+01 0.  1.
</event>
<event>
 5   0  0.1033796E-07  0.3500697E+04  0.7818609E-02  0.8113625E-01
       -1   -1    0    0    0  501  0.00000000000E+00  0.00000000000E+00  0.14990918283E+04  0.14990918283E+04  0.50400001928E-02 0. -1.
        1   -1    0    0  501    0  0.00000000000E+00  0.00000000000E+00 -0.20437176735E+04  0.20437176735E+04  0.50400001928E-02 0.  1.
    10030    2    1    2    0    0  0.00000000000E+00  0.00000000000E+00 -0.54462584519E+03  0.35428095019E+04  0.35006973384E+04 0.  0.
        3    1    3    3  502    0  0.15240151637E+04 -0.39226144834E+03  0.50321431295E+03  0.16521851948E+04  0.10100000352E+00 0.  1.
       -3    1    3    3    0  502 -0.15240151637E+04  0.39226144834E+03 -0.10478401581E+04  0.18906243070E+04  0.10100000352E+00 0. -1.
</event>
<event>
 5   0  0.1098171E-07  0.3503734E+04  0.7818609E-02  0.8112906E-01
       -1   -1    0    0    0  501  0.00000000000E+00  0.00000000000E+00  0.14684093370E+04  0.14684093371E+04  0.50400001928E-02 0.  1.
        1   -1    0    0  501    0  0.00000000000E+00  0.00000000000E+00 -0.20900423705E+04  0.20900423705E+04  0.50400001928E-02 0. -1.
    10030    2    1    2    0    0  0.00000000000E+00  0.00000000000E+00 -0.62163303345E+03  0.35584517076E+04  0.35037338550E+04 0.  0.
        4    1    3    3  502    0  0.12778794459E+04 -0.10630607688E+04  0.25096020885E+03  0.16810879560E+04  0.12699999809E+01 0.  1.
       -4    1    3    3    0  502 -0.12778794459E+04  0.10630607688E+04 -0.87259324229E+03  0.18773637516E+04  0.12699999809E+01 0. -1.
</event>
<event>
 5   0  0.1013863E-07  0.3492290E+04  0.7818609E-02  0.8115620E-01
        1   -1    0    0  501    0  0.00000000000E+00  0.00000000000E+00  0.29038064763E+04  0.29038064763E+04  0.50400001928E-02 0. -1.
       -1   -1    0    0    0  501  0.00000000000E+00  0.00000000000E+00 -0.10500086125E+04  0.10500086125E+04  0.50400001928E-02 0.  1.
    10030    2    1    2    0    0  0.00000000000E+00  0.00000000000E+00  0.18537978638E+04  0.39538150888E+04  0.34922896839E+04 0.  0.
        5    1    3    3  502    0  0.89414113747E+03 -0.10924469871E+04 -0.23656422886E+03  0.14314026400E+04  0.46999998093E+01 0.  1.
       -5    1    3    3    0  502 -0.89414113747E+03  0.10924469871E+04  0.20903620927E+04  0.25224124488E+04  0.46999998093E+01 0. -1.
</event>
<event>
 5   0  0.1098171E-07  0.3500921E+04  0.7818609E-02  0.8113572E-01
        1   -1    0    0  501    0  0.00000000000E+00  0.00000000000E+00  0.19850481526E+04  0.19850481527E+04  0.50400001928E-02 0.  1.
       -1   -1    0    0    0  501  0.00000000000E+00  0.00000000000E+00 -0.15435955460E+04  0.15435955460E+04  0.50400001928E-02 0. -1.
    10030    2    1    2    0    0  0.00000000000E+00  0.00000000000E+00  0.44145260661E+03  0.35286436987E+04  0.35009207287E+04 0.  0.
        4    1    3    3  502    0 -0.17435215549E+04 -0.85534529293E+02  0.89594924948E+02  0.17479165974E+04  0.12699999809E+01 0.  1.
       -4    1    3    3    0  502  0.17435215549E+04  0.85534529293E+02  0.35185768166E+03  0.17807271013E+04  0.12699999809E+01 0. -1.
</event>
<event>
 5   0  0.3190185E-07  0.3537894E+04  0.7818609E-02  0.8104868E-01
        2   -1    0    0  501    0  0.00000000000E+00  0.00000000000E+00  0.24620658787E+04  0.24620658787E+04  0.25500000920E-02 0.  1.
       -2   -1    0    0    0  501  0.00000000000E+00  0.00000000000E+00 -0.12709543147E+04  0.12709543147E+04  0.25500000920E-02 0. -1.
    10030    2    1    2    0    0  0.00000000000E+00  0.00000000000E+00  0.11911115639E+04  0.37330201934E+04  0.35378938659E+04 0.  0.
        1    1    3    3  502    0  0.89111673235E+03  0.28771646762E+03  0.21790956084E+04  0.23717772802E+04  0.50400001928E-02 0.  1.
       -1    1    3    3    0  502 -0.89111673235E+03 -0.28771646762E+03 -0.98798404446E+03  0.13612429131E+04  0.50400001928E-02 0. -1.
</event>
<event>
 5   0  0.1098171E-07  0.3490586E+04  0.7818609E-02  0.8116025E-01
        1   -1    0    0  501    0  0.00000000000E+00  0.00000000000E+00  0.16120353420E+04  0.16120353420E+04  0.50400001928E-02 0.  1.
       -1   -1    0    0    0  501  0.00000000000E+00  0.00000000000E+00 -0.18895657947E+04  0.18895657947E+04  0.50400001928E-02 0. -1.
    10030    2    1    2    0    0  0.00000000000E+00  0.00000000000E+00 -0.27753045277E+03  0.35016011367E+04  0.34905855338E+04 0.  0.
        4    1    3    3  502    0  0.87952052650E+03  0.20227183139E+03 -0.16373252114E+04  0.18695736710E+04  0.12699999809E+01 0. -1.
       -4    1    3    3    0  502 -0.87952052650E+03 -0.20227183139E+03  0.13597947587E+04  0.16320274657E+04  0.12699999809E+01 0.  1.
</event>
<event>
 5   0  0.3119048E-07  0.3307139E+04  0.7818609E-02  0.8161081E-01
       -2   -1    0    0    0  501  0.00000000000E+00  0.00000000000E+00  0.19694155356E+04  0.19694155356E+04  0.25500000920E-02 0.  1.
        2   -1    0    0  501    0  0.00000000000E+00  0.00000000000E+00 -0.13883778004E+04  0.13883778004E+04  0.25500000920E-02 0. -1.
    10030    2    1    2    0    0  0.00000000000E+00  0.00000000000E+00  0.58103773516E+03  0.33577933360E+04  0.33071394343E+04 0.  0.
        3    1    3    3  502    0  0.24753644181E+03  0.12527333086E+04 -0.77613276886E+03  0.14943216245E+04  0.10100000352E+00 0. -1.
       -3    1    3    3    0  502 -0.24753644181E+03 -0.12527333086E+04  0.13571705040E+04  0.18634717115E+04  0.10100000352E+00 0.  1.
</event>
<event>
 5   0  0.2180451E-07  0.3493766E+04  0.7818609E-02  0.8115269E-01
       -2   -1    0    0    0  501  0.00000000000E+00  0.00000000000E+00  0.13181933876E+04  0.13181933876E+04  0.25500000920E-02 0. -1.
        2   -1    0    0  501    0  0.00000000000E+00  0.00000000000E+00 -0.23149869448E+04  0.23149869448E+04  0.25500000920E-02 0.  1.
    10030    2    1    2    0    0  0.00000000000E+00  0.00000000000E+00 -0.99679355718E+03  0.36331803324E+04  0.34937661531E+04 0.  0.
        4    1    3    3  502    0  0.90142735761E+03  0.13282347468E+04  0.21817160858E+03  0.16199936072E+04  0.12699999809E+01 0. -1.
       -4    1    3    3    0  502 -0.90142735761E+03 -0.13282347468E+04 -0.12149651658E+04  0.20131867252E+04  0.12699999809E+01 0.  1.
</event>
<event>
 5   0  0.1098171E-07  0.3581359E+04  0.7818609E-02  0.8094775E-01
       -1   -1    0    0    0  501  0.00000000000E+00  0.00000000000E+00  0.12557414505E+04  0.12557414505E+04  0.50400001928E-02 0.  1.
        1   -1    0    0  501    0  0.00000000000E+00  0.00000000000E+00 -0.25534980511E+04  0.25534980511E+04  0.50400001928E-02 0. -1.
    10030    2    1    2    0    0  0.00000000000E+00  0.00000000000E+00 -0.12977566006E+04  0.38092395016E+04  0.35813591535E+04 0.  0.
        4    1    3    3  502    0 -0.10866014502E+04  0.14181631528E+04 -0.52017343368E+03  0.18607717360E+04  0.12699999809E+01 0. -1.
       -4    1    3    3    0  502  0.10866014502E+04 -0.14181631528E+04 -0.77758316688E+03  0.19484677656E+04  0.12699999809E+01 0.  1.
</event>
<event>
 5   0  0.1072381E-07  0.3505772E+04  0.7818609E-02  0.8112423E-01
        1   -1    0    0  501    0  0.00000000000E+00  0.00000000000E+00  0.16188355240E+04  0.16188355240E+04  0.50400001928E-02 0.  1.
       -1   -1    0    0    0  501  0.00000000000E+00  0.00000000000E+00 -0.18980368338E+04  0.18980368338E+04  0.50400001928E-02 0. -1.
    10030    2    1    2    0    0  0.00000000000E+00  0.00000000000E+00 -0.27920130979E+03  0.35168723577E+04  0.35057720703E+04 0.  0.
        1    1    3    3  502    0  0.24550024829E+03 -0.89348759329E+03 -0.16322699569E+04  0.18769378422E+04  0.50400001928E-02 0. -1.
       -1    1    3    3    0  502 -0.24550024829E+03  0.89348759329E+03  0.13530686471E+04  0.16399345155E+04  0.50400001928E-02 0.  1.
</event>
<event>
 5   0  0.3219205E-07  0.3501659E+04  0.7818609E-02  0.8113397E-01
       -2   -1    0    0    0  501  0.00000000000E+00  0.00000000000E+00  0.14287571805E+04  0.14287571805E+04  0.25500000920E-02 0. -1.
        2   -1    0    0  501    0  0.00000000000E+00  0.00000000000E+00 -0.21455033420E+04  0.21455033420E+04  0.25500000920E-02 0.  1.
    10030    2    1    2    0    0  0.00000000000E+00  0.00000000000E+00 -0.71674616145E+03  0.35742605225E+04  0.35016586388E+04 0.  0.
        2    1    3    3  502    0 -0.29999130476E+03 -0.13363542187E+04  0.75491268343E+03  0.15638831607E+04  0.25500000920E-02 0. -1.
       -2    1    3    3    0  502  0.29999130476E+03  0.13363542187E+04 -0.14716588449E+04  0.20103773617E+04  0.25500000920E-02 0.  1.
</event>
<event>
 5   0  0.3119048E-07  0.3496064E+04  0.7818609E-02  0.8114723E-01
       -2   -1    0    0    0  501  0.00000000000E+00  0.00000000000E+00  0.14525266263E+04  0.14525266264E+04  0.25500000920E-02 0.  1.
        2   -1    0    0  501    0  0.00000000000E+00  0.00000000000E+00 -0.21036560841E+04  0.21036560841E+04  0.25500000920E-02 0. -1.
    10030    2    1    2    0    0  0.00000000000E+00  0.00000000000E+00 -0.65112945776E+03  0.35561827105E+04  0.34960643443E+04 0.  0.
        3    1    3    3  502    0 -0.85043323532E+03 -0.56204676130E+03  0.11188834135E+04  0.15136159859E+04  0.10100000352E+00 0.  1.
       -3    1    3    3    0  502  0.85043323532E+03  0.56204676130E+03 -0.17700128713E+04  0.20425667245E+04  0.10100000352E+00 0. -1.
</event>
<event>
 5   0  0.1098171E-07  0.3480300E+04  0.7818609E-02  0.8118475E-01
        1   -1    0    0  501    0  0.00000000000E+00  0.00000000000E+00  0.18627582458E+04  0.18627582458E+04  0.50400001928E-02 0. -1.
       -1   -1    0    0    0  501  0.00000000000E+00  0.00000000000E+00 -0.16256118835E+04  0.16256118836E+04  0.50400001928E-02 0.  1.
    10030    2    1    2    0    0  0.00000000000E+00  0.00000000000E+00  0.23714636222E+03  0.34883701293E+04  0.34802999529E+04 0.  0.
        4    1    3    3  502    0  0.11545331904E+04 -0.42254408789E+03  0.13529441388E+04  0.18281000655E+04  0.12699999809E+01 0. -1.
       -4    1    3    3    0  502 -0.11545331904E+04  0.42254408789E+03 -0.11157977766E+04  0.16602700639E+04  0.12699999809E+01 0.  1.
</event>
<event>
 5   0  0.1013863E-07  0.3552174E+04  0.7818609E-02  0.8101535E-01
        1   -1    0    0  501    0  0.00000000000E+00  0.00000000000E+00  0.20278400661E+04  0.20278400661E+04  0.50400001928E-02 0.  1.
       -1   -1    0    0    0  501  0.00000000000E+00  0.00000000000E+00 -0.15555887621E+04  0.15555887621E+04  0.50400001928E-02 0. -1.
    10030    2    1    2    0    0  0.00000000000E+00  0.00000000000E+00  0.47225130405E+03  0.35834288282E+04  0.35521741051E+04 0.  0.
        2    1    3    3  502    0 -0.91778131639E+03 -0.14025651485E+04  0.82863815428E+03  0.18698001848E+04  0.25500000920E-02 0.  1.
       -2    1    3    3    0  502  0.91778131639E+03  0.14025651485E+04 -0.35638685024E+03  0.17136286434E+04  0.25500000920E-02 0. -1.
</event>
<event>
 5   0  0.1098171E-07  0.3521560E+04  0.7818609E-02  0.8108699E-01
        1   -1    0    0  501    0  0.00000000000E+00  0.00000000000E+00  0.15240421737E+04  0.15240421737E+04  0.50400001928E-02 0.  1.
       -1   -1    0    0    0  501  0.00000000000E+00  0.00000000000E+00 -0.20342920377E+04  0.20342920377E+04  0.50400001928E-02 0. -1.
    10030    2    1    2    0    0  0.00000000000E+00  0.00000000000E+00 -0.51024986406E+03  0.35583342114E+04  0.35215603696E+04 0.  0.
        4    1    3    3  502    0  0.14325238710E+04  0.81197968369E+03  0.37501344374E+03  0.16888079653E+04  0.12699999809E+01 0.  1.
       -4    1    3    3    0  502 -0.14325238710E+04 -0.81197968369E+03 -0.88526330780E+03  0.18695262461E+04  0.12699999809E+01 0. -1.
</event>
<event>
 5   0  0.3219205E-07  0.3479236E+04  0.7818609E-02  0.8118728E-01
       -2   -1    0    0    0  501  0.00000000000E+00  0.00000000000E+00  0.14917678734E+04  0.14917678734E+04  0.25500000920E-02 0.  1.
        2   -1    0    0  501    0  0.00000000000E+00  0.00000000000E+00 -0.20286474865E+04  0.20286474865E+04  0.25500000920E-02 0. -1.
    10030    2    1    2    0    0  0.00000000000E+00  0.00000000000E+00 -0.53687961309E+03  0.35204153599E+04  0.34792362075E+04 0.  0.
        2    1    3    3  502    0  0.99996175213E+02  0.45304747394E+03  0.14280136652E+04  0.15014906848E+04  0.25500000920E-02 0.  1.
       -2    1    3    3    0  502 -0.99996175213E+02 -0.45304747394E+03 -0.19648932783E+04  0.20189246751E+04  0.25500000920E-02 0. -1.
</event>
<event>
 5   0  0.1033796E-07  0.3504025E+04  0.7818609E-02  0.8112837E-01
       -1   -1    0    0    0  501  0.00000000000E+00  0.00000000000E+00  0.12072427325E+04  0.12072427325E+04  0.50400001928E-02 0. -1.
        1   -1    0    0  501    0  0.00000000000E+00  0.00000000000E+00 -0.25426103950E+04  0.25426103950E+04  0.50400001928E-02 0.  1.
    10030    2    1    2    0    0  0.00000000000E+00  0.00000000000E+00 -0.13353676625E+04  0.37498531276E+04  0.35040250690E+04 0.  0.
        3    1    3    3  502    0 -0.63051336023E+03  0.14517051979E+04 -0.14717639948E+04  0.21612691516E+04  0.10100000352E+00 0.  1.
       -3    1    3    3    0  502  0.63051336023E+03 -0.14517051979E+04  0.13639633231E+03  0.15885839759E+04  0.10100000352E+00 0. -1.
</event>
<event>
 5   0  0.1072381E-07  0.3469425E+04  0.7818609E-02  0.8121074E-01
       -1   -1    0    0    0  501  0.00000000000E+00  0.00000000000E+00  0.24882495994E+04  0.24882495994E+04  0.50400001928E-02 0. -1.
        1   -1    0    0  501    0  0.00000000000E+00  0.00000000000E+00 -0.12093754300E+04  0.12093754300E+04  0.50400001928E-02 0.  1.
    10030    2    1    2    0    0  0.00000000000E+00  0.00000000000E+00  0.12788741693E+04  0.36976250294E+04  0.34694252719E+04 0.  0.
        1    1    3    3  502    0 -0.79352799839E+03 -0.11251022547E+04  0.17641631032E+04  0.22378143852E+04  0.50400001928E-02 0. -1.
       -1    1    3    3    0  502  0.79352799839E+03  0.11251022547E+04 -0.48528893382E+03  0.14598106443E+04  0.50400001928E-02 0.  1.
</event>
<event>
 5   0  0.3190185E-07  0.3517020E+04  0.7818609E-02  0.8109768E-01
        2   -1    0    0  501    0  0.00000000000E+00  0.00000000000E+00  0.21412431576E+04  0.21412431576E+04  0.25500000920E-02 0. -1.
       -2   -1    0    0    0  501  0.00000000000E+00  0.00000000000E+00 -0.14441882386E+04  0.14441882387E+04  0.25500000920E-02 0.  1.
    10030    2    1    2    0    0  0.00000000000E+00  0.00000000000E+00  0.69705491896E+03  0.35854313963E+04  0.35170204346E+04 0.  0.
        1    1    3    3  502    0  0.84465576077E+03 -0.63298767598E+03  0.17823855533E+04  0.20714765297E+04  0.50400001928E-02 0. -1.
       -1    1    3    3    0  502 -0.84465576077E+03  0.63298767598E+03 -0.10853306344E+04  0.15139548666E+04  0.50400001928E-02 0.  1.
</event>
<event>
 5   0  0.3119048E-07  0.3491404E+04  0.7818609E-02  0.8115830E-01
        2   -1    0    0  501    0  0.00000000000E+00  0.00000000000E+00  0.20727035331E+04  0.20727035331E+04  0.25500000920E-02 0. -1.
       -2   -1    0    0    0  501  0.00000000000E+00  0.00000000000E+00 -0.14702897576E+04  0.14702897576E+04  0.25500000920E-02 0.  1.
    10030    2    1    2    0    0  0.00000000000E+00  0.00000000000E+00  0.60241377550E+03  0.35429932907E+04  0.34914036004E+04 0.  0.
        3    1    3    3  502    0  0.62541896310E+03  0.12232213433E+04  0.13941804205E+04  0.19573345113E+04  0.10100000352E+00 0. -1.
       -3    1    3    3    0  502 -0.62541896310E+03 -0.12232213433E+04 -0.79176664501E+03  0.15856587793E+04  0.10100000352E+00 0.  1.
</event>
<event>
 5   0  0.1098171E-07  0.3489866E+04  0.7818609E-02  0.8116196E-01
        1   -1    0    0  501    0  0.00000000000E+00  0.00000000000E+00  0.12661914581E+04  0.12661914581E+04  0.50400001928E-02 0.  1.
       -1   -1    0    0    0  501  0.00000000000E+00  0.00000000000E+00 -0.24046847600E+04  0.24046847600E+04  0.50400001928E-02 0. -1.
    10030    2    1    2    0    0  0.00000000000E+00  0.00000000000E+00 -0.11384933019E+04  0.36708762181E+04  0.34898660734E+04 0.  0.
        4    1    3    3  502    0 -0.84950438760E+03  0.29774275525E+03  0.10031037494E+04  0.13477860356E+04  0.12699999809E+01 0.  1.
       -4    1    3    3    0  502  0.84950438760E+03 -0.29774275525E+03 -0.21415970513E+04  0.23230901824E+04  0.12699999809E+01 0. -1.
</event>
<event>
 5   0  0.2180451E-07  0.3465738E+04  0.7818609E-02  0.8121958E-01
       -2   -1    0    0    0  501  0.00000000000E+00  0.00000000000E+00  0.24914316455E+04  0.24914316455E+04  0.25500000920E-02 0.  1.
        2   -1    0    0  501    0  0.00000000000E+00  0.00000000000E+00 -0.12052651858E+04  0.12052651858E+04  0.25500000920E-02 0. -1.
    10030    2    1    2    0    0  0.00000000000E+00  0.00000000000E+00  0.12861664597E+04  0.36966968313E+04  0.34657384928E+04 0.  0.
        4    1    3    3  502    0  0.26439715317E+03  0.56470998915E+03 -0.10814573214E+04  0.12483408097E+04  0.12699999809E+01 0. -1.
       -4    1    3    3    0  502 -0.26439715317E+03 -0.56470998915E+03  0.23676237811E+04  0.24483560215E+04  0.12699999809E+01 0.  1.
</event>
<event>
 5   0  0.1013863E-07  0.3507458E+04  0.7818609E-02  0.8112025E-01
       -1   -1    0    0    0  501  0.00000000000E+00  0.00000000000E+00  0.20136313567E+04  0.20136313567E+04  0.50400001928E-02 0.  1.
        1   -1    0    0  501    0  0.00000000000E+00  0.00000000000E+00 -0.15273730571E+04  0.15273730571E+04  0.50400001928E-02 0. -1.
    10030    2    1    2    0    0  0.00000000000E+00  0.00000000000E+00  0.48625829960E+03  0.35410044138E+04  0.35074584993E+04 0.  0.
        2    1    3    3  502    0 -0.12686155125E+04 -0.68307555249E+03  0.12524857036E+04  0.19091092077E+04  0.25500000920E-02 0.  1.
       -2    1    3    3    0  502  0.12686155125E+04  0.68307555249E+03 -0.76622740402E+03  0.16318952061E+04  0.25500000920E-02 0. -1.
</event>
<event>
 5   0  0.1072381E-07  0.3478374E+04  0.7818609E-02  0.8118934E-01
       -1   -1    0    0    0  501  0.00000000000E+00  0.00000000000E+00  0.15172767812E+04  0.15172767812E+04  0.50400001928E-02 0. -1.
        1   -1    0    0  501    0  0.00000000000E+00  0.00000000000E+00 -0.19935530174E+04  0.19935530174E+04  0.50400001928E-02 0.  1.
    10030    2    1    2    0    0  0.00000000000E+00  0.00000000000E+00 -0.47627623614E+03  0.35108297986E+04  0.34783741635E+04 0.  0.
        1    1    3    3  502    0 -0.12383107562E+04  0.69559991708E+03  0.77496995576E+03  0.16179775048E+04  0.50400001928E-02 0. -1.
       -1    1    3    3    0  502  0.12383107562E+04 -0.69559991708E+03 -0.12512461919E+04  0.18928522938E+04  0.50400001928E-02 0.  1.
</event>
<event>
 5   0  0.3190112E-07  0.3489219E+04  0.7818609E-02  0.8116350E-01
        2   -1    0    0  501    0  0.00000000000E+00  0.00000000000E+00  0.25921237102E+04  0.25921237102E+04  0.25500000920E-02 0. -1.
       -2   -1    0    0    0  501  0.00000000000E+00  0.00000000000E+00 -0.11741960704E+04  0.11741960704E+04  0.25500000920E-02 0.  1.
    10030    2    1    2    0    0  0.00000000000E+00  0.00000000000E+00  0.14179276398E+04  0.37663197806E+04  0.34892185225E+04 0.  0.
        5    1    3    3  502    0  0.44428244567E+03  0.71620940035E+03 -0.93985902034E+03  0.12624182606E+04  0.46999998093E+01 0.  1.
       -5    1    3    3    0  502 -0.44428244567E+03 -0.71620940035E+03  0.23577866602E+04  0.25039015199E+04  0.46999998093E+01 0. -1.
</event>
<event>
 5   0  0.3190185E-07  0.3497523E+04  0.7818609E-02  0.8114377E-01
        2   -1    0    0  501    0  0.00000000000E+00  0.00000000000E+00  0.15058064973E+04  0.15058064973E+04  0.25500000920E-02 0. -1.
       -2   -1    0    0    0  501  0.00000000000E+00  0.00000000000E+00 -0.20309162954E+04  0.20309162954E+04  0.25500000920E-02 0.  1.
    10030    2    1    2    0    0  0.00000000000E+00  0.00000000000E+00 -0.52510979810E+03  0.35367227927E+04  0.34975230967E+04 0.  0.
        1    1    3    3  502    0  0.54759044398E+03 -0.16578940514E+04 -0.16296774863E+03  0.17535753383E+04  0.50400001928E-02 0. -1.
       -1    1    3    3    0  502 -0.54759044398E+03  0.16578940514E+04 -0.36214204947E+03  0.17831474544E+04  0.50400001928E-02 0.  1.
</event>
<event>
 5   0  0.1013863E-07  0.3688125E+04  0.7818609E-02  0.8070599E-01
       -1   -1    0    0    0  501  0.00000000000E+00  0.00000000000E+00  0.15050320794E+04  0.15050320794E+04  0.50400001928E-02 0. -1.
        1   -1    0    0  501    0  0.00000000000E+00  0.00000000000E+00 -0.22594645062E+04  0.22594645062E+04  0.50400001928E-02 0.  1.
    10030    2    1    2    0    0  0.00000000000E+00  0.00000000000E+00 -0.75443242685E+03  0.37644965856E+04  0.36881250326E+04 0.  0.
        2    1    3    3  502    0 -0.14523761972E+04 -0.48437666643E+02 -0.15359883267E+04  0.21144746311E+04  0.25500000920E-02 0.  1.
       -2    1    3    3    0  502  0.14523761972E+04  0.48437666643E+02  0.78155589982E+03  0.16500219545E+04  0.25500000920E-02 0. -1.
</event>
<event>
 5   0  0.1013863E-07  0.3492256E+04  0.7818609E-02  0.8115628E-01
       -1   -1    0    0    0  501  0.00000000000E+00  0.00000000000E+00  0.16395404639E+04  0.16395404639E+04  0.50400001928E-02 0.  1.
        1   -1    0    0  501    0  0.00000000000E+00  0.00000000000E+00 -0.18596450468E+04  0.18596450468E+04  0.50400001928E-02 0. -1.
    10030    2    1    2    0    0  0.00000000000E+00  0.00000000000E+00 -0.22010458285E+03  0.34991855107E+04  0.34922561777E+04 0.  0.
        2    1    3    3  502    0 -0.73796751834E+03  0.15673718115E+04  0.10881383337E+03  0.17358257124E+04  0.25500000920E-02 0. -1.
       -2    1    3    3    0  502  0.73796751834E+03 -0.15673718115E+04 -0.32891841622E+03  0.17633597983E+04  0.25500000920E-02 0.  1.
</event>
<event>
 5   0  0.3219205E-07  0.3510461E+04  0.7818609E-02  0.8111315E-01
        2   -1    0    0  501    0  0.00000000000E+00  0.00000000000E+00  0.20780971333E+04  0.20780971333E+04  0.25500000920E-02 0. -1.
       -2   -1    0    0    0  501  0.00000000000E+00  0.00000000000E+00 -0.14825261327E+04  0.14825261327E+04  0.25500000920E-02 0.  1.
    10030    2    1    2    0    0  0.00000000000E+00  0.00000000000E+00  0.59557100058E+03  0.35606232661E+04  0.35104605433E+04 0.  0.
        2    1    3    3  502    0  0.26715524557E+03  0.21575509520E+03 -0.14481220425E+04  0.14882807653E+04  0.25500000920E-02 0.  1.
       -2    1    3    3    0  502 -0.26715524557E+03 -0.21575509520E+03  0.20436930431E+04  0.20723425008E+04  0.25500000920E-02 0. -1.
</event>
<event>
 5   0  0.1013863E-07  0.3507917E+04  0.7818609E-02  0.8111916E-01
       -3   -1    0    0    0  501  0.00000000000E+00  0.00000000000E+00  0.20943768515E+04  0.20943768539E+04  0.10100000352E+00 0.  1.
        3   -1    0    0  501    0  0.00000000000E+00  0.00000000000E+00 -0.14688717469E+04  0.14688717504E+04  0.10100000352E+00 0. -1.
    10030    2    1    2    0    0  0.00000000000E+00  0.00000000000E+00  0.62550510457E+03  0.35632486043E+04  0.35079173280E+04 0.  0.
        2    1    3    3  502    0  0.11683640414E+04  0.82669186000E+03  0.13425868573E+04  0.19624050127E+04  0.25500000920E-02 0.  1.
       -2    1    3    3    0  502 -0.11683640414E+04 -0.82669186000E+03 -0.71708175270E+03  0.16008435916E+04  0.25500000920E-02 0. -1.
</event>
<event>
 5   0  0.1072381E-07  0.3384274E+04  0.7818609E-02  0.8141777E-01
        1   -1    0    0  501    0  0.00000000000E+00  0.00000000000E+00  0.12516753489E+04  0.12516753489E+04  0.50400001928E-02 0.  1.
       -1   -1    0    0    0  501  0.00000000000E+00  0.00000000000E+00 -0.22875955752E+04  0.22875955752E+04  0.50400001928E-02 0. -1.
    10030    2    1    2    0    0  0.00000000000E+00  0.00000000000E+00 -0.10359202263E+04  0.35392709241E+04  0.33842736235E+04 0.  0.
        1    1    3    3  502    0  0.15045225789E+04  0.74094143762E+03 -0.75354270334E+03  0.18385888639E+04  0.50400001928E-02 0.  1.
       -1    1    3    3    0  502 -0.15045225789E+04 -0.74094143762E+03 -0.28237752296E+03  0.17006820602E+04  0.50400001928E-02 0. -1.
</event>
<event>
 5   0  0.3119048E-07  0.3496054E+04  0.7818609E-02  0.8114726E-01
       -2   -1    0    0    0  501  0.00000000000E+00  0.00000000000E+00  0.10293805127E+04  0.10293805127E+04  0.25500000920E-02 0.  1.
        2   -1    0    0  501    0  0.00000000000E+00  0.00000000000E+00 -0.29683865252E+04  0.29683865252E+04  0.25500000920E-02 0. -1.
    10030    2    1    2    0    0  0.00000000000E+00  0.00000000000E+00 -0.19390060125E+04  0.39977670379E+04  0.34960544865E+04 0.  0.
        3    1    3    3  502    0  0.11565557061E+04 -0.12732949392E+04 -0.61391399896E+03  0.18264149342E+04  0.10100000352E+00 0.  1.
       -3    1    3    3    0  502 -0.11565557061E+04  0.12732949392E+04 -0.13250920136E+04  0.21713521037E+04  0.10100000352E+00 0. -1.
</event>
<event>
 5   0  0.1033796E-07  0.3500572E+04  0.7818609E-02  0.8113654E-01
       -1   -1    0    0    0  501  0.00000000000E+00  0.00000000000E+00  0.15277229183E+04  0.15277229183E+04  0.50400001928E-02 0. -1.
        1   -1    0    0  501    0  0.00000000000E+00  0.00000000000E+00 -0.20052728478E+04  0.20052728478E+04  0.50400001928E-02 0.  1.
    10030    2    1    2    0    0  0.00000000000E+00  0.00000000000E+00 -0.47754992946E+03  0.35329957661E+04  0.35005721172E+04 0.  0.
        3    1    3    3  502    0  0.11758879202E+04  0.50015301667E+02 -0.15462615680E+04  0.19432289568E+04  0.10100000352E+00 0.  1.
       -3    1    3    3    0  502 -0.11758879202E+04 -0.50015301667E+02  0.10687116386E+04  0.15897668093E+04  0.10100000352E+00 0. -1.
</event>
<event>
 5   0  0.3219205E-07  0.3394764E+04  0.7818609E-02  0.8139193E-01
        2   -1    0    0  501    0  0.00000000000E+00  0.00000000000E+00  0.15089513764E+04  0.15089513764E+04  0.25500000920E-02 0.  1.
       -2   -1    0    0    0  501  0.00000000000E+00  0.00000000000E+00 -0.19093431515E+04  0.19093431515E+04  0.25500000920E-02 0. -1.
    10030    2    1    2    0    0  0.00000000000E+00  0.00000000000E+00 -0.40039177515E+03  0.34182945279E+04  0.33947641900E+04 0.  0.
        2    1    3    3  502    0  0.91385180463E+03 -0.13355965283E+04 -0.71576320084E+03  0.17695367097E+04  0.25500000920E-02 0. -1.
       -2    1    3    3    0  502 -0.91385180463E+03  0.13355965283E+04  0.31537142569E+03  0.16487578183E+04  0.25500000920E-02 0.  1.
</event>
<event>
 5   0  0.3219205E-07  0.3497579E+04  0.7818609E-02  0.8114364E-01
       -2   -1    0    0    0  501  0.00000000000E+00  0.00000000000E+00  0.11846208981E+04  0.11846208981E+04  0.25500000920E-02 0. -1.
        2   -1    0    0  501    0  0.00000000000E+00  0.00000000000E+00 -0.25816394247E+04  0.25816394247E+04  0.25500000920E-02 0.  1.
    10030    2    1    2    0    0  0.00000000000E+00  0.00000000000E+00 -0.13970185265E+04  0.37662603228E+04  0.34975785989E+04 0.  0.
        2    1    3    3  502    0  0.37438556088E+03  0.10408955956E+04  0.76002886592E+03  0.13421147739E+04  0.25500000920E-02 0. -1.
       -2    1    3    3    0  502 -0.37438556088E+03 -0.10408955956E+04 -0.21570473925E+04  0.24241455490E+04  0.25500000920E-02 0.  1.
</event>
<event>
 5   0  0.1072381E-07  0.3477951E+04  0.7818609E-02  0.8119035E-01
       -1   -1    0    0    0  501  0.00000000000E+00  0.00000000000E+00  0.17033245957E+04  0.17033245957E+04  0.50400001928E-02 0. -1.
        1   -1    0    0  501    0  0.00000000000E+00  0.00000000000E+00 -0.17753730874E+04  0.17753730874E+04  0.50400001928E-02 0.  1.
    10030    2    1    2    0    0  0.00000000000E+00  0.00000000000E+00 -0.72048491731E+02  0.34786976831E+04  0.34779514926E+04 0.  0.
        1    1    3    3  502    0 -0.29092213773E+03  0.16246083230E+04  0.51186033784E+03  0.17280014174E+04  0.50400001928E-02 0.  1.
       -1    1    3    3    0  502  0.29092213773E+03 -0.16246083230E+04 -0.58390882957E+03  0.17506962656E+04  0.50400001928E-02 0. -1.
</event>
<event>
 5   0  0.3119048E-07  0.3501568E+04  0.7818609E-02  0.8113418E-01
       -2   -1    0    0    0  501  0.00000000000E+00  0.00000000000E+00  0.23798231425E+04  0.23798231425E+04  0.25500000920E-02 0. -1.
        2   -1    0    0  501    0  0.00000000000E+00  0.00000000000E+00 -0.12880139349E+04  0.12880139349E+04  0.25500000920E-02 0.  1.
    10030    2    1    2    0    0  0.00000000000E+00  0.00000000000E+00  0.10918092077E+04  0.36678370774E+04  0.35015684315E+04 0.  0.
        3    1    3    3  502    0 -0.44555209199E+03  0.12949810915E+04 -0.59664683471E+03  0.14938139608E+04  0.10100000352E+00 0.  1.
       -3    1    3    3    0  502  0.44555209199E+03 -0.12949810915E+04  0.16884560424E+04  0.21740231165E+04  0.10100000352E+00 0. -1.
</event>
<event>
 5   0  0.3219205E-07  0.3390860E+04  0.7818609E-02  0.8140153E-01
       -2   -1    0    0    0  501  0.00000000000E+00  0.00000000000E+00  0.12011339965E+04  0.12011339965E+04  0.25500000920E-02 0.  1.
        2   -1    0    0  501    0  0.00000000000E+00  0.00000000000E+00 -0.23931412423E+04  0.23931412423E+04  0.25500000920E-02 0. -1.
    10030    2    1    2    0    0  0.00000000000E+00  0.00000000000E+00 -0.11920072458E+04  0.35942752388E+04  0.33908602475E+04 0.  0.
        2    1    3    3  502    0 -0.11189559733E+04  0.11256780859E+04  0.35797674344E+02  0.15876067198E+04  0.25500000920E-02 0.  1.
       -2    1    3    3    0  502  0.11189559733E+04 -0.11256780859E+04 -0.12278049201E+04  0.20066685190E+04  0.25500000920E-02 0. -1.
</event>
<event>
 5   0  0.1033796E-07  0.3500391E+04  0.7818609E-02  0.8113697E-01
       -1   -1    0    0    0  501  0.00000000000E+00  0.00000000000E+00  0.29916155804E+04  0.29916155804E+04  0.50400001928E-02 0. -1.
        1   -1    0    0  501    0  0.00000000000E+00  0.00000000000E+00 -0.10239228042E+04  0.10239228042E+04  0.50400001928E-02 0.  1.
    10030    2    1    2    0    0  0.00000000000E+00  0.00000000000E+00  0.19676927762E+04  0.40155383846E+04  0.35003905006E+04 0.  0.
        3    1    3    3  502    0  0.14994442703E+03 -0.65988853213E+03  0.28354659223E+04  0.29150991772E+04  0.10100000352E+00 0. -1.
       -3    1    3    3    0  502 -0.14994442703E+03  0.65988853213E+03 -0.86777314608E+03  0.11004392075E+04  0.10100000352E+00 0.  1.
</event>
<event>
 5   0  0.1033796E-07  0.3510740E+04  0.7818609E-02  0.8111249E-01
        1   -1    0    0  501    0  0.00000000000E+00  0.00000000000E+00  0.13483411809E+04  0.13483411809E+04  0.50400001928E-02 0. -1.
       -1   -1    0    0    0  501  0.00000000000E+00  0.00000000000E+00 -0.22852703503E+04  0.22852703503E+04  0.50400001928E-02 0.  1.
    10030    2    1    2    0    0  0.00000000000E+00  0.00000000000E+00 -0.93692916938E+03  0.36336115312E+04  0.35107401629E+04 0.  0.
        3    1    3    3  502    0 -0.82510454154E+03  0.14953687616E+04 -0.88811651804E+03  0.19250132980E+04  0.10100000352E+00 0.  1.
       -3    1    3    3    0  502  0.82510454154E+03 -0.14953687616E+04 -0.48812651340E+02  0.17085982332E+04  0.10100000352E+00 0. -1.
</event>
<event>
 5   0  0.1098171E-07  0.3488913E+04  0.7818609E-02  0.8116422E-01
       -1   -1    0    0    0  501  0.00000000000E+00  0.00000000000E+00  0.14826164471E+04  0.14826164471E+04  0.50400001928E-02 0.  1.
        1   -1    0    0  501    0  0.00000000000E+00  0.00000000000E+00 -0.20525392253E+04  0.20525392253E+04  0.50400001928E-02 0. -1.
    10030    2    1    2    0    0  0.00000000000E+00  0.00000000000E+00 -0.56992277820E+03  0.35351556724E+04  0.34889129618E+04 0.  0.
        4    1    3    3  502    0  0.92378197740E+03  0.71794721934E+03 -0.15960611950E+04  0.19789477767E+04  0.12699999809E+01 0. -1.
       -4    1    3    3    0  502 -0.92378197740E+03 -0.71794721934E+03  0.10261384168E+04  0.15562078958E+04  0.12699999809E+01 0.  1.
</event>
<event>
 5   0  0.3119048E-07  0.3494496E+04  0.7818609E-02  0.8115095E-01
        2   -1    0    0  501    0  0.00000000000E+00  0.00000000000E+00  0.17962755082E+04  0.17962755082E+04  0.25500000920E-02 0.  1.
       -2   -1    0    0    0  501  0.00000000000E+00  0.00000000000E+00 -0.16995590121E+04  0.16995590121E+04  0.25500000920E-02 0. -1.
    10030    2    1    2    0    0  0.00000000000E+00  0.00000000000E+00  0.96716496095E+02  0.34958345203E+04  0.34944963747E+04 0.  0.
        3    1    3    3  502    0 -0.78077320221E+03  0.60869400266E+02 -0.15141503313E+04  0.17046885678E+04  0.10100000352E+00 0. -1.
       -3    1    3    3    0  502  0.78077320221E+03 -0.60869400266E+02  0.16108668274E+04  0.17911459525E+04  0.10100000352E+00 0.  1.
</event>
<event>
 5   0  0.3219205E-07  0.3454763E+04  0.7818609E-02  0.8124595E-01
       -2   -1    0    0    0  501  0.00000000000E+00  0.00000000000E+00  0.16091935207E+04  0.16091935207E+04  0.25500000920E-02 0. -1.
        2   -1    0    0  501    0  0.00000000000E+00  0.00000000000E+00 -0.18542503298E+04  0.18542503298E+04  0.25500000920E-02 0.  1.
    10030    2    1    2    0    0  0.00000000000E+00  0.00000000000E+00 -0.24505680908E+03  0.34634438505E+04  0.34547634457E+04 0.  0.
        2    1    3    3  502    0 -0.15004674392E+04  0.42085466600E+03 -0.86960306725E+03  0.17845813741E+04  0.25500000920E-02 0.  1.
       -2    1    3    3    0  502  0.15004674392E+04 -0.42085466600E+03  0.62454625817E+03  0.16788624764E+04  0.25500000920E-02 0. -1.
</event>
<event>
 5   0  0.2180451E-07  0.3483842E+04  0.7818609E-02  0.8117630E-01
       -2   -1    0    0    0  501  0.00000000000E+00  0.00000000000E+00  0.26789089159E+04  0.26789089159E+04  0.25500000920E-02 0. -1.
        2   -1    0    0  501    0  0.00000000000E+00  0.00000000000E+00 -0.11326581270E+04  0.11326581270E+04  0.25500000920E-02 0.  1.
    10030    2    1    2    0    0  0.00000000000E+00  0.00000000000E+00  0.15462507890E+04  0.38115670429E+04  0.34838415321E+04 0.  0.
        4    1    3    3  502    0  0.10486003716E+03 -0.40439120842E+03  0.26232877829E+04  0.26563449102E+04  0.12699999809E+01 0. -1.
       -4    1    3    3    0  502 -0.10486003716E+03  0.40439120842E+03 -0.10770369940E+04  0.11552221328E+04  0.12699999809E+01 0.  1.
</event>
<event>
 5   0  0.1013863E-07  0.3495320E+04  0.7818609E-02  0.8114900E-01
       -1   -1    0    0    0  501  0.00000000000E+00  0.00000000000E+00  0.12481039498E+04  0.12481039498E+04  0.50400001928E-02 0. -1.
        1   -1    0    0  501    0  0.00000000000E+00  0.00000000000E+00 -0.24471639846E+04  0.24471639846E+04  0.50400001928E-02 0.  1.
    10030    2    1    2    0    0  0.00000000000E+00  0.00000000000E+00 -0.11990600348E+04  0.36952679345E+04  0.34953197480E+04 0.  0.
        2    1    3    3  502    0  0.11788586707E+04 -0.27472240580E+03 -0.19322515094E+04  0.22800824681E+04  0.25500000920E-02 0.  1.
       -2    1    3    3    0  502 -0.11788586707E+04  0.27472240580E+03  0.73319147459E+03  0.14151854664E+04  0.25500000920E-02 0. -1.
</event>
<event>
 5   0  0.1013863E-07  0.3509607E+04  0.7818609E-02  0.8111517E-01
        1   -1    0    0  501    0  0.00000000000E+00  0.00000000000E+00  0.26880978119E+04  0.26880978119E+04  0.50400001928E-02 0. -1.
       -1   -1    0    0    0  501  0.00000000000E+00  0.00000000000E+00 -0.11455444589E+04  0.11455444590E+04  0.50400001928E-02 0.  1.
    10030    2    1    2    0    0  0.00000000000E+00  0.00000000000E+00  0.15425533530E+04  0.38336422709E+04  0.35096071311E+04 0.  0.
        5    1    3    3  502    0 -0.13512842766E+04  0.74952631431E+03 -0.13710070030E+03  0.15513147921E+04  0.46999998093E+01 0.  1.
       -5    1    3    3    0  502  0.13512842766E+04 -0.74952631431E+03  0.16796540533E+04  0.22823274789E+04  0.46999998093E+01 0. -1.
</event>
<event>
 5   0  0.3190185E-07  0.3492818E+04  0.7818609E-02  0.8115494E-01
       -2   -1    0    0    0  501  0.00000000000E+00  0.00000000000E+00  0.97491562080E+03  0.97491562081E+03  0.25500000920E-02 0.  1.
        2   -1    0    0  501    0  0.00000000000E+00  0.00000000000E+00 -0.31284194929E+04  0.31284194929E+04  0.25500000920E-02 0. -1.
    10030    2    1    2    0    0  0.00000000000E+00  0.00000000000E+00 -0.21535038721E+04  0.41033351137E+04  0.34928183646E+04 0.  0.
        1    1    3    3  502    0 -0.16588275467E+04 -0.13609218361E+03 -0.45542675337E+03  0.17255849558E+04  0.50400001928E-02 0.  1.
       -1    1    3    3    0  502  0.16588275467E+04  0.13609218361E+03 -0.16980771187E+04  0.23777501579E+04  0.50400001928E-02 0. -1.
</event>
<event>
 5   0  0.3219205E-07  0.3490244E+04  0.7818609E-02  0.8116106E-01
       -2   -1    0    0    0  501  0.00000000000E+00  0.00000000000E+00  0.15811375989E+04  0.15811375989E+04  0.25500000920E-02 0.  1.
        2   -1    0    0  501    0  0.00000000000E+00  0.00000000000E+00 -0.19261139128E+04  0.19261139128E+04  0.25500000920E-02 0. -1.
    10030    2    1    2    0    0  0.00000000000E+00  0.00000000000E+00 -0.34497631395E+03  0.35072515117E+04  0.34902441905E+04 0.  0.
        2    1    3    3  502    0  0.60539755228E+02  0.40338145652E+03  0.15325620431E+04  0.15859155329E+04  0.25500000920E-02 0.  1.
       -2    1    3    3    0  502 -0.60539755228E+02 -0.40338145652E+03 -0.18775383570E+04  0.19213359788E+04  0.25500000920E-02 0. -1.
</event>
<event>
 5   0  0.1072381E-07  0.3538644E+04  0.7818609E-02  0.8104692E-01
       -1   -1    0    0    0  501  0.00000000000E+00  0.00000000000E+00  0.14179594568E+04  0.14179594568E+04  0.50400001928E-02 0.  1.
        1   -1    0    0  501    0  0.00000000000E+00  0.00000000000E+00 -0.22077503281E+04  0.22077503281E+04  0.50400001928E-02 0. -1.
    10030    2    1    2    0    0  0.00000000000E+00  0.00000000000E+00 -0.78979087131E+03  0.36257097849E+04  0.35386440657E+04 0.  0.
        1    1    3    3  502    0 -0.94067911173E+03 -0.14653644334E+04 -0.73603420649E+02  0.17428676305E+04  0.50400001928E-02 0.  1.
       -1    1    3    3    0  502  0.94067911173E+03  0.14653644334E+04 -0.71618745066E+03  0.18828421544E+04  0.50400001928E-02 0. -1.
</event>
<event>
 5   0  0.1033796E-07  0.3500209E+04  0.7818609E-02  0.8113740E-01
        1   -1    0    0  501    0  0.00000000000E+00  0.00000000000E+00  0.21365064979E+04  0.21365064979E+04  0.50400001928E-02 0.  1.
       -1   -1    0    0    0  501  0.00000000000E+00  0.00000000000E+00 -0.14335858072E+04  0.14335858072E+04  0.50400001928E-02 0. -1.
    10030    2    1    2    0    0  0.00000000000E+00  0.00000000000E+00  0.70292069074E+03  0.35700923051E+04  0.35002087894E+04 0.  0.
        3    1    3    3  502    0  0.74108960281E+03 -0.31991603900E+03 -0.12323807063E+04  0.14732013735E+04  0.10100000352E+00 0. -1.
       -3    1    3    3    0  502 -0.74108960281E+03  0.31991603900E+03  0.19353013971E+04  0.20968909316E+04  0.10100000352E+00 0.  1.
</event>
<event>
 5   0  0.1013863E-07  0.3603521E+04  0.7818609E-02  0.8089686E-01
       -1   -1    0    0    0  501  0.00000000000E+00  0.00000000000E+00  0.19373571211E+04  0.19373571211E+04  0.50400001928E-02 0. -1.
        1   -1    0    0  501    0  0.00000000000E+00  0.00000000000E+00 -0.16756547813E+04  0.16756547813E+04  0.50400001928E-02 0.  1.
    10030    2    1    2    0    0  0.00000000000E+00  0.00000000000E+00  0.26170233981E+03  0.36130119024E+04  0.36035214571E+04 0.  0.
        2    1    3    3  502    0 -0.10176092323E+04 -0.73416814786E+03 -0.11655391475E+04  0.17126041350E+04  0.25500000920E-02 0.  1.
       -2    1    3    3    0  502  0.10176092323E+04  0.73416814786E+03  0.14272414873E+04  0.19004077673E+04  0.25500000920E-02 0. -1.
</event>
<event>
 5   0  0.1013863E-07  0.3458928E+04  0.7818609E-02  0.8123593E-01
        3   -1    0    0  501    0  0.00000000000E+00  0.00000000000E+00  0.13785724404E+04  0.13785724441E+04  0.10100000352E+00 0. -1.
       -3   -1    0    0    0  501  0.00000000000E+00  0.00000000000E+00 -0.21696692288E+04  0.21696692311E+04  0.10100000352E+00 0.  1.
    10030    2    1    2    0    0  0.00000000000E+00  0.00000000000E+00 -0.79109678840E+03  0.35482416752E+04  0.34589282816E+04 0.  0.
        2    1    3    3  502    0 -0.34040669796E+03  0.85113377509E+03 -0.18999565224E+04  0.21095355437E+04  0.25500000920E-02 0.  1.
       -2    1    3    3    0  502  0.34040669796E+03 -0.85113377509E+03  0.11088597340E+04  0.14387061315E+04  0.25500000920E-02 0. -1.
</event>
<event>
 5   0  0.1072381E-07  0.3499250E+04  0.7818609E-02  0.8113968E-01
       -1   -1    0    0    0  501  0.00000000000E+00  0.00000000000E+00  0.17392211190E+04  0.17392211190E+04  0.50400001928E-02 0.  1.
        1   -1    0    0  501    0  0.00000000000E+00  0.00000000000E+00 -0.17600911825E+04  0.17600911825E+04  0.50400001928E-02 0. -1.
    10030    2    1    2    0    0  0.00000000000E+00  0.00000000000E+00 -0.20870063509E+02  0.34993123015E+04  0.34992500660E+04 0.  0.
        1    1    3    3  502    0 -0.15006182642E+04  0.89934090107E+03  0.12336513314E+02  0.17495203402E+04  0.50400001928E-02 0. -1.
       -1    1    3    3    0  502  0.15006182642E+04 -0.89934090107E+03 -0.33206576823E+02  0.17497919613E+04  0.50400001928E-02 0.  1.
</event>
<event>
 5   0  0.3119048E-07  0.3485000E+04  0.7818609E-02  0.8117354E-01
       -2   -1    0    0    0  501  0.00000000000E+00  0.00000000000E+00  0.18644381417E+04  0.18644381417E+04  0.25500000920E-02 0.  1.
        2   -1    0    0  501    0  0.00000000000E+00  0.00000000000E+00 -0.16285364692E+04  0.16285364692E+04  0.25500000920E-02 0. -1.
    10030    2    1    2    0    0  0.00000000000E+00  0.00000000000E+00  0.23590167248E+03  0.34929746108E+04  0.34849995743E+04 0.  0.
        3    1    3    3  502    0 -0.55643200235E+02 -0.69880339500E+03  0.17168704221E+04  0.18544720023E+04  0.10100000352E+00 0.  1.
       -3    1    3    3    0  502  0.55643200235E+02  0.69880339500E+03 -0.14809687497E+04  0.16385026086E+04  0.10100000352E+00 0. -1.
</event>
<event>
 5   0  0.1013863E-07  0.3475110E+04  0.7818609E-02  0.8119714E-01
       -1   -1    0    0    0  501  0.00000000000E+00  0.00000000000E+00  0.21899640602E+04  0.21899640602E+04  0.50400001928E-02 0.  1.
        1   -1    0    0  501    0  0.00000000000E+00  0.00000000000E+00 -0.13786057546E+04  0.13786057546E+04  0.50400001928E-02 0. -1.
    10030    2    1    2    0    0  0.00000000000E+00  0.00000000000E+00  0.81135830557E+03  0.35685698149E+04  0.34751098146E+04 0.  0.
        2    1    3    3  502    0 -0.20577497728E+03 -0.14919443086E+04  0.12955028387E+04  0.19865972834E+04  0.25500000920E-02 0.  1.
       -2    1    3    3    0  502  0.20577497728E+03  0.14919443086E+04 -0.48414453314E+03  0.15819725315E+04  0.25500000920E-02 0. -1.
</event>
<event>
 5   0  0.3190185E-07  0.3502545E+04  0.7818609E-02  0.8113187E-01
        2   -1    0    0  501    0  0.00000000000E+00  0.00000000000E+00  0.22925707599E+04  0.22925707599E+04  0.25500000920E-02 0. -1.
       -2   -1    0    0    0  501  0.00000000000E+00  0.00000000000E+00 -0.13377801844E+04  0.13377801844E+04  0.25500000920E-02 0.  1.
    10030    2    1    2    0    0  0.00000000000E+00  0.00000000000E+00  0.95479057550E+03  0.36303509443E+04  0.35025452082E+04 0.  0.
        1    1    3    3  502    0  0.19650002425E+03 -0.12278283658E+04 -0.80080289718E+03  0.14790064352E+04  0.50400001928E-02 0. -1.
       -1    1    3    3    0  502 -0.19650002425E+03  0.12278283658E+04  0.17555934727E+04  0.21513445091E+04  0.50400001928E-02 0.  1.
</event>
<event>
 5   0  0.1013863E-07  0.3484632E+04  0.7818609E-02  0.8117442E-01
        1   -1    0    0  501    0  0.00000000000E+00  0.00000000000E+00  0.14873896003E+04  0.14873896003E+04  0.50400001928E-02 0. -1.
       -1   -1    0    0    0  501  0.00000000000E+00  0.00000000000E+00 -0.20409352238E+04  0.20409352238E+04  0.50400001928E-02 0.  1.
    10030    2    1    2    0    0  0.00000000000E+00  0.00000000000E+00 -0.55354562347E+03  0.35283248241E+04  0.34846324494E+04 0.  0.
        2    1    3    3  502    0 -0.10193230209E+03  0.11391977809E+04  0.10540527093E+04  0.15553741968E+04  0.25500000920E-02 0. -1.
       -2    1    3    3    0  502  0.10193230209E+03 -0.11391977809E+04 -0.16075983327E+04  0.19729506273E+04  0.25500000920E-02 0.  1.
</event>
<event>
 5   0  0.1033796E-07  0.3501976E+04  0.7818609E-02  0.8113322E-01
       -1   -1    0    0    0  501  0.00000000000E+00  0.00000000000E+00  0.21253536226E+04  0.21253536226E+04  0.50400001928E-02 0.  1.
        1   -1    0    0  501    0  0.00000000000E+00  0.00000000000E+00 -0.14425643792E+04  0.14425643792E+04  0.50400001928E-02 0. -1.
    10030    2    1    2    0    0  0.00000000000E+00  0.00000000000E+00  0.68278924343E+03  0.35679180018E+04  0.35019762587E+04 0.  0.
        3    1    3    3  502    0 -0.12753121053E+04  0.66851450390E+03 -0.67367228249E+03  0.15897065648E+04  0.10100000352E+00 0. -1.
       -3    1    3    3    0  502  0.12753121053E+04 -0.66851450390E+03  0.13564615259E+04  0.19782114370E+04  0.10100000352E+00 0.  1.
</event>
<event>
 5   0  0.2180451E-07  0.3495126E+04  0.7818609E-02  0.8114946E-01
        2   -1    0    0  501    0  0.00000000000E+00  0.00000000000E+00  0.16747394454E+04  0.16747394454E+04  0.25500000920E-02 0.  1.
       -2   -1    0    0    0  501  0.00000000000E+00  0.00000000000E+00 -0.18235528955E+04  0.18235528955E+04  0.25500000920E-02 0. -1.
    10030    2    1    2    0    0  0.00000000000E+00  0.00000000000E+00 -0.14881345012E+03  0.34982923408E+04  0.34951257286E+04 0.  0.
        4    1    3    3  502    0  0.11308435815E+04 -0.89500826462E+03  0.91346638748E+03  0.17071231512E+04  0.12699999809E+01 0.  1.
       -4    1    3    3    0  502 -0.11308435815E+04  0.89500826462E+03 -0.10622798376E+04  0.17911691896E+04  0.12699999809E+01 0. -1.
</event>
<event>
 5   0  0.1098171E-07  0.3477621E+04  0.7818609E-02  0.8119114E-01
       -1   -1    0    0    0  501  0.00000000000E+00  0.00000000000E+00  0.13445805274E+04  0.13445805274E+04  0.50400001928E-02 0.  1.
        1   -1    0    0  501    0  0.00000000000E+00  0.00000000000E+00 -0.22486288579E+04  0.22486288579E+04  0.50400001928E-02 0. -1.
    10030    2    1    2    0    0  0.00000000000E+00  0.00000000000E+00 -0.90404833051E+03  0.35932093854E+04  0.34776213571E+04 0.  0.
        4    1    3    3  502    0  0.75499848544E+03  0.83823359573E+03  0.91513422957E+03  0.14526288394E+04  0.12699999809E+01 0.  1.
       -4    1    3    3    0  502 -0.75499848544E+03 -0.83823359573E+03 -0.18191825601E+04  0.21405805460E+04  0.12699999809E+01 0. -1.
</event>
<event>
 5   0  0.3219205E-07  0.3505090E+04  0.7818609E-02  0.8112585E-01
       -2   -1    0    0    0  501  0.00000000000E+00  0.00000000000E+00  0.20770351215E+04  0.20770351215E+04  0.25500000920E-02 0. -1.
        2   -1    0    0  501    0  0.00000000000E+00  0.00000000000E+00 -0.14787491483E+04  0.14787491483E+04  0.25500000920E-02 0.  1.
    10030    2    1    2    0    0  0.00000000000E+00  0.00000000000E+00  0.59828597324E+03  0.35557842699E+04  0.35050899657E+04 0.  0.
        2    1    3    3  502    0  0.24677947833E+03  0.11114534922E+04  0.16507736550E+04  0.20053136005E+04  0.25500000920E-02 0. -1.
       -2    1    3    3    0  502 -0.24677947833E+03 -0.11114534922E+04 -0.10524876817E+04  0.15504706694E+04  0.25500000920E-02 0.  1.
</event>
<event>
 5   0  0.1033796E-07  0.3518557E+04  0.7818609E-02  0.8109406E-01
       -1   -1    0    0    0  501  0.00000000000E+00  0.00000000000E+00  0.19560677463E+04  0.19560677463E+04  0.50400001928E-02 0.  1.
        1   -1    0    0  501    0  0.00000000000E+00  0.00000000000E+00 -0.15822868664E+04  0.15822868664E+04  0.50400001928E-02 0. -1.
    10030    2    1    2    0    0  0.00000000000E+00  0.00000000000E+00  0.37378087988E+03  0.35383546128E+04  0.35185566955E+04 0.  0.
        3    1    3    3  502    0 -0.17439690074E+04 -0.10116559077E+03  0.39638427893E+03  0.17913075901E+04  0.10100000352E+00 0.  1.
       -3    1    3    3    0  502  0.17439690074E+04  0.10116559077E+03 -0.22603399050E+02  0.17470470227E+04  0.10100000352E+00 0. -1.
</event>
<event>
 5   0  0.3119048E-07  0.3510369E+04  0.7818609E-02  0.8111337E-01
       -2   -1    0    0    0  501  0.00000000000E+00  0.00000000000E+00  0.11488414612E+04  0.11488414612E+04  0.25500000920E-02 0.  1.
        2   -1    0    0  501    0  0.00000000000E+00  0.00000000000E+00 -0.26815467365E+04  0.26815467365E+04  0.25500000920E-02 0. -1.
    10030    2    1    2    0    0  0.00000000000E+00  0.00000000000E+00 -0.15327052753E+04  0.38303881977E+04  0.35103686821E+04 0.  0.
        3    1    3    3  502    0  0.14134252932E+04 -0.65772621229E+03  0.11357308119E+03  0.15630974649E+04  0.10100000352E+00 0.  1.
       -3    1    3    3    0  502 -0.14134252932E+04  0.65772621229E+03 -0.16462783565E+04  0.22672907328E+04  0.10100000352E+00 0. -1.
</event>
<event>
 5   0  0.1013863E-07  0.3592795E+04  0.7818609E-02  0.8092144E-01
        1   -1    0    0  501    0  0.00000000000E+00  0.00000000000E+00  0.27608022544E+04  0.27608022544E+04  0.50400001928E-02 0.  1.
       -1   -1    0    0    0  501  0.00000000000E+00  0.00000000000E+00 -0.11688788426E+04  0.11688788426E+04  0.50400001928E-02 0. -1.
    10030    2    1    2    0    0  0.00000000000E+00  0.00000000000E+00  0.15919234118E+04  0.39296810970E+04  0.35927946469E+04 0.  0.
        2    1    3    3  502    0 -0.16552496662E+03 -0.10058682735E+04  0.24138035025E+04  0.26202322124E+04  0.25500000920E-02 0.  1.
       -2    1    3    3    0  502  0.16552496662E+03  0.10058682735E+04 -0.82188009063E+03  0.13094488847E+04  0.25500000920E-02 0. -1.
</event>
<event>
 5   0  0.3219205E-07  0.3510876E+04  0.7818609E-02  0.8111217E-01
       -2   -1    0    0    0  501  0.00000000000E+00  0.00000000000E+00  0.17014863648E+04  0.17014863648E+04  0.25500000920E-02 0.  1.
        2   -1    0    0  501    0  0.00000000000E+00  0.00000000000E+00 -0.18111008438E+04  0.18111008438E+04  0.25500000920E-02 0. -1.
    10030    2    1    2    0    0  0.00000000000E+00  0.00000000000E+00 -0.10961447906E+03  0.35125872086E+04  0.35108764666E+04 0.  0.
        2    1    3    3  502    0  0.26122656118E+03  0.11483406459E+04 -0.13572241189E+04  0.17969370785E+04  0.25500000920E-02 0. -1.
       -2    1    3    3    0  502 -0.26122656118E+03 -0.11483406459E+04  0.12476096398E+04  0.17156501300E+04  0.25500000920E-02 0.  1.
</event>
<event>
 5   0  0.3190185E-07  0.3493287E+04  0.7818609E-02  0.8115383E-01
        2   -1    0    0  501    0  0.00000000000E+00  0.00000000000E+00  0.22182210902E+04  0.22182210902E+04  0.25500000920E-02 0.  1.
       -2   -1    0    0    0  501  0.00000000000E+00  0.00000000000E+00 -0.13753195413E+04  0.13753195413E+04  0.25500000920E-02 0. -1.
    10030    2    1    2    0    0  0.00000000000E+00  0.00000000000E+00  0.84290154884E+03  0.35935406315E+04  0.34932865970E+04 0.  0.
        1    1    3    3  502    0  0.12103429208E+04 -0.12408717551E+04  0.20065132583E+03  0.17449795566E+04  0.50400001928E-02 0.  1.
       -1    1    3    3    0  502 -0.12103429208E+04  0.12408717551E+04  0.64225022301E+03  0.18485610749E+04  0.50400001928E-02 0. -1.
</event>
<event>
 5   0  0.1072381E-07  0.3507195E+04  0.7818609E-02  0.8112087E-01
       -1   -1    0    0    0  501  0.00000000000E+00  0.00000000000E+00  0.11192183817E+04  0.11192183817E+04  0.50400001928E-02 0.  1.
        1   -1    0    0  501    0  0.00000000000E+00  0.00000000000E+00 -0.27475459561E+04  0.27475459561E+04  0.50400001928E-02 0. -1.
    10030    2    1    2    0    0  0.00000000000E+00  0.00000000000E+00 -0.16283275744E+04  0.38667643378E+04  0.35071948556E+04 0.  0.
        1    1    3    3  502    0  0.12264753331E+03  0.16215767061E+04 -0.15375993628E+04  0.22380270847E+04  0.50400001928E-02 0. -1.
       -1    1    3    3    0  502 -0.12264753331E+03 -0.16215767061E+04 -0.90728211585E+02  0.16287372531E+04  0.50400001928E-02 0.  1.
</event>
<event>
 5   0  0.1013863E-07  0.3511556E+04  0.7818609E-02  0.8111057E-01
        1   -1    0    0  501    0  0.00000000000E+00  0.00000000000E+00  0.20608740227E+04  0.20608740227E+04  0.50400001928E-02 0. -1.
       -1   -1    0    0    0  501  0.00000000000E+00  0.00000000000E+00 -0.14958489882E+04  0.14958489882E+04  0.50400001928E-02 0.  1.
    10030    2    1    2    0    0  0.00000000000E+00  0.00000000000E+00  0.56502503446E+03  0.35567230109E+04  0.35115559638E+04 0.  0.
        2    1    3    3  502    0 -0.41506528790E+03 -0.35537634723E+02  0.20100930448E+04  0.20528068992E+04  0.25500000920E-02 0. -1.
       -2    1    3    3    0  502  0.41506528790E+03  0.35537634723E+02 -0.14450680103E+04  0.15039161117E+04  0.25500000920E-02 0.  1.
</event>
<event>
 5   0  0.3219205E-07  0.3479863E+04  0.7818609E-02  0.8118579E-01
        2   -1    0    0  501    0  0.00000000000E+00  0.00000000000E+00  0.20091492975E+04  0.20091492975E+04  0.25500000920E-02 0. -1.
       -2   -1    0    0    0  501  0.00000000000E+00  0.00000000000E+00 -0.15067874761E+04  0.15067874761E+04  0.25500000920E-02 0.  1.
    10030    2    1    2    0    0  0.00000000000E+00  0.00000000000E+00  0.50236182134E+03  0.35159367736E+04  0.34798626404E+04 0.  0.
        2    1    3    3  502    0  0.34949523582E+03 -0.61542275490E+03  0.18571453867E+04  0.19874307723E+04  0.25500000920E-02 0. -1.
       -2    1    3    3    0  502 -0.34949523582E+03  0.61542275490E+03 -0.13547835654E+04  0.15285060013E+04  0.25500000920E-02 0.  1.
</event>
<event>
 5   0  0.2180451E-07  0.3482878E+04  0.7818609E-02  0.8117860E-01
        2   -1    0    0  501    0  0.00000000000E+00  0.00000000000E+00  0.26067875884E+04  0.26067875884E+04  0.25500000920E-02 0. -1.
       -2   -1    0    0    0  501  0.00000000000E+00  0.00000000000E+00 -0.11633513967E+04  0.11633513967E+04  0.25500000920E-02 0.  1.
    10030    2    1    2    0    0  0.00000000000E+00  0.00000000000E+00  0.14434361917E+04  0.37701389851E+04  0.34828781098E+04 0.  0.
        4    1    3    3  502    0 -0.11931742762E+04  0.12018686509E+04  0.11606963140E+04  0.20531367840E+04  0.12699999809E+01 0.  1.
       -4    1    3    3    0  502  0.11931742762E+04 -0.12018686509E+04  0.28273987764E+03  0.17170022011E+04  0.12699999809E+01 0. -1.
</event>
<event>
 5   0  0.3119048E-07  0.3507683E+04  0.7818609E-02  0.8111972E-01
        2   -1    0    0  501    0  0.00000000000E+00  0.00000000000E+00  0.26737521014E+04  0.26737521014E+04  0.25500000920E-02 0.  1.
       -2   -1    0    0    0  501  0.00000000000E+00  0.00000000000E+00 -0.11504281799E+04  0.11504281799E+04  0.25500000920E-02 0. -1.
    10030    2    1    2    0    0  0.00000000000E+00  0.00000000000E+00  0.15233239215E+04  0.38241802813E+04  0.35076828611E+04 0.  0.
        3    1    3    3  502    0 -0.10446383933E+04  0.12636483579E+04  0.14406600097E+04  0.21825622143E+04  0.10100000352E+00 0. -1.
       -3    1    3    3    0  502  0.10446383933E+04 -0.12636483579E+04  0.82663911751E+02  0.16416180670E+04  0.10100000352E+00 0.  1.
</event>
<event>
 5   0  0.3119048E-07  0.3507343E+04  0.7818609E-02  0.8112052E-01
       -2   -1    0    0    0  501  0.00000000000E+00  0.00000000000E+00  0.18100488494E+04  0.18100488494E+04  0.25500000920E-02 0.  1.
        2   -1    0    0  501    0  0.00000000000E+00  0.00000000000E+00 -0.16990504300E+04  0.16990504300E+04  0.25500000920E-02 0. -1.
    10030    2    1    2    0    0  0.00000000000E+00  0.00000000000E+00  0.11099841937E+03  0.35090992794E+04  0.35073433113E+04 0.  0.
        3    1    3    3  502    0 -0.11459691265E+04 -0.21717874349E+03 -0.12547183479E+04  0.17131053640E+04  0.10100000352E+00 0. -1.
       -3    1    3    3    0  502  0.11459691265E+04  0.21717874349E+03  0.13657167673E+04  0.17959939154E+04  0.10100000352E+00 0.  1.
</event>
<event>
 5   0  0.1098171E-07  0.3506984E+04  0.7818609E-02  0.8112137E-01
       -1   -1    0    0    0  501  0.00000000000E+00  0.00000000000E+00  0.11185411051E+04  0.11185411051E+04  0.50400001928E-02 0. -1.
        1   -1    0    0  501    0  0.00000000000E+00  0.00000000000E+00 -0.27488785985E+04  0.27488785985E+04  0.50400001928E-02 0.  1.
    10030    2    1    2    0    0  0.00000000000E+00  0.00000000000E+00 -0.16303374934E+04  0.38674197036E+04  0.35069837213E+04 0.  0.
        4    1    3    3  502    0  0.13922288221E+04 -0.49394984357E+03 -0.18569539307E+04  0.23728815931E+04  0.12699999809E+01 0.  1.
       -4    1    3    3    0  502 -0.13922288221E+04  0.49394984357E+03  0.22661643738E+03  0.14945381105E+04  0.12699999809E+01 0. -1.
</event>
<event>
 5   0  0.1033796E-07  0.3502523E+04  0.7818609E-02  0.8113192E-01
        1   -1    0    0  501    0  0.00000000000E+00  0.00000000000E+00  0.27574892276E+04  0.27574892276E+04  0.50400001928E-02 0. -1.
       -1   -1    0    0    0  501  0.00000000000E+00  0.00000000000E+00 -0.11122134035E+04  0.11122134035E+04  0.50400001928E-02 0.  1.
    10030    2    1    2    0    0  0.00000000000E+00  0.00000000000E+00  0.16452758241E+04  0.38697026312E+04  0.35025227931E+04 0.  0.
        3    1    3    3  502    0 -0.96593686383E+03 -0.14392299992E+03  0.24287050589E+04  0.26177005421E+04  0.10100000352E+00 0. -1.
       -3    1    3    3    0  502  0.96593686383E+03  0.14392299992E+03 -0.78342923481E+03  0.12520020890E+04  0.10100000352E+00 0.  1.
</event>
<event>
 5   0  0.1098171E-07  0.3511785E+04  0.7818609E-02  0.8111003E-01
       -1   -1    0    0    0  501  0.00000000000E+00  0.00000000000E+00  0.13160374372E+04  0.13160374372E+04  0.50400001928E-02 0.  1.
        1   -1    0    0  501    0  0.00000000000E+00  0.00000000000E+00 -0.23427593031E+04  0.23427593031E+04  0.50400001928E-02 0. -1.
    10030    2    1    2    0    0  0.00000000000E+00  0.00000000000E+00 -0.10267218660E+04  0.36587967403E+04  0.35117852720E+04 0.  0.
        4    1    3    3  502    0 -0.11885832699E+03 -0.21177830340E+03 -0.23251771715E+04  0.23378254518E+04  0.12699999809E+01 0. -1.
       -4    1    3    3    0  502  0.11885832699E+03  0.21177830340E+03  0.12984553055E+04  0.13209712885E+04  0.12699999809E+01 0.  1.
</event>
<event>
 5   0  0.2180451E-07  0.3536286E+04  0.7818609E-02  0.8105244E-01
       -2   -1    0    0    0  501  0.00000000000E+00  0.00000000000E+00  0.13470494975E+04  0.13470494975E+04  0.25500000920E-02 0. -1.
        2   -1    0    0  501    0  0.00000000000E+00  0.00000000000E+00 -0.23208714982E+04  0.23208714982E+04  0.25500000920E-02 0.  1.
    10030    2    1    2    0    0  0.00000000000E+00  0.00000000000E+00 -0.97382200070E+03  0.36679209958E+04  0.35362855007E+04 0.  0.
        4    1    3    3  502    0 -0.41888286699E+03  0.17141917684E+04 -0.37135985688E+03  0.18032820166E+04  0.12699999809E+01 0. -1.
       -4    1    3    3    0  502  0.41888286699E+03 -0.17141917684E+04 -0.60246214382E+03  0.18646389792E+04  0.12699999809E+01 0.  1.
</event>
<event>
 5   0  0.2180451E-07  0.3479284E+04  0.7818609E-02  0.8118717E-01
        2   -1    0    0  501    0  0.00000000000E+00  0.00000000000E+00  0.16472088704E+04  0.16472088704E+04  0.25500000920E-02 0.  1.
       -2   -1    0    0    0  501  0.00000000000E+00  0.00000000000E+00 -0.18372617527E+04  0.18372617527E+04  0.25500000920E-02 0. -1.
    10030    2    1    2    0    0  0.00000000000E+00  0.00000000000E+00 -0.19005288224E+03  0.34844706231E+04  0.34792837517E+04 0.  0.
        4    1    3    3  502    0 -0.45492321185E+03 -0.72690883947E+03  0.14208352062E+04  0.16595559303E+04  0.12699999809E+01 0.  1.
       -4    1    3    3    0  502  0.45492321185E+03  0.72690883947E+03 -0.16108880885E+04  0.18249146928E+04  0.12699999809E+01 0. -1.
</event>
<event>
 5   0  0.1013863E-07  0.3511478E+04  0.7818609E-02  0.8111075E-01
       -1   -1    0    0    0  501  0.00000000000E+00  0.00000000000E+00  0.10741818735E+04  0.10741818735E+04  0.50400001928E-02 0. -1.
        1   -1    0    0  501    0  0.00000000000E+00  0.00000000000E+00 -0.28697370469E+04  0.28697370469E+04  0.50400001928E-02 0.  1.
    10030    2    1    2    0    0  0.00000000000E+00  0.00000000000E+00 -0.17955551734E+04  0.39439189204E+04  0.35114780464E+04 0.  0.
        5    1    3    3  502    0 -0.10154323310E+03  0.49923167740E+03  0.98933418346E+03  0.11128106364E+04  0.46999998093E+01 0. -1.
       -5    1    3    3    0  502  0.10154323310E+03 -0.49923167740E+03 -0.27848893569E+04  0.28311082840E+04  0.46999998093E+01 0.  1.
</event>
<event>
 5   0  0.3219205E-07  0.3496849E+04  0.7818609E-02  0.8114537E-01
        2   -1    0    0  501    0  0.00000000000E+00  0.00000000000E+00  0.12942296431E+04  0.12942296432E+04  0.25500000920E-02 0.  1.
       -2   -1    0    0    0  501  0.00000000000E+00  0.00000000000E+00 -0.23620142899E+04  0.23620142899E+04  0.25500000920E-02 0. -1.
    10030    2    1    2    0    0  0.00000000000E+00  0.00000000000E+00 -0.10677846468E+04  0.36562439331E+04  0.34968493886E+04 0.  0.
        2    1    3    3  502    0  0.12208949215E+04  0.11734379011E+04 -0.78796089458E+02  0.16952137743E+04  0.25500000920E-02 0.  1.
       -2    1    3    3    0  502 -0.12208949215E+04 -0.11734379011E+04 -0.98898855731E+03  0.19610301587E+04  0.25500000920E-02 0. -1.
</event>
<event>
 5   0  0.1013863E-07  0.3496253E+04  0.7818609E-02  0.8114678E-01
        1   -1    0    0  501    0  0.00000000000E+00  0.00000000000E+00  0.10591069231E+04  0.10591069231E+04  0.50400001928E-02 0.  1.
       -1   -1    0    0    0  501  0.00000000000E+00  0.00000000000E+00 -0.28853999253E+04  0.28853999254E+04  0.50400001928E-02 0. -1.
    10030    2    1    2    0    0  0.00000000000E+00  0.00000000000E+00 -0.18262930022E+04  0.39445068485E+04  0.34962534444E+04 0.  0.
        2    1    3    3  502    0 -0.11927386119E+04  0.12764700446E+04 -0.98401626217E+03  0.20050658780E+04  0.25500000920E-02 0. -1.
       -2    1    3    3    0  502  0.11927386119E+04 -0.12764700446E+04 -0.84227674007E+03  0.19394409704E+04  0.25500000920E-02 0.  1.
</event>
<event>
 5   0  0.1033796E-07  0.3490402E+04  0.7818609E-02  0.8116068E-01
        1   -1    0    0  501    0  0.00000000000E+00  0.00000000000E+00  0.23615570731E+04  0.23615570731E+04  0.50400001928E-02 0. -1.
       -1   -1    0    0    0  501  0.00000000000E+00  0.00000000000E+00 -0.12897112099E+04  0.12897112100E+04  0.50400001928E-02 0.  1.
    10030    2    1    2    0    0  0.00000000000E+00  0.00000000000E+00  0.10718458631E+04  0.36512682830E+04  0.34904020571E+04 0.  0.
        3    1    3    3  502    0 -0.32325208936E+03 -0.67039814624E+02 -0.12567500183E+04  0.12993871127E+04  0.10100000352E+00 0.  1.
       -3    1    3    3    0  502  0.32325208936E+03  0.67039814624E+02  0.23285958814E+04  0.23518811703E+04  0.10100000352E+00 0. -1.
</event>
<event>
 5   0  0.3119048E-07  0.3497278E+04  0.7818609E-02  0.8114435E-01
       -2   -1    0    0    0  501  0.00000000000E+00  0.00000000000E+00  0.17128469929E+04  0.17128469929E+04  0.25500000920E-02 0. -1.
        2   -1    0    0  501    0  0.00000000000E+00  0.00000000000E+00 -0.17851788144E+04  0.17851788144E+04  0.25500000920E-02 0.  1.
    10030    2    1    2    0    0  0.00000000000E+00  0.00000000000E+00 -0.72331821489E+02  0.34980258074E+04  0.34972778924E+04 0.  0.
        3    1    3    3  502    0 -0.15422504909E+04  0.82354521928E+03 -0.67395160060E+02  0.17496586589E+04  0.10100000352E+00 0.  1.
       -3    1    3    3    0  502  0.15422504909E+04 -0.82354521928E+03 -0.49366614295E+01  0.17483671485E+04  0.10100000352E+00 0. -1.
</event>
<event>
 5   0  0.3190185E-07  0.3496676E+04  0.7818609E-02  0.8114578E-01
        2   -1    0    0  501    0  0.00000000000E+00  0.00000000000E+00  0.26077417500E+04  0.26077417500E+04  0.25500000920E-02 0.  1.
       -2   -1    0    0    0  501  0.00000000000E+00  0.00000000000E+00 -0.11721582133E+04  0.11721582133E+04  0.25500000920E-02 0. -1.
    10030    2    1    2    0    0  0.00000000000E+00  0.00000000000E+00  0.14355835367E+04  0.37798999632E+04  0.34966760847E+04 0.  0.
        1    1    3    3  502    0 -0.85533492406E+03 -0.10209930800E+03 -0.92684071432E+03  0.12653283411E+04  0.50400001928E-02 0. -1.
       -1    1    3    3    0  502  0.85533492406E+03  0.10209930800E+03  0.23624242510E+04  0.25145716221E+04  0.50400001928E-02 0.  1.
</event>
<event>
 5   0  0.1098171E-07  0.3499429E+04  0.7818609E-02  0.8113925E-01
       -1   -1    0    0    0  501  0.00000000000E+00  0.00000000000E+00  0.14145220411E+04  0.14145220411E+04  0.50400001928E-02 0. -1.
        1   -1    0    0  501    0  0.00000000000E+00  0.00000000000E+00 -0.21643361954E+04  0.21643361954E+04  0.50400001928E-02 0.  1.
    10030    2    1    2    0    0  0.00000000000E+00  0.00000000000E+00 -0.74981415432E+03  0.35788582365E+04  0.34994292407E+04 0.  0.
        4    1    3    3  502    0  0.11483981848E+04 -0.56287894700E+03 -0.15960991513E+04  0.20452836511E+04  0.12699999809E+01 0.  1.
       -4    1    3    3    0  502 -0.11483981848E+04  0.56287894700E+03  0.84628499695E+03  0.15335745854E+04  0.12699999809E+01 0. -1.
</event>
<event>
 5   0  0.1013863E-07  0.3506976E+04  0.7818609E-02  0.8112139E-01
        1   -1    0    0  501    0  0.00000000000E+00  0.00000000000E+00  0.14137292234E+04  0.14137292234E+04  0.50400001928E-02 0.  1.
       -1   -1    0    0    0  501  0.00000000000E+00  0.00000000000E+00 -0.21749000619E+04  0.21749000619E+04  0.50400001928E-02 0. -1.
    10030    2    1    2    0    0  0.00000000000E+00  0.00000000000E+00 -0.76117083846E+03  0.35886292853E+04  0.35069757772E+04 0.  0.
        2    1    3    3  502    0 -0.32400401650E+03  0.65428472403E+03  0.12507900657E+04  0.14482896434E+04  0.25500000920E-02 0.  1.
       -2    1    3    3    0  502  0.32400401650E+03 -0.65428472403E+03 -0.20119609042E+04  0.21403396419E+04  0.25500000920E-02 0. -1.
</event>
<event>
 5   0  0.1033796E-07  0.3478300E+04  0.7818609E-02  0.8118952E-01
       -1   -1    0    0    0  501  0.00000000000E+00  0.00000000000E+00  0.13892372958E+04  0.13892372958E+04  0.50400001928E-02 0. -1.
        1   -1    0    0  501    0  0.00000000000E+00  0.00000000000E+00 -0.21771972034E+04  0.21771972034E+04  0.50400001928E-02 0.  1.
    10030    2    1    2    0    0  0.00000000000E+00  0.00000000000E+00 -0.78795990759E+03  0.35664344993E+04  0.34783004789E+04 0.  0.
        3    1    3    3  502    0  0.88220548366E+03  0.36325009497E+03  0.10969642392E+04  0.14538114387E+04  0.10100000352E+00 0. -1.
       -3    1    3    3    0  502 -0.88220548366E+03 -0.36325009497E+03 -0.18849241468E+04  0.21126230606E+04  0.10100000352E+00 0.  1.
</event>
<event>
 5   0  0.2180451E-07  0.3510202E+04  0.7818609E-02  0.8111376E-01
        2   -1    0    0  501    0  0.00000000000E+00  0.00000000000E+00  0.16892396444E+04  0.16892396444E+04  0.25500000920E-02 0.  1.
       -2   -1    0    0    0  501  0.00000000000E+00  0.00000000000E+00 -0.18235301305E+04  0.18235301305E+04  0.25500000920E-02 0. -1.
    10030    2    1    2    0    0  0.00000000000E+00  0.00000000000E+00 -0.13429048616E+03  0.35127697749E+04  0.35102019253E+04 0.  0.
        4    1    3    3  502    0  0.83773737984E+03  0.38834592092E+03  0.14265153225E+04  0.16992833931E+04  0.12699999809E+01 0.  1.
       -4    1    3    3    0  502 -0.83773737984E+03 -0.38834592092E+03 -0.15608058086E+04  0.18134863818E+04  0.12699999809E+01 0. -1.
</event>
<event>
 5   0  0.1013863E-07  0.3481276E+04  0.7818609E-02  0.8118242E-01
       -1   -1    0    0    0  501  0.00000000000E+00  0.00000000000E+00  0.12572125398E+04  0.12572125398E+04  0.50400001928E-02 0. -1.
        1   -1    0    0  501    0  0.00000000000E+00  0.00000000000E+00 -0.24099505407E+04  0.24099505407E+04  0.50400001928E-02 0.  1.
    10030    2    1    2    0    0  0.00000000000E+00  0.00000000000E+00 -0.11527380010E+04  0.36671630805E+04  0.34812756513E+04 0.  0.
        5    1    3    3  502    0  0.15774333452E+04 -0.37065274399E+03  0.93278413548E+02  0.16230842145E+04  0.46999998093E+01 0. -1.
       -5    1    3    3    0  502 -0.15774333452E+04  0.37065274399E+03 -0.12460164145E+04  0.20440788660E+04  0.46999998093E+01 0.  1.
</event>
<event>
 5   0  0.3190185E-07  0.3324598E+04  0.7818609E-02  0.8156665E-01
        2   -1    0    0  501    0  0.00000000000E+00  0.00000000000E+00  0.25699299275E+04  0.25699299275E+04  0.25500000920E-02 0.  1.
       -2   -1    0    0    0  501  0.00000000000E+00  0.00000000000E+00 -0.10752191304E+04  0.10752191304E+04  0.25500000920E-02 0. -1.
    10030    2    1    2    0    0  0.00000000000E+00  0.00000000000E+00  0.14947107970E+04  0.36451490579E+04  0.33245979137E+04 0.  0.
        1    1    3    3  502    0  0.25935946135E+02 -0.13842625303E+04  0.17560494858E+04  0.22361943616E+04  0.50400001928E-02 0.  1.
       -1    1    3    3    0  502 -0.25935946135E+02  0.13842625303E+04 -0.26133868880E+03  0.14089546963E+04  0.50400001928E-02 0. -1.
</event>
<event>
 5   0  0.3119048E-07  0.3510689E+04  0.7818609E-02  0.8111262E-01
       -2   -1    0    0    0  501  0.00000000000E+00  0.00000000000E+00  0.13173444650E+04  0.13173444650E+04  0.25500000920E-02 0.  1.
        2   -1    0    0  501    0  0.00000000000E+00  0.00000000000E+00 -0.23389734178E+04  0.23389734178E+04  0.25500000920E-02 0. -1.
    10030    2    1    2    0    0  0.00000000000E+00  0.00000000000E+00 -0.10216289528E+04  0.36563178829E+04  0.35106886423E+04 0.  0.
        3    1    3    3  502    0 -0.91125816287E+03 -0.65017539210E+03  0.89734970373E+03  0.14346971739E+04  0.10100000352E+00 0.  1.
       -3    1    3    3    0  502  0.91125816287E+03  0.65017539210E+03 -0.19189786565E+04  0.22216207089E+04  0.10100000352E+00 0. -1.
</event>
<event>
 5   0  0.1013863E-07  0.3480116E+04  0.7818609E-02  0.8118518E-01
        1   -1    0    0  501    0  0.00000000000E+00  0.00000000000E+00  0.22941071670E+04  0.22941071670E+04  0.50400001928E-02 0. -1.
       -1   -1    0    0    0  501  0.00000000000E+00  0.00000000000E+00 -0.13198173616E+04  0.13198173616E+04  0.50400001928E-02 0.  1.
    10030    2    1    2    0    0  0.00000000000E+00  0.00000000000E+00  0.97428980544E+03  0.36139245286E+04  0.34801163592E+04 0.  0.
        5    1    3    3  502    0  0.59125708370E+03  0.13027580144E+03  0.21811940324E+04  0.22636665435E+04  0.46999998093E+01 0. -1.
       -5    1    3    3    0  502 -0.59125708370E+03 -0.13027580144E+03 -0.12069042269E+04  0.13502579851E+04  0.46999998093E+01 0.  1.
</event>
<event>
 5   0  0.1013863E-07  0.3495051E+04  0.7818609E-02  0.8114964E-01
        1   -1    0    0  501    0  0.00000000000E+00  0.00000000000E+00  0.22677093770E+04  0.22677093770E+04  0.50400001928E-02 0.  1.
       -1   -1    0    0    0  501  0.00000000000E+00  0.00000000000E+00 -0.13466649386E+04  0.13466649386E+04  0.50400001928E-02 0. -1.
    10030    2    1    2    0    0  0.00000000000E+00  0.00000000000E+00  0.92104443843E+03  0.36143743156E+04  0.34950506199E+04 0.  0.
        5    1    3    3  502    0  0.11346771556E+04 -0.10793248396E+04  0.12624903880E+04  0.20115512488E+04  0.46999998093E+01 0.  1.
       -5    1    3    3    0  502 -0.11346771556E+04  0.10793248396E+04 -0.34144594956E+03  0.16028230668E+04  0.46999998093E+01 0. -1.
</event>
<event>
 5   0  0.3119048E-07  0.3495409E+04  0.7818609E-02  0.8114879E-01
        2   -1    0    0  501    0  0.00000000000E+00  0.00000000000E+00  0.15904364438E+04  0.15904364438E+04  0.25500000920E-02 0.  1.
       -2   -1    0    0    0  501  0.00000000000E+00  0.00000000000E+00 -0.19205239471E+04  0.19205239471E+04  0.25500000920E-02 0. -1.
    10030    2    1    2    0    0  0.00000000000E+00  0.00000000000E+00 -0.33008750331E+03  0.35109603909E+04  0.34954091472E+04 0.  0.
        3    1    3    3  502    0  0.15029747746E+04 -0.69894880088E+03  0.39150502130E+03  0.17031555394E+04  0.10100000352E+00 0.  1.
       -3    1    3    3    0  502 -0.15029747746E+04  0.69894880088E+03 -0.72159252461E+03  0.18078048515E+04  0.10100000352E+00 0. -1.
</event>
<event>
 5   0  0.1013863E-07  0.3498880E+04  0.7818609E-02  0.8114055E-01
        1   -1    0    0  501    0  0.00000000000E+00  0.00000000000E+00  0.10276087036E+04  0.10276087036E+04  0.50400001928E-02 0. -1.
       -1   -1    0    0    0  501  0.00000000000E+00  0.00000000000E+00 -0.29783124268E+04  0.29783124268E+04  0.50400001928E-02 0.  1.
    10030    2    1    2    0    0  0.00000000000E+00  0.00000000000E+00 -0.19507037232E+04  0.40059211304E+04  0.34988796903E+04 0.  0.
        5    1    3    3  502    0 -0.68226910822E+02  0.12698313536E+04  0.40016334899E+03  0.13331464187E+04  0.46999998093E+01 0. -1.
       -5    1    3    3    0  502  0.68226910822E+02 -0.12698313536E+04 -0.23508670722E+04  0.26727747116E+04  0.46999998093E+01 0.  1.
</event>
<event>
 5   0  0.3219205E-07  0.3520772E+04  0.7818609E-02  0.8108885E-01
        2   -1    0    0  501    0  0.00000000000E+00  0.00000000000E+00  0.27163472292E+04  0.27163472292E+04  0.25500000920E-02 0.  1.
       -2   -1    0    0    0  501  0.00000000000E+00  0.00000000000E+00 -0.11408552440E+04  0.11408552440E+04  0.25500000920E-02 0. -1.
    10030    2    1    2    0    0  0.00000000000E+00  0.00000000000E+00  0.15754919852E+04  0.38572024732E+04  0.35207720636E+04 0.  0.
        2    1    3    3  502    0 -0.89104969115E+03  0.12343421443E+04 -0.18068380930E+03  0.15330416564E+04  0.25500000920E-02 0. -1.
       -2    1    3    3    0  502  0.89104969115E+03 -0.12343421443E+04  0.17561757945E+04  0.23241608168E+04  0.25500000920E-02 0.  1.
</event>
<event>
 5   0  0.3190185E-07  0.3480587E+04  0.7818609E-02  0.8118406E-01
       -2   -1    0    0    0  501  0.00000000000E+00  0.00000000000E+00  0.14756274606E+04  0.14756274606E+04  0.25500000920E-02 0.  1.
        2   -1    0    0  501    0  0.00000000000E+00  0.00000000000E+00 -0.20524291147E+04  0.20524291147E+04  0.25500000920E-02 0. -1.
    10030    2    1    2    0    0  0.00000000000E+00  0.00000000000E+00 -0.57680165412E+03  0.35280565754E+04  0.34805865958E+04 0.  0.
        1    1    3    3  502    0 -0.10460528390E+04  0.45415131650E+03  0.10441158698E+04  0.15461752520E+04  0.50400001928E-02 0.  1.
       -1    1    3    3    0  502  0.10460528390E+04 -0.45415131650E+03 -0.16209175239E+04  0.19818813233E+04  0.50400001928E-02 0. -1.
</event>
<event>
 5   0  0.1072381E-07  0.3551198E+04  0.7818609E-02  0.8101763E-01
       -1   -1    0    0    0  501  0.00000000000E+00  0.00000000000E+00  0.16229536371E+04  0.16229536371E+04  0.50400001928E-02 0.  1.
        1   -1    0    0  501    0  0.00000000000E+00  0.00000000000E+00 -0.19426009297E+04  0.19426009297E+04  0.50400001928E-02 0. -1.
    10030    2    1    2    0    0  0.00000000000E+00  0.00000000000E+00 -0.31964729260E+03  0.35655545668E+04  0.35511976820E+04 0.  0.
        1    1    3    3  502    0  0.60642545311E+03 -0.82490458817E+03  0.12967417509E+04  0.16521981050E+04  0.50400001928E-02 0.  1.
       -1    1    3    3    0  502 -0.60642545311E+03  0.82490458817E+03 -0.16163890435E+04  0.19133564617E+04  0.50400001928E-02 0. -1.
</event>
<event>
 5   0  0.2180451E-07  0.3474479E+04  0.7818609E-02  0.8119865E-01
       -2   -1    0    0    0  501  0.00000000000E+00  0.00000000000E+00  0.13508716449E+04  0.13508716449E+04  0.25500000920E-02 0. -1.
        2   -1    0    0  501    0  0.00000000000E+00  0.00000000000E+00 -0.22341144789E+04  0.22341144789E+04  0.25500000920E-02 0.  1.
    10030    2    1    2    0    0  0.00000000000E+00  0.00000000000E+00 -0.88324283399E+03  0.35849861237E+04  0.34744794723E+04 0.  0.
        4    1    3    3  502    0  0.63020974057E+03  0.12650573427E+04 -0.14839315869E+04  0.20492898685E+04  0.12699999809E+01 0. -1.
       -4    1    3    3    0  502 -0.63020974057E+03 -0.12650573427E+04  0.60068875294E+03  0.15356962552E+04  0.12699999809E+01 0.  1.
</event>
<event>
 5   0  0.2180451E-07  0.3511741E+04  0.7818609E-02  0.8111013E-01
        2   -1    0    0  501    0  0.00000000000E+00  0.00000000000E+00  0.23749462929E+04  0.23749462929E+04  0.25500000920E-02 0. -1.
       -2   -1    0    0    0  501  0.00000000000E+00  0.00000000000E+00 -0.12981688664E+04  0.12981688665E+04  0.25500000920E-02 0.  1.
    10030    2    1    2    0    0  0.00000000000E+00  0.00000000000E+00  0.10767774264E+04  0.36731151593E+04  0.35117410707E+04 0.  0.
        4    1    3    3  502    0 -0.10244788187E+04 -0.39962302592E+03  0.19701693749E+04  0.22562855297E+04  0.12699999809E+01 0. -1.
       -4    1    3    3    0  502  0.10244788187E+04  0.39962302592E+03 -0.89339194848E+03  0.14168296296E+04  0.12699999809E+01 0.  1.
</event>
<event>
 5   0  0.3119048E-07  0.3479170E+04  0.7818609E-02  0.8118744E-01
       -2   -1    0    0    0  501  0.00000000000E+00  0.00000000000E+00  0.18187580335E+04  0.18187580335E+04  0.25500000920E-02 0. -1.
        2   -1    0    0  501    0  0.00000000000E+00  0.00000000000E+00 -0.16638582931E+04  0.16638582931E+04  0.25500000920E-02 0.  1.
    10030    2    1    2    0    0  0.00000000000E+00  0.00000000000E+00  0.15489974039E+03  0.34826163266E+04  0.34791698074E+04 0.  0.
        3    1    3    3  502    0 -0.15335228420E+04 -0.73887255303E+03 -0.28141702084E+03  0.17253464888E+04  0.10100000352E+00 0. -1.
       -3    1    3    3    0  502  0.15335228420E+04  0.73887255303E+03  0.43631676123E+03  0.17572698378E+04  0.10100000352E+00 0.  1.
</event>
<event>
 5   0  0.1098171E-07  0.3510957E+04  0.7818609E-02  0.8111198E-01
        1   -1    0    0  501    0  0.00000000000E+00  0.00000000000E+00  0.19185694061E+04  0.19185694061E+04  0.50400001928E-02 0. -1.
       -1   -1    0    0    0  501  0.00000000000E+00  0.00000000000E+00 -0.16062518346E+04  0.16062518346E+04  0.50400001928E-02 0.  1.
    10030    2    1    2    0    0  0.00000000000E+00  0.00000000000E+00  0.31231757147E+03  0.35248212407E+04  0.35109574924E+04 0.  0.
        4    1    3    3  502    0 -0.14261578312E+04  0.45044918559E+03 -0.76664069331E+03  0.16806457669E+04  0.12699999809E+01 0.  1.
       -4    1    3    3    0  502  0.14261578312E+04 -0.45044918559E+03  0.10789582648E+04  0.18441754738E+04  0.12699999809E+01 0. -1.
</event>
<event>
 5   0  0.3190112E-07  0.3513483E+04  0.7818609E-02  0.8110602E-01
        2   -1    0    0  501    0  0.00000000000E+00  0.00000000000E+00  0.22670367486E+04  0.22670367486E+04  0.25500000920E-02 0. -1.
       -2   -1    0    0    0  501  0.00000000000E+00  0.00000000000E+00 -0.13613100597E+04  0.13613100597E+04  0.25500000920E-02 0.  1.
    10030    2    1    2    0    0  0.00000000000E+00  0.00000000000E+00  0.90572668884E+03  0.36283468083E+04  0.35134825639E+04 0.  0.
        5    1    3    3  502    0 -0.12839770704E+04  0.32736238910E+03  0.16439810907E+04  0.21115063741E+04  0.46999998093E+01 0. -1.
       -5    1    3    3    0  502  0.12839770704E+04 -0.32736238910E+03 -0.73825440182E+03  0.15168404343E+04  0.46999998093E+01 0.  1.
</event>
<event>
 5   0  0.3190185E-07  0.3498207E+04  0.7818609E-02  0.8114215E-01
        2   -1    0    0  501    0  0.00000000000E+00  0.00000000000E+00  0.17918879741E+04  0.17918879741E+04  0.25500000920E-02 0.  1.
       -2   -1    0    0    0  501  0.00000000000E+00  0.00000000000E+00 -0.17073402940E+04  0.17073402940E+04  0.25500000920E-02 0. -1.
    10030    2    1    2    0    0  0.00000000000E+00  0.00000000000E+00  0.84547680105E+02  0.34992282680E+04  0.34982067065E+04 0.  0.
        1    1    3    3  502    0 -0.16860493688E+03  0.11455994880E+04 -0.12690387025E+04  0.17179304527E+04  0.50400001928E-02 0. -1.
       -1    1    3    3    0  502  0.16860493688E+03 -0.11455994880E+04  0.13535863826E+04  0.17812978154E+04  0.50400001928E-02 0.  1.
</event>
<event>
 5   0  0.2180451E-07  0.3495622E+04  0.7818609E-02  0.8114828E-01
       -2   -1    0    0    0  501  0.00000000000E+00  0.00000000000E+00  0.13051697684E+04  0.13051697684E+04  0.25500000920E-02 0. -1.
        2   -1    0    0  501    0  0.00000000000E+00  0.00000000000E+00 -0.23405720245E+04  0.23405720245E+04  0.25500000920E-02 0.  1.
    10030    2    1    2    0    0  0.00000000000E+00  0.00000000000E+00 -0.10354022561E+04  0.36457417929E+04  0.34956223178E+04 0.  0.
        4    1    3    3  502    0 -0.75628328979E+03 -0.12728372272E+04  0.45103882833E+03  0.15477456700E+04  0.12699999809E+01 0. -1.
       -4    1    3    3    0  502  0.75628328979E+03  0.12728372272E+04 -0.14864410844E+04  0.20979961229E+04  0.12699999809E+01 0.  1.
</event>
<event>
 5   0  0.2180451E-07  0.3436914E+04  0.7818609E-02  0.8128905E-01
        2   -1    0    0  501    0  0.00000000000E+00  0.00000000000E+00  0.22561819289E+04  0.22561819289E+04  0.25500000920E-02 0.  1.
       -2   -1    0    0    0  501  0.00000000000E+00  0.00000000000E+00 -0.13088904416E+04  0.13088904416E+04  0.25500000920E-02 0. -1.
    10030    2    1    2    0    0  0.00000000000E+00  0.00000000000E+00  0.94729148732E+03  0.35650723704E+04  0.34369142911E+04 0.  0.
        4    1    3    3  502    0  0.74678555413E+03 -0.53499048802E+03 -0.10328138450E+04  0.13822480014E+04  0.12699999809E+01 0. -1.
       -4    1    3    3    0  502 -0.74678555413E+03  0.53499048802E+03  0.19801053323E+04  0.21828243690E+04  0.12699999809E+01 0.  1.
</event>
<event>
 5   0  0.1033796E-07  0.3493552E+04  0.7818609E-02  0.8115320E-01
        1   -1    0    0  501    0  0.00000000000E+00  0.00000000000E+00  0.13299873602E+04  0.13299873602E+04  0.50400001928E-02 0. -1.
       -1   -1    0    0    0  501  0.00000000000E+00  0.00000000000E+00 -0.22941765278E+04  0.22941765278E+04  0.50400001928E-02 0.  1.
    10030    2    1    2    0    0  0.00000000000E+00  0.00000000000E+00 -0.96418916758E+03  0.36241638880E+04  0.34935516507E+04 0.  0.
        3    1    3    3  502    0  0.11914721253E+04  0.76104411655E+03  0.58214067049E+03  0.15289479204E+04  0.10100000352E+00 0. -1.
       -3    1    3    3    0  502 -0.11914721253E+04 -0.76104411655E+03 -0.15463298381E+04  0.20952159676E+04  0.10100000352E+00 0.  1.
</event>
<event>
 5   0  0.1072381E-07  0.3507374E+04  0.7818609E-02  0.8112045E-01
        1   -1    0    0  501    0  0.00000000000E+00  0.00000000000E+00  0.18142143258E+04  0.18142143258E+04  0.50400001928E-02 0. -1.
       -1   -1    0    0    0  501  0.00000000000E+00  0.00000000000E+00 -0.16951789538E+04  0.16951789538E+04  0.50400001928E-02 0.  1.
    10030    2    1    2    0    0  0.00000000000E+00  0.00000000000E+00  0.11903537198E+03  0.35093932796E+04  0.35073739138E+04 0.  0.
        1    1    3    3  502    0 -0.50438025333E+03 -0.12428893923E+04  0.11898780163E+04  0.17930374160E+04  0.50400001928E-02 0. -1.
       -1    1    3    3    0  502  0.50438025333E+03  0.12428893923E+04 -0.10708426443E+04  0.17163558636E+04  0.50400001928E-02 0.  1.
</event>
<event>
 5   0  0.1013863E-07  0.3502533E+04  0.7818609E-02  0.8113190E-01
        1   -1    0    0  501    0  0.00000000000E+00  0.00000000000E+00  0.23189176589E+04  0.23189176589E+04  0.50400001928E-02 0. -1.
       -1   -1    0    0    0  501  0.00000000000E+00  0.00000000000E+00 -0.13225712669E+04  0.13225712669E+04  0.50400001928E-02 0.  1.
    10030    2    1    2    0    0  0.00000000000E+00  0.00000000000E+00  0.99634639199E+03  0.36414889258E+04  0.35025327213E+04 0.  0.
        2    1    3    3  502    0  0.84016303031E+03  0.26191834805E+03 -0.10759820284E+04  0.13900404541E+04  0.25500000920E-02 0.  1.
       -2    1    3    3    0  502 -0.84016303031E+03 -0.26191834805E+03  0.20723284204E+04  0.22514484717E+04  0.25500000920E-02 0. -1.
</event>
<event>
 5   0  0.2180451E-07  0.3491021E+04  0.7818609E-02  0.8115921E-01
       -2   -1    0    0    0  501  0.00000000000E+00  0.00000000000E+00  0.19868745824E+04  0.19868745824E+04  0.25500000920E-02 0.  1.
        2   -1    0    0  501    0  0.00000000000E+00  0.00000000000E+00 -0.15334667187E+04  0.15334667187E+04  0.25500000920E-02 0. -1.
    10030    2    1    2    0    0  0.00000000000E+00  0.00000000000E+00  0.45340786371E+03  0.35203413012E+04  0.34910205078E+04 0.  0.
        4    1    3    3  502    0 -0.44670079731E+02 -0.25461146462E+03 -0.15140572463E+04  0.15359665921E+04  0.12699999809E+01 0. -1.
       -4    1    3    3    0  502  0.44670079731E+02  0.25461146462E+03  0.19674651100E+04  0.19843747091E+04  0.12699999809E+01 0.  1.
</event>
<event>
 5   0  0.2180451E-07  0.3494487E+04  0.7818609E-02  0.8115098E-01
        2   -1    0    0  501    0  0.00000000000E+00  0.00000000000E+00  0.15672072254E+04  0.15672072254E+04  0.25500000920E-02 0.  1.
       -2   -1    0    0    0  501  0.00000000000E+00  0.00000000000E+00 -0.19479616292E+04  0.19479616292E+04  0.25500000920E-02 0. -1.
    10030    2    1    2    0    0  0.00000000000E+00  0.00000000000E+00 -0.38075440380E+03  0.35151688546E+04  0.34944868236E+04 0.  0.
        4    1    3    3  502    0  0.15063086265E+04 -0.62651008023E+03  0.43892701027E+03  0.16894197502E+04  0.12699999809E+01 0.  1.
       -4    1    3    3    0  502 -0.15063086265E+04  0.62651008023E+03 -0.81968141407E+03  0.18257491045E+04  0.12699999809E+01 0. -1.
</event>
<event>
 5   0  0.1013863E-07  0.3502736E+04  0.7818609E-02  0.8113142E-01
       -1   -1    0    0    0  501  0.00000000000E+00  0.00000000000E+00  0.24156172178E+04  0.24156172178E+04  0.50400001928E-02 0.  1.
        1   -1    0    0  501    0  0.00000000000E+00  0.00000000000E+00 -0.12697744655E+04  0.12697744655E+04  0.50400001928E-02 0. -1.
    10030    2    1    2    0    0  0.00000000000E+00  0.00000000000E+00  0.11458427523E+04  0.36853916832E+04  0.35027355375E+04 0.  0.
        5    1    3    3  502    0  0.28479466876E+03  0.50259734313E+03  0.23124845351E+04  0.23835517422E+04  0.46999998093E+01 0.  1.
       -5    1    3    3    0  502 -0.28479466876E+03 -0.50259734313E+03 -0.11666417828E+04  0.13018399410E+04  0.46999998093E+01 0. -1.
</event>
<event>
 5   0  0.2180451E-07  0.3488556E+04  0.7818609E-02  0.8116507E-01
       -2   -1    0    0    0  501  0.00000000000E+00  0.00000000000E+00  0.28878012286E+04  0.28878012286E+04  0.25500000920E-02 0.  1.
        2   -1    0    0  501    0  0.00000000000E+00  0.00000000000E+00 -0.10535718773E+04  0.10535718773E+04  0.25500000920E-02 0. -1.
    10030    2    1    2    0    0  0.00000000000E+00  0.00000000000E+00  0.18342293513E+04  0.39413731058E+04  0.34885562410E+04 0.  0.
        4    1    3    3  502    0 -0.75756373641E+02  0.12217908044E+04  0.23209767720E+04  0.26240134502E+04  0.12699999809E+01 0. -1.
       -4    1    3    3    0  502  0.75756373641E+02 -0.12217908044E+04 -0.48674742068E+03  0.13173596556E+04  0.12699999809E+01 0.  1.
</event>
<event>
 5   0  0.1072381E-07  0.3500791E+04  0.7818609E-02  0.8113603E-01
       -1   -1    0    0    0  501  0.00000000000E+00  0.00000000000E+00  0.22243642460E+04  0.22243642460E+04  0.50400001928E-02 0.  1.
        1   -1    0    0  501    0  0.00000000000E+00  0.00000000000E+00 -0.13774201601E+04  0.13774201601E+04  0.50400001928E-02 0. -1.
    10030    2    1    2    0    0  0.00000000000E+00  0.00000000000E+00  0.84694408597E+03  0.36017844061E+04  0.35007908568E+04 0.  0.
        1    1    3    3  502    0  0.15400265174E+04 -0.27706026266E+02 -0.43204207811E+03  0.15997217432E+04  0.50400001928E-02 0. -1.
       -1    1    3    3    0  502 -0.15400265174E+04  0.27706026266E+02  0.12789861641E+04  0.20020626629E+04  0.50400001928E-02 0.  1.
</event>
<event>
 5   0  0.1013863E-07  0.3513475E+04  0.7818609E-02  0.8110604E-01
       -1   -1    0    0    0  501  0.00000000000E+00  0.00000000000E+00  0.19506735035E+04  0.19506735036E+04  0.50400001928E-02 0. -1.
        1   -1    0    0  501    0  0.00000000000E+00  0.00000000000E+00 -0.15820828413E+04  0.15820828413E+04  0.50400001928E-02 0.  1.
    10030    2    1    2    0    0  0.00000000000E+00  0.00000000000E+00  0.36859066228E+03  0.35327563448E+04  0.35134752476E+04 0.  0.
        5    1    3    3  502    0  0.57228362000E+03  0.15427181763E+04 -0.43440006621E+03  0.17018264955E+04  0.46999998093E+01 0.  1.
       -5    1    3    3    0  502 -0.57228362000E+03 -0.15427181763E+04  0.80299072849E+03  0.18309298494E+04  0.46999998093E+01 0. -1.
</event>
<event>
 5   0  0.1013863E-07  0.3499732E+04  0.7818609E-02  0.8113853E-01
        1   -1    0    0  501    0  0.00000000000E+00  0.00000000000E+00  0.21678201655E+04  0.21678201655E+04  0.50400001928E-02 0. -1.
       -1   -1    0    0    0  501  0.00000000000E+00  0.00000000000E+00 -0.14124934266E+04  0.14124934266E+04  0.50400001928E-02 0.  1.
    10030    2    1    2    0    0  0.00000000000E+00  0.00000000000E+00  0.75532673886E+03  0.35803135921E+04  0.34997324091E+04 0.  0.
        5    1    3    3  502    0 -0.59981833218E+03 -0.14321126005E+04  0.12032648621E+04  0.19643311713E+04  0.46999998093E+01 0. -1.
       -5    1    3    3    0  502  0.59981833218E+03  0.14321126005E+04 -0.44793812324E+03  0.16159824208E+04  0.46999998093E+01 0.  1.
</event>
<event>
 5   0  0.3190112E-07  0.3508628E+04  0.7818609E-02  0.8111748E-01
       -2   -1    0    0    0  501  0.00000000000E+00  0.00000000000E+00  0.14315194525E+04  0.14315194525E+04  0.25500000920E-02 0. -1.
        2   -1    0    0  501    0  0.00000000000E+00  0.00000000000E+00 -0.21498952714E+04  0.21498952714E+04  0.25500000920E-02 0.  1.
    10030    2    1    2    0    0  0.00000000000E+00  0.00000000000E+00 -0.71837581890E+03  0.35814147240E+04  0.35086275961E+04 0.  0.
        5    1    3    3  502    0 -0.88879135646E+03 -0.20368185622E+03  0.11706222241E+04  0.14838513590E+04  0.46999998093E+01 0. -1.
       -5    1    3    3    0  502  0.88879135646E+03  0.20368185622E+03 -0.18889980430E+04  0.20975633650E+04  0.46999998093E+01 0.  1.
</event>
<event>
 5   0  0.3190112E-07  0.3535156E+04  0.7818609E-02  0.8105509E-01
        2   -1    0    0  501    0  0.00000000000E+00  0.00000000000E+00  0.25709877244E+04  0.25709877244E+04  0.25500000920E-02 0. -1.
       -2   -1    0    0    0  501  0.00000000000E+00  0.00000000000E+00 -0.12152261920E+04  0.12152261920E+04  0.25500000920E-02 0.  1.
    10030    2    1    2    0    0  0.00000000000E+00  0.00000000000E+00  0.13557615324E+04  0.37862139164E+04  0.35351557940E+04 0.  0.
        5    1    3    3  502    0  0.14003521031E+04  0.34535447878E+03 -0.41647373730E+03  0.15012422164E+04  0.46999998093E+01 0.  1.
       -5    1    3    3    0  502 -0.14003521031E+04 -0.34535447878E+03  0.17722352697E+04  0.22849716999E+04  0.46999998093E+01 0. -1.
</event>
<event>
 5   0  0.2180451E-07  0.3499357E+04  0.7818609E-02  0.8113942E-01
       -2   -1    0    0    0  501  0.00000000000E+00  0.00000000000E+00  0.99676579448E+03  0.99676579449E+03  0.25500000920E-02 0.  1.
        2   -1    0    0  501    0  0.00000000000E+00  0.00000000000E+00 -0.30713083144E+04  0.30713083144E+04  0.25500000920E-02 0. -1.
    10030    2    1    2    0    0  0.00000000000E+00  0.00000000000E+00 -0.20745425199E+04  0.40680741089E+04  0.34993571250E+04 0.  0.
        4    1    3    3  502    0  0.10523185751E+04  0.10023378668E+04 -0.21699491394E+04  0.26116539708E+04  0.12699999809E+01 0. -1.
       -4    1    3    3    0  502 -0.10523185751E+04 -0.10023378668E+04  0.95406619499E+02  0.14564201381E+04  0.12699999809E+01 0.  1.
</event>
<event>
 5   0  0.1072381E-07  0.3485667E+04  0.7818609E-02  0.8117195E-01
       -1   -1    0    0    0  501  0.00000000000E+00  0.00000000000E+00  0.10638400829E+04  0.10638400829E+04  0.50400001928E-02 0.  1.
        1   -1    0    0  501    0  0.00000000000E+00  0.00000000000E+00 -0.28551924367E+04  0.28551924367E+04  0.50400001928E-02 0. -1.
    10030    2    1    2    0    0  0.00000000000E+00  0.00000000000E+00 -0.17913523538E+04  0.39190325195E+04  0.34856667416E+04 0.  0.
        1    1    3    3  502    0  0.52421451332E+03  0.74256180297E+03  0.77623738250E+03  0.11953005318E+04  0.50400001928E-02 0.  1.
       -1    1    3    3    0  502 -0.52421451332E+03 -0.74256180297E+03 -0.25675897363E+04  0.27237319878E+04  0.50400001928E-02 0. -1.
</event>
<event>
 5   0  0.3190112E-07  0.3488156E+04  0.7818609E-02  0.8116603E-01
        2   -1    0    0  501    0  0.00000000000E+00  0.00000000000E+00  0.21082699631E+04  0.21082699631E+04  0.25500000920E-02 0.  1.
       -2   -1    0    0    0  501  0.00000000000E+00  0.00000000000E+00 -0.14427981053E+04  0.14427981053E+04  0.25500000920E-02 0. -1.
    10030    2    1    2    0    0  0.00000000000E+00  0.00000000000E+00  0.66547185784E+03  0.35510680683E+04  0.34881559071E+04 0.  0.
        5    1    3    3  502    0  0.54406095565E+02 -0.34914313647E+03  0.20714402379E+04  0.21013680550E+04  0.46999998093E+01 0.  1.
       -5    1    3    3    0  502 -0.54406095565E+02  0.34914313647E+03 -0.14059683801E+04  0.14497000134E+04  0.46999998093E+01 0. -1.
</event>
<event>
 5   0  0.1033796E-07  0.3504173E+04  0.7818609E-02  0.8112802E-01
       -1   -1    0    0    0  501  0.00000000000E+00  0.00000000000E+00  0.17023881905E+04  0.17023881905E+04  0.50400001928E-02 0.  1.
        1   -1    0    0  501    0  0.00000000000E+00  0.00000000000E+00 -0.18032355101E+04  0.18032355101E+04  0.50400001928E-02 0. -1.
    10030    2    1    2    0    0  0.00000000000E+00  0.00000000000E+00 -0.10084731962E+03  0.35056237006E+04  0.35041728479E+04 0.  0.
        3    1    3    3  502    0  0.10661010676E+04  0.25238237714E+03 -0.14183004481E+04  0.17921619687E+04  0.10100000352E+00 0. -1.
       -3    1    3    3    0  502 -0.10661010676E+04 -0.25238237714E+03  0.13174531285E+04  0.17134617319E+04  0.10100000352E+00 0.  1.
</event>
<event>
 5   0  0.3119048E-07  0.3507189E+04  0.7818609E-02  0.8112088E-01
       -2   -1    0    0    0  501  0.00000000000E+00  0.00000000000E+00  0.21864715012E+04  0.21864715012E+04  0.25500000920E-02 0. -1.
        2   -1    0    0  501    0  0.00000000000E+00  0.00000000000E+00 -0.14064186926E+04  0.14064186926E+04  0.25500000920E-02 0.  1.
    10030    2    1    2    0    0  0.00000000000E+00  0.00000000000E+00  0.78005280860E+03  0.35928901938E+04  0.35071894104E+04 0.  0.
        3    1    3    3  502    0 -0.10166311343E+04 -0.10571904646E+04 -0.59466037944E+03  0.15826596345E+04  0.10100000352E+00 0.  1.
       -3    1    3    3    0  502  0.10166311343E+04  0.10571904646E+04  0.13747131880E+04  0.20102305592E+04  0.10100000352E+00 0. -1.
</event>
<event>
 5   0  0.3119048E-07  0.3483049E+04  0.7818609E-02  0.8117819E-01
       -2   -1    0    0    0  501  0.00000000000E+00  0.00000000000E+00  0.11487926568E+04  0.11487926568E+04  0.25500000920E-02 0.  1.
        2   -1    0    0  501    0  0.00000000000E+00  0.00000000000E+00 -0.26400822426E+04  0.26400822426E+04  0.25500000920E-02 0. -1.
    10030    2    1    2    0    0  0.00000000000E+00  0.00000000000E+00 -0.14912895858E+04  0.37888748993E+04  0.34830487183E+04 0.  0.
        3    1    3    3  502    0  0.97169074034E+03 -0.32508508392E+03 -0.22774970424E+04  0.24973698154E+04  0.10100000352E+00 0. -1.
       -3    1    3    3    0  502 -0.97169074034E+03  0.32508508392E+03  0.78620745666E+03  0.12915050839E+04  0.10100000352E+00 0.  1.
</event>
<event>
 5   0  0.1098171E-07  0.3512437E+04  0.7818609E-02  0.8110849E-01
        1   -1    0    0  501    0  0.00000000000E+00  0.00000000000E+00  0.23763366313E+04  0.23763366313E+04  0.50400001928E-02 0.  1.
       -1   -1    0    0    0  501  0.00000000000E+00  0.00000000000E+00 -0.12979232653E+04  0.12979232653E+04  0.50400001928E-02 0. -1.
    10030    2    1    2    0    0  0.00000000000E+00  0.00000000000E+00  0.10784133660E+04  0.36742598966E+04  0.35124365332E+04 0.  0.
        4    1    3    3  502    0 -0.62858672591E+03  0.92776498825E+03  0.19536995928E+04  0.22522905801E+04  0.12699999809E+01 0.  1.
       -4    1    3    3    0  502  0.62858672591E+03 -0.92776498825E+03 -0.87528622680E+03  0.14219693165E+04  0.12699999809E+01 0. -1.
</event>
<event>
 5   0  0.3119048E-07  0.3495706E+04  0.7818609E-02  0.8114808E-01
        2   -1    0    0  501    0  0.00000000000E+00  0.00000000000E+00  0.18861603355E+04  0.18861603355E+04  0.25500000920E-02 0.  1.
       -2   -1    0    0    0  501  0.00000000000E+00  0.00000000000E+00 -0.16196873145E+04  0.16196873145E+04  0.25500000920E-02 0. -1.
    10030    2    1    2    0    0  0.00000000000E+00  0.00000000000E+00  0.26647302094E+03  0.35058476500E+04  0.34957059193E+04 0.  0.
        3    1    3    3  502    0 -0.64063058074E+03  0.95381519290E+03  0.14541830270E+04  0.18533265361E+04  0.10100000352E+00 0.  1.
       -3    1    3    3    0  502  0.64063058074E+03 -0.95381519290E+03 -0.11877100061E+04  0.16525211139E+04  0.10100000352E+00 0. -1.
</event>
<event>
 5   0  0.3219205E-07  0.3485468E+04  0.7818609E-02  0.8117242E-01
       -2   -1    0    0    0  501  0.00000000000E+00  0.00000000000E+00  0.11494049754E+04  0.11494049754E+04  0.25500000920E-02 0.  1.
        2   -1    0    0  501    0  0.00000000000E+00  0.00000000000E+00 -0.26423430320E+04  0.26423430320E+04  0.25500000920E-02 0. -1.
    10030    2    1    2    0    0  0.00000000000E+00  0.00000000000E+00 -0.14929380566E+04  0.37917480075E+04  0.34854682485E+04 0.  0.
        2    1    3    3  502    0  0.98099271434E+02  0.49093396044E+03 -0.25624299758E+04  0.26108785880E+04  0.25500000920E-02 0. -1.
       -2    1    3    3    0  502 -0.98099271434E+02 -0.49093396044E+03  0.10694919192E+04  0.11808694194E+04  0.25500000920E-02 0.  1.
</event>
<event>
 5   0  0.2180451E-07  0.3479905E+04  0.7818609E-02  0.8118569E-01
       -2   -1    0    0    0  501  0.00000000000E+00  0.00000000000E+00  0.21857680488E+04  0.21857680488E+04  0.25500000920E-02 0.  1.
        2   -1    0    0  501    0  0.00000000000E+00  0.00000000000E+00 -0.13850668331E+04  0.13850668331E+04  0.25500000920E-02 0. -1.
    10030    2    1    2    0    0  0.00000000000E+00  0.00000000000E+00  0.80070121574E+03  0.35708348819E+04  0.34799050730E+04 0.  0.
        4    1    3    3  502    0 -0.47206183723E+03 -0.97613518084E+03 -0.99599736571E+03  0.14723092864E+04  0.12699999809E+01 0. -1.
       -4    1    3    3    0  502  0.47206183723E+03  0.97613518084E+03  0.17966985814E+04  0.20985255955E+04  0.12699999809E+01 0.  1.
</event>
<event>
 5   0  0.3119048E-07  0.3489527E+04  0.7818609E-02  0.8116276E-01
       -2   -1    0    0    0  501  0.00000000000E+00  0.00000000000E+00  0.15603291016E+04  0.15603291016E+04  0.25500000920E-02 0. -1.
        2   -1    0    0  501    0  0.00000000000E+00  0.00000000000E+00 -0.19509989567E+04  0.19509989567E+04  0.25500000920E-02 0.  1.
    10030    2    1    2    0    0  0.00000000000E+00  0.00000000000E+00 -0.39066985510E+03  0.35113280584E+04  0.34895274462E+04 0.  0.
        3    1    3    3  502    0 -0.93124804581E+03  0.37044011979E+03 -0.16324562506E+04  0.19155579410E+04  0.10100000352E+00 0.  1.
       -3    1    3    3    0  502  0.93124804581E+03 -0.37044011979E+03  0.12417863955E+04  0.15957701173E+04  0.10100000352E+00 0. -1.
</event>
<event>
 5   0  0.2180451E-07  0.3490400E+04  0.7818609E-02  0.8116069E-01
        2   -1    0    0  501    0  0.00000000000E+00  0.00000000000E+00  0.20022236523E+04  0.20022236523E+04  0.25500000920E-02 0. -1.
       -2   -1    0    0    0  501  0.00000000000E+00  0.00000000000E+00 -0.15211698483E+04  0.15211698483E+04  0.25500000920E-02 0.  1.
    10030    2    1    2    0    0  0.00000000000E+00  0.00000000000E+00  0.48105380399E+03  0.35233935005E+04  0.34903995470E+04 0.  0.
        4    1    3    3  502    0  0.10389747337E+04  0.39343304503E+03 -0.11181014980E+04  0.15762013295E+04  0.12699999809E+01 0.  1.
       -4    1    3    3    0  502 -0.10389747337E+04 -0.39343304503E+03  0.15991553020E+04  0.19471921711E+04  0.12699999809E+01 0. -1.
</event>
<event>
 5   0  0.2180451E-07  0.3648333E+04  0.7818609E-02  0.8079509E-01
        2   -1    0    0  501    0  0.00000000000E+00  0.00000000000E+00  0.25607867881E+04  0.25607867881E+04  0.25500000920E-02 0.  1.
       -2   -1    0    0    0  501  0.00000000000E+00  0.00000000000E+00 -0.12994379129E+04  0.12994379129E+04  0.25500000920E-02 0. -1.
    10030    2    1    2    0    0  0.00000000000E+00  0.00000000000E+00  0.12613488752E+04  0.38602247010E+04  0.36483330107E+04 0.  0.
        4    1    3    3  502    0  0.10138734082E+04 -0.79338180318E+02  0.22330086007E+04  0.24536835286E+04  0.12699999809E+01 0.  1.
       -4    1    3    3    0  502 -0.10138734082E+04  0.79338180318E+02 -0.97165972550E+03  0.14065411724E+04  0.12699999809E+01 0. -1.
</event>
<event>
 5   0  0.1072381E-07  0.3494915E+04  0.7818609E-02  0.8114996E-01
       -1   -1    0    0    0  501  0.00000000000E+00  0.00000000000E+00  0.10260154872E+04  0.10260154872E+04  0.50400001928E-02 0. -1.
        1   -1    0    0  501    0  0.00000000000E+00  0.00000000000E+00 -0.29761804034E+04  0.29761804034E+04  0.50400001928E-02 0.  1.
    10030    2    1    2    0    0  0.00000000000E+00  0.00000000000E+00 -0.19501649162E+04  0.40021958907E+04  0.34949146981E+04 0.  0.
        1    1    3    3  502    0 -0.57072802794E+02 -0.11914508933E+04 -0.24374663701E+04  0.27136792075E+04  0.50400001928E-02 0.  1.
       -1    1    3    3    0  502  0.57072802794E+02  0.11914508933E+04  0.48730145388E+03  0.12885166832E+04  0.50400001928E-02 0. -1.
</event>
<event>
 5   0  0.3190112E-07  0.3486932E+04  0.7818609E-02  0.8116894E-01
       -2   -1    0    0    0  501  0.00000000000E+00  0.00000000000E+00  0.30345999488E+04  0.30345999488E+04  0.25500000920E-02 0.  1.
        2   -1    0    0  501    0  0.00000000000E+00  0.00000000000E+00 -0.10016718978E+04  0.10016718978E+04  0.25500000920E-02 0. -1.
    10030    2    1    2    0    0  0.00000000000E+00  0.00000000000E+00  0.20329280510E+04  0.40362718465E+04  0.34869318833E+04 0.  0.
        5    1    3    3  502    0 -0.12188548798E+04  0.95693511386E+03  0.19412813497E+04  0.24839338556E+04  0.46999998093E+01 0.  1.
       -5    1    3    3    0  502  0.12188548798E+04 -0.95693511386E+03  0.91646701304E+02  0.15523379909E+04  0.46999998093E+01 0. -1.
</event>
<event>
 5   0  0.2180451E-07  0.3466839E+04  0.7818609E-02  0.8121694E-01
        2   -1    0    0  501    0  0.00000000000E+00  0.00000000000E+00  0.17583869605E+04  0.17583869605E+04  0.25500000920E-02 0. -1.
       -2   -1    0    0    0  501  0.00000000000E+00  0.00000000000E+00 -0.17088062702E+04  0.17088062702E+04  0.25500000920E-02 0.  1.
    10030    2    1    2    0    0  0.00000000000E+00  0.00000000000E+00  0.49580690320E+02  0.34671932307E+04  0.34668387119E+04 0.  0.
        4    1    3    3  502    0  0.61162934605E+03  0.11806840873E+04 -0.10873645942E+04  0.17176928552E+04  0.12699999809E+01 0.  1.
       -4    1    3    3    0  502 -0.61162934605E+03 -0.11806840873E+04  0.11369452845E+04  0.17495003755E+04  0.12699999809E+01 0. -1.
</event>
<event>
 5   0  0.1033796E-07  0.3524153E+04  0.7818609E-02  0.8108090E-01
        1   -1    0    0  501    0  0.00000000000E+00  0.00000000000E+00  0.16691880962E+04  0.16691880962E+04  0.50400001928E-02 0.  1.
       -1   -1    0    0    0  501  0.00000000000E+00  0.00000000000E+00 -0.18601339745E+04  0.18601339745E+04  0.50400001928E-02 0. -1.
    10030    2    1    2    0    0  0.00000000000E+00  0.00000000000E+00 -0.19094587827E+03  0.35293220707E+04  0.35241529408E+04 0.  0.
        3    1    3    3  502    0 -0.16970244490E+04  0.58610242642E+02  0.37594709273E+03  0.17391559354E+04  0.10100000352E+00 0.  1.
       -3    1    3    3    0  502  0.16970244490E+04 -0.58610242642E+02 -0.56689297100E+03  0.17901661352E+04  0.10100000352E+00 0. -1.
</event>
<event>
 5   0  0.3119048E-07  0.3511212E+04  0.7818609E-02  0.8111138E-01
       -2   -1    0    0    0  501  0.00000000000E+00  0.00000000000E+00  0.16302735917E+04  0.16302735917E+04  0.25500000920E-02 0. -1.
        2   -1    0    0  501    0  0.00000000000E+00  0.00000000000E+00 -0.18905742271E+04  0.18905742271E+04  0.25500000920E-02 0.  1.
    10030    2    1    2    0    0  0.00000000000E+00  0.00000000000E+00 -0.26030063540E+03  0.35208478188E+04  0.35112124604E+04 0.  0.
        3    1    3    3  502    0  0.94740332137E+02  0.60030694328E+03  0.15214302306E+04  0.16383205161E+04  0.10100000352E+00 0. -1.
       -3    1    3    3    0  502 -0.94740332137E+02 -0.60030694328E+03 -0.17817308659E+04  0.18825273027E+04  0.10100000352E+00 0.  1.
</event>
<event>
 5   0  0.1033796E-07  0.3499890E+04  0.7818609E-02  0.8113816E-01
        1   -1    0    0  501    0  0.00000000000E+00  0.00000000000E+00  0.14137613120E+04  0.14137613120E+04  0.50400001928E-02 0.  1.
       -1   -1    0    0    0  501  0.00000000000E+00  0.00000000000E+00 -0.21660715642E+04  0.21660715642E+04  0.50400001928E-02 0. -1.
    10030    2    1    2    0    0  0.00000000000E+00  0.00000000000E+00 -0.75231025219E+03  0.35798328762E+04  0.34998903848E+04 0.  0.
        3    1    3    3  502    0  0.11346599995E+04 -0.11925294434E+04 -0.98363026713E+03  0.19175787599E+04  0.10100000352E+00 0. -1.
       -3    1    3    3    0  502 -0.11346599995E+04  0.11925294434E+04  0.23132001494E+03  0.16622541163E+04  0.10100000352E+00 0.  1.
</event>
<event>
 5   0  0.3219205E-07  0.3498230E+04  0.7818609E-02  0.8114209E-01
       -2   -1    0    0    0  501  0.00000000000E+00  0.00000000000E+00  0.22980569054E+04  0.22980569054E+04  0.25500000920E-02 0.  1.
        2   -1    0    0  501    0  0.00000000000E+00  0.00000000000E+00 -0.13313002050E+04  0.13313002050E+04  0.25500000920E-02 0. -1.
    10030    2    1    2    0    0  0.00000000000E+00  0.00000000000E+00  0.96675670041E+03  0.36293571104E+04  0.34982301978E+04 0.  0.
        2    1    3    3  502    0  0.85036899348E+03 -0.38576761019E+03  0.20178233778E+04  0.22234107264E+04  0.25500000920E-02 0.  1.
       -2    1    3    3    0  502 -0.85036899348E+03  0.38576761019E+03 -0.10510666774E+04  0.14059463840E+04  0.25500000920E-02 0. -1.
</event>
<event>
 5   0  0.1013863E-07  0.3507827E+04  0.7818609E-02  0.8111938E-01
       -1   -1    0    0    0  501  0.00000000000E+00  0.00000000000E+00  0.19007340622E+04  0.19007340622E+04  0.50400001928E-02 0. -1.
        1   -1    0    0  501    0  0.00000000000E+00  0.00000000000E+00 -0.16184340369E+04  0.16184340369E+04  0.50400001928E-02 0.  1.
    10030    2    1    2    0    0  0.00000000000E+00  0.00000000000E+00  0.28230002527E+03  0.35191680991E+04  0.35078270775E+04 0.  0.
        2    1    3    3  502    0 -0.15575252057E+04  0.79242486036E+02  0.94627099298E+03  0.18241691068E+04  0.25500000920E-02 0. -1.
       -2    1    3    3    0  502  0.15575252057E+04 -0.79242486036E+02 -0.66397096771E+03  0.16949989923E+04  0.25500000920E-02 0.  1.
</event>
<event>
 5   0  0.1013863E-07  0.3504704E+04  0.7818609E-02  0.8112676E-01
       -1   -1    0    0    0  501  0.00000000000E+00  0.00000000000E+00  0.15119809552E+04  0.15119809552E+04  0.50400001928E-02 0. -1.
        1   -1    0    0  501    0  0.00000000000E+00  0.00000000000E+00 -0.20309370095E+04  0.20309370095E+04  0.50400001928E-02 0.  1.
    10030    2    1    2    0    0  0.00000000000E+00  0.00000000000E+00 -0.51895605424E+03  0.35429179647E+04  0.35047043126E+04 0.  0.
        5    1    3    3  502    0 -0.94052953890E+03  0.13576797799E+03  0.12288820879E+04  0.15534484328E+04  0.46999998093E+01 0. -1.
       -5    1    3    3    0  502  0.94052953890E+03 -0.13576797799E+03 -0.17478381421E+04  0.19894695319E+04  0.46999998093E+01 0.  1.
</event>
<event>
 5   0  0.1072381E-07  0.3467785E+04  0.7818609E-02  0.8121467E-01
        1   -1    0    0  501    0  0.00000000000E+00  0.00000000000E+00  0.15207490624E+04  0.15207490624E+04  0.50400001928E-02 0. -1.
       -1   -1    0    0    0  501  0.00000000000E+00  0.00000000000E+00 -0.19769097608E+04  0.19769097608E+04  0.50400001928E-02 0.  1.
    10030    2    1    2    0    0  0.00000000000E+00  0.00000000000E+00 -0.45616069840E+03  0.34976588231E+04  0.34677852673E+04 0.  0.
        1    1    3    3  502    0  0.15978693858E+04 -0.31420675276E+03  0.37242340841E+03  0.16705123923E+04  0.50400001928E-02 0. -1.
       -1    1    3    3    0  502 -0.15978693858E+04  0.31420675276E+03 -0.82858410681E+03  0.18271464308E+04  0.50400001928E-02 0.  1.
</event>
<event>
 5   0  0.1013863E-07  0.3485407E+04  0.7818609E-02  0.8117257E-01
        1   -1    0    0  501    0  0.00000000000E+00  0.00000000000E+00  0.22324900858E+04  0.22324900858E+04  0.50400001928E-02 0.  1.
       -1   -1    0    0    0  501  0.00000000000E+00  0.00000000000E+00 -0.13603710604E+04  0.13603710604E+04  0.50400001928E-02 0. -1.
    10030    2    1    2    0    0  0.00000000000E+00  0.00000000000E+00  0.87211902541E+03  0.35928611462E+04  0.34854066651E+04 0.  0.
        2    1    3    3  502    0  0.29973179013E+03  0.29181795514E+03 -0.13078468387E+04  0.13731206132E+04  0.25500000920E-02 0. -1.
       -2    1    3    3    0  502 -0.29973179013E+03 -0.29181795514E+03  0.21799658641E+04  0.22197405330E+04  0.25500000920E-02 0.  1.
</event>
<event>
 5   0  0.3190185E-07  0.3494472E+04  0.7818609E-02  0.8115101E-01
        2   -1    0    0  501    0  0.00000000000E+00  0.00000000000E+00  0.19994380744E+04  0.19994380744E+04  0.25500000920E-02 0. -1.
       -2   -1    0    0    0  501  0.00000000000E+00  0.00000000000E+00 -0.15268456258E+04  0.15268456258E+04  0.25500000920E-02 0.  1.
    10030    2    1    2    0    0  0.00000000000E+00  0.00000000000E+00  0.47259244862E+03  0.35262837002E+04  0.34944717929E+04 0.  0.
        1    1    3    3  502    0 -0.49062928723E+03  0.13412231652E+04 -0.77946386602E+03  0.16270097095E+04  0.50400001928E-02 0.  1.
       -1    1    3    3    0  502  0.49062928723E+03 -0.13412231652E+04  0.12520563146E+04  0.18992739906E+04  0.50400001928E-02 0. -1.
</event>
<event>
 5   0  0.2180451E-07  0.3559976E+04  0.7818609E-02  0.8099722E-01
        2   -1    0    0  501    0  0.00000000000E+00  0.00000000000E+00  0.20034933431E+04  0.20034933431E+04  0.25500000920E-02 0.  1.
       -2   -1    0    0    0  501  0.00000000000E+00  0.00000000000E+00 -0.15814168162E+04  0.15814168162E+04  0.25500000920E-02 0. -1.
    10030    2    1    2    0    0  0.00000000000E+00  0.00000000000E+00  0.42207652684E+03  0.35849101593E+04  0.35599764403E+04 0.  0.
        4    1    3    3  502    0  0.54185107981E+03 -0.92832953983E+02  0.19158622299E+04  0.19931759197E+04  0.12699999809E+01 0.  1.
       -4    1    3    3    0  502 -0.54185107981E+03  0.92832953983E+02 -0.14937857030E+04  0.15917342396E+04  0.12699999809E+01 0. -1.
</event>
<event>
 5   0  0.3190112E-07  0.3508731E+04  0.7818609E-02  0.8111724E-01
       -2   -1    0    0    0  501  0.00000000000E+00  0.00000000000E+00  0.12921844833E+04  0.12921844833E+04  0.25500000920E-02 0. -1.
        2   -1    0    0  501    0  0.00000000000E+00  0.00000000000E+00 -0.23818561372E+04  0.23818561372E+04  0.25500000920E-02 0.  1.
    10030    2    1    2    0    0  0.00000000000E+00  0.00000000000E+00 -0.10896716539E+04  0.36740406205E+04  0.35087305636E+04 0.  0.
        5    1    3    3  502    0  0.41067902260E+03 -0.37751867964E+03  0.11968385007E+04  0.13204628355E+04  0.46999998093E+01 0. -1.
       -5    1    3    3    0  502 -0.41067902260E+03  0.37751867964E+03 -0.22865101546E+04  0.23535777850E+04  0.46999998093E+01 0.  1.
</event>
<event>
 5   0  0.1013863E-07  0.3487424E+04  0.7818609E-02  0.8116777E-01
       -1   -1    0    0    0  501  0.00000000000E+00  0.00000000000E+00  0.11560966732E+04  0.11560966732E+04  0.50400001928E-02 0.  1.
        1   -1    0    0  501    0  0.00000000000E+00  0.00000000000E+00 -0.26299972249E+04  0.26299972250E+04  0.50400001928E-02 0. -1.
    10030    2    1    2    0    0  0.00000000000E+00  0.00000000000E+00 -0.14739005518E+04  0.37860938981E+04  0.34874237151E+04 0.  0.
        2    1    3    3  502    0  0.14354512879E+03  0.98105122225E+03  0.82027994074E+03  0.12868278385E+04  0.25500000920E-02 0.  1.
       -2    1    3    3    0  502 -0.14354512879E+03 -0.98105122225E+03 -0.22941804925E+04  0.24992660597E+04  0.25500000920E-02 0. -1.
</event>
<event>
 5   0  0.1033796E-07  0.3504855E+04  0.7818609E-02  0.8112640E-01
        1   -1    0    0  501    0  0.00000000000E+00  0.00000000000E+00  0.22341644317E+04  0.22341644317E+04  0.50400001928E-02 0.  1.
       -1   -1    0    0    0  501  0.00000000000E+00  0.00000000000E+00 -0.13745639761E+04  0.13745639761E+04  0.50400001928E-02 0. -1.
    10030    2    1    2    0    0  0.00000000000E+00  0.00000000000E+00  0.85960045563E+03  0.36087284079E+04  0.35048548869E+04 0.  0.
        3    1    3    3  502    0 -0.99669384993E+03 -0.12221125577E+04 -0.35707706848E+03  0.16169297378E+04  0.10100000352E+00 0.  1.
       -3    1    3    3    0  502  0.99669384993E+03  0.12221125577E+04  0.12166775241E+04  0.19917986700E+04  0.10100000352E+00 0. -1.
</event>
<event>
 5   0  0.1098171E-07  0.3510063E+04  0.7818609E-02  0.8111409E-01
       -1   -1    0    0    0  501  0.00000000000E+00  0.00000000000E+00  0.18832759401E+04  0.18832759401E+04  0.50400001928E-02 0. -1.
        1   -1    0    0  501    0  0.00000000000E+00  0.00000000000E+00 -0.16355200841E+04  0.16355200841E+04  0.50400001928E-02 0.  1.
    10030    2    1    2    0    0  0.00000000000E+00  0.00000000000E+00  0.24775585598E+03  0.35187960242E+04  0.35100630330E+04 0.  0.
        4    1    3    3  502    0 -0.30665251177E+03  0.12628929232E+03 -0.16038219978E+04  0.16377519232E+04  0.12699999809E+01 0.  1.
       -4    1    3    3    0  502  0.30665251177E+03 -0.12628929232E+03  0.18515778538E+04  0.18810441010E+04  0.12699999809E+01 0. -1.
</event>
<event>
 5   0  0.3219205E-07  0.3496021E+04  0.7818609E-02  0.8114734E-01
        2   -1    0    0  501    0  0.00000000000E+00  0.00000000000E+00  0.18589642144E+04  0.18589642144E+04  0.25500000920E-02 0.  1.
       -2   -1    0    0    0  501  0.00000000000E+00  0.00000000000E+00 -0.16436792335E+04  0.16436792335E+04  0.25500000920E-02 0. -1.
    10030    2    1    2    0    0  0.00000000000E+00  0.00000000000E+00  0.21528498085E+03  0.35026434479E+04  0.34960210955E+04 0.  0.
        2    1    3    3  502    0  0.86340426059E+03  0.31277863873E+02  0.16300918217E+04  0.18448968994E+04  0.25500000920E-02 0.  1.
       -2    1    3    3    0  502 -0.86340426059E+03 -0.31277863873E+02 -0.14148068409E+04  0.16577465485E+04  0.25500000920E-02 0. -1.
</event>
<event>
 5   0  0.3190185E-07  0.3507453E+04  0.7818609E-02  0.8112026E-01
       -2   -1    0    0    0  501  0.00000000000E+00  0.00000000000E+00  0.26329039097E+04  0.26329039097E+04  0.25500000920E-02 0. -1.
        2   -1    0    0  501    0  0.00000000000E+00  0.00000000000E+00 -0.11681231174E+04  0.11681231174E+04  0.25500000920E-02 0.  1.
    10030    2    1    2    0    0  0.00000000000E+00  0.00000000000E+00  0.14647807924E+04  0.38010270271E+04  0.35074525928E+04 0.  0.
        1    1    3    3  502    0  0.77571925024E+03  0.11965965121E+04  0.18385995456E+04  0.23268072238E+04  0.50400001928E-02 0. -1.
       -1    1    3    3    0  502 -0.77571925024E+03 -0.11965965121E+04 -0.37381875321E+03  0.14742198032E+04  0.50400001928E-02 0.  1.
</event>
<event>
 5   0  0.1013863E-07  0.3648387E+04  0.7818609E-02  0.8079497E-01
       -3   -1    0    0    0  501  0.00000000000E+00  0.00000000000E+00  0.12354328461E+04  0.12354328502E+04  0.10100000352E+00 0. -1.
        3   -1    0    0  501    0  0.00000000000E+00  0.00000000000E+00 -0.26935349785E+04  0.26935349804E+04  0.10100000352E+00 0.  1.
    10030    2    1    2    0    0  0.00000000000E+00  0.00000000000E+00 -0.14581021325E+04  0.39289678306E+04  0.36483868196E+04 0.  0.
        4    1    3    3  502    0 -0.16918349506E+03  0.30005281084E+03 -0.26581929106E+04  0.26804189798E+04  0.12699999809E+01 0.  1.
       -4    1    3    3    0  502  0.16918349506E+03 -0.30005281084E+03  0.12000907781E+04  0.12485488508E+04  0.12699999809E+01 0. -1.
</event>
<event>
 5   0  0.1072381E-07  0.3474946E+04  0.7818609E-02  0.8119753E-01
       -1   -1    0    0    0  501  0.00000000000E+00  0.00000000000E+00  0.14065809625E+04  0.14065809625E+04  0.50400001928E-02 0. -1.
        1   -1    0    0  501    0  0.00000000000E+00  0.00000000000E+00 -0.21462056337E+04  0.21462056337E+04  0.50400001928E-02 0.  1.
    10030    2    1    2    0    0  0.00000000000E+00  0.00000000000E+00 -0.73962467116E+03  0.35527865962E+04  0.34749457469E+04 0.  0.
        1    1    3    3  502    0 -0.71789675458E+03  0.13066954631E+03 -0.19819541678E+04  0.21120115066E+04  0.50400001928E-02 0.  1.
       -1    1    3    3    0  502  0.71789675458E+03 -0.13066954631E+03  0.12423294967E+04  0.14407750896E+04  0.50400001928E-02 0. -1.
</event>
<event>
 5   0  0.3219205E-07  0.3492736E+04  0.7818609E-02  0.8115514E-01
       -2   -1    0    0    0  501  0.00000000000E+00  0.00000000000E+00  0.15268895136E+04  0.15268895136E+04  0.25500000920E-02 0. -1.
        2   -1    0    0  501    0  0.00000000000E+00  0.00000000000E+00 -0.19973944188E+04  0.19973944188E+04  0.25500000920E-02 0.  1.
    10030    2    1    2    0    0  0.00000000000E+00  0.00000000000E+00 -0.47050490526E+03  0.35242839324E+04  0.34927356571E+04 0.  0.
        2    1    3    3  502    0 -0.13324290481E+04  0.93980752533E+03  0.39585302945E+03  0.16778870563E+04  0.25500000920E-02 0. -1.
       -2    1    3    3    0  502  0.13324290481E+04 -0.93980752533E+03 -0.86635793471E+03  0.18463968761E+04  0.25500000920E-02 0.  1.
</event>
<event>
 5   0  0.1072381E-07  0.3511158E+04  0.7818609E-02  0.8111151E-01
       -1   -1    0    0    0  501  0.00000000000E+00  0.00000000000E+00  0.15236879343E+04  0.15236879343E+04  0.50400001928E-02 0. -1.
        1   -1    0    0  501    0  0.00000000000E+00  0.00000000000E+00 -0.20227621080E+04  0.20227621080E+04  0.50400001928E-02 0.  1.
    10030    2    1    2    0    0  0.00000000000E+00  0.00000000000E+00 -0.49907417370E+03  0.35464500423E+04  0.35111583376E+04 0.  0.
        1    1    3    3  502    0  0.88828231302E+03 -0.11340441155E+04  0.76402143283E+03  0.16305920009E+04  0.50400001928E-02 0. -1.
       -1    1    3    3    0  502 -0.88828231302E+03  0.11340441155E+04 -0.12630956065E+04  0.19158580414E+04  0.50400001928E-02 0.  1.
</event>
<event>
 5   0  0.3190185E-07  0.3448938E+04  0.7818609E-02  0.8125999E-01
       -2   -1    0    0    0  501  0.00000000000E+00  0.00000000000E+00  0.11138697701E+04  0.11138697701E+04  0.25500000920E-02 0.  1.
        2   -1    0    0  501    0  0.00000000000E+00  0.00000000000E+00 -0.26697854609E+04  0.26697854609E+04  0.25500000920E-02 0. -1.
    10030    2    1    2    0    0  0.00000000000E+00  0.00000000000E+00 -0.15559156908E+04  0.37836552311E+04  0.34489379917E+04 0.  0.
        1    1    3    3  502    0 -0.10194285835E+04  0.47392220547E+03  0.65660207023E+03  0.13019075129E+04  0.50400001928E-02 0.  1.
       -1    1    3    3    0  502  0.10194285835E+04 -0.47392220547E+03 -0.22125177610E+04  0.24817477182E+04  0.50400001928E-02 0. -1.
</event>
<event>
 5   0  0.1033796E-07  0.3497338E+04  0.7818609E-02  0.8114421E-01
       -1   -1    0    0    0  501  0.00000000000E+00  0.00000000000E+00  0.28650366257E+04  0.28650366257E+04  0.50400001928E-02 0.  1.
        1   -1    0    0  501    0  0.00000000000E+00  0.00000000000E+00 -0.10672962335E+04  0.10672962335E+04  0.50400001928E-02 0. -1.
    10030    2    1    2    0    0  0.00000000000E+00  0.00000000000E+00  0.17977403922E+04  0.39323328592E+04  0.34973377301E+04 0.  0.
        3    1    3    3  502    0  0.71974953489E+03 -0.60457450946E+03 -0.75908098659E+03  0.12082026671E+04  0.10100000352E+00 0. -1.
       -3    1    3    3    0  502 -0.71974953489E+03  0.60457450946E+03  0.25568213788E+04  0.27241301921E+04  0.10100000352E+00 0.  1.
</event>
<event>
 5   0  0.3190112E-07  0.3491253E+04  0.7818609E-02  0.8115866E-01
       -2   -1    0    0    0  501  0.00000000000E+00  0.00000000000E+00  0.15314202660E+04  0.15314202660E+04  0.25500000920E-02 0. -1.
        2   -1    0    0  501    0  0.00000000000E+00  0.00000000000E+00 -0.19897944298E+04  0.19897944298E+04  0.25500000920E-02 0.  1.
    10030    2    1    2    0    0  0.00000000000E+00  0.00000000000E+00 -0.45837416387E+03  0.35212146958E+04  0.34912527923E+04 0.  0.
        5    1    3    3  502    0  0.86855316566E+03  0.42388442712E+03 -0.16953221793E+04  0.19514615012E+04  0.46999998093E+01 0.  1.
       -5    1    3    3    0  502 -0.86855316566E+03 -0.42388442712E+03  0.12369480154E+04  0.15697531946E+04  0.46999998093E+01 0. -1.
</event>
<event>
 5   0  0.3190185E-07  0.3499485E+04  0.7818609E-02  0.8113912E-01
        2   -1    0    0  501    0  0.00000000000E+00  0.00000000000E+00  0.17869679231E+04  0.17869679231E+04  0.25500000920E-02 0. -1.
       -2   -1    0    0    0  501  0.00000000000E+00  0.00000000000E+00 -0.17132925578E+04  0.17132925579E+04  0.25500000920E-02 0.  1.
    10030    2    1    2    0    0  0.00000000000E+00  0.00000000000E+00  0.73675365290E+02  0.35002604810E+04  0.34994850157E+04 0.  0.
        1    1    3    3  502    0 -0.71595843929E+03  0.15018047451E+04 -0.50511710545E+03  0.17387228846E+04  0.50400001928E-02 0. -1.
       -1    1    3    3    0  502  0.71595843929E+03 -0.15018047451E+04  0.57879247074E+03  0.17615375964E+04  0.50400001928E-02 0.  1.
</event>
<event>
 5   0  0.1013863E-07  0.3498870E+04  0.7818609E-02  0.8114058E-01
       -1   -1    0    0    0  501  0.00000000000E+00  0.00000000000E+00  0.16560130278E+04  0.16560130279E+04  0.50400001928E-02 0. -1.
        1   -1    0    0  501    0  0.00000000000E+00  0.00000000000E+00 -0.18481273042E+04  0.18481273042E+04  0.50400001928E-02 0.  1.
    10030    2    1    2    0    0  0.00000000000E+00  0.00000000000E+00 -0.19211427631E+03  0.35041403320E+04  0.34988700421E+04 0.  0.
        2    1    3    3  502    0 -0.16818513976E+04  0.25325028695E+03 -0.50626298832E+03  0.17745596763E+04  0.25500000920E-02 0.  1.
       -2    1    3    3    0  502  0.16818513976E+04 -0.25325028695E+03  0.31414871200E+03  0.17295806557E+04  0.25500000920E-02 0. -1.
</event>
<event>
 5   0  0.3219205E-07  0.3501536E+04  0.7818609E-02  0.8113426E-01
        2   -1    0    0  501    0  0.00000000000E+00  0.00000000000E+00  0.16230121096E+04  0.16230121096E+04  0.25500000920E-02 0.  1.
       -2   -1    0    0    0  501  0.00000000000E+00  0.00000000000E+00 -0.18885800509E+04  0.18885800509E+04  0.25500000920E-02 0. -1.
    10030    2    1    2    0    0  0.00000000000E+00  0.00000000000E+00 -0.26556794127E+03  0.35115921605E+04  0.35015358302E+04 0.  0.
        2    1    3    3  502    0 -0.14224833219E+03 -0.17371958023E+04 -0.29789108530E+03  0.17682824837E+04  0.25500000920E-02 0. -1.
       -2    1    3    3    0  502  0.14224833219E+03  0.17371958023E+04  0.32323144026E+02  0.17433096768E+04  0.25500000920E-02 0.  1.
</event>
<event>
 5   0  0.2180451E-07  0.3416615E+04  0.7818609E-02  0.8133841E-01
       -2   -1    0    0    0  501  0.00000000000E+00  0.00000000000E+00  0.15482273940E+04  0.15482273940E+04  0.25500000920E-02 0. -1.
        2   -1    0    0  501    0  0.00000000000E+00  0.00000000000E+00 -0.18849388179E+04  0.18849388179E+04  0.25500000920E-02 0.  1.
    10030    2    1    2    0    0  0.00000000000E+00  0.00000000000E+00 -0.33671142393E+03  0.34331662119E+04  0.34166146484E+04 0.  0.
        4    1    3    3  502    0 -0.73899080893E+02  0.47070378333E+02  0.15459676758E+04  0.15484490182E+04  0.12699999809E+01 0. -1.
       -4    1    3    3    0  502  0.73899080893E+02 -0.47070378333E+02 -0.18826790997E+04  0.18847171936E+04  0.12699999809E+01 0.  1.
</event>
<event>
 5   0  0.1013863E-07  0.3502839E+04  0.7818609E-02  0.8113118E-01
        1   -1    0    0  501    0  0.00000000000E+00  0.00000000000E+00  0.17831196530E+04  0.17831196530E+04  0.50400001928E-02 0. -1.
       -1   -1    0    0    0  501  0.00000000000E+00  0.00000000000E+00 -0.17202826512E+04  0.17202826512E+04  0.50400001928E-02 0.  1.
    10030    2    1    2    0    0  0.00000000000E+00  0.00000000000E+00  0.62837001736E+02  0.35034023042E+04  0.35028387369E+04 0.  0.
        2    1    3    3  502    0 -0.11207208910E+04 -0.13297513285E+04  0.23933627249E+03  0.17554303640E+04  0.25500000920E-02 0.  1.
       -2    1    3    3    0  502  0.11207208910E+04  0.13297513285E+04 -0.17649927075E+03  0.17479719403E+04  0.25500000920E-02 0. -1.
</event>
<event>
 5   0  0.1013863E-07  0.3526579E+04  0.7818609E-02  0.8107520E-01
        1   -1    0    0  501    0  0.00000000000E+00  0.00000000000E+00  0.12097472061E+04  0.12097472061E+04  0.50400001928E-02 0. -1.
       -1   -1    0    0    0  501  0.00000000000E+00  0.00000000000E+00 -0.25701146560E+04  0.25701146560E+04  0.50400001928E-02 0.  1.
    10030    2    1    2    0    0  0.00000000000E+00  0.00000000000E+00 -0.13603674499E+04  0.37798618621E+04  0.35265785257E+04 0.  0.
        2    1    3    3  502    0  0.67762023004E+03 -0.14939789408E+04 -0.13731862347E+04  0.21393416480E+04  0.25500000920E-02 0. -1.
       -2    1    3    3    0  502 -0.67762023004E+03  0.14939789408E+04  0.12818784811E+02  0.16405202141E+04  0.25500000920E-02 0.  1.
</event>
<event>
 5   0  0.3190112E-07  0.3516658E+04  0.7818609E-02  0.8109854E-01
       -2   -1    0    0    0  501  0.00000000000E+00  0.00000000000E+00  0.16897487810E+04  0.16897487810E+04  0.25500000920E-02 0. -1.
        2   -1    0    0  501    0  0.00000000000E+00  0.00000000000E+00 -0.18296922809E+04  0.18296922809E+04  0.25500000920E-02 0.  1.
    10030    2    1    2    0    0  0.00000000000E+00  0.00000000000E+00 -0.13994349990E+03  0.35194410618E+04  0.35166576752E+04 0.  0.
        5    1    3    3  502    0 -0.61457619162E+03  0.41968581545E+03 -0.16642982793E+04  0.18231157208E+04  0.46999998093E+01 0.  1.
       -5    1    3    3    0  502  0.61457619162E+03 -0.41968581545E+03  0.15243547794E+04  0.16963253410E+04  0.46999998093E+01 0. -1.
</event>
<event>
 5   0  0.1033796E-07  0.3517428E+04  0.7818609E-02  0.8109672E-01
       -1   -1    0    0    0  501  0.00000000000E+00  0.00000000000E+00  0.15356799928E+04  0.15356799928E+04  0.50400001928E-02 0. -1.
        1   -1    0    0  501    0  0.00000000000E+00  0.00000000000E+00 -0.20141403885E+04  0.20141403885E+04  0.50400001928E-02 0.  1.
    10030    2    1    2    0    0  0.00000000000E+00  0.00000000000E+00 -0.47846039572E+03  0.35498203812E+04  0.35174280929E+04 0.  0.
        3    1    3    3  502    0  0.13469282979E+04  0.48996560141E+03  0.78936773903E+03  0.16362712390E+04  0.10100000352E+00 0. -1.
       -3    1    3    3    0  502 -0.13469282979E+04 -0.48996560141E+03 -0.12678281347E+04  0.19135491422E+04  0.10100000352E+00 0.  1.
</event>
<event>
 5   0  0.1072381E-07  0.3487038E+04  0.7818609E-02  0.8116869E-01
        1   -1    0    0  501    0  0.00000000000E+00  0.00000000000E+00  0.82919144600E+03  0.82919144601E+03  0.50400001928E-02 0.  1.
       -1   -1    0    0    0  501  0.00000000000E+00  0.00000000000E+00 -0.36660511962E+04  0.36660511962E+04  0.50400001928E-02 0. -1.
    10030    2    1    2    0    0  0.00000000000E+00  0.00000000000E+00 -0.28368597502E+04  0.44952426422E+04  0.34870378791E+04 0.  0.
        1    1    3    3  502    0  0.29715680360E+03 -0.13683186911E+04 -0.27576733275E+04  0.30927916819E+04  0.50400001928E-02 0. -1.
       -1    1    3    3    0  502 -0.29715680360E+03  0.13683186911E+04 -0.79186422692E+02  0.14024509603E+04  0.50400001928E-02 0.  1.
</event>
<event>
 5   0  0.3119048E-07  0.3527309E+04  0.7818609E-02  0.8107348E-01
        2   -1    0    0  501    0  0.00000000000E+00  0.00000000000E+00  0.28869559016E+04  0.28869559016E+04  0.25500000920E-02 0.  1.
       -2   -1    0    0    0  501  0.00000000000E+00  0.00000000000E+00 -0.10774243316E+04  0.10774243316E+04  0.25500000920E-02 0. -1.
    10030    2    1    2    0    0  0.00000000000E+00  0.00000000000E+00  0.18095315700E+04  0.39643802333E+04  0.35273086243E+04 0.  0.
        3    1    3    3  502    0 -0.15370583649E+04 -0.42803802266E+03  0.60177254195E+02  0.15966797669E+04  0.10100000352E+00 0. -1.
       -3    1    3    3    0  502  0.15370583649E+04  0.42803802266E+03  0.17493543158E+04  0.23677004664E+04  0.10100000352E+00 0.  1.
</event>
<event>
 5   0  0.3190112E-07  0.3499528E+04  0.7818609E-02  0.8113902E-01
        2   -1    0    0  501    0  0.00000000000E+00  0.00000000000E+00  0.19396954096E+04  0.19396954096E+04  0.25500000920E-02 0.  1.
       -2   -1    0    0    0  501  0.00000000000E+00  0.00000000000E+00 -0.15784303962E+04  0.15784303962E+04  0.25500000920E-02 0. -1.
    10030    2    1    2    0    0  0.00000000000E+00  0.00000000000E+00  0.36126501339E+03  0.35181258059E+04  0.34995280791E+04 0.  0.
        5    1    3    3  502    0 -0.17915382636E+03  0.12009904037E+04 -0.10858952407E+04  0.16290072458E+04  0.46999998093E+01 0. -1.
       -5    1    3    3    0  502  0.17915382636E+03 -0.12009904037E+04  0.14471602540E+04  0.18891185601E+04  0.46999998093E+01 0.  1.
</event>
<event>
 5   0  0.1013863E-07  0.3502576E+04  0.7818609E-02  0.8113180E-01
       -1   -1    0    0    0  501  0.00000000000E+00  0.00000000000E+00  0.22324362030E+04  0.22324362030E+04  0.50400001928E-02 0.  1.
        1   -1    0    0  501    0  0.00000000000E+00  0.00000000000E+00 -0.13738399061E+04  0.13738399061E+04  0.50400001928E-02 0. -1.
    10030    2    1    2    0    0  0.00000000000E+00  0.00000000000E+00  0.85859629693E+03  0.36062761091E+04  0.35025761625E+04 0.  0.
        5    1    3    3  502    0 -0.27051739843E+03 -0.34223309026E+02 -0.13518432767E+04  0.13790769495E+04  0.46999998093E+01 0. -1.
       -5    1    3    3    0  502  0.27051739843E+03  0.34223309026E+02  0.22104395737E+04  0.22271991596E+04  0.46999998093E+01 0.  1.
</event>
<event>
 5   0  0.1013863E-07  0.3492432E+04  0.7818609E-02  0.8115586E-01
        1   -1    0    0  501    0  0.00000000000E+00  0.00000000000E+00  0.12369240254E+04  0.12369240254E+04  0.50400001928E-02 0.  1.
       -1   -1    0    0    0  501  0.00000000000E+00  0.00000000000E+00 -0.24652039609E+04  0.24652039609E+04  0.50400001928E-02 0. -1.
    10030    2    1    2    0    0  0.00000000000E+00  0.00000000000E+00 -0.12282799355E+04  0.37021279863E+04  0.34924318214E+04 0.  0.
        2    1    3    3  502    0  0.16919690646E+04 -0.42220460211E+03 -0.51783364339E+03  0.18191117953E+04  0.25500000920E-02 0.  1.
       -2    1    3    3    0  502 -0.16919690646E+04  0.42220460211E+03 -0.71044629211E+03  0.18830161910E+04  0.25500000920E-02 0. -1.
</event>
<event>
 5   0  0.2180451E-07  0.3442418E+04  0.7818609E-02  0.8127573E-01
        2   -1    0    0  501    0  0.00000000000E+00  0.00000000000E+00  0.29791312840E+04  0.29791312840E+04  0.25500000920E-02 0. -1.
       -2   -1    0    0    0  501  0.00000000000E+00  0.00000000000E+00 -0.99443747102E+03  0.99443747102E+03  0.25500000920E-02 0.  1.
    10030    2    1    2    0    0  0.00000000000E+00  0.00000000000E+00  0.19846938130E+04  0.39735687551E+04  0.34424176272E+04 0.  0.
        4    1    3    3  502    0 -0.15785727626E+04  0.23265496896E+03  0.24736724072E+03  0.16146864916E+04  0.12699999809E+01 0.  1.
       -4    1    3    3    0  502  0.15785727626E+04 -0.23265496896E+03  0.17373265723E+04  0.23588822635E+04  0.12699999809E+01 0. -1.
</event>
<event>
 5   0  0.3190112E-07  0.3513741E+04  0.7818609E-02  0.8110541E-01
       -2   -1    0    0    0  501  0.00000000000E+00  0.00000000000E+00  0.11184418245E+04  0.11184418245E+04  0.25500000920E-02 0.  1.
        2   -1    0    0  501    0  0.00000000000E+00  0.00000000000E+00 -0.27597262112E+04  0.27597262112E+04  0.25500000920E-02 0. -1.
    10030    2    1    2    0    0  0.00000000000E+00  0.00000000000E+00 -0.16412843867E+04  0.38781680358E+04  0.35137405817E+04 0.  0.
        5    1    3    3  502    0 -0.49842240158E+03  0.16101849108E+04 -0.27382879621E+03  0.17076664303E+04  0.46999998093E+01 0. -1.
       -5    1    3    3    0  502  0.49842240158E+03 -0.16101849108E+04 -0.13674555905E+04  0.21705016055E+04  0.46999998093E+01 0.  1.
</event>
<event>
 5   0  0.1098171E-07  0.3496659E+04  0.7818609E-02  0.8114582E-01
       -1   -1    0    0    0  501  0.00000000000E+00  0.00000000000E+00  0.13586911395E+04  0.13586911395E+04  0.50400001928E-02 0.  1.
        1   -1    0    0  501    0  0.00000000000E+00  0.00000000000E+00 -0.22497058972E+04  0.22497058972E+04  0.50400001928E-02 0. -1.
    10030    2    1    2    0    0  0.00000000000E+00  0.00000000000E+00 -0.89101475772E+03  0.36083970367E+04  0.34966586730E+04 0.  0.
        4    1    3    3  502    0 -0.17465274095E+04  0.75772208545E+02 -0.46980629353E+03  0.18101986041E+04  0.12699999809E+01 0.  1.
       -4    1    3    3    0  502  0.17465274095E+04 -0.75772208545E+02 -0.42120846419E+03  0.17981984326E+04  0.12699999809E+01 0. -1.
</event>
<event>
 5   0  0.3219205E-07  0.3498527E+04  0.7818609E-02  0.8114139E-01
       -2   -1    0    0    0  501  0.00000000000E+00  0.00000000000E+00  0.14566863757E+04  0.14566863757E+04  0.25500000920E-02 0.  1.
        2   -1    0    0  501    0  0.00000000000E+00  0.00000000000E+00 -0.21006047295E+04  0.21006047295E+04  0.25500000920E-02 0. -1.
    10030    2    1    2    0    0  0.00000000000E+00  0.00000000000E+00 -0.64391835385E+03  0.35572911052E+04  0.34985267129E+04 0.  0.
        2    1    3    3  502    0 -0.22712538689E+03 -0.10741076259E+04 -0.17066816918E+04  0.20292992708E+04  0.25500000920E-02 0. -1.
       -2    1    3    3    0  502  0.22712538689E+03  0.10741076259E+04  0.10627633380E+04  0.15279918344E+04  0.25500000920E-02 0.  1.
</event>
<event>
 5   0  0.1013863E-07  0.3493349E+04  0.7818609E-02  0.8115368E-01
       -1   -1    0    0    0  501  0.00000000000E+00  0.00000000000E+00  0.10324806459E+04  0.10324806459E+04  0.50400001928E-02 0.  1.
        1   -1    0    0  501    0  0.00000000000E+00  0.00000000000E+00 -0.29548945129E+04  0.29548945129E+04  0.50400001928E-02 0. -1.
    10030    2    1    2    0    0  0.00000000000E+00  0.00000000000E+00 -0.19224138670E+04  0.39873751589E+04  0.34933487632E+04 0.  0.
        2    1    3    3  502    0  0.33777287593E+03 -0.56295724619E+03 -0.28087058669E+04  0.28844132893E+04  0.25500000920E-02 0. -1.
       -2    1    3    3    0  502 -0.33777287593E+03  0.56295724619E+03  0.88629199987E+03  0.11029618696E+04  0.25500000920E-02 0.  1.
</event>
<event>
 5   0  0.2180451E-07  0.3477140E+04  0.7818609E-02  0.8119229E-01
        2   -1    0    0  501    0  0.00000000000E+00  0.00000000000E+00  0.23215571937E+04  0.23215571937E+04  0.25500000920E-02 0. -1.
       -2   -1    0    0    0  501  0.00000000000E+00  0.00000000000E+00 -0.13019818361E+04  0.13019818361E+04  0.25500000920E-02 0.  1.
    10030    2    1    2    0    0  0.00000000000E+00  0.00000000000E+00  0.10195753576E+04  0.36235390297E+04  0.34771398002E+04 0.  0.
        4    1    3    3  502    0  0.15972948806E+04  0.49263540876E+03  0.10080210966E+04  0.19519602265E+04  0.12699999809E+01 0. -1.
       -4    1    3    3    0  502 -0.15972948806E+04 -0.49263540876E+03  0.11554260984E+02  0.16715788032E+04  0.12699999809E+01 0.  1.
</event>
<event>
 5   0  0.1072381E-07  0.3495164E+04  0.7818609E-02  0.8114937E-01
        1   -1    0    0  501    0  0.00000000000E+00  0.00000000000E+00  0.13013696310E+04  0.13013696310E+04  0.50400001928E-02 0. -1.
       -1   -1    0    0    0  501  0.00000000000E+00  0.00000000000E+00 -0.23467911319E+04  0.23467911319E+04  0.50400001928E-02 0.  1.
    10030    2    1    2    0    0  0.00000000000E+00  0.00000000000E+00 -0.10454215009E+04  0.36481607629E+04  0.34951639214E+04 0.  0.
        1    1    3    3  502    0  0.36798079521E+03 -0.18246157590E+03 -0.22956953530E+04  0.23321490617E+04  0.50400001928E-02 0.  1.
       -1    1    3    3    0  502 -0.36798079521E+03  0.18246157590E+03  0.12502738521E+04  0.13160117012E+04  0.50400001928E-02 0. -1.
</event>
<event>
 5   0  0.1033796E-07  0.3492825E+04  0.7818609E-02  0.8115492E-01
        1   -1    0    0  501    0  0.00000000000E+00  0.00000000000E+00  0.23675710536E+04  0.23675710536E+04  0.50400001928E-02 0. -1.
       -1   -1    0    0    0  501  0.00000000000E+00  0.00000000000E+00 -0.12882219320E+04  0.12882219320E+04  0.50400001928E-02 0.  1.
    10030    2    1    2    0    0  0.00000000000E+00  0.00000000000E+00  0.10793491216E+04  0.36557929855E+04  0.34928251927E+04 0.  0.
        3    1    3    3  502    0 -0.98079084340E+03  0.63609668092E+03  0.18976651649E+04  0.22288343937E+04  0.10100000352E+00 0. -1.
       -3    1    3    3    0  502  0.98079084340E+03 -0.63609668092E+03 -0.81831604333E+03  0.14269585919E+04  0.10100000352E+00 0.  1.
</event>
<event>
 5   0  0.2180451E-07  0.3465866E+04  0.7818609E-02  0.8121927E-01
        2   -1    0    0  501    0  0.00000000000E+00  0.00000000000E+00  0.18663727108E+04  0.18663727108E+04  0.25500000920E-02 0.  1.
       -2   -1    0    0    0  501  0.00000000000E+00  0.00000000000E+00 -0.16090338699E+04  0.16090338699E+04  0.25500000920E-02 0. -1.
    10030    2    1    2    0    0  0.00000000000E+00  0.00000000000E+00  0.25733884086E+03  0.34754065807E+04  0.34658660710E+04 0.  0.
        4    1    3    3  502    0 -0.11827084191E+04 -0.75062798651E+03  0.11516805193E+04  0.18134528420E+04  0.12699999809E+01 0.  1.
       -4    1    3    3    0  502  0.11827084191E+04  0.75062798651E+03 -0.89434167845E+03  0.16619537387E+04  0.12699999809E+01 0. -1.
</event>
<event>
 5   0  0.3190185E-07  0.3511267E+04  0.7818609E-02  0.8111125E-01
       -2   -1    0    0    0  501  0.00000000000E+00  0.00000000000E+00  0.16632709438E+04  0.16632709438E+04  0.25500000920E-02 0.  1.
        2   -1    0    0  501    0  0.00000000000E+00  0.00000000000E+00 -0.18531246793E+04  0.18531246793E+04  0.25500000920E-02 0. -1.
    10030    2    1    2    0    0  0.00000000000E+00  0.00000000000E+00 -0.18985373548E+03  0.35163956231E+04  0.35112666856E+04 0.  0.
        1    1    3    3  502    0 -0.13673047432E+04 -0.76897850167E+03  0.69451276060E+03  0.17155751722E+04  0.50400001928E-02 0.  1.
       -1    1    3    3    0  502  0.13673047432E+04  0.76897850167E+03 -0.88436649608E+03  0.18008204509E+04  0.50400001928E-02 0. -1.
</event>
<event>
 5   0  0.3190112E-07  0.3502832E+04  0.7818609E-02  0.8113119E-01
       -2   -1    0    0    0  501  0.00000000000E+00  0.00000000000E+00  0.14521723692E+04  0.14521723692E+04  0.25500000920E-02 0. -1.
        2   -1    0    0  501    0  0.00000000000E+00  0.00000000000E+00 -0.21123235148E+04  0.21123235149E+04  0.25500000920E-02 0.  1.
    10030    2    1    2    0    0  0.00000000000E+00  0.00000000000E+00 -0.66015114562E+03  0.35644958841E+04  0.35028319076E+04 0.  0.
        5    1    3    3  502    0  0.15338884401E+04 -0.68345703672E+03 -0.83633586658E+03  0.18760082728E+04  0.46999998093E+01 0.  1.
       -5    1    3    3    0  502 -0.15338884401E+04  0.68345703672E+03  0.17618472096E+03  0.16884876113E+04  0.46999998093E+01 0. -1.
</event>
<event>
 5   0  0.1098171E-07  0.3494330E+04  0.7818609E-02  0.8115135E-01
        1   -1    0    0  501    0  0.00000000000E+00  0.00000000000E+00  0.19641711242E+04  0.19641711242E+04  0.50400001928E-02 0. -1.
       -1   -1    0    0    0  501  0.00000000000E+00  0.00000000000E+00 -0.15541344088E+04  0.15541344088E+04  0.50400001928E-02 0.  1.
    10030    2    1    2    0    0  0.00000000000E+00  0.00000000000E+00  0.41003671538E+03  0.35183055330E+04  0.34943302242E+04 0.  0.
        4    1    3    3  502    0  0.36062318505E+03  0.97341697745E+03 -0.12099690187E+04  0.15942447531E+04  0.12699999809E+01 0.  1.
       -4    1    3    3    0  502 -0.36062318505E+03 -0.97341697745E+03  0.16200057341E+04  0.19240607800E+04  0.12699999809E+01 0. -1.
</event>
<event>
 5   0  0.1013863E-07  0.3501135E+04  0.7818609E-02  0.8113521E-01
        1   -1    0    0  501    0  0.00000000000E+00  0.00000000000E+00  0.11649996882E+04  0.11649996882E+04  0.50400001928E-02 0.  1.
       -1   -1    0    0    0  501  0.00000000000E+00  0.00000000000E+00 -0.26304609716E+04  0.26304609716E+04  0.50400001928E-02 0. -1.
    10030    2    1    2    0    0  0.00000000000E+00  0.00000000000E+00 -0.14654612834E+04  0.37954606598E+04  0.35011347942E+04 0.  0.
        5    1    3    3  502    0  0.88089952020E+03 -0.34922384650E+03  0.86291812521E+03  0.12816360796E+04  0.46999998093E+01 0.  1.
       -5    1    3    3    0  502 -0.88089952020E+03  0.34922384650E+03 -0.23283794087E+04  0.25138245803E+04  0.46999998093E+01 0. -1.
</event>
<event>
 5   0  0.3219205E-07  0.3628892E+04  0.7818609E-02  0.8083905E-01
       -2   -1    0    0    0  501  0.00000000000E+00  0.00000000000E+00  0.12599478580E+04  0.12599478580E+04  0.25500000920E-02 0. -1.
        2   -1    0    0  501    0  0.00000000000E+00  0.00000000000E+00 -0.26129772922E+04  0.26129772922E+04  0.25500000920E-02 0.  1.
    10030    2    1    2    0    0  0.00000000000E+00  0.00000000000E+00 -0.13530294342E+04  0.38729251502E+04  0.36288924714E+04 0.  0.
        2    1    3    3  502    0  0.17858075600E+04  0.31075596321E+03 -0.76280501437E+03  0.19666086036E+04  0.25500000920E-02 0. -1.
       -2    1    3    3    0  502 -0.17858075600E+04 -0.31075596321E+03 -0.59022441980E+03  0.19063165466E+04  0.25500000920E-02 0.  1.
</event>
<event>
 5   0  0.1098171E-07  0.3491128E+04  0.7818609E-02  0.8115896E-01
        1   -1    0    0  501    0  0.00000000000E+00  0.00000000000E+00  0.17300445380E+04  0.17300445380E+04  0.50400001928E-02 0.  1.
       -1   -1    0    0    0  501  0.00000000000E+00  0.00000000000E+00 -0.17612229106E+04  0.17612229106E+04  0.50400001928E-02 0. -1.
    10030    2    1    2    0    0  0.00000000000E+00  0.00000000000E+00 -0.31178372609E+02  0.34912674487E+04  0.34911282284E+04 0.  0.
        4    1    3    3  502    0  0.12166408601E+04 -0.12095004593E+04 -0.33791573815E+03  0.17485122255E+04  0.12699999809E+01 0.  1.
       -4    1    3    3    0  502 -0.12166408601E+04  0.12095004593E+04  0.30673736554E+03  0.17427552232E+04  0.12699999809E+01 0. -1.
</event>
<event>
 5   0  0.3190112E-07  0.3309812E+04  0.7818609E-02  0.8160403E-01
       -2   -1    0    0    0  501  0.00000000000E+00  0.00000000000E+00  0.15424257466E+04  0.15424257466E+04  0.25500000920E-02 0.  1.
        2   -1    0    0  501    0  0.00000000000E+00  0.00000000000E+00 -0.17755882728E+04  0.17755882728E+04  0.25500000920E-02 0. -1.
    10030    2    1    2    0    0  0.00000000000E+00  0.00000000000E+00 -0.23316252615E+03  0.33180140194E+04  0.33098115157E+04 0.  0.
        5    1    3    3  502    0 -0.63117661410E+03 -0.10983483830E+03 -0.16462209440E+04  0.17664974091E+04  0.46999998093E+01 0. -1.
       -5    1    3    3    0  502  0.63117661410E+03  0.10983483830E+03  0.14130584178E+04  0.15515166103E+04  0.46999998093E+01 0.  1.
</event>
<event>
 5   0  0.1013863E-07  0.3521876E+04  0.7818609E-02  0.8108625E-01
       -1   -1    0    0    0  501  0.00000000000E+00  0.00000000000E+00  0.10311871046E+04  0.10311871046E+04  0.50400001928E-02 0. -1.
        1   -1    0    0  501    0  0.00000000000E+00  0.00000000000E+00 -0.30071195435E+04  0.30071195435E+04  0.50400001928E-02 0.  1.
    10030    2    1    2    0    0  0.00000000000E+00  0.00000000000E+00 -0.19759324389E+04  0.40383066481E+04  0.35218761451E+04 0.  0.
        5    1    3    3  502    0 -0.12995577728E+04 -0.12378535513E+03 -0.23430868623E+04  0.26822101620E+04  0.46999998093E+01 0.  1.
       -5    1    3    3    0  502  0.12995577728E+04  0.12378535513E+03  0.36715442339E+03  0.13560964861E+04  0.46999998093E+01 0. -1.
</event>
<event>
 5   0  0.1098171E-07  0.3506377E+04  0.7818609E-02  0.8112280E-01
       -1   -1    0    0    0  501  0.00000000000E+00  0.00000000000E+00  0.12625054272E+04  0.12625054272E+04  0.50400001928E-02 0. -1.
        1   -1    0    0  501    0  0.00000000000E+00  0.00000000000E+00 -0.24345789723E+04  0.24345789723E+04  0.50400001928E-02 0.  1.
    10030    2    1    2    0    0  0.00000000000E+00  0.00000000000E+00 -0.11720735452E+04  0.36970843995E+04  0.35063765716E+04 0.  0.
        4    1    3    3  502    0  0.27502431997E+03 -0.59769841890E+03  0.11273972859E+04  0.13053382817E+04  0.12699999809E+01 0. -1.
       -4    1    3    3    0  502 -0.27502431997E+03  0.59769841890E+03 -0.22994708310E+04  0.23917461178E+04  0.12699999809E+01 0.  1.
</event>
<event>
 5   0  0.3219205E-07  0.3491116E+04  0.7818609E-02  0.8115899E-01
       -2   -1    0    0    0  501  0.00000000000E+00  0.00000000000E+00  0.11463657013E+04  0.11463657013E+04  0.25500000920E-02 0.  1.
        2   -1    0    0  501    0  0.00000000000E+00  0.00000000000E+00 -0.26579406891E+04  0.26579406891E+04  0.25500000920E-02 0. -1.
    10030    2    1    2    0    0  0.00000000000E+00  0.00000000000E+00 -0.15115749879E+04  0.38043063904E+04  0.34911156051E+04 0.  0.
        2    1    3    3  502    0  0.92164362629E+03  0.13022724857E+04 -0.15275854625E+04  0.22088136965E+04  0.25500000920E-02 0. -1.
       -2    1    3    3    0  502 -0.92164362629E+03 -0.13022724857E+04  0.16010474613E+02  0.15954926938E+04  0.25500000920E-02 0.  1.
</event>
<event>
 5   0  0.1013863E-07  0.3498553E+04  0.7818609E-02  0.8114133E-01
       -1   -1    0    0    0  501  0.00000000000E+00  0.00000000000E+00  0.11108177188E+04  0.11108177188E+04  0.50400001928E-02 0. -1.
        1   -1    0    0  501    0  0.00000000000E+00  0.00000000000E+00 -0.27546995536E+04  0.27546995536E+04  0.50400001928E-02 0.  1.
    10030    2    1    2    0    0  0.00000000000E+00  0.00000000000E+00 -0.16438818348E+04  0.38655172723E+04  0.34985534576E+04 0.  0.
        5    1    3    3  502    0  0.81722807500E+03  0.13667510195E+04 -0.22076060371E+02  0.15926014939E+04  0.46999998093E+01 0. -1.
       -5    1    3    3    0  502 -0.81722807500E+03 -0.13667510195E+04 -0.16218057744E+04  0.22729157784E+04  0.46999998093E+01 0.  1.
</event>
<event>
 5   0  0.2180451E-07  0.3509042E+04  0.7818609E-02  0.8111650E-01
        2   -1    0    0  501    0  0.00000000000E+00  0.00000000000E+00  0.18571528393E+04  0.18571528393E+04  0.25500000920E-02 0.  1.
       -2   -1    0    0    0  501  0.00000000000E+00  0.00000000000E+00 -0.16575611138E+04  0.16575611138E+04  0.25500000920E-02 0. -1.
    10030    2    1    2    0    0  0.00000000000E+00  0.00000000000E+00  0.19959172551E+03  0.35147139532E+04  0.35090422220E+04 0.  0.
        4    1    3    3  502    0 -0.10305843410E+04 -0.45064204842E+03 -0.12489170065E+04  0.16807669803E+04  0.12699999809E+01 0. -1.
       -4    1    3    3    0  502  0.10305843410E+04  0.45064204842E+03  0.14485087320E+04  0.18339469729E+04  0.12699999809E+01 0.  1.
</event>
<event>
 5   0  0.1098171E-07  0.3496947E+04  0.7818609E-02  0.8114514E-01
       -1   -1    0    0    0  501  0.00000000000E+00  0.00000000000E+00  0.17852868938E+04  0.17852868938E+04  0.50400001928E-02 0.  1.
        1   -1    0    0  501    0  0.00000000000E+00  0.00000000000E+00 -0.17124190458E+04  0.17124190458E+04  0.50400001928E-02 0. -1.
    10030    2    1    2    0    0  0.00000000000E+00  0.00000000000E+00  0.72867848026E+02  0.34977059396E+04  0.34969468278E+04 0.  0.
        4    1    3    3  502    0  0.59611182155E+03 -0.97662776782E+03  0.13588429216E+04  0.17764027694E+04  0.12699999809E+01 0.  1.
       -4    1    3    3    0  502 -0.59611182155E+03  0.97662776782E+03 -0.12859750736E+04  0.17213031701E+04  0.12699999809E+01 0. -1.
</event>
<event>
 5   0  0.1013863E-07  0.3501956E+04  0.7818609E-02  0.8113326E-01
        1   -1    0    0  501    0  0.00000000000E+00  0.00000000000E+00  0.14296863472E+04  0.14296863472E+04  0.50400001928E-02 0. -1.
       -1   -1    0    0    0  501  0.00000000000E+00  0.00000000000E+00 -0.21444735046E+04  0.21444735046E+04  0.50400001928E-02 0.  1.
    10030    2    1    2    0    0  0.00000000000E+00  0.00000000000E+00 -0.71478715741E+03  0.35741598519E+04  0.35019563056E+04 0.  0.
        2    1    3    3  502    0 -0.10086939698E+04 -0.76228248260E+03  0.87893950666E+03  0.15398288100E+04  0.25500000920E-02 0. -1.
       -2    1    3    3    0  502  0.10086939698E+04  0.76228248260E+03 -0.15937266641E+04  0.20343310418E+04  0.25500000920E-02 0.  1.
</event>
<event>
 5   0  0.2180451E-07  0.3517132E+04  0.7818609E-02  0.8109742E-01
       -2   -1    0    0    0  501  0.00000000000E+00  0.00000000000E+00  0.18163829524E+04  0.18163829524E+04  0.25500000920E-02 0.  1.
        2   -1    0    0  501    0  0.00000000000E+00  0.00000000000E+00 -0.17025894813E+04  0.17025894813E+04  0.25500000920E-02 0. -1.
    10030    2    1    2    0    0  0.00000000000E+00  0.00000000000E+00  0.11379347111E+03  0.35189724338E+04  0.35171320754E+04 0.  0.
        4    1    3    3  502    0  0.29471764922E+03  0.16869322557E+04  0.45704846343E+03  0.17724259756E+04  0.12699999809E+01 0. -1.
       -4    1    3    3    0  502 -0.29471764922E+03 -0.16869322557E+04 -0.34325499231E+03  0.17465464582E+04  0.12699999809E+01 0.  1.
</event>
<event>
 5   0  0.3219205E-07  0.3519810E+04  0.7818609E-02  0.8109111E-01
        2   -1    0    0  501    0  0.00000000000E+00  0.00000000000E+00  0.26819209894E+04  0.26819209894E+04  0.25500000920E-02 0. -1.
       -2   -1    0    0    0  501  0.00000000000E+00  0.00000000000E+00 -0.11548680673E+04  0.11548680673E+04  0.25500000920E-02 0.  1.
    10030    2    1    2    0    0  0.00000000000E+00  0.00000000000E+00  0.15270529222E+04  0.38367890567E+04  0.35198096026E+04 0.  0.
        2    1    3    3  502    0  0.66203927217E+03 -0.11851860908E+04  0.19843417347E+04  0.24042824684E+04  0.25500000920E-02 0. -1.
       -2    1    3    3    0  502 -0.66203927217E+03  0.11851860908E+04 -0.45728881255E+03  0.14325065884E+04  0.25500000920E-02 0.  1.
</event>
<event>
 5   0  0.2180451E-07  0.3493748E+04  0.7818609E-02  0.8115273E-01
       -2   -1    0    0    0  501  0.00000000000E+00  0.00000000000E+00  0.10140571987E+04  0.10140571988E+04  0.25500000920E-02 0.  1.
        2   -1    0    0  501    0  0.00000000000E+00  0.00000000000E+00 -0.30092676299E+04  0.30092676299E+04  0.25500000920E-02 0. -1.
    10030    2    1    2    0    0  0.00000000000E+00  0.00000000000E+00 -0.19952104312E+04  0.40233248287E+04  0.34937484186E+04 0.  0.
        4    1    3    3  502    0  0.11951409673E+04 -0.27331862301E+03  0.43540563432E+03  0.13010167873E+04  0.12699999809E+01 0.  1.
       -4    1    3    3    0  502 -0.11951409673E+04  0.27331862301E+03 -0.24306160655E+04  0.27223080414E+04  0.12699999809E+01 0. -1.
</event>
<event>
 5   0  0.3190112E-07  0.3510441E+04  0.7818609E-02  0.8111320E-01
       -2   -1    0    0    0  501  0.00000000000E+00  0.00000000000E+00  0.17034329076E+04  0.17034329076E+04  0.25500000920E-02 0. -1.
        2   -1    0    0  501    0  0.00000000000E+00  0.00000000000E+00 -0.18085826705E+04  0.18085826705E+04  0.25500000920E-02 0.  1.
    10030    2    1    2    0    0  0.00000000000E+00  0.00000000000E+00 -0.10514976285E+03  0.35120155781E+04  0.35104411330E+04 0.  0.
        5    1    3    3  502    0 -0.23514991818E+03  0.17174642506E+04 -0.32801310998E+03  0.17642544109E+04  0.46999998093E+01 0. -1.
       -5    1    3    3    0  502  0.23514991818E+03 -0.17174642506E+04  0.22286334713E+03  0.17477611672E+04  0.46999998093E+01 0.  1.
</event>
<event>
 5   0  0.2180451E-07  0.3495600E+04  0.7818609E-02  0.8114833E-01
       -2   -1    0    0    0  501  0.00000000000E+00  0.00000000000E+00  0.31740270179E+04  0.31740270179E+04  0.25500000920E-02 0. -1.
        2   -1    0    0  501    0  0.00000000000E+00  0.00000000000E+00 -0.96243818895E+03  0.96243818895E+03  0.25500000920E-02 0.  1.
    10030    2    1    2    0    0  0.00000000000E+00  0.00000000000E+00  0.22115888289E+04  0.41364652068E+04  0.34955999856E+04 0.  0.
        4    1    3    3  502    0 -0.17106490739E+04  0.16327498888E+03  0.72819335387E+03  0.18663456672E+04  0.12699999809E+01 0.  1.
       -4    1    3    3    0  502  0.17106490739E+04 -0.16327498888E+03  0.14833954751E+04  0.22701195397E+04  0.12699999809E+01 0. -1.
</event>
<event>
 5   0  0.1098171E-07  0.3512298E+04  0.7818609E-02  0.8110882E-01
       -1   -1    0    0    0  501  0.00000000000E+00  0.00000000000E+00  0.12120945242E+04  0.12120945242E+04  0.50400001928E-02 0. -1.
        1   -1    0    0  501    0  0.00000000000E+00  0.00000000000E+00 -0.25444050392E+04  0.25444050392E+04  0.50400001928E-02 0.  1.
    10030    2    1    2    0    0  0.00000000000E+00  0.00000000000E+00 -0.13323105150E+04  0.37564995634E+04  0.35122980599E+04 0.  0.
        4    1    3    3  502    0 -0.60797043835E+03 -0.13544114857E+04  0.33715011152E+03  0.15224093855E+04  0.12699999809E+01 0. -1.
       -4    1    3    3    0  502  0.60797043835E+03  0.13544114857E+04 -0.16694606265E+04  0.22340901779E+04  0.12699999809E+01 0.  1.
</event>
<event>
 5   0  0.1013863E-07  0.3499164E+04  0.7818609E-02  0.8113988E-01
       -1   -1    0    0    0  501  0.00000000000E+00  0.00000000000E+00  0.99489069956E+03  0.99489069957E+03  0.50400001928E-02 0.  1.
        1   -1    0    0  501    0  0.00000000000E+00  0.00000000000E+00 -0.30767574022E+04  0.30767574022E+04  0.50400001928E-02 0. -1.
    10030    2    1    2    0    0  0.00000000000E+00  0.00000000000E+00 -0.20818667026E+04  0.40716481017E+04  0.34991640855E+04 0.  0.
        2    1    3    3  502    0 -0.11758664447E+04  0.10894440432E+04 -0.18566925734E+04  0.24529283584E+04  0.25500000920E-02 0. -1.
       -2    1    3    3    0  502  0.11758664447E+04 -0.10894440432E+04 -0.22517412917E+03  0.16187197434E+04  0.25500000920E-02 0.  1.
</event>
<event>
 5   0  0.1098171E-07  0.3473304E+04  0.7818609E-02  0.8120146E-01
       -1   -1    0    0    0  501  0.00000000000E+00  0.00000000000E+00  0.12510652392E+04  0.12510652392E+04  0.50400001928E-02 0.  1.
        1   -1    0    0  501    0  0.00000000000E+00  0.00000000000E+00 -0.24107140250E+04  0.24107140250E+04  0.50400001928E-02 0. -1.
    10030    2    1    2    0    0  0.00000000000E+00  0.00000000000E+00 -0.11596487858E+04  0.36617792642E+04  0.34733042011E+04 0.  0.
        4    1    3    3  502    0 -0.98375499050E+03 -0.12919806582E+04  0.69187013998E+02  0.16253542255E+04  0.12699999809E+01 0.  1.
       -4    1    3    3    0  502  0.98375499050E+03  0.12919806582E+04 -0.12288357998E+04  0.20364250387E+04  0.12699999809E+01 0. -1.
</event>
<event>
 5   0  0.2180451E-07  0.3572623E+04  0.7818609E-02  0.8096792E-01
       -2   -1    0    0    0  501  0.00000000000E+00  0.00000000000E+00  0.16739174229E+04  0.16739174229E+04  0.25500000920E-02 0. -1.
        2   -1    0    0  501    0  0.00000000000E+00  0.00000000000E+00 -0.19062526750E+04  0.19062526750E+04  0.25500000920E-02 0.  1.
    10030    2    1    2    0    0  0.00000000000E+00  0.00000000000E+00 -0.23233525206E+03  0.35801700979E+04  0.35726234423E+04 0.  0.
        4    1    3    3  502    0  0.66612053145E+02 -0.59833878122E+03 -0.18015232414E+04  0.18994562551E+04  0.12699999809E+01 0.  1.
       -4    1    3    3    0  502 -0.66612053145E+02  0.59833878122E+03  0.15691879893E+04  0.16807138428E+04  0.12699999809E+01 0. -1.
</event>
<event>
 5   0  0.1072381E-07  0.3498462E+04  0.7818609E-02  0.8114154E-01
        1   -1    0    0  501    0  0.00000000000E+00  0.00000000000E+00  0.21883075221E+04  0.21883075221E+04  0.50400001928E-02 0.  1.
       -1   -1    0    0    0  501  0.00000000000E+00  0.00000000000E+00 -0.13982540956E+04  0.13982540956E+04  0.50400001928E-02 0. -1.
    10030    2    1    2    0    0  0.00000000000E+00  0.00000000000E+00  0.79005342650E+03  0.35865616177E+04  0.34984624939E+04 0.  0.
        1    1    3    3  502    0  0.34274472860E+03  0.11723657498E+04 -0.88866134205E+03  0.15105079878E+04  0.50400001928E-02 0. -1.
       -1    1    3    3    0  502 -0.34274472860E+03 -0.11723657498E+04  0.16787147685E+04  0.20760536299E+04  0.50400001928E-02 0.  1.
</event>
<event>
 5   0  0.1013863E-07  0.3533717E+04  0.7818609E-02  0.8105846E-01
        1   -1    0    0  501    0  0.00000000000E+00  0.00000000000E+00  0.20856594778E+04  0.20856594778E+04  0.50400001928E-02 0.  1.
       -1   -1    0    0    0  501  0.00000000000E+00  0.00000000000E+00 -0.14967872073E+04  0.14967872073E+04  0.50400001928E-02 0. -1.
    10030    2    1    2    0    0  0.00000000000E+00  0.00000000000E+00  0.58887227050E+03  0.35824466850E+04  0.35337166978E+04 0.  0.
        5    1    3    3  502    0 -0.86152262827E+03  0.15356335912E+04  0.14621958643E+03  0.17668599330E+04  0.46999998093E+01 0. -1.
       -5    1    3    3    0  502  0.86152262827E+03 -0.15356335912E+04  0.44265268407E+03  0.18155867520E+04  0.46999998093E+01 0.  1.
</event>
<event>
 5   0  0.1033796E-07  0.3504353E+04  0.7818609E-02  0.8112759E-01
       -1   -1    0    0    0  501  0.00000000000E+00  0.00000000000E+00  0.12331687123E+04  0.12331687123E+04  0.50400001928E-02 0.  1.
        1   -1    0    0  501    0  0.00000000000E+00  0.00000000000E+00 -0.24896201867E+04  0.24896201867E+04  0.50400001928E-02 0. -1.
    10030    2    1    2    0    0  0.00000000000E+00  0.00000000000E+00 -0.12564514744E+04  0.37227888990E+04  0.35043525620E+04 0.  0.
        3    1    3    3  502    0 -0.40414671680E+03  0.11918806331E+04 -0.19233169916E+04  0.22984913035E+04  0.10100000352E+00 0. -1.
       -3    1    3    3    0  502  0.40414671680E+03 -0.11918806331E+04  0.66686551716E+03  0.14242975954E+04  0.10100000352E+00 0.  1.
</event>
<event>
 5   0  0.3219205E-07  0.3467658E+04  0.7818609E-02  0.8121498E-01
       -2   -1    0    0    0  501  0.00000000000E+00  0.00000000000E+00  0.12199159604E+04  0.12199159604E+04  0.25500000920E-02 0.  1.
        2   -1    0    0  501    0  0.00000000000E+00  0.00000000000E+00 -0.24642377569E+04  0.24642377569E+04  0.25500000920E-02 0. -1.
    10030    2    1    2    0    0  0.00000000000E+00  0.00000000000E+00 -0.12443217965E+04  0.36841537173E+04  0.34676579819E+04 0.  0.
        2    1    3    3  502    0  0.40709450259E+03  0.15237738108E+04 -0.13872235069E+04  0.21004765218E+04  0.25500000920E-02 0. -1.
       -2    1    3    3    0  502 -0.40709450259E+03 -0.15237738108E+04  0.14290171041E+03  0.15836771955E+04  0.25500000920E-02 0.  1.
</event>
<event>
 5   0  0.3219205E-07  0.3501154E+04  0.7818609E-02  0.8113516E-01
       -2   -1    0    0    0  501  0.00000000000E+00  0.00000000000E+00  0.11645709074E+04  0.11645709074E+04  0.25500000920E-02 0.  1.
        2   -1    0    0  501    0  0.00000000000E+00  0.00000000000E+00 -0.26314588998E+04  0.26314588998E+04  0.25500000920E-02 0. -1.
    10030    2    1    2    0    0  0.00000000000E+00  0.00000000000E+00 -0.14668879924E+04  0.37960298072E+04  0.35011543689E+04 0.  0.
        2    1    3    3  502    0 -0.45274375626E+03 -0.14658817669E+04 -0.16474982328E+04  0.22512300395E+04  0.25500000920E-02 0. -1.
       -2    1    3    3    0  502  0.45274375626E+03  0.14658817669E+04  0.18061024037E+03  0.15447997677E+04  0.25500000920E-02 0.  1.
</event>
<event>
 5   0  0.2180451E-07  0.3492160E+04  0.7818609E-02  0.8115650E-01
        2   -1    0    0  501    0  0.00000000000E+00  0.00000000000E+00  0.18544183742E+04  0.18544183742E+04  0.25500000920E-02 0.  1.
       -2   -1    0    0    0  501  0.00000000000E+00  0.00000000000E+00 -0.16440707266E+04  0.16440707266E+04  0.25500000920E-02 0. -1.
    10030    2    1    2    0    0  0.00000000000E+00  0.00000000000E+00  0.21034764759E+03  0.34984891007E+04  0.34921597694E+04 0.  0.
        4    1    3    3  502    0 -0.64903122129E+03  0.10548389807E+04  0.13382037246E+04  0.18233808222E+04  0.12699999809E+01 0.  1.
       -4    1    3    3    0  502  0.64903122129E+03 -0.10548389807E+04 -0.11278560770E+04  0.16751082785E+04  0.12699999809E+01 0. -1.
</event>
<event>
 5   0  0.1013863E-07  0.3745294E+04  0.7818609E-02  0.8057998E-01
        1   -1    0    0  501    0  0.00000000000E+00  0.00000000000E+00  0.11150464932E+04  0.11150464932E+04  0.50400001928E-02 0.  1.
       -1   -1    0    0    0  501  0.00000000000E+00  0.00000000000E+00 -0.31449870324E+04  0.31449870324E+04  0.50400001928E-02 0. -1.
    10030    2    1    2    0    0  0.00000000000E+00  0.00000000000E+00 -0.20299405392E+04  0.42600335256E+04  0.37452939866E+04 0.  0.
        5    1    3    3  502    0  0.13814874788E+04 -0.74552092165E+03 -0.21763120416E+04  0.26834055398E+04  0.46999998093E+01 0. -1.
       -5    1    3    3    0  502 -0.13814874788E+04  0.74552092165E+03  0.14637150237E+03  0.15766279857E+04  0.46999998093E+01 0.  1.
</event>
<event>
 5   0  0.1072381E-07  0.3502254E+04  0.7818609E-02  0.8113256E-01
       -1   -1    0    0    0  501  0.00000000000E+00  0.00000000000E+00  0.26931887399E+04  0.26931887400E+04  0.50400001928E-02 0. -1.
        1   -1    0    0  501    0  0.00000000000E+00  0.00000000000E+00 -0.11385932539E+04  0.11385932539E+04  0.50400001928E-02 0.  1.
    10030    2    1    2    0    0  0.00000000000E+00  0.00000000000E+00  0.15545954861E+04  0.38317819938E+04  0.35022544343E+04 0.  0.
        1    1    3    3  502    0  0.87205283413E+03 -0.10985843181E+03 -0.87977083481E+03  0.12436003146E+04  0.50400001928E-02 0.  1.
       -1    1    3    3    0  502 -0.87205283413E+03  0.10985843181E+03  0.24343663209E+04  0.25881816793E+04  0.50400001928E-02 0. -1.
</event>
<event>
 5   0  0.1013863E-07  0.3497195E+04  0.7818609E-02  0.8114455E-01
       -1   -1    0    0    0  501  0.00000000000E+00  0.00000000000E+00  0.10666926448E+04  0.10666926448E+04  0.50400001928E-02 0. -1.
        1   -1    0    0  501    0  0.00000000000E+00  0.00000000000E+00 -0.28664234860E+04  0.28664234860E+04  0.50400001928E-02 0.  1.
    10030    2    1    2    0    0  0.00000000000E+00  0.00000000000E+00 -0.17997308412E+04  0.39331161309E+04  0.34971947898E+04 0.  0.
        2    1    3    3  502    0  0.31245254896E+03  0.43274064255E+03  0.97283595064E+03  0.11096399623E+04  0.25500000920E-02 0. -1.
       -2    1    3    3    0  502 -0.31245254896E+03 -0.43274064255E+03 -0.27725667919E+04  0.28234761686E+04  0.25500000920E-02 0.  1.
</event>
<event>
 5   0  0.3190112E-07  0.3503026E+04  0.7818609E-02  0.8113073E-01
       -2   -1    0    0    0  501  0.00000000000E+00  0.00000000000E+00  0.10896784979E+04  0.10896784979E+04  0.25500000920E-02 0. -1.
        2   -1    0    0  501    0  0.00000000000E+00  0.00000000000E+00 -0.28153242869E+04  0.28153242869E+04  0.25500000920E-02 0.  1.
    10030    2    1    2    0    0  0.00000000000E+00  0.00000000000E+00 -0.17256457890E+04  0.39050027848E+04  0.35030263144E+04 0.  0.
        5    1    3    3  502    0 -0.95329206034E+03  0.69053616737E+03  0.58299277933E+03  0.13135861683E+04  0.46999998093E+01 0. -1.
       -5    1    3    3    0  502  0.95329206034E+03 -0.69053616737E+03 -0.23086385684E+04  0.25914166165E+04  0.46999998093E+01 0.  1.
</event>
<event>
 5   0  0.1033796E-07  0.3492944E+04  0.7818609E-02  0.8115464E-01
       -1   -1    0    0    0  501  0.00000000000E+00  0.00000000000E+00  0.15888695818E+04  0.15888695818E+04  0.50400001928E-02 0.  1.
        1   -1    0    0  501    0  0.00000000000E+00  0.00000000000E+00 -0.19197068679E+04  0.19197068679E+04  0.50400001928E-02 0. -1.
    10030    2    1    2    0    0  0.00000000000E+00  0.00000000000E+00 -0.33083728607E+03  0.35085764497E+04  0.34929436574E+04 0.  0.
        3    1    3    3  502    0 -0.15390142294E+03 -0.29038364892E+03  0.15575293830E+04  0.15918247708E+04  0.10100000352E+00 0.  1.
       -3    1    3    3    0  502  0.15390142294E+03  0.29038364892E+03 -0.18883666691E+04  0.19167516789E+04  0.10100000352E+00 0. -1.
</event>
<event>
 5   0  0.1013863E-07  0.3461766E+04  0.7818609E-02  0.8122911E-01
        1   -1    0    0  501    0  0.00000000000E+00  0.00000000000E+00  0.15175374399E+04  0.15175374399E+04  0.50400001928E-02 0. -1.
       -1   -1    0    0    0  501  0.00000000000E+00  0.00000000000E+00 -0.19742224991E+04  0.19742224991E+04  0.50400001928E-02 0.  1.
    10030    2    1    2    0    0  0.00000000000E+00  0.00000000000E+00 -0.45668505912E+03  0.34917599390E+04  0.34617663452E+04 0.  0.
        2    1    3    3  502    0  0.81345976622E+03 -0.93646257509E+03  0.98929429240E+03  0.15866260249E+04  0.25500000920E-02 0. -1.
       -2    1    3    3    0  502 -0.81345976622E+03  0.93646257509E+03 -0.14459793515E+04  0.19051339141E+04  0.25500000920E-02 0.  1.
</event>
<event>
 5   0  0.3119048E-07  0.3478251E+04  0.7818609E-02  0.8118964E-01
        2   -1    0    0  501    0  0.00000000000E+00  0.00000000000E+00  0.25775752444E+04  0.25775752444E+04  0.25500000920E-02 0.  1.
       -2   -1    0    0    0  501  0.00000000000E+00  0.00000000000E+00 -0.11734120660E+04  0.11734120660E+04  0.25500000920E-02 0. -1.
    10030    2    1    2    0    0  0.00000000000E+00  0.00000000000E+00  0.14041631784E+04  0.37509873104E+04  0.34782512231E+04 0.  0.
        3    1    3    3  502    0 -0.13007339910E+03  0.14334250614E+04  0.17548078680E+04  0.22695764273E+04  0.10100000352E+00 0.  1.
       -3    1    3    3    0  502  0.13007339910E+03 -0.14334250614E+04 -0.35064468958E+03  0.14814108831E+04  0.10100000352E+00 0. -1.
</event>
<event>
 5   0  0.1033796E-07  0.3495363E+04  0.7818609E-02  0.8114890E-01
        1   -1    0    0  501    0  0.00000000000E+00  0.00000000000E+00  0.18734271338E+04  0.18734271338E+04  0.50400001928E-02 0. -1.
       -1   -1    0    0    0  501  0.00000000000E+00  0.00000000000E+00 -0.16303755494E+04  0.16303755494E+04  0.50400001928E-02 0.  1.
    10030    2    1    2    0    0  0.00000000000E+00  0.00000000000E+00  0.24305158438E+03  0.35038026832E+04  0.34953625234E+04 0.  0.
        3    1    3    3  502    0  0.16935837511E+04  0.15097399804E+03  0.52669321287E+03  0.17800069721E+04  0.10100000352E+00 0. -1.
       -3    1    3    3    0  502 -0.16935837511E+04 -0.15097399804E+03 -0.28364162848E+03  0.17237957111E+04  0.10100000352E+00 0.  1.
</event>
<event>
 5   0  0.1033796E-07  0.3497602E+04  0.7818609E-02  0.8114358E-01
       -1   -1    0    0    0  501  0.00000000000E+00  0.00000000000E+00  0.17090149909E+04  0.17090149909E+04  0.50400001928E-02 0. -1.
        1   -1    0    0  501    0  0.00000000000E+00  0.00000000000E+00 -0.17895132543E+04  0.17895132543E+04  0.50400001928E-02 0.  1.
    10030    2    1    2    0    0  0.00000000000E+00  0.00000000000E+00 -0.80498263310E+02  0.34985282452E+04  0.34976020231E+04 0.  0.
        3    1    3    3  502    0 -0.40109360103E+03  0.15240799260E+04 -0.79847973141E+03  0.17667103863E+04  0.10100000352E+00 0.  1.
       -3    1    3    3    0  502  0.40109360103E+03 -0.15240799260E+04  0.71798146810E+03  0.17318178589E+04  0.10100000352E+00 0. -1.
</event>
<event>
 5   0  0.1072381E-07  0.3492068E+04  0.7818609E-02  0.8115672E-01
        1   -1    0    0  501    0  0.00000000000E+00  0.00000000000E+00  0.25909763741E+04  0.25909763741E+04  0.50400001928E-02 0. -1.
       -1   -1    0    0    0  501  0.00000000000E+00  0.00000000000E+00 -0.11766351934E+04  0.11766351934E+04  0.50400001928E-02 0.  1.
    10030    2    1    2    0    0  0.00000000000E+00  0.00000000000E+00  0.14143411807E+04  0.37676115676E+04  0.34920675751E+04 0.  0.
        1    1    3    3  502    0  0.88824111356E+03 -0.13136016271E+04 -0.81326044194E+02  0.15878083751E+04  0.50400001928E-02 0.  1.
       -1    1    3    3    0  502 -0.88824111356E+03  0.13136016271E+04  0.14956672249E+04  0.21798031925E+04  0.50400001928E-02 0. -1.
</event>
<event>
 5   0  0.3190112E-07  0.3505687E+04  0.7818609E-02  0.8112443E-01
       -2   -1    0    0    0  501  0.00000000000E+00  0.00000000000E+00  0.11911204022E+04  0.11911204022E+04  0.25500000920E-02 0. -1.
        2   -1    0    0  501    0  0.00000000000E+00  0.00000000000E+00 -0.25794713446E+04  0.25794713446E+04  0.25500000920E-02 0.  1.
    10030    2    1    2    0    0  0.00000000000E+00  0.00000000000E+00 -0.13883509424E+04  0.37705917468E+04  0.35056873480E+04 0.  0.
        5    1    3    3  502    0 -0.17917859289E+02 -0.14049433651E+04  0.43298908062E+03  0.14702681873E+04  0.46999998093E+01 0. -1.
       -5    1    3    3    0  502  0.17917859289E+02  0.14049433651E+04 -0.18213400231E+04  0.23003235595E+04  0.46999998093E+01 0.  1.
</event>
<event>
 5   0  0.1013863E-07  0.3499021E+04  0.7818609E-02  0.8114022E-01
       -1   -1    0    0    0  501  0.00000000000E+00  0.00000000000E+00  0.15523542293E+04  0.15523542293E+04  0.50400001928E-02 0. -1.
        1   -1    0    0  501    0  0.00000000000E+00  0.00000000000E+00 -0.19717060038E+04  0.19717060038E+04  0.50400001928E-02 0.  1.
    10030    2    1    2    0    0  0.00000000000E+00  0.00000000000E+00 -0.41935177444E+03  0.35240602331E+04  0.34990205224E+04 0.  0.
        2    1    3    3  502    0 -0.11386226509E+04  0.66060893795E+03 -0.13702766765E+04  0.19001378583E+04  0.25500000920E-02 0.  1.
       -2    1    3    3    0  502  0.11386226509E+04 -0.66060893795E+03  0.95092490210E+03  0.16239223749E+04  0.25500000920E-02 0. -1.
</event>
<event>
 5   0  0.1013863E-07  0.3515282E+04  0.7818609E-02  0.8110178E-01
       -1   -1    0    0    0  501  0.00000000000E+00  0.00000000000E+00  0.13509730845E+04  0.13509730846E+04  0.50400001928E-02 0.  1.
        1   -1    0    0  501    0  0.00000000000E+00  0.00000000000E+00 -0.22867239401E+04  0.22867239401E+04  0.50400001928E-02 0. -1.
    10030    2    1    2    0    0  0.00000000000E+00  0.00000000000E+00 -0.93575085557E+03  0.36376970247E+04  0.35152823471E+04 0.  0.
        2    1    3    3  502    0 -0.13841008634E+04 -0.56739648220E+03  0.48709827345E+03  0.15731937885E+04  0.25500000920E-02 0. -1.
       -2    1    3    3    0  502  0.13841008634E+04  0.56739648220E+03 -0.14228491290E+04  0.20645032362E+04  0.25500000920E-02 0.  1.
</event>
<event>
 5   0  0.3119048E-07  0.3255606E+04  0.7818609E-02  0.8174284E-01
       -2   -1    0    0    0  501  0.00000000000E+00  0.00000000000E+00  0.14745109167E+04  0.14745109167E+04  0.25500000920E-02 0. -1.
        2   -1    0    0  501    0  0.00000000000E+00  0.00000000000E+00 -0.17970313771E+04  0.17970313771E+04  0.25500000920E-02 0.  1.
    10030    2    1    2    0    0  0.00000000000E+00  0.00000000000E+00 -0.32252046035E+03  0.32715422938E+04  0.32556058626E+04 0.  0.
        3    1    3    3  502    0 -0.87609990163E+03 -0.21244223396E+03 -0.15232766533E+04  0.17700436472E+04  0.10100000352E+00 0.  1.
       -3    1    3    3    0  502  0.87609990163E+03  0.21244223396E+03  0.12007561930E+04  0.15014986465E+04  0.10100000352E+00 0. -1.
</event>
<event>
 5   0  0.2180451E-07  0.3516591E+04  0.7818609E-02  0.8109869E-01
       -2   -1    0    0    0  501  0.00000000000E+00  0.00000000000E+00  0.17330311775E+04  0.17330311775E+04  0.25500000920E-02 0. -1.
        2   -1    0    0  501    0  0.00000000000E+00  0.00000000000E+00 -0.17839279818E+04  0.17839279818E+04  0.25500000920E-02 0.  1.
    10030    2    1    2    0    0  0.00000000000E+00  0.00000000000E+00 -0.50896804347E+02  0.35169591593E+04  0.35165908553E+04 0.  0.
        4    1    3    3  502    0 -0.10138119905E+04  0.13306387123E+04 -0.56697262085E+03  0.17663164213E+04  0.12699999809E+01 0.  1.
       -4    1    3    3    0  502  0.10138119905E+04 -0.13306387123E+04  0.51607581650E+03  0.17506427379E+04  0.12699999809E+01 0. -1.
</event>
<event>
 5   0  0.2180451E-07  0.3514342E+04  0.7818609E-02  0.8110399E-01
       -2   -1    0    0    0  501  0.00000000000E+00  0.00000000000E+00  0.14680998489E+04  0.14680998489E+04  0.25500000920E-02 0. -1.
        2   -1    0    0  501    0  0.00000000000E+00  0.00000000000E+00 -0.21031612200E+04  0.21031612200E+04  0.25500000920E-02 0.  1.
    10030    2    1    2    0    0  0.00000000000E+00  0.00000000000E+00 -0.63506137110E+03  0.35712610689E+04  0.35143424245E+04 0.  0.
        4    1    3    3  502    0 -0.11853931196E+04  0.92504333639E+03  0.60647438162E+03  0.16213188491E+04  0.12699999809E+01 0. -1.
       -4    1    3    3    0  502  0.11853931196E+04 -0.92504333639E+03 -0.12415357527E+04  0.19499422197E+04  0.12699999809E+01 0.  1.
</event>
<event>
 5   0  0.1013863E-07  0.3459889E+04  0.7818609E-02  0.8123362E-01
       -1   -1    0    0    0  501  0.00000000000E+00  0.00000000000E+00  0.22881856038E+04  0.22881856038E+04  0.50400001928E-02 0. -1.
        1   -1    0    0  501    0  0.00000000000E+00  0.00000000000E+00 -0.13078953976E+04  0.13078953976E+04  0.50400001928E-02 0.  1.
    10030    2    1    2    0    0  0.00000000000E+00  0.00000000000E+00  0.98029020616E+03  0.35960810014E+04  0.34598886803E+04 0.  0.
        5    1    3    3  502    0  0.12188665078E+04 -0.54115710841E+03  0.16354265635E+04  0.21102437571E+04  0.46999998093E+01 0. -1.
       -5    1    3    3    0  502 -0.12188665078E+04  0.54115710841E+03 -0.65513635736E+03  0.14858372443E+04  0.46999998093E+01 0.  1.
</event>
<event>
 5   0  0.1033796E-07  0.3478937E+04  0.7818609E-02  0.8118800E-01
        1   -1    0    0  501    0  0.00000000000E+00  0.00000000000E+00  0.17379429441E+04  0.17379429441E+04  0.50400001928E-02 0. -1.
       -1   -1    0    0    0  501  0.00000000000E+00  0.00000000000E+00 -0.17409951999E+04  0.17409951999E+04  0.50400001928E-02 0.  1.
    10030    2    1    2    0    0  0.00000000000E+00  0.00000000000E+00 -0.30522557532E+01  0.34789381440E+04  0.34789368050E+04 0.  0.
        3    1    3    3  502    0 -0.84503624492E+03 -0.68727756302E+02 -0.15203883103E+04  0.17408016498E+04  0.10100000352E+00 0.  1.
       -3    1    3    3    0  502  0.84503624492E+03  0.68727756302E+02  0.15173360545E+04  0.17381364942E+04  0.10100000352E+00 0. -1.
</event>
<event>
 5   0  0.2180451E-07  0.3487940E+04  0.7818609E-02  0.8116654E-01
        2   -1    0    0  501    0  0.00000000000E+00  0.00000000000E+00  0.16651511505E+04  0.16651511505E+04  0.25500000920E-02 0. -1.
       -2   -1    0    0    0  501  0.00000000000E+00  0.00000000000E+00 -0.18265192002E+04  0.18265192002E+04  0.25500000920E-02 0.  1.
    10030    2    1    2    0    0  0.00000000000E+00  0.00000000000E+00 -0.16136804974E+03  0.34916703507E+04  0.34879395337E+04 0.  0.
        4    1    3    3  502    0  0.85931989560E+03 -0.12954399297E+04 -0.87199372478E+03  0.17824056675E+04  0.12699999809E+01 0.  1.
       -4    1    3    3    0  502 -0.85931989560E+03  0.12954399297E+04  0.71062567504E+03  0.17092646833E+04  0.12699999809E+01 0. -1.
</event>
<event>
 5   0  0.3190112E-07  0.3512436E+04  0.7818609E-02  0.8110849E-01
       -2   -1    0    0    0  501  0.00000000000E+00  0.00000000000E+00  0.14968023743E+04  0.14968023743E+04  0.25500000920E-02 0.  1.
        2   -1    0    0  501    0  0.00000000000E+00  0.00000000000E+00 -0.20605941931E+04  0.20605941931E+04  0.25500000920E-02 0. -1.
    10030    2    1    2    0    0  0.00000000000E+00  0.00000000000E+00 -0.56379181876E+03  0.35573965674E+04  0.35124363514E+04 0.  0.
        5    1    3    3  502    0 -0.10907605677E+04 -0.97250165575E+02 -0.16724467308E+04  0.19990788800E+04  0.46999998093E+01 0.  1.
       -5    1    3    3    0  502  0.10907605677E+04  0.97250165575E+02  0.11086549121E+04  0.15583176874E+04  0.46999998093E+01 0. -1.
</event>
<event>
 5   0  0.1013863E-07  0.3509485E+04  0.7818609E-02  0.8111546E-01
        1   -1    0    0  501    0  0.00000000000E+00  0.00000000000E+00  0.23624841854E+04  0.23624841854E+04  0.50400001928E-02 0.  1.
       -1   -1    0    0    0  501  0.00000000000E+00  0.00000000000E+00 -0.13033404294E+04  0.13033404294E+04  0.50400001928E-02 0. -1.
    10030    2    1    2    0    0  0.00000000000E+00  0.00000000000E+00  0.10591437560E+04  0.36658246148E+04  0.35094849495E+04 0.  0.
        5    1    3    3  502    0 -0.48897324352E+03 -0.16281974443E+04  0.75491084784E+02  0.17017175866E+04  0.46999998093E+01 0. -1.
       -5    1    3    3    0  502  0.48897324352E+03  0.16281974443E+04  0.98365267121E+03  0.19641070282E+04  0.46999998093E+01 0.  1.
</event>
<event>
 5   0  0.1072381E-07  0.3501871E+04  0.7818609E-02  0.8113347E-01
        1   -1    0    0  501    0  0.00000000000E+00  0.00000000000E+00  0.15693386126E+04  0.15693386126E+04  0.50400001928E-02 0.  1.
       -1   -1    0    0    0  501  0.00000000000E+00  0.00000000000E+00 -0.19535459539E+04  0.19535459539E+04  0.50400001928E-02 0. -1.
    10030    2    1    2    0    0  0.00000000000E+00  0.00000000000E+00 -0.38420734134E+03  0.35228845665E+04  0.35018709839E+04 0.  0.
        1    1    3    3  502    0 -0.54127144078E+03 -0.14747724951E+04 -0.96994870729E+03  0.18462744053E+04  0.50400001928E-02 0. -1.
       -1    1    3    3    0  502  0.54127144078E+03  0.14747724951E+04  0.58574136594E+03  0.16766101612E+04  0.50400001928E-02 0.  1.
</event>
<event>
 5   0  0.3219205E-07  0.3499500E+04  0.7818609E-02  0.8113909E-01
        2   -1    0    0  501    0  0.00000000000E+00  0.00000000000E+00  0.14756797949E+04  0.14756797949E+04  0.25500000920E-02 0.  1.
       -2   -1    0    0    0  501  0.00000000000E+00  0.00000000000E+00 -0.20747212554E+04  0.20747212554E+04  0.25500000920E-02 0. -1.
    10030    2    1    2    0    0  0.00000000000E+00  0.00000000000E+00 -0.59904146054E+03  0.35504010502E+04  0.34994995280E+04 0.  0.
        2    1    3    3  502    0 -0.34143667557E+02  0.64129597782E+03 -0.19508309793E+04  0.20538178670E+04  0.25500000920E-02 0. -1.
       -2    1    3    3    0  502  0.34143667557E+02 -0.64129597782E+03  0.13517895188E+04  0.14965831832E+04  0.25500000920E-02 0.  1.
</event>
<event>
 5   0  0.3119048E-07  0.3493547E+04  0.7818609E-02  0.8115321E-01
        2   -1    0    0  501    0  0.00000000000E+00  0.00000000000E+00  0.18425273760E+04  0.18425273760E+04  0.25500000920E-02 0.  1.
       -2   -1    0    0    0  501  0.00000000000E+00  0.00000000000E+00 -0.16559954115E+04  0.16559954115E+04  0.25500000920E-02 0. -1.
    10030    2    1    2    0    0  0.00000000000E+00  0.00000000000E+00  0.18653196444E+03  0.34985227875E+04  0.34935465534E+04 0.  0.
        3    1    3    3  502    0 -0.81754599286E+03 -0.86875059732E+03  0.13710567713E+04  0.18173898126E+04  0.10100000352E+00 0.  1.
       -3    1    3    3    0  502  0.81754599286E+03  0.86875059732E+03 -0.11845248069E+04  0.16811329748E+04  0.10100000352E+00 0. -1.
</event>
<event>
 5   0  0.2180451E-07  0.3508501E+04  0.7818609E-02  0.8111778E-01
       -2   -1    0    0    0  501  0.00000000000E+00  0.00000000000E+00  0.12944673513E+04  0.12944673513E+04  0.25500000920E-02 0. -1.
        2   -1    0    0  501    0  0.00000000000E+00  0.00000000000E+00 -0.23773439241E+04  0.23773439241E+04  0.25500000920E-02 0.  1.
    10030    2    1    2    0    0  0.00000000000E+00  0.00000000000E+00 -0.10828765728E+04  0.36718112753E+04  0.35085005871E+04 0.  0.
        4    1    3    3  502    0  0.14126790597E+04 -0.70712278015E+03 -0.13396373504E+04  0.20713074604E+04  0.12699999809E+01 0.  1.
       -4    1    3    3    0  502 -0.14126790597E+04  0.70712278015E+03  0.25676077754E+03  0.16005038150E+04  0.12699999809E+01 0. -1.
</event>
<event>
 5   0  0.2180451E-07  0.3512450E+04  0.7818609E-02  0.8110846E-01
       -2   -1    0    0    0  501  0.00000000000E+00  0.00000000000E+00  0.32750557280E+04  0.32750557280E+04  0.25500000920E-02 0.  1.
        2   -1    0    0  501    0  0.00000000000E+00  0.00000000000E+00 -0.94176302723E+03  0.94176302724E+03  0.25500000920E-02 0. -1.
    10030    2    1    2    0    0  0.00000000000E+00  0.00000000000E+00  0.23332927008E+04  0.42168187553E+04  0.35124500832E+04 0.  0.
        4    1    3    3  502    0 -0.13805132218E+04  0.36518989623E+03  0.23939807765E+04  0.27875304459E+04  0.12699999809E+01 0.  1.
       -4    1    3    3    0  502  0.13805132218E+04 -0.36518989623E+03 -0.60688075681E+02  0.14292883094E+04  0.12699999809E+01 0. -1.
</event>
<event>
 5   0  0.3190112E-07  0.3484344E+04  0.7818609E-02  0.8117510E-01
       -2   -1    0    0    0  501  0.00000000000E+00  0.00000000000E+00  0.23414896435E+04  0.23414896435E+04  0.25500000920E-02 0.  1.
        2   -1    0    0  501    0  0.00000000000E+00  0.00000000000E+00 -0.12962532160E+04  0.12962532160E+04  0.25500000920E-02 0. -1.
    10030    2    1    2    0    0  0.00000000000E+00  0.00000000000E+00  0.10452364275E+04  0.36377428595E+04  0.34843441166E+04 0.  0.
        5    1    3    3  502    0 -0.92844261553E+03 -0.12873177514E+04 -0.22730055223E+03  0.16033964932E+04  0.46999998093E+01 0. -1.
       -5    1    3    3    0  502  0.92844261553E+03  0.12873177514E+04  0.12725369797E+04  0.20343463663E+04  0.46999998093E+01 0.  1.
</event>
<event>
 5   0  0.3119048E-07  0.3502632E+04  0.7818609E-02  0.8113166E-01
        2   -1    0    0  501    0  0.00000000000E+00  0.00000000000E+00  0.27148518549E+04  0.27148518549E+04  0.25500000920E-02 0.  1.
       -2   -1    0    0    0  501  0.00000000000E+00  0.00000000000E+00 -0.11297517246E+04  0.11297517246E+04  0.25500000920E-02 0. -1.
    10030    2    1    2    0    0  0.00000000000E+00  0.00000000000E+00  0.15851001303E+04  0.38446035795E+04  0.35026324758E+04 0.  0.
        3    1    3    3  502    0  0.88080634260E+03  0.11988327880E+04  0.18069482908E+04  0.23405302824E+04  0.10100000352E+00 0.  1.
       -3    1    3    3    0  502 -0.88080634260E+03 -0.11988327880E+04 -0.22184816052E+03  0.15040732972E+04  0.10100000352E+00 0. -1.
</event>
<event>
 5   0  0.1013863E-07  0.3510522E+04  0.7818609E-02  0.8111301E-01
       -1   -1    0    0    0  501  0.00000000000E+00  0.00000000000E+00  0.15441856023E+04  0.15441856023E+04  0.50400001928E-02 0. -1.
        1   -1    0    0  501    0  0.00000000000E+00  0.00000000000E+00 -0.19951883928E+04  0.19951883928E+04  0.50400001928E-02 0.  1.
    10030    2    1    2    0    0  0.00000000000E+00  0.00000000000E+00 -0.45100279051E+03  0.35393739951E+04  0.35105220067E+04 0.  0.
        2    1    3    3  502    0  0.44352488909E+03  0.91145455728E+03 -0.16702747551E+04  0.19537864507E+04  0.25500000920E-02 0.  1.
       -2    1    3    3    0  502 -0.44352488909E+03 -0.91145455728E+03  0.12192719646E+04  0.15855875444E+04  0.25500000920E-02 0. -1.
</event>
<event>
 5   0  0.3190112E-07  0.3494191E+04  0.7818609E-02  0.8115168E-01
        2   -1    0    0  501    0  0.00000000000E+00  0.00000000000E+00  0.22180668510E+04  0.22180668510E+04  0.25500000920E-02 0.  1.
       -2   -1    0    0    0  501  0.00000000000E+00  0.00000000000E+00 -0.13761276273E+04  0.13761276273E+04  0.25500000920E-02 0. -1.
    10030    2    1    2    0    0  0.00000000000E+00  0.00000000000E+00  0.84193922371E+03  0.35941944783E+04  0.34941912214E+04 0.  0.
        5    1    3    3  502    0  0.20482844075E+03  0.43963697482E+02 -0.13631547004E+04  0.13791665324E+04  0.46999998093E+01 0. -1.
       -5    1    3    3    0  502 -0.20482844075E+03 -0.43963697482E+02  0.22050939241E+04  0.22150279459E+04  0.46999998093E+01 0.  1.
</event>
<event>
 5   0  0.1013863E-07  0.3510619E+04  0.7818609E-02  0.8111278E-01
       -1   -1    0    0    0  501  0.00000000000E+00  0.00000000000E+00  0.18811161403E+04  0.18811161403E+04  0.50400001928E-02 0.  1.
        1   -1    0    0  501    0  0.00000000000E+00  0.00000000000E+00 -0.16379162057E+04  0.16379162057E+04  0.50400001928E-02 0. -1.
    10030    2    1    2    0    0  0.00000000000E+00  0.00000000000E+00  0.24319993459E+03  0.35190323460E+04  0.35106185272E+04 0.  0.
        5    1    3    3  502    0 -0.94636091936E+03 -0.53050990116E+03 -0.12615798810E+04  0.16639247673E+04  0.46999998093E+01 0. -1.
       -5    1    3    3    0  502  0.94636091936E+03  0.53050990116E+03  0.15047798156E+04  0.18551075787E+04  0.46999998093E+01 0.  1.
</event>
<event>
 5   0  0.1033796E-07  0.3494142E+04  0.7818609E-02  0.8115180E-01
        1   -1    0    0  501    0  0.00000000000E+00  0.00000000000E+00  0.15621534822E+04  0.15621534822E+04  0.50400001928E-02 0.  1.
       -1   -1    0    0    0  501  0.00000000000E+00  0.00000000000E+00 -0.19538777562E+04  0.19538777562E+04  0.50400001928E-02 0. -1.
    10030    2    1    2    0    0  0.00000000000E+00  0.00000000000E+00 -0.39172427405E+03  0.35160312384E+04  0.34941419208E+04 0.  0.
        3    1    3    3  502    0  0.14133337847E+04 -0.71848644989E+03 -0.93429975803E+03  0.18402856337E+04  0.10100000352E+00 0. -1.
       -3    1    3    3    0  502 -0.14133337847E+04  0.71848644989E+03  0.54257548398E+03  0.16757456047E+04  0.10100000352E+00 0.  1.
</event>
<event>
 5   0  0.1013863E-07  0.3507151E+04  0.7818609E-02  0.8112097E-01
       -1   -1    0    0    0  501  0.00000000000E+00  0.00000000000E+00  0.23367464355E+04  0.23367464355E+04  0.50400001928E-02 0.  1.
        1   -1    0    0  501    0  0.00000000000E+00  0.00000000000E+00 -0.13159435635E+04  0.13159435635E+04  0.50400001928E-02 0. -1.
    10030    2    1    2    0    0  0.00000000000E+00  0.00000000000E+00  0.10208028720E+04  0.36526899991E+04  0.35071506563E+04 0.  0.
        5    1    3    3  502    0  0.42202648714E+03 -0.10020829538E+04  0.19432571729E+04  0.22267795428E+04  0.46999998093E+01 0.  1.
       -5    1    3    3    0  502 -0.42202648714E+03  0.10020829538E+04 -0.92245430088E+03  0.14259104563E+04  0.46999998093E+01 0. -1.
</event>
<event>
 5   0  0.1098171E-07  0.3503700E+04  0.7818609E-02  0.8112914E-01
       -1   -1    0    0    0  501  0.00000000000E+00  0.00000000000E+00  0.19256685596E+04  0.19256685596E+04  0.50400001928E-02 0. -1.
        1   -1    0    0  501    0  0.00000000000E+00  0.00000000000E+00 -0.15937213311E+04  0.15937213312E+04  0.50400001928E-02 0.  1.
    10030    2    1    2    0    0  0.00000000000E+00  0.00000000000E+00  0.33194722845E+03  0.35193898907E+04  0.35037003640E+04 0.  0.
        4    1    3    3  502    0 -0.11007180658E+04 -0.10449245450E+03  0.15309104464E+04  0.18884351567E+04  0.12699999809E+01 0. -1.
       -4    1    3    3    0  502  0.11007180658E+04  0.10449245450E+03 -0.11989632179E+04  0.16309547340E+04  0.12699999809E+01 0.  1.
</event>
<event>
 5   0  0.3190185E-07  0.3547103E+04  0.7818609E-02  0.8102717E-01
       -2   -1    0    0    0  501  0.00000000000E+00  0.00000000000E+00  0.16293528795E+04  0.16293528795E+04  0.25500000920E-02 0. -1.
        2   -1    0    0  501    0  0.00000000000E+00  0.00000000000E+00 -0.19305117912E+04  0.19305117912E+04  0.25500000920E-02 0.  1.
    10030    2    1    2    0    0  0.00000000000E+00  0.00000000000E+00 -0.30115891175E+03  0.35598646707E+04  0.35471030128E+04 0.  0.
        1    1    3    3  502    0  0.80715836940E+03  0.15677580733E+04 -0.34130247478E+03  0.17960672006E+04  0.50400001928E-02 0. -1.
       -1    1    3    3    0  502 -0.80715836940E+03 -0.15677580733E+04  0.40143563038E+02  0.17637974701E+04  0.50400001928E-02 0.  1.
</event>
<event>
 5   0  0.3190112E-07  0.3504978E+04  0.7818609E-02  0.8112611E-01
        2   -1    0    0  501    0  0.00000000000E+00  0.00000000000E+00  0.20975980801E+04  0.20975980801E+04  0.25500000920E-02 0. -1.
       -2   -1    0    0    0  501  0.00000000000E+00  0.00000000000E+00 -0.14641592459E+04  0.14641592459E+04  0.25500000920E-02 0.  1.
    10030    2    1    2    0    0  0.00000000000E+00  0.00000000000E+00  0.63343883426E+03  0.35617573260E+04  0.35049779589E+04 0.  0.
        5    1    3    3  502    0 -0.77858841647E+03  0.29560636256E+03 -0.12502104969E+04  0.15022088471E+04  0.46999998093E+01 0.  1.
       -5    1    3    3    0  502  0.77858841647E+03 -0.29560636256E+03  0.18836493312E+04  0.20595484788E+04  0.46999998093E+01 0. -1.
</event>
<event>
 5   0  0.1098171E-07  0.3495870E+04  0.7818609E-02  0.8114769E-01
        1   -1    0    0  501    0  0.00000000000E+00  0.00000000000E+00  0.23781827806E+04  0.23781827806E+04  0.50400001928E-02 0.  1.
       -1   -1    0    0    0  501  0.00000000000E+00  0.00000000000E+00 -0.12847109272E+04  0.12847109272E+04  0.50400001928E-02 0. -1.
    10030    2    1    2    0    0  0.00000000000E+00  0.00000000000E+00  0.10934718534E+04  0.36628937077E+04  0.34958703666E+04 0.  0.
        4    1    3    3  502    0  0.16928958663E+04  0.31794521308E+03  0.85806902556E+03  0.19243881205E+04  0.12699999809E+01 0.  1.
       -4    1    3    3    0  502 -0.16928958663E+04 -0.31794521308E+03  0.23540282783E+03  0.17385055873E+04  0.12699999809E+01 0. -1.
</event>
<event>
 5   0  0.3219205E-07  0.3490072E+04  0.7818609E-02  0.8116147E-01
       -2   -1    0    0    0  501  0.00000000000E+00  0.00000000000E+00  0.19615627064E+04  0.19615627064E+04  0.25500000920E-02 0. -1.
        2   -1    0    0  501    0  0.00000000000E+00  0.00000000000E+00 -0.15524102593E+04  0.15524102593E+04  0.25500000920E-02 0.  1.
    10030    2    1    2    0    0  0.00000000000E+00  0.00000000000E+00  0.40915244712E+03  0.35139729656E+04  0.34900716724E+04 0.  0.
        2    1    3    3  502    0  0.17034583168E+04 -0.30911834519E+03 -0.15612286482E+02  0.17313486454E+04  0.25500000920E-02 0.  1.
       -2    1    3    3    0  502 -0.17034583168E+04  0.30911834519E+03  0.42476473360E+03  0.17826243203E+04  0.25500000920E-02 0. -1.
</event>
<event>
 5   0  0.3219205E-07  0.3500677E+04  0.7818609E-02  0.8113629E-01
        2   -1    0    0  501    0  0.00000000000E+00  0.00000000000E+00  0.24310891819E+04  0.24310891819E+04  0.25500000920E-02 0.  1.
       -2   -1    0    0    0  501  0.00000000000E+00  0.00000000000E+00 -0.12602110629E+04  0.12602110629E+04  0.25500000920E-02 0. -1.
    10030    2    1    2    0    0  0.00000000000E+00  0.00000000000E+00  0.11708781190E+04  0.36913002449E+04  0.35006773528E+04 0.  0.
        2    1    3    3  502    0 -0.16480648160E+04 -0.52151396890E+03  0.29552958909E+03  0.17536910205E+04  0.25500000920E-02 0.  1.
       -2    1    3    3    0  502  0.16480648160E+04  0.52151396890E+03  0.87534852989E+03  0.19376092243E+04  0.25500000920E-02 0. -1.
</event>
<event>
 5   0  0.1098171E-07  0.3490401E+04  0.7818609E-02  0.8116069E-01
        1   -1    0    0  501    0  0.00000000000E+00  0.00000000000E+00  0.13970152940E+04  0.13970152940E+04  0.50400001928E-02 0. -1.
       -1   -1    0    0    0  501  0.00000000000E+00  0.00000000000E+00 -0.21801654235E+04  0.21801654235E+04  0.50400001928E-02 0.  1.
    10030    2    1    2    0    0  0.00000000000E+00  0.00000000000E+00 -0.78315012954E+03  0.35771807175E+04  0.34904008022E+04 0.  0.
        4    1    3    3  502    0 -0.15465860444E+03  0.17157739398E+04 -0.67766286256E+03  0.18512233968E+04  0.12699999809E+01 0.  1.
       -4    1    3    3    0  502  0.15465860444E+03 -0.17157739398E+04 -0.10548726697E+03  0.17259573207E+04  0.12699999809E+01 0. -1.
</event>
<event>
 5   0  0.3119048E-07  0.3497815E+04  0.7818609E-02  0.8114308E-01
       -2   -1    0    0    0  501  0.00000000000E+00  0.00000000000E+00  0.16128287115E+04  0.16128287115E+04  0.25500000920E-02 0. -1.
        2   -1    0    0  501    0  0.00000000000E+00  0.00000000000E+00 -0.18964679525E+04  0.18964679525E+04  0.25500000920E-02 0.  1.
    10030    2    1    2    0    0  0.00000000000E+00  0.00000000000E+00 -0.28363924100E+03  0.35092966639E+04  0.34978152977E+04 0.  0.
        3    1    3    3  502    0  0.33261329277E+03 -0.12078353118E+04 -0.13661449626E+04  0.18536045457E+04  0.10100000352E+00 0.  1.
       -3    1    3    3    0  502 -0.33261329277E+03  0.12078353118E+04  0.10825057216E+04  0.16556921182E+04  0.10100000352E+00 0. -1.
</event>
<event>
 5   0  0.1033796E-07  0.3498586E+04  0.7818609E-02  0.8114125E-01
       -1   -1    0    0    0  501  0.00000000000E+00  0.00000000000E+00  0.10917636354E+04  0.10917636354E+04  0.50400001928E-02 0.  1.
        1   -1    0    0  501    0  0.00000000000E+00  0.00000000000E+00 -0.28028275094E+04  0.28028275094E+04  0.50400001928E-02 0. -1.
    10030    2    1    2    0    0  0.00000000000E+00  0.00000000000E+00 -0.17110638740E+04  0.38945911448E+04  0.34985855148E+04 0.  0.
        3    1    3    3  502    0  0.91964212550E+03 -0.26877331606E+03 -0.24847664946E+04  0.26630894235E+04  0.10100000352E+00 0. -1.
       -3    1    3    3    0  502 -0.91964212550E+03  0.26877331606E+03  0.77370262062E+03  0.12315017214E+04  0.10100000352E+00 0.  1.
</event>
<event>
 5   0  0.2180451E-07  0.3496001E+04  0.7818609E-02  0.8114738E-01
        2   -1    0    0  501    0  0.00000000000E+00  0.00000000000E+00  0.11837562615E+04  0.11837562615E+04  0.25500000920E-02 0.  1.
       -2   -1    0    0    0  501  0.00000000000E+00  0.00000000000E+00 -0.25811945728E+04  0.25811945728E+04  0.25500000920E-02 0. -1.
    10030    2    1    2    0    0  0.00000000000E+00  0.00000000000E+00 -0.13974383113E+04  0.37649508343E+04  0.34960007080E+04 0.  0.
        4    1    3    3  502    0 -0.70605119573E+03  0.15855091251E+04 -0.47499692890E+03  0.17994363485E+04  0.12699999809E+01 0. -1.
       -4    1    3    3    0  502  0.70605119573E+03 -0.15855091251E+04 -0.92244138243E+03  0.19655144858E+04  0.12699999809E+01 0.  1.
</event>
<event>
 5   0  0.1013863E-07  0.3506082E+04  0.7818609E-02  0.8112350E-01
       -1   -1    0    0    0  501  0.00000000000E+00  0.00000000000E+00  0.16536207234E+04  0.16536207234E+04  0.50400001928E-02 0.  1.
        1   -1    0    0  501    0  0.00000000000E+00  0.00000000000E+00 -0.18584387365E+04  0.18584387365E+04  0.50400001928E-02 0. -1.
    10030    2    1    2    0    0  0.00000000000E+00  0.00000000000E+00 -0.20481801314E+03  0.35120594599E+04  0.35060820343E+04 0.  0.
        5    1    3    3  502    0 -0.12023749367E+03  0.17489040204E+04 -0.10531057302E+03  0.17561989449E+04  0.46999998093E+01 0.  1.
       -5    1    3    3    0  502  0.12023749367E+03 -0.17489040204E+04 -0.99507440115E+02  0.17558605150E+04  0.46999998093E+01 0. -1.
</event>
<event>
 5   0  0.3190112E-07  0.3495826E+04  0.7818609E-02  0.8114780E-01
       -2   -1    0    0    0  501  0.00000000000E+00  0.00000000000E+00  0.12145833518E+04  0.12145833519E+04  0.25500000920E-02 0.  1.
        2   -1    0    0  501    0  0.00000000000E+00  0.00000000000E+00 -0.25154299149E+04  0.25154299149E+04  0.25500000920E-02 0. -1.
    10030    2    1    2    0    0  0.00000000000E+00  0.00000000000E+00 -0.13008465631E+04  0.37300132668E+04  0.34958256807E+04 0.  0.
        5    1    3    3  502    0  0.20479365630E+03  0.17235544857E+04 -0.43020742439E+03  0.17882060913E+04  0.46999998093E+01 0.  1.
       -5    1    3    3    0  502 -0.20479365630E+03 -0.17235544857E+04 -0.87063913868E+03  0.19418071755E+04  0.46999998093E+01 0. -1.
</event>
<event>
 5   0  0.1072381E-07  0.3504774E+04  0.7818609E-02  0.8112659E-01
       -1   -1    0    0    0  501  0.00000000000E+00  0.00000000000E+00  0.16899805347E+04  0.16899805347E+04  0.50400001928E-02 0.  1.
        1   -1    0    0  501    0  0.00000000000E+00  0.00000000000E+00 -0.18170982514E+04  0.18170982514E+04  0.50400001928E-02 0. -1.
    10030    2    1    2    0    0  0.00000000000E+00  0.00000000000E+00 -0.12711771665E+03  0.35070787861E+04  0.35047742721E+04 0.  0.
        1    1    3    3  502    0 -0.13087225318E+04  0.85699060768E+03 -0.85380790254E+03  0.17821827912E+04  0.50400001928E-02 0. -1.
       -1    1    3    3    0  502  0.13087225318E+04 -0.85699060768E+03  0.72669018589E+03  0.17248959949E+04  0.50400001928E-02 0.  1.
</event>
<event>
 5   0  0.1072381E-07  0.3485170E+04  0.7818609E-02  0.8117314E-01
        1   -1    0    0  501    0  0.00000000000E+00  0.00000000000E+00  0.20501549368E+04  0.20501549369E+04  0.50400001928E-02 0. -1.
       -1   -1    0    0    0  501  0.00000000000E+00  0.00000000000E+00 -0.14811573244E+04  0.14811573245E+04  0.50400001928E-02 0.  1.
    10030    2    1    2    0    0  0.00000000000E+00  0.00000000000E+00  0.56899761240E+03  0.35313122613E+04  0.34851697238E+04 0.  0.
        1    1    3    3  502    0  0.39042016688E+02  0.54643228902E+03  0.19606341382E+04  0.20357305198E+04  0.50400001928E-02 0. -1.
       -1    1    3    3    0  502 -0.39042016688E+02 -0.54643228902E+03 -0.13916365258E+04  0.14955817415E+04  0.50400001928E-02 0.  1.
</event>
<event>
 5   0  0.1033796E-07  0.3511628E+04  0.7818609E-02  0.8111040E-01
        1   -1    0    0  501    0  0.00000000000E+00  0.00000000000E+00  0.25024462378E+04  0.25024462378E+04  0.50400001928E-02 0. -1.
       -1   -1    0    0    0  501  0.00000000000E+00  0.00000000000E+00 -0.12319476236E+04  0.12319476236E+04  0.50400001928E-02 0.  1.
    10030    2    1    2    0    0  0.00000000000E+00  0.00000000000E+00  0.12704986142E+04  0.37343938614E+04  0.35116279392E+04 0.  0.
        3    1    3    3  502    0  0.12790378243E+04 -0.98295599196E+03 -0.10209080368E+03  0.16163424082E+04  0.10100000352E+00 0.  1.
       -3    1    3    3    0  502 -0.12790378243E+04  0.98295599196E+03  0.13725894178E+04  0.21180514532E+04  0.10100000352E+00 0. -1.
</event>
<event>
 5   0  0.2180451E-07  0.3498534E+04  0.7818609E-02  0.8114137E-01
        2   -1    0    0  501    0  0.00000000000E+00  0.00000000000E+00  0.20529354985E+04  0.20529354985E+04  0.25500000920E-02 0.  1.
       -2   -1    0    0    0  501  0.00000000000E+00  0.00000000000E+00 -0.14905172994E+04  0.14905172994E+04  0.25500000920E-02 0. -1.
    10030    2    1    2    0    0  0.00000000000E+00  0.00000000000E+00  0.56241819911E+03  0.35434527980E+04  0.34985344790E+04 0.  0.
        4    1    3    3  502    0  0.20410642029E+01  0.10992628180E+04 -0.10969786159E+04  0.15529799115E+04  0.12699999809E+01 0. -1.
       -4    1    3    3    0  502 -0.20410642029E+01 -0.10992628180E+04  0.16593968151E+04  0.19904728864E+04  0.12699999809E+01 0.  1.
</event>
<event>
 5   0  0.3190185E-07  0.3503983E+04  0.7818609E-02  0.8112847E-01
       -2   -1    0    0    0  501  0.00000000000E+00  0.00000000000E+00  0.17148328188E+04  0.17148328188E+04  0.25500000920E-02 0. -1.
        2   -1    0    0  501    0  0.00000000000E+00  0.00000000000E+00 -0.17899554284E+04  0.17899554285E+04  0.25500000920E-02 0.  1.
    10030    2    1    2    0    0  0.00000000000E+00  0.00000000000E+00 -0.75122609687E+02  0.35047882472E+04  0.35039830552E+04 0.  0.
        1    1    3    3  502    0 -0.14394792436E+04 -0.94667810879E+03 -0.35571359899E+03  0.17592134887E+04  0.50400001928E-02 0.  1.
       -1    1    3    3    0  502  0.14394792436E+04  0.94667810879E+03  0.28059098931E+03  0.17455747585E+04  0.50400001928E-02 0. -1.
</event>
<event>
 5   0  0.3190112E-07  0.3517619E+04  0.7818609E-02  0.8109627E-01
       -2   -1    0    0    0  501  0.00000000000E+00  0.00000000000E+00  0.12850166454E+04  0.12850166454E+04  0.25500000920E-02 0. -1.
        2   -1    0    0  501    0  0.00000000000E+00  0.00000000000E+00 -0.24072918226E+04  0.24072918226E+04  0.25500000920E-02 0.  1.
    10030    2    1    2    0    0  0.00000000000E+00  0.00000000000E+00 -0.11222751772E+04  0.36923084680E+04  0.35176185481E+04 0.  0.
        5    1    3    3  502    0  0.34772983524E+03 -0.44458635996E+02  0.12479669916E+04  0.12962778678E+04  0.46999998093E+01 0. -1.
       -5    1    3    3    0  502 -0.34772983524E+03  0.44458635996E+02 -0.23702421688E+04  0.23960306002E+04  0.46999998093E+01 0.  1.
</event>
<event>
 5   0  0.3190112E-07  0.3431397E+04  0.7818609E-02  0.8130243E-01
       -2   -1    0    0    0  501  0.00000000000E+00  0.00000000000E+00  0.11946068092E+04  0.11946068092E+04  0.25500000920E-02 0.  1.
        2   -1    0    0  501    0  0.00000000000E+00  0.00000000000E+00 -0.24640924047E+04  0.24640924047E+04  0.25500000920E-02 0. -1.
    10030    2    1    2    0    0  0.00000000000E+00  0.00000000000E+00 -0.12694855955E+04  0.36586992139E+04  0.34313971295E+04 0.  0.
        5    1    3    3  502    0  0.63010084666E+03  0.12141047260E+03 -0.23313181636E+04  0.24180227563E+04  0.46999998093E+01 0. -1.
       -5    1    3    3    0  502 -0.63010084666E+03 -0.12141047260E+03  0.10618325681E+04  0.12406764576E+04  0.46999998093E+01 0.  1.
</event>
<event>
 5   0  0.1013863E-07  0.3497566E+04  0.7818609E-02  0.8114367E-01
       -1   -1    0    0    0  501  0.00000000000E+00  0.00000000000E+00  0.13311522186E+04  0.13311522186E+04  0.50400001928E-02 0.  1.
        1   -1    0    0  501    0  0.00000000000E+00  0.00000000000E+00 -0.22974391661E+04  0.22974391661E+04  0.50400001928E-02 0. -1.
    10030    2    1    2    0    0  0.00000000000E+00  0.00000000000E+00 -0.96628694750E+03  0.36285913847E+04  0.34975655780E+04 0.  0.
        5    1    3    3  502    0  0.20061683417E+03  0.31722641712E+03  0.12888645359E+04  0.13424133476E+04  0.46999998093E+01 0.  1.
       -5    1    3    3    0  502 -0.20061683417E+03 -0.31722641712E+03 -0.22551514834E+04  0.22861780371E+04  0.46999998093E+01 0. -1.
</event>
<event>
 5   0  0.2180451E-07  0.3508270E+04  0.7818609E-02  0.8111833E-01
        2   -1    0    0  501    0  0.00000000000E+00  0.00000000000E+00  0.17237456917E+04  0.17237456917E+04  0.25500000920E-02 0. -1.
       -2   -1    0    0    0  501  0.00000000000E+00  0.00000000000E+00 -0.17850598870E+04  0.17850598870E+04  0.25500000920E-02 0.  1.
    10030    2    1    2    0    0  0.00000000000E+00  0.00000000000E+00 -0.61314195245E+02  0.35088055787E+04  0.35082698241E+04 0.  0.
        4    1    3    3  502    0  0.36792578825E+03  0.13824374092E+04 -0.10459402401E+04  0.17721442308E+04  0.12699999809E+01 0.  1.
       -4    1    3    3    0  502 -0.36792578825E+03 -0.13824374092E+04  0.98462604485E+03  0.17366613479E+04  0.12699999809E+01 0. -1.
</event>
<event>
 5   0  0.1033796E-07  0.3497717E+04  0.7818609E-02  0.8114331E-01
        1   -1    0    0  501    0  0.00000000000E+00  0.00000000000E+00  0.19129907031E+04  0.19129907031E+04  0.50400001928E-02 0. -1.
       -1   -1    0    0    0  501  0.00000000000E+00  0.00000000000E+00 -0.15988082808E+04  0.15988082808E+04  0.50400001928E-02 0.  1.
    10030    2    1    2    0    0  0.00000000000E+00  0.00000000000E+00  0.31418242229E+03  0.35117989839E+04  0.34977166135E+04 0.  0.
        3    1    3    3  502    0 -0.11474054784E+04 -0.97841371922E+03  0.10464751469E+04  0.18354680551E+04  0.10100000352E+00 0. -1.
       -3    1    3    3    0  502  0.11474054784E+04  0.97841371922E+03 -0.73229272466E+03  0.16763309288E+04  0.10100000352E+00 0.  1.
</event>
<event>
 5   0  0.2180451E-07  0.3503259E+04  0.7818609E-02  0.8113018E-01
       -2   -1    0    0    0  501  0.00000000000E+00  0.00000000000E+00  0.22365835067E+04  0.22365835067E+04  0.25500000920E-02 0.  1.
        2   -1    0    0  501    0  0.00000000000E+00  0.00000000000E+00 -0.13718271369E+04  0.13718271369E+04  0.25500000920E-02 0. -1.
    10030    2    1    2    0    0  0.00000000000E+00  0.00000000000E+00  0.86475636979E+03  0.36084106437E+04  0.35032590247E+04 0.  0.
        4    1    3    3  502    0  0.10516843861E+04  0.80490999869E+03  0.16132108167E+04  0.20871921104E+04  0.12699999809E+01 0.  1.
       -4    1    3    3    0  502 -0.10516843861E+04 -0.80490999869E+03 -0.74845444688E+03  0.15212185332E+04  0.12699999809E+01 0. -1.
</event>
<event>
 5   0  0.1072381E-07  0.3497137E+04  0.7818609E-02  0.8114469E-01
       -1   -1    0    0    0  501  0.00000000000E+00  0.00000000000E+00  0.18712389035E+04  0.18712389035E+04  0.50400001928E-02 0. -1.
        1   -1    0    0  501    0  0.00000000000E+00  0.00000000000E+00 -0.16339395950E+04  0.16339395950E+04  0.50400001928E-02 0.  1.
    10030    2    1    2    0    0  0.00000000000E+00  0.00000000000E+00  0.23729930856E+03  0.35051784985E+04  0.34971367352E+04 0.  0.
        1    1    3    3  502    0  0.85804392644E+02  0.36236391822E+02 -0.16314513890E+04  0.16341080456E+04  0.50400001928E-02 0.  1.
       -1    1    3    3    0  502 -0.85804392644E+02 -0.36236391822E+02  0.18687506976E+04  0.18710704529E+04  0.50400001928E-02 0. -1.
</event>
<event>
 5   0  0.1072381E-07  0.3507962E+04  0.7818609E-02  0.8111906E-01
        1   -1    0    0  501    0  0.00000000000E+00  0.00000000000E+00  0.17581983809E+04  0.17581983809E+04  0.50400001928E-02 0. -1.
       -1   -1    0    0    0  501  0.00000000000E+00  0.00000000000E+00 -0.17497736791E+04  0.17497736791E+04  0.50400001928E-02 0.  1.
    10030    2    1    2    0    0  0.00000000000E+00  0.00000000000E+00  0.84247017836E+01  0.35079720600E+04  0.35079619437E+04 0.  0.
        1    1    3    3  502    0  0.53320351369E+03 -0.88900264672E+03  0.14190724509E+04  0.17573839403E+04  0.50400001928E-02 0. -1.
       -1    1    3    3    0  502 -0.53320351369E+03  0.88900264672E+03 -0.14106477491E+04  0.17505881197E+04  0.50400001928E-02 0.  1.
</event>
<event>
 5   0  0.2180451E-07  0.3488501E+04  0.7818609E-02  0.8116520E-01
        2   -1    0    0  501    0  0.00000000000E+00  0.00000000000E+00  0.18608815331E+04  0.18608815331E+04  0.25500000920E-02 0.  1.
       -2   -1    0    0    0  501  0.00000000000E+00  0.00000000000E+00 -0.16349292901E+04  0.16349292901E+04  0.25500000920E-02 0. -1.
    10030    2    1    2    0    0  0.00000000000E+00  0.00000000000E+00  0.22595224300E+03  0.34958108232E+04  0.34885009524E+04 0.  0.
        4    1    3    3  502    0 -0.12339082220E+04  0.11859250408E+04 -0.22456854314E+03  0.17260881629E+04  0.12699999809E+01 0.  1.
       -4    1    3    3    0  502  0.12339082220E+04 -0.11859250408E+04  0.45052078615E+03  0.17697226603E+04  0.12699999809E+01 0. -1.
</event>
<event>
 5   0  0.3190185E-07  0.3405003E+04  0.7818609E-02  0.8136680E-01
       -2   -1    0    0    0  501  0.00000000000E+00  0.00000000000E+00  0.18146760418E+04  0.18146760418E+04  0.25500000920E-02 0. -1.
        2   -1    0    0  501    0  0.00000000000E+00  0.00000000000E+00 -0.15972607729E+04  0.15972607729E+04  0.25500000920E-02 0.  1.
    10030    2    1    2    0    0  0.00000000000E+00  0.00000000000E+00  0.21741526884E+03  0.34119368147E+04  0.34050027061E+04 0.  0.
        1    1    3    3  502    0 -0.44603728413E+02 -0.14711378669E+04 -0.74876554631E+03  0.16513285438E+04  0.50400001928E-02 0.  1.
       -1    1    3    3    0  502  0.44603728413E+02  0.14711378669E+04  0.96618081515E+03  0.17606082709E+04  0.50400001928E-02 0. -1.
</event>
<event>
 5   0  0.3219205E-07  0.3498343E+04  0.7818609E-02  0.8114183E-01
       -2   -1    0    0    0  501  0.00000000000E+00  0.00000000000E+00  0.23642090530E+04  0.23642090530E+04  0.25500000920E-02 0. -1.
        2   -1    0    0  501    0  0.00000000000E+00  0.00000000000E+00 -0.12941327893E+04  0.12941327893E+04  0.25500000920E-02 0.  1.
    10030    2    1    2    0    0  0.00000000000E+00  0.00000000000E+00  0.10700762638E+04  0.36583418423E+04  0.34983427255E+04 0.  0.
        2    1    3    3  502    0 -0.12006908477E+04  0.88534617047E+03  0.14901012165E+04  0.21085298169E+04  0.25500000920E-02 0.  1.
       -2    1    3    3    0  502  0.12006908477E+04 -0.88534617047E+03 -0.42002495272E+03  0.15498120254E+04  0.25500000920E-02 0. -1.
</event>
<event>
 5   0  0.2180451E-07  0.3497846E+04  0.7818609E-02  0.8114301E-01
        2   -1    0    0  501    0  0.00000000000E+00  0.00000000000E+00  0.14590751759E+04  0.14590751759E+04  0.25500000920E-02 0.  1.
       -2   -1    0    0    0  501  0.00000000000E+00  0.00000000000E+00 -0.20963492617E+04  0.20963492617E+04  0.25500000920E-02 0. -1.
    10030    2    1    2    0    0  0.00000000000E+00  0.00000000000E+00 -0.63727408583E+03  0.35554244377E+04  0.34978457186E+04 0.  0.
        4    1    3    3  502    0 -0.34112612315E+03  0.15569987428E+04  0.41301553627E+03  0.16465708497E+04  0.12699999809E+01 0.  1.
       -4    1    3    3    0  502  0.34112612315E+03 -0.15569987428E+04 -0.10502896221E+04  0.19088535879E+04  0.12699999809E+01 0. -1.
</event>
<event>
 5   0  0.1072381E-07  0.3497410E+04  0.7818609E-02  0.8114404E-01
       -1   -1    0    0    0  501  0.00000000000E+00  0.00000000000E+00  0.26366171710E+04  0.26366171710E+04  0.50400001928E-02 0.  1.
        1   -1    0    0  501    0  0.00000000000E+00  0.00000000000E+00 -0.11598076862E+04  0.11598076862E+04  0.50400001928E-02 0. -1.
    10030    2    1    2    0    0  0.00000000000E+00  0.00000000000E+00  0.14768094847E+04  0.37964248572E+04  0.34974098190E+04 0.  0.
        1    1    3    3  502    0  0.11034998355E+04 -0.50516144762E+03 -0.62822967488E+03  0.13665915628E+04  0.50400001928E-02 0. -1.
       -1    1    3    3    0  502 -0.11034998355E+04  0.50516144762E+03  0.21050391596E+04  0.24298332944E+04  0.50400001928E-02 0.  1.
</event>
<event>
 5   0  0.1033796E-07  0.3507036E+04  0.7818609E-02  0.8112124E-01
       -1   -1    0    0    0  501  0.00000000000E+00  0.00000000000E+00  0.21656568417E+04  0.21656568417E+04  0.50400001928E-02 0. -1.
        1   -1    0    0  501    0  0.00000000000E+00  0.00000000000E+00 -0.14198121667E+04  0.14198121667E+04  0.50400001928E-02 0.  1.
    10030    2    1    2    0    0  0.00000000000E+00  0.00000000000E+00  0.74584467502E+03  0.35854690083E+04  0.35070363172E+04 0.  0.
        3    1    3    3  502    0 -0.52079314043E+03 -0.10268276146E+04  0.17250839640E+04  0.20740094354E+04  0.10100000352E+00 0. -1.
       -3    1    3    3    0  502  0.52079314043E+03  0.10268276146E+04 -0.97923928897E+03  0.15114595729E+04  0.10100000352E+00 0.  1.
</event>
<event>
 5   0  0.3219205E-07  0.3507681E+04  0.7818609E-02  0.8111972E-01
        2   -1    0    0  501    0  0.00000000000E+00  0.00000000000E+00  0.12812979838E+04  0.12812979838E+04  0.25500000920E-02 0.  1.
       -2   -1    0    0    0  501  0.00000000000E+00  0.00000000000E+00 -0.24006565022E+04  0.24006565022E+04  0.25500000920E-02 0. -1.
    10030    2    1    2    0    0  0.00000000000E+00  0.00000000000E+00 -0.11193585184E+04  0.36819544860E+04  0.35076809068E+04 0.  0.
        2    1    3    3  502    0 -0.13917529660E+04 -0.49829006750E+03  0.43097223773E+03  0.15398072540E+04  0.25500000920E-02 0.  1.
       -2    1    3    3    0  502  0.13917529660E+04  0.49829006750E+03 -0.15503307562E+04  0.21421472319E+04  0.25500000920E-02 0. -1.
</event>
<event>
 5   0  0.1013863E-07  0.3504948E+04  0.7818609E-02  0.8112618E-01
       -3   -1    0    0    0  501  0.00000000000E+00  0.00000000000E+00  0.11838377323E+04  0.11838377366E+04  0.10100000352E+00 0. -1.
        3   -1    0    0  501    0  0.00000000000E+00  0.00000000000E+00 -0.25942444995E+04  0.25942445014E+04  0.10100000352E+00 0.  1.
    10030    2    1    2    0    0  0.00000000000E+00  0.00000000000E+00 -0.14104067672E+04  0.37780822381E+04  0.35049476670E+04 0.  0.
        5    1    3    3  502    0  0.11462632402E+04  0.20287233231E+03 -0.21172753898E+04  0.24161857887E+04  0.46999998093E+01 0.  1.
       -5    1    3    3    0  502 -0.11462632402E+04 -0.20287233231E+03  0.70686862268E+03  0.13618964494E+04  0.46999998093E+01 0. -1.
</event>
<event>
 5   0  0.1013863E-07  0.3428466E+04  0.7818609E-02  0.8130955E-01
       -1   -1    0    0    0  501  0.00000000000E+00  0.00000000000E+00  0.32320959175E+04  0.32320959175E+04  0.50400001928E-02 0.  1.
        1   -1    0    0  501    0  0.00000000000E+00  0.00000000000E+00 -0.90919166736E+03  0.90919166738E+03  0.50400001928E-02 0. -1.
    10030    2    1    2    0    0  0.00000000000E+00  0.00000000000E+00  0.23229042501E+04  0.41412875849E+04  0.34284659405E+04 0.  0.
        2    1    3    3  502    0 -0.36582834276E+03  0.92752388722E+03  0.28458142815E+04  0.30154253203E+04  0.25500000920E-02 0.  1.
       -2    1    3    3    0  502  0.36582834276E+03 -0.92752388722E+03 -0.52291003140E+03  0.11258622645E+04  0.25500000920E-02 0. -1.
</event>
<event>
 5   0  0.1013863E-07  0.3505020E+04  0.7818609E-02  0.8112601E-01
       -1   -1    0    0    0  501  0.00000000000E+00  0.00000000000E+00  0.31248200809E+04  0.31248200810E+04  0.50400001928E-02 0. -1.
        1   -1    0    0  501    0  0.00000000000E+00  0.00000000000E+00 -0.98286976873E+03  0.98286976875E+03  0.50400001928E-02 0.  1.
    10030    2    1    2    0    0  0.00000000000E+00  0.00000000000E+00  0.21419503122E+04  0.41076898497E+04  0.35050199374E+04 0.  0.
        2    1    3    3  502    0 -0.13327000845E+04  0.20182899273E+03  0.23835882329E+04  0.27383055566E+04  0.25500000920E-02 0. -1.
       -2    1    3    3    0  502  0.13327000845E+04 -0.20182899273E+03 -0.24163792067E+03  0.13693842931E+04  0.25500000920E-02 0.  1.
</event>
<event>
 5   0  0.1098171E-07  0.3601530E+04  0.7818609E-02  0.8090141E-01
       -1   -1    0    0    0  501  0.00000000000E+00  0.00000000000E+00  0.16350761078E+04  0.16350761078E+04  0.50400001928E-02 0. -1.
        1   -1    0    0  501    0  0.00000000000E+00  0.00000000000E+00 -0.19832435704E+04  0.19832435704E+04  0.50400001928E-02 0.  1.
    10030    2    1    2    0    0  0.00000000000E+00  0.00000000000E+00 -0.34816746252E+03  0.36183196782E+04  0.36015297738E+04 0.  0.
        4    1    3    3  502    0  0.15988637180E+04  0.96554613626E+02 -0.10007590527E+04  0.18887054499E+04  0.12699999809E+01 0.  1.
       -4    1    3    3    0  502 -0.15988637180E+04 -0.96554613626E+02  0.65259159020E+03  0.17296142283E+04  0.12699999809E+01 0. -1.
</event>
<event>
 5   0  0.3219205E-07  0.3500662E+04  0.7818609E-02  0.8113633E-01
       -2   -1    0    0    0  501  0.00000000000E+00  0.00000000000E+00  0.26044849499E+04  0.26044849499E+04  0.25500000920E-02 0. -1.
        2   -1    0    0  501    0  0.00000000000E+00  0.00000000000E+00 -0.11763009935E+04  0.11763009935E+04  0.25500000920E-02 0.  1.
    10030    2    1    2    0    0  0.00000000000E+00  0.00000000000E+00  0.14281839564E+04  0.37807859433E+04  0.35006617854E+04 0.  0.
        2    1    3    3  502    0  0.15427910544E+04 -0.73363306039E+03  0.30249719000E+03  0.17349139041E+04  0.25500000920E-02 0. -1.
       -2    1    3    3    0  502 -0.15427910544E+04  0.73363306039E+03  0.11256867664E+04  0.20458720392E+04  0.25500000920E-02 0.  1.
</event>
<event>
 5   0  0.1072381E-07  0.3505364E+04  0.7818609E-02  0.8112520E-01
        1   -1    0    0  501    0  0.00000000000E+00  0.00000000000E+00  0.15201699659E+04  0.15201699659E+04  0.50400001928E-02 0. -1.
       -1   -1    0    0    0  501  0.00000000000E+00  0.00000000000E+00 -0.20207570077E+04  0.20207570077E+04  0.50400001928E-02 0.  1.
    10030    2    1    2    0    0  0.00000000000E+00  0.00000000000E+00 -0.50058704183E+03  0.35409269736E+04  0.35053639535E+04 0.  0.
        1    1    3    3  502    0  0.17453151739E+03  0.12187398447E+04  0.10098019472E+04  0.15923215857E+04  0.50400001928E-02 0. -1.
       -1    1    3    3    0  502 -0.17453151739E+03 -0.12187398447E+04 -0.15103889890E+04  0.19486053879E+04  0.50400001928E-02 0.  1.
</event>
<event>
 5   0  0.3219205E-07  0.3507009E+04  0.7818609E-02  0.8112131E-01
        2   -1    0    0  501    0  0.00000000000E+00  0.00000000000E+00  0.19299903328E+04  0.19299903328E+04  0.25500000920E-02 0.  1.
       -2   -1    0    0    0  501  0.00000000000E+00  0.00000000000E+00 -0.15931574945E+04  0.15931574945E+04  0.25500000920E-02 0. -1.
    10030    2    1    2    0    0  0.00000000000E+00  0.00000000000E+00  0.33683283829E+03  0.35231478274E+04  0.35070093032E+04 0.  0.
        2    1    3    3  502    0 -0.60367329800E+03 -0.14461644109E+04 -0.62194768513E+03  0.16860106397E+04  0.25500000920E-02 0. -1.
       -2    1    3    3    0  502  0.60367329800E+03  0.14461644109E+04  0.95878052342E+03  0.18371371877E+04  0.25500000920E-02 0.  1.
</event>
<event>
 5   0  0.3219205E-07  0.3461731E+04  0.7818609E-02  0.8122919E-01
       -2   -1    0    0    0  501  0.00000000000E+00  0.00000000000E+00  0.13565795498E+04  0.13565795498E+04  0.25500000920E-02 0.  1.
        2   -1    0    0  501    0  0.00000000000E+00  0.00000000000E+00 -0.22084189020E+04  0.22084189020E+04  0.25500000920E-02 0. -1.
    10030    2    1    2    0    0  0.00000000000E+00  0.00000000000E+00 -0.85183935227E+03  0.35649984518E+04  0.34617313124E+04 0.  0.
        2    1    3    3  502    0  0.16601205378E+04  0.38761571274E+03 -0.73426729643E+03  0.18561774170E+04  0.25500000920E-02 0. -1.
       -2    1    3    3    0  502 -0.16601205378E+04 -0.38761571274E+03 -0.11757205584E+03  0.17088210348E+04  0.25500000920E-02 0.  1.
</event>
<event>
 5   0  0.3219205E-07  0.3488420E+04  0.7818609E-02  0.8116540E-01
       -2   -1    0    0    0  501  0.00000000000E+00  0.00000000000E+00  0.12212533481E+04  0.12212533481E+04  0.25500000920E-02 0. -1.
        2   -1    0    0  501    0  0.00000000000E+00  0.00000000000E+00 -0.24911041276E+04  0.24911041277E+04  0.25500000920E-02 0.  1.
    10030    2    1    2    0    0  0.00000000000E+00  0.00000000000E+00 -0.12698507795E+04  0.37123574758E+04  0.34884204199E+04 0.  0.
        2    1    3    3  502    0  0.23998363809E+03 -0.34631978191E+03  0.11662813112E+04  0.12400571095E+04  0.25500000920E-02 0. -1.
       -2    1    3    3    0  502 -0.23998363809E+03  0.34631978191E+03 -0.24361320907E+04  0.24723003663E+04  0.25500000920E-02 0.  1.
</event>
<event>
 5   0  0.2180451E-07  0.3490182E+04  0.7818609E-02  0.8116121E-01
       -2   -1    0    0    0  501  0.00000000000E+00  0.00000000000E+00  0.13200672608E+04  0.13200672608E+04  0.25500000920E-02 0.  1.
        2   -1    0    0  501    0  0.00000000000E+00  0.00000000000E+00 -0.23069603201E+04  0.23069603201E+04  0.25500000920E-02 0. -1.
    10030    2    1    2    0    0  0.00000000000E+00  0.00000000000E+00 -0.98689305929E+03  0.36270275808E+04  0.34901821101E+04 0.  0.
        4    1    3    3  502    0  0.84608707094E+03 -0.12023651764E+04 -0.14704109411E+04  0.20793401111E+04  0.12699999809E+01 0. -1.
       -4    1    3    3    0  502 -0.84608707094E+03  0.12023651764E+04  0.48351788179E+03  0.15476874697E+04  0.12699999809E+01 0.  1.
</event>
<event>
 5   0  0.1013863E-07  0.3495062E+04  0.7818609E-02  0.8114961E-01
       -1   -1    0    0    0  501  0.00000000000E+00  0.00000000000E+00  0.15982841515E+04  0.15982841515E+04  0.50400001928E-02 0.  1.
        1   -1    0    0  501    0  0.00000000000E+00  0.00000000000E+00 -0.19107140969E+04  0.19107140969E+04  0.50400001928E-02 0. -1.
    10030    2    1    2    0    0  0.00000000000E+00  0.00000000000E+00 -0.31242994539E+03  0.35089982483E+04  0.34950616927E+04 0.  0.
        2    1    3    3  502    0  0.45532163599E+03  0.16867158907E+04 -0.19556014903E+03  0.17580022924E+04  0.25500000920E-02 0. -1.
       -2    1    3    3    0  502 -0.45532163599E+03 -0.16867158907E+04 -0.11686979636E+03  0.17509959559E+04  0.25500000920E-02 0.  1.
</event>
<event>
 5   0  0.2180451E-07  0.3499564E+04  0.7818609E-02  0.8113893E-01
        2   -1    0    0  501    0  0.00000000000E+00  0.00000000000E+00  0.14838627080E+04  0.14838627080E+04  0.25500000920E-02 0. -1.
       -2   -1    0    0    0  501  0.00000000000E+00  0.00000000000E+00 -0.20633560030E+04  0.20633560030E+04  0.25500000920E-02 0.  1.
    10030    2    1    2    0    0  0.00000000000E+00  0.00000000000E+00 -0.57949329506E+03  0.35472187110E+04  0.34995639878E+04 0.  0.
        4    1    3    3  502    0 -0.60749274767E+03 -0.16066175785E+04 -0.62816117498E+03  0.18288946270E+04  0.12699999809E+01 0.  1.
       -4    1    3    3    0  502  0.60749274767E+03  0.16066175785E+04  0.48667879926E+02  0.17183240840E+04  0.12699999809E+01 0. -1.
</event>
<event>
 5   0  0.3190112E-07  0.3498985E+04  0.7818609E-02  0.8114031E-01
        2   -1    0    0  501    0  0.00000000000E+00  0.00000000000E+00  0.20407289033E+04  0.20407289033E+04  0.25500000920E-02 0.  1.
       -2   -1    0    0    0  501  0.00000000000E+00  0.00000000000E+00 -0.14998189053E+04  0.14998189053E+04  0.25500000920E-02 0. -1.
    10030    2    1    2    0    0  0.00000000000E+00  0.00000000000E+00  0.54090999797E+03  0.35405478086E+04  0.34989848756E+04 0.  0.
        5    1    3    3  502    0  0.14416473362E+04 -0.78876756018E+03 -0.33684109754E+03  0.16774937618E+04  0.46999998093E+01 0. -1.
       -5    1    3    3    0  502 -0.14416473362E+04  0.78876756018E+03  0.87775109551E+03  0.18630540469E+04  0.46999998093E+01 0.  1.
</event>
<event>
 5   0  0.1033796E-07  0.3473153E+04  0.7818609E-02  0.8120182E-01
       -1   -1    0    0    0  501  0.00000000000E+00  0.00000000000E+00  0.14821596040E+04  0.14821596040E+04  0.50400001928E-02 0. -1.
        1   -1    0    0  501    0  0.00000000000E+00  0.00000000000E+00 -0.20346642765E+04  0.20346642765E+04  0.50400001928E-02 0.  1.
    10030    2    1    2    0    0  0.00000000000E+00  0.00000000000E+00 -0.55250467243E+03  0.35168238805E+04  0.34731525727E+04 0.  0.
        3    1    3    3  502    0 -0.54987425767E+03 -0.74663418684E+03 -0.17630036553E+04  0.19919854937E+04  0.10100000352E+00 0.  1.
       -3    1    3    3    0  502  0.54987425767E+03  0.74663418684E+03  0.12104989829E+04  0.15248383868E+04  0.10100000352E+00 0. -1.
</event>
<event>
 5   0  0.3119048E-07  0.3511816E+04  0.7818609E-02  0.8110995E-01
        2   -1    0    0  501    0  0.00000000000E+00  0.00000000000E+00  0.11923154313E+04  0.11923154313E+04  0.25500000920E-02 0.  1.
       -2   -1    0    0    0  501  0.00000000000E+00  0.00000000000E+00 -0.25859033425E+04  0.25859033425E+04  0.25500000920E-02 0. -1.
    10030    2    1    2    0    0  0.00000000000E+00  0.00000000000E+00 -0.13935879112E+04  0.37782187738E+04  0.35118157464E+04 0.  0.
        3    1    3    3  502    0  0.55388366045E+03 -0.14885370540E+04 -0.15023838104E+04  0.21862494813E+04  0.10100000352E+00 0. -1.
       -3    1    3    3    0  502 -0.55388366045E+03  0.14885370540E+04  0.10879589921E+03  0.15919692925E+04  0.10100000352E+00 0.  1.
</event>
<event>
 5   0  0.1033796E-07  0.3548644E+04  0.7818609E-02  0.8102358E-01
        1   -1    0    0  501    0  0.00000000000E+00  0.00000000000E+00  0.17253057636E+04  0.17253057636E+04  0.50400001928E-02 0. -1.
       -1   -1    0    0    0  501  0.00000000000E+00  0.00000000000E+00 -0.18247311398E+04  0.18247311398E+04  0.50400001928E-02 0.  1.
    10030    2    1    2    0    0  0.00000000000E+00  0.00000000000E+00 -0.99425376153E+02  0.35500369034E+04  0.35486443341E+04 0.  0.
        3    1    3    3  502    0 -0.10931700942E+03 -0.70935873602E+03 -0.16730259924E+04  0.18204823554E+04  0.10100000352E+00 0.  1.
       -3    1    3    3    0  502  0.10931700942E+03  0.70935873602E+03  0.15736006162E+04  0.17295545480E+04  0.10100000352E+00 0. -1.
</event>
<event>
 5   0  0.3119048E-07  0.3500267E+04  0.7818609E-02  0.8113727E-01
       -2   -1    0    0    0  501  0.00000000000E+00  0.00000000000E+00  0.14193753179E+04  0.14193753179E+04  0.25500000920E-02 0. -1.
        2   -1    0    0  501    0  0.00000000000E+00  0.00000000000E+00 -0.21579680755E+04  0.21579680755E+04  0.25500000920E-02 0.  1.
    10030    2    1    2    0    0  0.00000000000E+00  0.00000000000E+00 -0.73859275759E+03  0.35773433934E+04  0.35002666317E+04 0.  0.
        3    1    3    3  502    0  0.12524153215E+04 -0.69034968726E+03 -0.14003926443E+04  0.20015559939E+04  0.10100000352E+00 0.  1.
       -3    1    3    3    0  502 -0.12524153215E+04  0.69034968726E+03  0.66179988674E+03  0.15757873995E+04  0.10100000352E+00 0. -1.
</event>
<event>
 5   0  0.3219205E-07  0.3497988E+04  0.7818609E-02  0.8114267E-01
        2   -1    0    0  501    0  0.00000000000E+00  0.00000000000E+00  0.27011757940E+04  0.27011757940E+04  0.25500000920E-02 0.  1.
       -2   -1    0    0    0  501  0.00000000000E+00  0.00000000000E+00 -0.11324627108E+04  0.11324627108E+04  0.25500000920E-02 0. -1.
    10030    2    1    2    0    0  0.00000000000E+00  0.00000000000E+00  0.15687130832E+04  0.38336385048E+04  0.34979884860E+04 0.  0.
        2    1    3    3  502    0  0.33264129616E+03 -0.15440599441E+04 -0.38857912834E+02  0.15799624300E+04  0.25500000920E-02 0. -1.
       -2    1    3    3    0  502 -0.33264129616E+03  0.15440599441E+04  0.16075709961E+04  0.22536760748E+04  0.25500000920E-02 0.  1.
</event>
<event>
 5   0  0.1098171E-07  0.3497618E+04  0.7818609E-02  0.8114355E-01
        1   -1    0    0  501    0  0.00000000000E+00  0.00000000000E+00  0.17082533061E+04  0.17082533061E+04  0.50400001928E-02 0. -1.
       -1   -1    0    0    0  501  0.00000000000E+00  0.00000000000E+00 -0.17903280241E+04  0.17903280241E+04  0.50400001928E-02 0.  1.
    10030    2    1    2    0    0  0.00000000000E+00  0.00000000000E+00 -0.82074718031E+02  0.34985813302E+04  0.34976184847E+04 0.  0.
        4    1    3    3  502    0  0.64113112165E+03  0.44702528654E+03 -0.16059012876E+04  0.17860014783E+04  0.12699999809E+01 0.  1.
       -4    1    3    3    0  502 -0.64113112165E+03 -0.44702528654E+03  0.15238265696E+04  0.17125798519E+04  0.12699999809E+01 0. -1.
</event>
<event>
 5   0  0.1072381E-07  0.3502350E+04  0.7818609E-02  0.8113233E-01
        1   -1    0    0  501    0  0.00000000000E+00  0.00000000000E+00  0.21053491576E+04  0.21053491576E+04  0.50400001928E-02 0.  1.
       -1   -1    0    0    0  501  0.00000000000E+00  0.00000000000E+00 -0.14565820094E+04  0.14565820094E+04  0.50400001928E-02 0. -1.
    10030    2    1    2    0    0  0.00000000000E+00  0.00000000000E+00  0.64876714825E+03  0.35619311670E+04  0.35023499005E+04 0.  0.
        1    1    3    3  502    0  0.11726576242E+04  0.10680914729E+04 -0.43031072904E+03  0.16435061976E+04  0.50400001928E-02 0. -1.
       -1    1    3    3    0  502 -0.11726576242E+04 -0.10680914729E+04  0.10790778773E+04  0.19184249694E+04  0.50400001928E-02 0.  1.
</event>
<event>
 5   0  0.2180451E-07  0.3392180E+04  0.7818609E-02  0.8139828E-01
        2   -1    0    0  501    0  0.00000000000E+00  0.00000000000E+00  0.24240754183E+04  0.24240754183E+04  0.25500000920E-02 0.  1.
       -2   -1    0    0    0  501  0.00000000000E+00  0.00000000000E+00 -0.11867294454E+04  0.11867294454E+04  0.25500000920E-02 0. -1.
    10030    2    1    2    0    0  0.00000000000E+00  0.00000000000E+00  0.12373459728E+04  0.36108048637E+04  0.33921802292E+04 0.  0.
        4    1    3    3  502    0  0.23115460149E+03  0.55079333372E+03  0.23084056029E+04  0.23844378345E+04  0.12699999809E+01 0.  1.
       -4    1    3    3    0  502 -0.23115460149E+03 -0.55079333372E+03 -0.10710596301E+04  0.12263670292E+04  0.12699999809E+01 0. -1.
</event>
<event>
 5   0  0.2180451E-07  0.3510427E+04  0.7818609E-02  0.8111323E-01
       -2   -1    0    0    0  501  0.00000000000E+00  0.00000000000E+00  0.18922582508E+04  0.18922582508E+04  0.25500000920E-02 0.  1.
        2   -1    0    0  501    0  0.00000000000E+00  0.00000000000E+00 -0.16280942694E+04  0.16280942694E+04  0.25500000920E-02 0. -1.
    10030    2    1    2    0    0  0.00000000000E+00  0.00000000000E+00  0.26416398139E+03  0.35203525203E+04  0.35104272187E+04 0.  0.
        4    1    3    3  502    0  0.14964612685E+04  0.37409223746E+03  0.97196525852E+03  0.18232003200E+04  0.12699999809E+01 0. -1.
       -4    1    3    3    0  502 -0.14964612685E+04 -0.37409223746E+03 -0.70780127713E+03  0.16971522003E+04  0.12699999809E+01 0.  1.
</event>
<event>
 5   0  0.3190185E-07  0.3498157E+04  0.7818609E-02  0.8114227E-01
        2   -1    0    0  501    0  0.00000000000E+00  0.00000000000E+00  0.16089679124E+04  0.16089679124E+04  0.25500000920E-02 0.  1.
       -2   -1    0    0    0  501  0.00000000000E+00  0.00000000000E+00 -0.19013898626E+04  0.19013898626E+04  0.25500000920E-02 0. -1.
    10030    2    1    2    0    0  0.00000000000E+00  0.00000000000E+00 -0.29242195023E+03  0.35103577751E+04  0.34981568164E+04 0.  0.
        1    1    3    3  502    0  0.10169643460E+04 -0.64843320235E+03 -0.14173544679E+04  0.18610684529E+04  0.50400001928E-02 0. -1.
       -1    1    3    3    0  502 -0.10169643460E+04  0.64843320235E+03  0.11249325176E+04  0.16492893221E+04  0.50400001928E-02 0.  1.
</event>
<event>
 5   0  0.3190112E-07  0.3525161E+04  0.7818609E-02  0.8107853E-01
        2   -1    0    0  501    0  0.00000000000E+00  0.00000000000E+00  0.17011160484E+04  0.17011160484E+04  0.25500000920E-02 0.  1.
       -2   -1    0    0    0  501  0.00000000000E+00  0.00000000000E+00 -0.18262657023E+04  0.18262657023E+04  0.25500000920E-02 0. -1.
    10030    2    1    2    0    0  0.00000000000E+00  0.00000000000E+00 -0.12514965391E+03  0.35273817506E+04  0.35251609295E+04 0.  0.
        5    1    3    3  502    0 -0.15417079647E+04 -0.53657518500E+03  0.60259310535E+03  0.17400910660E+04  0.46999998093E+01 0. -1.
       -5    1    3    3    0  502  0.15417079647E+04  0.53657518500E+03 -0.72774275926E+03  0.17872906846E+04  0.46999998093E+01 0.  1.
</event>
<event>
 5   0  0.1033796E-07  0.3493060E+04  0.7818609E-02  0.8115437E-01
        1   -1    0    0  501    0  0.00000000000E+00  0.00000000000E+00  0.12867953168E+04  0.12867953168E+04  0.50400001928E-02 0. -1.
       -1   -1    0    0    0  501  0.00000000000E+00  0.00000000000E+00 -0.23705141362E+04  0.23705141362E+04  0.50400001928E-02 0.  1.
    10030    2    1    2    0    0  0.00000000000E+00  0.00000000000E+00 -0.10837188195E+04  0.36573094530E+04  0.34930596839E+04 0.  0.
        3    1    3    3  502    0 -0.34354713314E+03  0.75695800910E+03 -0.21501054054E+04  0.23052035322E+04  0.10100000352E+00 0.  1.
       -3    1    3    3    0  502  0.34354713314E+03 -0.75695800910E+03  0.10663865859E+04  0.13521059208E+04  0.10100000352E+00 0. -1.
</event>
<event>
 5   0  0.1072381E-07  0.3524247E+04  0.7818609E-02  0.8108068E-01
        1   -1    0    0  501    0  0.00000000000E+00  0.00000000000E+00  0.21826632057E+04  0.21826632057E+04  0.50400001928E-02 0.  1.
       -1   -1    0    0    0  501  0.00000000000E+00  0.00000000000E+00 -0.14226105414E+04  0.14226105414E+04  0.50400001928E-02 0. -1.
    10030    2    1    2    0    0  0.00000000000E+00  0.00000000000E+00  0.76005266424E+03  0.36052737471E+04  0.35242472585E+04 0.  0.
        1    1    3    3  502    0  0.99885980197E+03  0.10917219647E+04 -0.59879067844E+03  0.15962856978E+04  0.50400001928E-02 0.  1.
       -1    1    3    3    0  502 -0.99885980197E+03 -0.10917219647E+04  0.13588433427E+04  0.20089880493E+04  0.50400001928E-02 0. -1.
</event>
<event>
 5   0  0.3219205E-07  0.3492173E+04  0.7818609E-02  0.8115647E-01
        2   -1    0    0  501    0  0.00000000000E+00  0.00000000000E+00  0.15572712554E+04  0.15572712554E+04  0.25500000920E-02 0. -1.
       -2   -1    0    0    0  501  0.00000000000E+00  0.00000000000E+00 -0.19577953217E+04  0.19577953217E+04  0.25500000920E-02 0.  1.
    10030    2    1    2    0    0  0.00000000000E+00  0.00000000000E+00 -0.40052406630E+03  0.35150665771E+04  0.34921731792E+04 0.  0.
        2    1    3    3  502    0  0.93714071104E+03 -0.10603680981E+04  0.82928504896E+03  0.16402216033E+04  0.25500000920E-02 0. -1.
       -2    1    3    3    0  502 -0.93714071104E+03  0.10603680981E+04 -0.12298091153E+04  0.18748449738E+04  0.25500000920E-02 0.  1.
</event>
<event>
 5   0  0.1013863E-07  0.3497610E+04  0.7818609E-02  0.8114357E-01
        1   -1    0    0  501    0  0.00000000000E+00  0.00000000000E+00  0.18075349544E+04  0.18075349544E+04  0.50400001928E-02 0. -1.
       -1   -1    0    0    0  501  0.00000000000E+00  0.00000000000E+00 -0.16919833028E+04  0.16919833028E+04  0.50400001928E-02 0.  1.
    10030    2    1    2    0    0  0.00000000000E+00  0.00000000000E+00  0.11555165152E+03  0.34995182572E+04  0.34976100195E+04 0.  0.
        5    1    3    3  502    0  0.10137991658E+04 -0.95160431924E+03 -0.10034429047E+04  0.17147184265E+04  0.46999998093E+01 0.  1.
       -5    1    3    3    0  502 -0.10137991658E+04  0.95160431924E+03  0.11189945563E+04  0.17847998308E+04  0.46999998093E+01 0. -1.
</event>
<event>
 5   0  0.1072381E-07  0.3476483E+04  0.7818609E-02  0.8119386E-01
       -1   -1    0    0    0  501  0.00000000000E+00  0.00000000000E+00  0.11533700213E+04  0.11533700213E+04  0.50400001928E-02 0. -1.
        1   -1    0    0  501    0  0.00000000000E+00  0.00000000000E+00 -0.26196993451E+04  0.26196993451E+04  0.50400001928E-02 0.  1.
    10030    2    1    2    0    0  0.00000000000E+00  0.00000000000E+00 -0.14663293237E+04  0.37730693664E+04  0.34764825267E+04 0.  0.
        1    1    3    3  502    0 -0.91212919507E+01 -0.16510621121E+04 -0.13230330573E+04  0.21157754528E+04  0.50400001928E-02 0.  1.
       -1    1    3    3    0  502  0.91212919507E+01  0.16510621121E+04 -0.14329626646E+03  0.16572939136E+04  0.50400001928E-02 0. -1.
</event>
<event>
 5   0  0.1013863E-07  0.3500551E+04  0.7818609E-02  0.8113659E-01
       -1   -1    0    0    0  501  0.00000000000E+00  0.00000000000E+00  0.14920642406E+04  0.14920642406E+04  0.50400001928E-02 0. -1.
        1   -1    0    0  501    0  0.00000000000E+00  0.00000000000E+00 -0.20531714497E+04  0.20531714497E+04  0.50400001928E-02 0.  1.
    10030    2    1    2    0    0  0.00000000000E+00  0.00000000000E+00 -0.56110720913E+03  0.35452356903E+04  0.35005506423E+04 0.  0.
        2    1    3    3  502    0  0.84215696770E+03  0.10911119121E+04  0.81197082407E+03  0.15997031544E+04  0.25500000920E-02 0. -1.
       -2    1    3    3    0  502 -0.84215696770E+03 -0.10911119121E+04 -0.13730780332E+04  0.19455325359E+04  0.25500000920E-02 0.  1.
</event>
<event>
 5   0  0.3219205E-07  0.3501004E+04  0.7818609E-02  0.8113552E-01
       -2   -1    0    0    0  501  0.00000000000E+00  0.00000000000E+00  0.11694235108E+04  0.11694235108E+04  0.25500000920E-02 0.  1.
        2   -1    0    0  501    0  0.00000000000E+00  0.00000000000E+00 -0.26203137139E+04  0.26203137139E+04  0.25500000920E-02 0. -1.
    10030    2    1    2    0    0  0.00000000000E+00  0.00000000000E+00 -0.14508902031E+04  0.37897372247E+04  0.35010035491E+04 0.  0.
        2    1    3    3  502    0  0.17287696015E+04 -0.27337191249E+03 -0.69333516909E+03  0.18825754153E+04  0.25500000920E-02 0. -1.
       -2    1    3    3    0  502 -0.17287696015E+04  0.27337191249E+03 -0.75755503398E+03  0.19071618094E+04  0.25500000920E-02 0.  1.
</event>
<event>
 5   0  0.3119048E-07  0.3496321E+04  0.7818609E-02  0.8114662E-01
        2   -1    0    0  501    0  0.00000000000E+00  0.00000000000E+00  0.23447858581E+04  0.23447858581E+04  0.25500000920E-02 0.  1.
       -2   -1    0    0    0  501  0.00000000000E+00  0.00000000000E+00 -0.13033451975E+04  0.13033451975E+04  0.25500000920E-02 0. -1.
    10030    2    1    2    0    0  0.00000000000E+00  0.00000000000E+00  0.10414406606E+04  0.36481310556E+04  0.34963211450E+04 0.  0.
        3    1    3    3  502    0  0.51333419640E+03 -0.13167890892E+04 -0.55284662761E+03  0.15175918116E+04  0.10100000352E+00 0. -1.
       -3    1    3    3    0  502 -0.51333419640E+03  0.13167890892E+04  0.15942872883E+04  0.21305392440E+04  0.10100000352E+00 0.  1.
</event>
<event>
 5   0  0.1013863E-07  0.3367535E+04  0.7818609E-02  0.8145921E-01
       -1   -1    0    0    0  501  0.00000000000E+00  0.00000000000E+00  0.21715399503E+04  0.21715399503E+04  0.50400001928E-02 0. -1.
        1   -1    0    0  501    0  0.00000000000E+00  0.00000000000E+00 -0.13055583815E+04  0.13055583815E+04  0.50400001928E-02 0.  1.
    10030    2    1    2    0    0  0.00000000000E+00  0.00000000000E+00  0.86598156876E+03  0.34770983318E+04  0.33675345183E+04 0.  0.
        5    1    3    3  502    0 -0.76540336856E+03  0.85500843325E+03 -0.83923702341E+03  0.14216970876E+04  0.46999998093E+01 0.  1.
       -5    1    3    3    0  502  0.76540336856E+03 -0.85500843325E+03  0.17052185922E+04  0.20554012442E+04  0.46999998093E+01 0. -1.
</event>
<event>
 5   0  0.1072381E-07  0.3575691E+04  0.7818609E-02  0.8096083E-01
        1   -1    0    0  501    0  0.00000000000E+00  0.00000000000E+00  0.21022751170E+04  0.21022751170E+04  0.50400001928E-02 0.  1.
       -1   -1    0    0    0  501  0.00000000000E+00  0.00000000000E+00 -0.15204439515E+04  0.15204439515E+04  0.50400001928E-02 0. -1.
    10030    2    1    2    0    0  0.00000000000E+00  0.00000000000E+00  0.58183116551E+03  0.36227190685E+04  0.35756909744E+04 0.  0.
        1    1    3    3  502    0 -0.12000541532E+04 -0.17697417986E+03 -0.10397284287E+04  0.15976498479E+04  0.50400001928E-02 0. -1.
       -1    1    3    3    0  502  0.12000541532E+04  0.17697417986E+03  0.16215595942E+04  0.20250692207E+04  0.50400001928E-02 0.  1.
</event>
<event>
 5   0  0.1033796E-07  0.3512233E+04  0.7818609E-02  0.8110897E-01
        1   -1    0    0  501    0  0.00000000000E+00  0.00000000000E+00  0.20935875191E+04  0.20935875191E+04  0.50400001928E-02 0.  1.
       -1   -1    0    0    0  501  0.00000000000E+00  0.00000000000E+00 -0.14730433729E+04  0.14730433729E+04  0.50400001928E-02 0. -1.
    10030    2    1    2    0    0  0.00000000000E+00  0.00000000000E+00  0.62054414618E+03  0.35666308920E+04  0.35122330337E+04 0.  0.
        3    1    3    3  502    0  0.15387720841E+04 -0.24118727263E+03  0.11339790335E+04  0.19266289954E+04  0.10100000352E+00 0.  1.
       -3    1    3    3    0  502 -0.15387720841E+04  0.24118727263E+03 -0.51343488732E+03  0.16400018966E+04  0.10100000352E+00 0. -1.
</event>
<event>
 5   0  0.3119048E-07  0.3492509E+04  0.7818609E-02  0.8115567E-01
        2   -1    0    0  501    0  0.00000000000E+00  0.00000000000E+00  0.22083430950E+04  0.22083430950E+04  0.25500000920E-02 0. -1.
       -2   -1    0    0    0  501  0.00000000000E+00  0.00000000000E+00 -0.13808568297E+04  0.13808568297E+04  0.25500000920E-02 0.  1.
    10030    2    1    2    0    0  0.00000000000E+00  0.00000000000E+00  0.82748626528E+03  0.35891999247E+04  0.34925094961E+04 0.  0.
        3    1    3    3  502    0 -0.80131501650E+03  0.14491385232E+04 -0.15594806774E+03  0.16632582557E+04  0.10100000352E+00 0.  1.
       -3    1    3    3    0  502  0.80131501650E+03 -0.14491385232E+04  0.98343433301E+03  0.19259416691E+04  0.10100000352E+00 0. -1.
</event>
<event>
 5   0  0.1013863E-07  0.3477184E+04  0.7818609E-02  0.8119218E-01
        1   -1    0    0  501    0  0.00000000000E+00  0.00000000000E+00  0.14164245510E+04  0.14164245511E+04  0.50400001928E-02 0. -1.
       -1   -1    0    0    0  501  0.00000000000E+00  0.00000000000E+00 -0.21340365699E+04  0.21340365699E+04  0.50400001928E-02 0.  1.
    10030    2    1    2    0    0  0.00000000000E+00  0.00000000000E+00 -0.71761201889E+03  0.35504611210E+04  0.34771837976E+04 0.  0.
        5    1    3    3  502    0 -0.98793612033E+03 -0.10540158688E+04 -0.13465134443E+04  0.19748639890E+04  0.46999998093E+01 0.  1.
       -5    1    3    3    0  502  0.98793612033E+03  0.10540158688E+04  0.62890142537E+03  0.15755971320E+04  0.46999998093E+01 0. -1.
</event>
<event>
 5   0  0.3219205E-07  0.3459912E+04  0.7818609E-02  0.8123357E-01
        2   -1    0    0  501    0  0.00000000000E+00  0.00000000000E+00  0.17882274183E+04  0.17882274183E+04  0.25500000920E-02 0. -1.
       -2   -1    0    0    0  501  0.00000000000E+00  0.00000000000E+00 -0.16735834804E+04  0.16735834804E+04  0.25500000920E-02 0.  1.
    10030    2    1    2    0    0  0.00000000000E+00  0.00000000000E+00  0.11464393787E+03  0.34618108986E+04  0.34599120604E+04 0.  0.
        2    1    3    3  502    0 -0.26007570522E+03  0.15021456490E+04 -0.76084738284E+03  0.17038103367E+04  0.25500000920E-02 0.  1.
       -2    1    3    3    0  502  0.26007570522E+03 -0.15021456490E+04  0.87549132070E+03  0.17580005620E+04  0.25500000920E-02 0. -1.
</event>
<event>
 5   0  0.3219205E-07  0.3499605E+04  0.7818609E-02  0.8113884E-01
       -2   -1    0    0    0  501  0.00000000000E+00  0.00000000000E+00  0.19342543110E+04  0.19342543110E+04  0.25500000920E-02 0.  1.
        2   -1    0    0  501    0  0.00000000000E+00  0.00000000000E+00 -0.15829402038E+04  0.15829402038E+04  0.25500000920E-02 0. -1.
    10030    2    1    2    0    0  0.00000000000E+00  0.00000000000E+00  0.35131410725E+03  0.35171945148E+04  0.34996050710E+04 0.  0.
        2    1    3    3  502    0 -0.17303780500E+04 -0.14072475072E+03 -0.44067636163E+02  0.17366501109E+04  0.25500000920E-02 0.  1.
       -2    1    3    3    0  502  0.17303780500E+04  0.14072475072E+03  0.39538174341E+03  0.17805444039E+04  0.25500000920E-02 0. -1.
</event>
<event>
 5   0  0.3190112E-07  0.3506169E+04  0.7818609E-02  0.8112329E-01
       -2   -1    0    0    0  501  0.00000000000E+00  0.00000000000E+00  0.96621948725E+03  0.96621948725E+03  0.25500000920E-02 0. -1.
        2   -1    0    0  501    0  0.00000000000E+00  0.00000000000E+00 -0.31807533871E+04  0.31807533871E+04  0.25500000920E-02 0.  1.
    10030    2    1    2    0    0  0.00000000000E+00  0.00000000000E+00 -0.22145338999E+04  0.41469728744E+04  0.35061693666E+04 0.  0.
        5    1    3    3  502    0 -0.94297741016E+03 -0.12400708038E+03  0.63453194144E+03  0.11433446667E+04  0.46999998093E+01 0. -1.
       -5    1    3    3    0  502  0.94297741016E+03  0.12400708038E+03 -0.28490658413E+04  0.30036282077E+04  0.46999998093E+01 0.  1.
</event>
<event>
 5   0  0.2180451E-07  0.3504472E+04  0.7818609E-02  0.8112731E-01
        2   -1    0    0  501    0  0.00000000000E+00  0.00000000000E+00  0.12433951664E+04  0.12433951664E+04  0.25500000920E-02 0. -1.
       -2   -1    0    0    0  501  0.00000000000E+00  0.00000000000E+00 -0.24693123367E+04  0.24693123367E+04  0.25500000920E-02 0.  1.
    10030    2    1    2    0    0  0.00000000000E+00  0.00000000000E+00 -0.12259171703E+04  0.37127075031E+04  0.35044720138E+04 0.  0.
        4    1    3    3  502    0 -0.90197972654E+03 -0.67187530305E+03  0.81051138901E+03  0.13863311922E+04  0.12699999809E+01 0. -1.
       -4    1    3    3    0  502  0.90197972654E+03  0.67187530305E+03 -0.20364285593E+04  0.23263763109E+04  0.12699999809E+01 0.  1.
</event>
<event>
 5   0  0.3219205E-07  0.3462252E+04  0.7818609E-02  0.8122795E-01
       -2   -1    0    0    0  501  0.00000000000E+00  0.00000000000E+00  0.14631464102E+04  0.14631464102E+04  0.25500000920E-02 0. -1.
        2   -1    0    0  501    0  0.00000000000E+00  0.00000000000E+00 -0.20481864138E+04  0.20481864138E+04  0.25500000920E-02 0.  1.
    10030    2    1    2    0    0  0.00000000000E+00  0.00000000000E+00 -0.58504000352E+03  0.35113328240E+04  0.34622516366E+04 0.  0.
        2    1    3    3  502    0 -0.81423293690E+03 -0.72123516729E+03 -0.16583261028E+04  0.19832299174E+04  0.25500000920E-02 0.  1.
       -2    1    3    3    0  502  0.81423293690E+03  0.72123516729E+03  0.10732860993E+04  0.15281029066E+04  0.25500000920E-02 0. -1.
</event>
<event>
 5   0  0.2180451E-07  0.3521865E+04  0.7818609E-02  0.8108628E-01
        2   -1    0    0  501    0  0.00000000000E+00  0.00000000000E+00  0.21616598606E+04  0.21616598606E+04  0.25500000920E-02 0.  1.
       -2   -1    0    0    0  501  0.00000000000E+00  0.00000000000E+00 -0.14344915464E+04  0.14344915464E+04  0.25500000920E-02 0. -1.
    10030    2    1    2    0    0  0.00000000000E+00  0.00000000000E+00  0.72716831414E+03  0.35961514070E+04  0.35218647312E+04 0.  0.
        4    1    3    3  502    0  0.35217352916E+03  0.13986975405E+04  0.13950903494E+04  0.20066538566E+04  0.12699999809E+01 0.  1.
       -4    1    3    3    0  502 -0.35217352916E+03 -0.13986975405E+04 -0.66792203526E+03  0.15894975504E+04  0.12699999809E+01 0. -1.
</event>
<event>
 5   0  0.1013863E-07  0.3541084E+04  0.7818609E-02  0.8104122E-01
        1   -1    0    0  501    0  0.00000000000E+00  0.00000000000E+00  0.15653978741E+04  0.15653978741E+04  0.50400001928E-02 0.  1.
       -1   -1    0    0    0  501  0.00000000000E+00  0.00000000000E+00 -0.20025704024E+04  0.20025704024E+04  0.50400001928E-02 0. -1.
    10030    2    1    2    0    0  0.00000000000E+00  0.00000000000E+00 -0.43717252833E+03  0.35679682764E+04  0.35410842693E+04 0.  0.
        2    1    3    3  502    0  0.13063834723E+03  0.10033629581E+03 -0.19948328943E+04  0.20016223486E+04  0.25500000920E-02 0. -1.
       -2    1    3    3    0  502 -0.13063834723E+03 -0.10033629581E+03  0.15576603660E+04  0.15663459279E+04  0.25500000920E-02 0.  1.
</event>
<event>
 5   0  0.1098171E-07  0.3520234E+04  0.7818609E-02  0.8109011E-01
       -1   -1    0    0    0  501  0.00000000000E+00  0.00000000000E+00  0.13690969485E+04  0.13690969485E+04  0.50400001928E-02 0. -1.
        1   -1    0    0  501    0  0.00000000000E+00  0.00000000000E+00 -0.22628146503E+04  0.22628146503E+04  0.50400001928E-02 0.  1.
    10030    2    1    2    0    0  0.00000000000E+00  0.00000000000E+00 -0.89371770179E+03  0.36319115988E+04  0.35202344426E+04 0.  0.
        4    1    3    3  502    0 -0.11868195882E+04  0.71117387938E+03 -0.15693550309E+04  0.20921725186E+04  0.12699999809E+01 0.  1.
       -4    1    3    3    0  502  0.11868195882E+04 -0.71117387938E+03  0.67563732915E+03  0.15397390802E+04  0.12699999809E+01 0. -1.
</event>
<event>
 5   0  0.1098171E-07  0.3531382E+04  0.7818609E-02  0.8106393E-01
        1   -1    0    0  501    0  0.00000000000E+00  0.00000000000E+00  0.22953867881E+04  0.22953867881E+04  0.50400001928E-02 0. -1.
       -1   -1    0    0    0  501  0.00000000000E+00  0.00000000000E+00 -0.13582303127E+04  0.13582303127E+04  0.50400001928E-02 0.  1.
    10030    2    1    2    0    0  0.00000000000E+00  0.00000000000E+00  0.93715647540E+03  0.36536171008E+04  0.35313815511E+04 0.  0.
        4    1    3    3  502    0  0.99424557793E+03  0.78788203233E+03 -0.80209464257E+03  0.15008796736E+04  0.12699999809E+01 0.  1.
       -4    1    3    3    0  502 -0.99424557793E+03 -0.78788203233E+03  0.17392511180E+04  0.21527374272E+04  0.12699999809E+01 0. -1.
</event>
<event>
 5   0  0.2180451E-07  0.3392569E+04  0.7818609E-02  0.8139732E-01
        2   -1    0    0  501    0  0.00000000000E+00  0.00000000000E+00  0.23493924610E+04  0.23493924610E+04  0.25500000920E-02 0.  1.
       -2   -1    0    0    0  501  0.00000000000E+00  0.00000000000E+00 -0.12247343807E+04  0.12247343807E+04  0.25500000920E-02 0. -1.
    10030    2    1    2    0    0  0.00000000000E+00  0.00000000000E+00  0.11246580803E+04  0.35741268417E+04  0.33925693630E+04 0.  0.
        4    1    3    3  502    0  0.57009042251E+03  0.21249180205E+03 -0.11058313901E+04  0.12621491718E+04  0.12699999809E+01 0. -1.
       -4    1    3    3    0  502 -0.57009042251E+03 -0.21249180205E+03  0.22304894704E+04  0.23119776699E+04  0.12699999809E+01 0.  1.
</event>
<event>
 5   0  0.1013863E-07  0.3535897E+04  0.7818609E-02  0.8105335E-01
       -1   -1    0    0    0  501  0.00000000000E+00  0.00000000000E+00  0.13669401066E+04  0.13669401066E+04  0.50400001928E-02 0.  1.
        1   -1    0    0  501    0  0.00000000000E+00  0.00000000000E+00 -0.22865975584E+04  0.22865975584E+04  0.50400001928E-02 0. -1.
    10030    2    1    2    0    0  0.00000000000E+00  0.00000000000E+00 -0.91965745183E+03  0.36535376651E+04  0.35358970066E+04 0.  0.
        5    1    3    3  502    0  0.23273939527E+03 -0.15104866782E+04  0.45849360051E+03  0.15956115138E+04  0.46999998093E+01 0.  1.
       -5    1    3    3    0  502 -0.23273939527E+03  0.15104866782E+04 -0.13781510523E+04  0.20579261513E+04  0.46999998093E+01 0. -1.
</event>
<event>
 5   0  0.1013863E-07  0.3349285E+04  0.7818609E-02  0.8150467E-01
       -4   -1    0    0    0  501  0.00000000000E+00  0.00000000000E+00  0.12025711613E+04  0.12025718319E+04  0.12699999809E+01 0.  1.
        4   -1    0    0  501    0  0.00000000000E+00  0.00000000000E+00 -0.23320246954E+04  0.23320250413E+04  0.12699999809E+01 0. -1.
    10030    2    1    2    0    0  0.00000000000E+00  0.00000000000E+00 -0.11294535341E+04  0.35345968732E+04  0.33492849640E+04 0.  0.
        2    1    3    3  502    0  0.10320044674E+03 -0.13909519497E+04 -0.15428462286E+04  0.20798490675E+04  0.25500000920E-02 0. -1.
       -2    1    3    3    0  502 -0.10320044674E+03  0.13909519497E+04  0.41339269442E+03  0.14547478057E+04  0.25500000920E-02 0.  1.
</event>
<event>
 5   0  0.1098171E-07  0.3467030E+04  0.7818609E-02  0.8121648E-01
       -1   -1    0    0    0  501  0.00000000000E+00  0.00000000000E+00  0.18811500590E+04  0.18811500590E+04  0.50400001928E-02 0. -1.
        1   -1    0    0  501    0  0.00000000000E+00  0.00000000000E+00 -0.15974664755E+04  0.15974664755E+04  0.50400001928E-02 0.  1.
    10030    2    1    2    0    0  0.00000000000E+00  0.00000000000E+00  0.28368358344E+03  0.34786165345E+04  0.34670299420E+04 0.  0.
        4    1    3    3  502    0 -0.12069470608E+04 -0.11143198242E+04  0.69744565105E+03  0.17846181461E+04  0.12699999809E+01 0.  1.
       -4    1    3    3    0  502  0.12069470608E+04  0.11143198242E+04 -0.41376206761E+03  0.16939983884E+04  0.12699999809E+01 0. -1.
</event>
<event>
 5   0  0.1098171E-07  0.3499238E+04  0.7818609E-02  0.8113970E-01
        1   -1    0    0  501    0  0.00000000000E+00  0.00000000000E+00  0.14716601944E+04  0.14716601944E+04  0.50400001928E-02 0.  1.
       -1   -1    0    0    0  501  0.00000000000E+00  0.00000000000E+00 -0.20800775644E+04  0.20800775644E+04  0.50400001928E-02 0. -1.
    10030    2    1    2    0    0  0.00000000000E+00  0.00000000000E+00 -0.60841736996E+03  0.35517377588E+04  0.34992384044E+04 0.  0.
        4    1    3    3  502    0  0.17165725032E+04  0.21107563670E+03 -0.35680116137E+02  0.17298695808E+04  0.12699999809E+01 0. -1.
       -4    1    3    3    0  502 -0.17165725032E+04 -0.21107563670E+03 -0.57273725382E+03  0.18218681780E+04  0.12699999809E+01 0.  1.
</event>
<event>
 5   0  0.3119048E-07  0.3503500E+04  0.7818609E-02  0.8112961E-01
        2   -1    0    0  501    0  0.00000000000E+00  0.00000000000E+00  0.23724128382E+04  0.23724128382E+04  0.25500000920E-02 0.  1.
       -2   -1    0    0    0  501  0.00000000000E+00  0.00000000000E+00 -0.12934630579E+04  0.12934630579E+04  0.25500000920E-02 0. -1.
    10030    2    1    2    0    0  0.00000000000E+00  0.00000000000E+00  0.10789497803E+04  0.36658758960E+04  0.35035001722E+04 0.  0.
        3    1    3    3  502    0  0.14486660904E+04 -0.91857661937E+03  0.16774645858E+03  0.17235299045E+04  0.10100000352E+00 0. -1.
       -3    1    3    3    0  502 -0.14486660904E+04  0.91857661937E+03  0.91120332172E+03  0.19423459915E+04  0.10100000352E+00 0.  1.
</event>
<event>
 5   0  0.1013863E-07  0.3506208E+04  0.7818609E-02  0.8112320E-01
        1   -1    0    0  501    0  0.00000000000E+00  0.00000000000E+00  0.19353719119E+04  0.19353719120E+04  0.50400001928E-02 0. -1.
       -1   -1    0    0    0  501  0.00000000000E+00  0.00000000000E+00 -0.15880016127E+04  0.15880016127E+04  0.50400001928E-02 0.  1.
    10030    2    1    2    0    0  0.00000000000E+00  0.00000000000E+00  0.34737029925E+03  0.35233735247E+04  0.35062080471E+04 0.  0.
        2    1    3    3  502    0  0.12659157125E+04  0.11874660971E+04  0.42137797465E+03  0.17861068615E+04  0.25500000920E-02 0.  1.
       -2    1    3    3    0  502 -0.12659157125E+04 -0.11874660971E+04 -0.74007675408E+02  0.17372666632E+04  0.25500000920E-02 0. -1.
</event>
<event>
 5   0  0.3119048E-07  0.3492769E+04  0.7818609E-02  0.8115506E-01
        2   -1    0    0  501    0  0.00000000000E+00  0.00000000000E+00  0.11062364773E+04  0.11062364773E+04  0.25500000920E-02 0.  1.
       -2   -1    0    0    0  501  0.00000000000E+00  0.00000000000E+00 -0.27569684143E+04  0.27569684143E+04  0.25500000920E-02 0. -1.
    10030    2    1    2    0    0  0.00000000000E+00  0.00000000000E+00 -0.16507319370E+04  0.38632048916E+04  0.34927691173E+04 0.  0.
        3    1    3    3  502    0 -0.59719590711E+03  0.71412863383E+03 -0.24596526505E+04  0.26299265823E+04  0.10100000352E+00 0. -1.
       -3    1    3    3    0  502  0.59719590711E+03 -0.71412863383E+03  0.80892071355E+03  0.12332783093E+04  0.10100000352E+00 0.  1.
</event>
<event>
 5   0  0.1013863E-07  0.3500960E+04  0.7818609E-02  0.8113562E-01
       -1   -1    0    0    0  501  0.00000000000E+00  0.00000000000E+00  0.25446683500E+04  0.25446683500E+04  0.50400001928E-02 0. -1.
        1   -1    0    0  501    0  0.00000000000E+00  0.00000000000E+00 -0.12041571767E+04  0.12041571767E+04  0.50400001928E-02 0.  1.
    10030    2    1    2    0    0  0.00000000000E+00  0.00000000000E+00  0.13405111732E+04  0.37488255267E+04  0.35009602431E+04 0.  0.
        5    1    3    3  502    0  0.96042308074E+03 -0.14611578846E+04  0.75832000707E+03  0.19059029831E+04  0.46999998093E+01 0. -1.
       -5    1    3    3    0  502 -0.96042308074E+03  0.14611578846E+04  0.58219116618E+03  0.18429225436E+04  0.46999998093E+01 0.  1.
</event>
<event>
 5   0  0.3119048E-07  0.3512840E+04  0.7818609E-02  0.8110754E-01
       -2   -1    0    0    0  501  0.00000000000E+00  0.00000000000E+00  0.11333634256E+04  0.11333634256E+04  0.25500000920E-02 0.  1.
        2   -1    0    0  501    0  0.00000000000E+00  0.00000000000E+00 -0.27219963027E+04  0.27219963027E+04  0.25500000920E-02 0. -1.
    10030    2    1    2    0    0  0.00000000000E+00  0.00000000000E+00 -0.15886328772E+04  0.38553597283E+04  0.35128399076E+04 0.  0.
        3    1    3    3  502    0 -0.12997054377E+04 -0.98706905912E+03 -0.81806952455E+02  0.16340844347E+04  0.10100000352E+00 0.  1.
       -3    1    3    3    0  502  0.12997054377E+04  0.98706905912E+03 -0.15068259247E+04  0.22212752935E+04  0.10100000352E+00 0. -1.
</event>
<event>
 5   0  0.1072381E-07  0.3483208E+04  0.7818609E-02  0.8117781E-01
        1   -1    0    0  501    0  0.00000000000E+00  0.00000000000E+00  0.26559069755E+04  0.26559069755E+04  0.50400001928E-02 0. -1.
       -1   -1    0    0    0  501  0.00000000000E+00  0.00000000000E+00 -0.11420520747E+04  0.11420520748E+04  0.50400001928E-02 0.  1.
    10030    2    1    2    0    0  0.00000000000E+00  0.00000000000E+00  0.15138549007E+04  0.37979590502E+04  0.34832077582E+04 0.  0.
        1    1    3    3  502    0 -0.12470689763E+04 -0.11671440911E+04  0.11279355385E+04  0.20468622181E+04  0.50400001928E-02 0.  1.
       -1    1    3    3    0  502  0.12470689763E+04  0.11671440911E+04  0.38591936226E+03  0.17510968321E+04  0.50400001928E-02 0. -1.
</event>
<event>
 5   0  0.1013863E-07  0.3509239E+04  0.7818609E-02  0.8111604E-01
        1   -1    0    0  501    0  0.00000000000E+00  0.00000000000E+00  0.18288003003E+04  0.18288003003E+04  0.50400001928E-02 0.  1.
       -1   -1    0    0    0  501  0.00000000000E+00  0.00000000000E+00 -0.16834479655E+04  0.16834479655E+04  0.50400001928E-02 0. -1.
    10030    2    1    2    0    0  0.00000000000E+00  0.00000000000E+00  0.14535233483E+03  0.35122482658E+04  0.35092393163E+04 0.  0.
        5    1    3    3  502    0  0.26308776379E+03 -0.86407869551E+03  0.15782335409E+04  0.18184307419E+04  0.46999998093E+01 0.  1.
       -5    1    3    3    0  502 -0.26308776379E+03  0.86407869551E+03 -0.14328812061E+04  0.16938175239E+04  0.46999998093E+01 0. -1.
</event>
<event>
 5   0  0.3119048E-07  0.3523654E+04  0.7818609E-02  0.8108207E-01
       -2   -1    0    0    0  501  0.00000000000E+00  0.00000000000E+00  0.15860775908E+04  0.15860775908E+04  0.25500000920E-02 0.  1.
        2   -1    0    0  501    0  0.00000000000E+00  0.00000000000E+00 -0.19570507030E+04  0.19570507030E+04  0.25500000920E-02 0. -1.
    10030    2    1    2    0    0  0.00000000000E+00  0.00000000000E+00 -0.37097311220E+03  0.35431282939E+04  0.35236539355E+04 0.  0.
        3    1    3    3  502    0  0.89351700931E+03  0.64610964411E+03  0.11962271905E+04  0.16268957618E+04  0.10100000352E+00 0.  1.
       -3    1    3    3    0  502 -0.89351700931E+03 -0.64610964411E+03 -0.15672003027E+04  0.19162325321E+04  0.10100000352E+00 0. -1.
</event>
<event>
 5   0  0.1072381E-07  0.3490868E+04  0.7818609E-02  0.8115958E-01
        1   -1    0    0  501    0  0.00000000000E+00  0.00000000000E+00  0.20101685471E+04  0.20101685471E+04  0.50400001928E-02 0. -1.
       -1   -1    0    0    0  501  0.00000000000E+00  0.00000000000E+00 -0.15155643816E+04  0.15155643816E+04  0.50400001928E-02 0.  1.
    10030    2    1    2    0    0  0.00000000000E+00  0.00000000000E+00  0.49460416553E+03  0.35257329287E+04  0.34908680015E+04 0.  0.
        1    1    3    3  502    0  0.11945634031E+04  0.15876408703E+03  0.15225895812E+04  0.19417689853E+04  0.50400001928E-02 0. -1.
       -1    1    3    3    0  502 -0.11945634031E+04 -0.15876408703E+03 -0.10279854157E+04  0.15839639435E+04  0.50400001928E-02 0.  1.
</event>
<event>
 5   0  0.1013863E-07  0.3469540E+04  0.7818609E-02  0.8121047E-01
       -1   -1    0    0    0  501  0.00000000000E+00  0.00000000000E+00  0.13502438551E+04  0.13502438551E+04  0.50400001928E-02 0.  1.
        1   -1    0    0  501    0  0.00000000000E+00  0.00000000000E+00 -0.22288028779E+04  0.22288028779E+04  0.50400001928E-02 0. -1.
    10030    2    1    2    0    0  0.00000000000E+00  0.00000000000E+00 -0.87855902281E+03  0.35790467330E+04  0.34695402520E+04 0.  0.
        2    1    3    3  502    0  0.33737461058E+03  0.33344243212E+03  0.12820458193E+04  0.13669846255E+04  0.25500000920E-02 0.  1.
       -2    1    3    3    0  502 -0.33737461058E+03 -0.33344243212E+03 -0.21606048422E+04  0.22120621075E+04  0.25500000920E-02 0. -1.
</event>
<event>
 5   0  0.3219205E-07  0.3510400E+04  0.7818609E-02  0.8111330E-01
        2   -1    0    0  501    0  0.00000000000E+00  0.00000000000E+00  0.21101197743E+04  0.21101197743E+04  0.25500000920E-02 0. -1.
       -2   -1    0    0    0  501  0.00000000000E+00  0.00000000000E+00 -0.14599774156E+04  0.14599774156E+04  0.25500000920E-02 0.  1.
    10030    2    1    2    0    0  0.00000000000E+00  0.00000000000E+00  0.65014235864E+03  0.35700971899E+04  0.35104000995E+04 0.  0.
        2    1    3    3  502    0  0.70894853790E+03  0.99499425731E+03 -0.95656013893E+03  0.15516536021E+04  0.25500000920E-02 0.  1.
       -2    1    3    3    0  502 -0.70894853790E+03 -0.99499425731E+03  0.16067024976E+04  0.20184435878E+04  0.25500000920E-02 0. -1.
</event>
<event>
 5   0  0.3219205E-07  0.3504525E+04  0.7818609E-02  0.8112718E-01
       -2   -1    0    0    0  501  0.00000000000E+00  0.00000000000E+00  0.19911695058E+04  0.19911695058E+04  0.25500000920E-02 0.  1.
        2   -1    0    0  501    0  0.00000000000E+00  0.00000000000E+00 -0.15420201285E+04  0.15420201285E+04  0.25500000920E-02 0. -1.
    10030    2    1    2    0    0  0.00000000000E+00  0.00000000000E+00  0.44914937730E+03  0.35331896343E+04  0.35045247650E+04 0.  0.
        2    1    3    3  502    0 -0.25096784034E+03  0.11116659245E+04  0.15664904168E+04  0.19371830607E+04  0.25500000920E-02 0.  1.
       -2    1    3    3    0  502  0.25096784034E+03 -0.11116659245E+04 -0.11173410395E+04  0.15960065736E+04  0.25500000920E-02 0. -1.
</event>
<event>
 5   0  0.2180451E-07  0.3501345E+04  0.7818609E-02  0.8113471E-01
       -2   -1    0    0    0  501  0.00000000000E+00  0.00000000000E+00  0.13271206050E+04  0.13271206050E+04  0.25500000920E-02 0. -1.
        2   -1    0    0  501    0  0.00000000000E+00  0.00000000000E+00 -0.23094013788E+04  0.23094013788E+04  0.25500000920E-02 0.  1.
    10030    2    1    2    0    0  0.00000000000E+00  0.00000000000E+00 -0.98228077382E+03  0.36365219838E+04  0.35013449730E+04 0.  0.
        4    1    3    3  502    0  0.13389219261E+04 -0.10501002881E+04 -0.91865058038E+03  0.19337381004E+04  0.12699999809E+01 0. -1.
       -4    1    3    3    0  502 -0.13389219261E+04  0.10501002881E+04 -0.63630193445E+02  0.17027838834E+04  0.12699999809E+01 0.  1.
</event>
<event>
 5   0  0.3190185E-07  0.3630550E+04  0.7818609E-02  0.8083529E-01
        2   -1    0    0  501    0  0.00000000000E+00  0.00000000000E+00  0.12103255704E+04  0.12103255704E+04  0.25500000920E-02 0.  1.
       -2   -1    0    0    0  501  0.00000000000E+00  0.00000000000E+00 -0.27225931591E+04  0.27225931591E+04  0.25500000920E-02 0. -1.
    10030    2    1    2    0    0  0.00000000000E+00  0.00000000000E+00 -0.15122675887E+04  0.39329187295E+04  0.36305504366E+04 0.  0.
        1    1    3    3  502    0  0.16907857582E+03  0.15147431199E+02 -0.27139758525E+04  0.27192796725E+04  0.50400001928E-02 0. -1.
       -1    1    3    3    0  502 -0.16907857582E+03 -0.15147431199E+02  0.12017082637E+04  0.12136390570E+04  0.50400001928E-02 0.  1.
</event>
<event>
 5   0  0.3190112E-07  0.3490861E+04  0.7818609E-02  0.8115959E-01
       -2   -1    0    0    0  501  0.00000000000E+00  0.00000000000E+00  0.15129018363E+04  0.15129018363E+04  0.25500000920E-02 0.  1.
        2   -1    0    0  501    0  0.00000000000E+00  0.00000000000E+00 -0.20136983012E+04  0.20136983012E+04  0.25500000920E-02 0. -1.
    10030    2    1    2    0    0  0.00000000000E+00  0.00000000000E+00 -0.50079646493E+03  0.35266001375E+04  0.34908611303E+04 0.  0.
        5    1    3    3  502    0  0.42337458544E+03  0.17318297272E+03  0.14512656478E+04  0.15216545114E+04  0.46999998093E+01 0.  1.
       -5    1    3    3    0  502 -0.42337458544E+03 -0.17318297272E+03 -0.19520621127E+04  0.20049456261E+04  0.46999998093E+01 0. -1.
</event>
<event>
 5   0  0.2180451E-07  0.3423304E+04  0.7818609E-02  0.8132210E-01
        2   -1    0    0  501    0  0.00000000000E+00  0.00000000000E+00  0.16952144010E+04  0.16952144010E+04  0.25500000920E-02 0.  1.
       -2   -1    0    0    0  501  0.00000000000E+00  0.00000000000E+00 -0.17282493299E+04  0.17282493299E+04  0.25500000920E-02 0. -1.
    10030    2    1    2    0    0  0.00000000000E+00  0.00000000000E+00 -0.33034928914E+02  0.34234637309E+04  0.34233043408E+04 0.  0.
        4    1    3    3  502    0 -0.68176513890E+03 -0.32604220336E+03 -0.15523768200E+04  0.17265522370E+04  0.12699999809E+01 0. -1.
       -4    1    3    3    0  502  0.68176513890E+03  0.32604220336E+03  0.15193418911E+04  0.16969114938E+04  0.12699999809E+01 0.  1.
</event>
<event>
 5   0  0.3190185E-07  0.3582688E+04  0.7818609E-02  0.8094469E-01
        2   -1    0    0  501    0  0.00000000000E+00  0.00000000000E+00  0.11938194525E+04  0.11938194525E+04  0.25500000920E-02 0.  1.
       -2   -1    0    0    0  501  0.00000000000E+00  0.00000000000E+00 -0.26879383563E+04  0.26879383563E+04  0.25500000920E-02 0. -1.
    10030    2    1    2    0    0  0.00000000000E+00  0.00000000000E+00 -0.14941189037E+04  0.38817578088E+04  0.35826878719E+04 0.  0.
        1    1    3    3  502    0  0.84273883230E+02 -0.11653382698E+04 -0.22182743000E+04  0.25071609921E+04  0.50400001928E-02 0. -1.
       -1    1    3    3    0  502 -0.84273883230E+02  0.11653382698E+04  0.72415539625E+03  0.13745968167E+04  0.50400001928E-02 0.  1.
</event>
<event>
 5   0  0.1013863E-07  0.3480658E+04  0.7818609E-02  0.8118389E-01
        1   -1    0    0  501    0  0.00000000000E+00  0.00000000000E+00  0.91188954385E+03  0.91188954387E+03  0.50400001928E-02 0. -1.
       -1   -1    0    0    0  501  0.00000000000E+00  0.00000000000E+00 -0.33213943181E+04  0.33213943181E+04  0.50400001928E-02 0.  1.
    10030    2    1    2    0    0  0.00000000000E+00  0.00000000000E+00 -0.24095047743E+04  0.42332838620E+04  0.34806578400E+04 0.  0.
        5    1    3    3  502    0 -0.33302236537E+03  0.10134489535E+04  0.46761604909E+03  0.11647615793E+04  0.46999998093E+01 0. -1.
       -5    1    3    3    0  502  0.33302236537E+03 -0.10134489535E+04 -0.28771208234E+04  0.30685222827E+04  0.46999998093E+01 0.  1.
</event>
<event>
 5   0  0.1013863E-07  0.3502424E+04  0.7818609E-02  0.8113216E-01
        1   -1    0    0  501    0  0.00000000000E+00  0.00000000000E+00  0.16098385615E+04  0.16098385615E+04  0.50400001928E-02 0. -1.
       -1   -1    0    0    0  501  0.00000000000E+00  0.00000000000E+00 -0.19050004835E+04  0.19050004835E+04  0.50400001928E-02 0.  1.
    10030    2    1    2    0    0  0.00000000000E+00  0.00000000000E+00 -0.29516192201E+03  0.35148390450E+04  0.35024238681E+04 0.  0.
        5    1    3    3  502    0  0.16515680772E+04 -0.22633988081E+03 -0.68596591787E+03  0.18026309067E+04  0.46999998093E+01 0.  1.
       -5    1    3    3    0  502 -0.16515680772E+04  0.22633988081E+03  0.39080399586E+03  0.17122081382E+04  0.46999998093E+01 0. -1.
</event>
<event>
 5   0  0.1072381E-07  0.3513970E+04  0.7818609E-02  0.8110487E-01
       -1   -1    0    0    0  501  0.00000000000E+00  0.00000000000E+00  0.14278340288E+04  0.14278340289E+04  0.50400001928E-02 0.  1.
        1   -1    0    0  501    0  0.00000000000E+00  0.00000000000E+00 -0.21620136882E+04  0.21620136882E+04  0.50400001928E-02 0. -1.
    10030    2    1    2    0    0  0.00000000000E+00  0.00000000000E+00 -0.73417965933E+03  0.35898477170E+04  0.35139702417E+04 0.  0.
        1    1    3    3  502    0  0.42109679192E+02  0.13057472899E+04 -0.15672975941E+04  0.20403850026E+04  0.50400001928E-02 0. -1.
       -1    1    3    3    0  502 -0.42109679192E+02 -0.13057472899E+04  0.83311793475E+03  0.15494627145E+04  0.50400001928E-02 0.  1.
</event>
<event>
 5   0  0.3190112E-07  0.3494507E+04  0.7818609E-02  0.8115093E-01
        2   -1    0    0  501    0  0.00000000000E+00  0.00000000000E+00  0.23600054824E+04  0.23600054824E+04  0.25500000920E-02 0.  1.
       -2   -1    0    0    0  501  0.00000000000E+00  0.00000000000E+00 -0.12935963931E+04  0.12935963931E+04  0.25500000920E-02 0. -1.
    10030    2    1    2    0    0  0.00000000000E+00  0.00000000000E+00  0.10664090893E+04  0.36536018755E+04  0.34945068778E+04 0.  0.
        5    1    3    3  502    0 -0.96020071377E+03  0.92973315662E+03  0.17098213905E+04  0.21702305017E+04  0.46999998093E+01 0.  1.
       -5    1    3    3    0  502  0.96020071377E+03 -0.92973315662E+03 -0.64341230119E+03  0.14833713738E+04  0.46999998093E+01 0. -1.
</event>
<event>
 5   0  0.1098171E-07  0.3505592E+04  0.7818609E-02  0.8112466E-01
        1   -1    0    0  501    0  0.00000000000E+00  0.00000000000E+00  0.15778087811E+04  0.15778087811E+04  0.50400001928E-02 0. -1.
       -1   -1    0    0    0  501  0.00000000000E+00  0.00000000000E+00 -0.19471898654E+04  0.19471898654E+04  0.50400001928E-02 0.  1.
    10030    2    1    2    0    0  0.00000000000E+00  0.00000000000E+00 -0.36938108434E+03  0.35249986465E+04  0.35055916864E+04 0.  0.
        4    1    3    3  502    0 -0.67776518815E+03  0.13288311492E+04  0.74080349431E+03  0.16655177283E+04  0.12699999809E+01 0. -1.
       -4    1    3    3    0  502  0.67776518815E+03 -0.13288311492E+04 -0.11101845787E+04  0.18594809181E+04  0.12699999809E+01 0.  1.
</event>
<event>
 5   0  0.3190185E-07  0.3499493E+04  0.7818609E-02  0.8113910E-01
       -2   -1    0    0    0  501  0.00000000000E+00  0.00000000000E+00  0.16916477662E+04  0.16916477662E+04  0.25500000920E-02 0. -1.
        2   -1    0    0  501    0  0.00000000000E+00  0.00000000000E+00 -0.18098410959E+04  0.18098410959E+04  0.25500000920E-02 0.  1.
    10030    2    1    2    0    0  0.00000000000E+00  0.00000000000E+00 -0.11819332967E+03  0.35014888620E+04  0.34994934759E+04 0.  0.
        1    1    3    3  502    0 -0.96790789274E+03 -0.12385692127E+04 -0.82811428344E+03  0.17767027466E+04  0.50400001928E-02 0.  1.
       -1    1    3    3    0  502  0.96790789274E+03  0.12385692127E+04  0.70992095377E+03  0.17247861154E+04  0.50400001928E-02 0. -1.
</event>
<event>
 5   0  0.1013863E-07  0.3478617E+04  0.7818609E-02  0.8118876E-01
       -3   -1    0    0    0  501  0.00000000000E+00  0.00000000000E+00  0.12309715807E+04  0.12309715848E+04  0.10100000352E+00 0. -1.
        3   -1    0    0  501    0  0.00000000000E+00  0.00000000000E+00 -0.24575657544E+04  0.24575657564E+04  0.10100000352E+00 0.  1.
    10030    2    1    2    0    0  0.00000000000E+00  0.00000000000E+00 -0.12265941737E+04  0.36885373413E+04  0.34786167439E+04 0.  0.
        4    1    3    3  502    0 -0.12996217101E+04  0.88979012491E+02 -0.18353467211E+04  0.22506516953E+04  0.12699999809E+01 0.  1.
       -4    1    3    3    0  502  0.12996217101E+04 -0.88979012491E+02  0.60875254740E+03  0.14378856460E+04  0.12699999809E+01 0. -1.
</event>
<event>
 5   0  0.3219205E-07  0.3500764E+04  0.7818609E-02  0.8113609E-01
        2   -1    0    0  501    0  0.00000000000E+00  0.00000000000E+00  0.24605843777E+04  0.24605843777E+04  0.25500000920E-02 0.  1.
       -2   -1    0    0    0  501  0.00000000000E+00  0.00000000000E+00 -0.12451665682E+04  0.12451665682E+04  0.25500000920E-02 0. -1.
    10030    2    1    2    0    0  0.00000000000E+00  0.00000000000E+00  0.12154178095E+04  0.37057509459E+04  0.35007641482E+04 0.  0.
        2    1    3    3  502    0  0.48306935144E+03  0.14940152502E+02 -0.11731372548E+04  0.12687908515E+04  0.25500000920E-02 0. -1.
       -2    1    3    3    0  502 -0.48306935144E+03 -0.14940152502E+02  0.23885550642E+04  0.24369600943E+04  0.25500000920E-02 0.  1.
</event>
<event>
 5   0  0.1013863E-07  0.3491672E+04  0.7818609E-02  0.8115767E-01
       -1   -1    0    0    0  501  0.00000000000E+00  0.00000000000E+00  0.17896839774E+04  0.17896839774E+04  0.50400001928E-02 0. -1.
        1   -1    0    0  501    0  0.00000000000E+00  0.00000000000E+00 -0.17030618387E+04  0.17030618387E+04  0.50400001928E-02 0.  1.
    10030    2    1    2    0    0  0.00000000000E+00  0.00000000000E+00  0.86622138771E+02  0.34927458161E+04  0.34916715110E+04 0.  0.
        5    1    3    3  502    0 -0.88596429938E+03 -0.40889144516E+03 -0.14048205868E+04  0.17104583961E+04  0.46999998093E+01 0.  1.
       -5    1    3    3    0  502  0.88596429938E+03  0.40889144516E+03  0.14914427256E+04  0.17822874200E+04  0.46999998093E+01 0. -1.
</event>
<event>
 5   0  0.2180451E-07  0.3518074E+04  0.7818609E-02  0.8109520E-01
       -2   -1    0    0    0  501  0.00000000000E+00  0.00000000000E+00  0.28503211911E+04  0.28503211911E+04  0.25500000920E-02 0.  1.
        2   -1    0    0  501    0  0.00000000000E+00  0.00000000000E+00 -0.10855660272E+04  0.10855660272E+04  0.25500000920E-02 0. -1.
    10030    2    1    2    0    0  0.00000000000E+00  0.00000000000E+00  0.17647551640E+04  0.39358872183E+04  0.35180743890E+04 0.  0.
        4    1    3    3  502    0  0.11120660302E+04  0.26060882527E+00 -0.64239226948E+03  0.12842742558E+04  0.12699999809E+01 0. -1.
       -4    1    3    3    0  502 -0.11120660302E+04 -0.26060882527E+00  0.24071474335E+04  0.26516129625E+04  0.12699999809E+01 0.  1.
</event>
<event>
 5   0  0.3119048E-07  0.3506359E+04  0.7818609E-02  0.8112285E-01
       -2   -1    0    0    0  501  0.00000000000E+00  0.00000000000E+00  0.17981766910E+04  0.17981766910E+04  0.25500000920E-02 0. -1.
        2   -1    0    0  501    0  0.00000000000E+00  0.00000000000E+00 -0.17093087019E+04  0.17093087019E+04  0.25500000920E-02 0.  1.
    10030    2    1    2    0    0  0.00000000000E+00  0.00000000000E+00  0.88867989134E+02  0.35074853928E+04  0.35063594028E+04 0.  0.
        3    1    3    3  502    0 -0.12574297484E+04  0.10929661838E+04  0.59044295505E+03  0.17675767436E+04  0.10100000352E+00 0.  1.
       -3    1    3    3    0  502  0.12574297484E+04 -0.10929661838E+04 -0.50157496591E+03  0.17399086493E+04  0.10100000352E+00 0. -1.
</event>
<event>
 5   0  0.1098171E-07  0.3538698E+04  0.7818609E-02  0.8104680E-01
        1   -1    0    0  501    0  0.00000000000E+00  0.00000000000E+00  0.17708476524E+04  0.17708476524E+04  0.50400001928E-02 0. -1.
       -1   -1    0    0    0  501  0.00000000000E+00  0.00000000000E+00 -0.17678517023E+04  0.17678517023E+04  0.50400001928E-02 0.  1.
    10030    2    1    2    0    0  0.00000000000E+00  0.00000000000E+00  0.29959500821E+01  0.35386993547E+04  0.35386980865E+04 0.  0.
        4    1    3    3  502    0 -0.89323792356E+03 -0.74647312590E+03  0.13339767106E+04  0.17704777867E+04  0.12699999809E+01 0. -1.
       -4    1    3    3    0  502  0.89323792356E+03  0.74647312590E+03 -0.13309807605E+04  0.17682215680E+04  0.12699999809E+01 0.  1.
</event>
<event>
 5   0  0.3190185E-07  0.3493659E+04  0.7818609E-02  0.8115294E-01
        2   -1    0    0  501    0  0.00000000000E+00  0.00000000000E+00  0.14395435735E+04  0.14395435735E+04  0.25500000920E-02 0. -1.
       -2   -1    0    0    0  501  0.00000000000E+00  0.00000000000E+00 -0.21197083043E+04  0.21197083043E+04  0.25500000920E-02 0.  1.
    10030    2    1    2    0    0  0.00000000000E+00  0.00000000000E+00 -0.68016473072E+03  0.35592518778E+04  0.34936585220E+04 0.  0.
        1    1    3    3  502    0 -0.15232893962E+04 -0.28374097564E+03  0.48159166917E+03  0.16226059477E+04  0.50400001928E-02 0. -1.
       -1    1    3    3    0  502  0.15232893962E+04  0.28374097564E+03 -0.11617563999E+04  0.19366459301E+04  0.50400001928E-02 0.  1.
</event>
<event>
 5   0  0.1013863E-07  0.3500634E+04  0.7818609E-02  0.8113640E-01
        1   -1    0    0  501    0  0.00000000000E+00  0.00000000000E+00  0.11168100633E+04  0.11168100633E+04  0.50400001928E-02 0. -1.
       -1   -1    0    0    0  501  0.00000000000E+00  0.00000000000E+00 -0.27431779395E+04  0.27431779395E+04  0.50400001928E-02 0.  1.
    10030    2    1    2    0    0  0.00000000000E+00  0.00000000000E+00 -0.16263678761E+04  0.38599880028E+04  0.35006335017E+04 0.  0.
        5    1    3    3  502    0  0.15939802281E+04 -0.72241944019E+03 -0.84669851248E+03  0.19441150368E+04  0.46999998093E+01 0. -1.
       -5    1    3    3    0  502 -0.15939802281E+04  0.72241944019E+03 -0.77966936364E+03  0.19158729660E+04  0.46999998093E+01 0.  1.
</event>
<event>
 5   0  0.1072381E-07  0.3480085E+04  0.7818609E-02  0.8118526E-01
        1   -1    0    0  501    0  0.00000000000E+00  0.00000000000E+00  0.23166531064E+04  0.23166531064E+04  0.50400001928E-02 0.  1.
       -1   -1    0    0    0  501  0.00000000000E+00  0.00000000000E+00 -0.13069495273E+04  0.13069495273E+04  0.50400001928E-02 0. -1.
    10030    2    1    2    0    0  0.00000000000E+00  0.00000000000E+00  0.10097035791E+04  0.36236026336E+04  0.34800854485E+04 0.  0.
        1    1    3    3  502    0 -0.73483780446E+03 -0.30242174477E+02  0.21468596643E+04  0.22693407867E+04  0.50400001928E-02 0.  1.
       -1    1    3    3    0  502  0.73483780446E+03  0.30242174477E+02 -0.11371560852E+04  0.13542618470E+04  0.50400001928E-02 0. -1.
</event>
<event>
 5   0  0.1033796E-07  0.3495033E+04  0.7818609E-02  0.8114968E-01
       -1   -1    0    0    0  501  0.00000000000E+00  0.00000000000E+00  0.14644716356E+04  0.14644716356E+04  0.50400001928E-02 0.  1.
        1   -1    0    0  501    0  0.00000000000E+00  0.00000000000E+00 -0.20852663781E+04  0.20852663781E+04  0.50400001928E-02 0. -1.
    10030    2    1    2    0    0  0.00000000000E+00  0.00000000000E+00 -0.62079474252E+03  0.35497380137E+04  0.34950327400E+04 0.  0.
        3    1    3    3  502    0  0.40251173704E+03  0.31794300333E+03  0.13862922663E+04  0.14781440084E+04  0.10100000352E+00 0.  1.
       -3    1    3    3    0  502 -0.40251173704E+03 -0.31794300333E+03 -0.20070870088E+04  0.20715940053E+04  0.10100000352E+00 0. -1.
</event>
<event>
 5   0  0.1098171E-07  0.3500343E+04  0.7818609E-02  0.8113709E-01
        1   -1    0    0  501    0  0.00000000000E+00  0.00000000000E+00  0.96641945455E+03  0.96641945456E+03  0.50400001928E-02 0.  1.
       -1   -1    0    0    0  501  0.00000000000E+00  0.00000000000E+00 -0.31695345618E+04  0.31695345619E+04  0.50400001928E-02 0. -1.
    10030    2    1    2    0    0  0.00000000000E+00  0.00000000000E+00 -0.22031151073E+04  0.41359540164E+04  0.35003427618E+04 0.  0.
        4    1    3    3  502    0  0.54566889455E+02 -0.73818325299E+03  0.77236623566E+03  0.10697865560E+04  0.12699999809E+01 0.  1.
       -4    1    3    3    0  502 -0.54566889455E+02  0.73818325299E+03 -0.29754813430E+04  0.30661674605E+04  0.12699999809E+01 0. -1.
</event>
<event>
 5   0  0.3190185E-07  0.3644485E+04  0.7818609E-02  0.8080377E-01
       -2   -1    0    0    0  501  0.00000000000E+00  0.00000000000E+00  0.30195967201E+04  0.30195967201E+04  0.25500000920E-02 0. -1.
        2   -1    0    0  501    0  0.00000000000E+00  0.00000000000E+00 -0.10996723025E+04  0.10996723025E+04  0.25500000920E-02 0.  1.
    10030    2    1    2    0    0  0.00000000000E+00  0.00000000000E+00  0.19199244176E+04  0.41192690226E+04  0.36444845331E+04 0.  0.
        1    1    3    3  502    0  0.13918431385E+04 -0.35679837660E+03 -0.30677003190E+03  0.14692311786E+04  0.50400001928E-02 0.  1.
       -1    1    3    3    0  502 -0.13918431385E+04  0.35679837660E+03  0.22266944495E+04  0.26500378440E+04  0.50400001928E-02 0. -1.
</event>
<event>
 5   0  0.1013863E-07  0.3497597E+04  0.7818609E-02  0.8114360E-01
       -1   -1    0    0    0  501  0.00000000000E+00  0.00000000000E+00  0.13294307824E+04  0.13294307825E+04  0.50400001928E-02 0.  1.
        1   -1    0    0  501    0  0.00000000000E+00  0.00000000000E+00 -0.23004557921E+04  0.23004557921E+04  0.50400001928E-02 0. -1.
    10030    2    1    2    0    0  0.00000000000E+00  0.00000000000E+00 -0.97102500964E+03  0.36298865745E+04  0.34975973145E+04 0.  0.
        5    1    3    3  502    0 -0.14449904293E+04  0.88079875228E+03 -0.94318048312E+03  0.19373732982E+04  0.46999998093E+01 0. -1.
       -5    1    3    3    0  502  0.14449904293E+04 -0.88079875228E+03 -0.27844526526E+02  0.16925132763E+04  0.46999998093E+01 0.  1.
</event>
<event>
 5   0  0.3119048E-07  0.3507352E+04  0.7818609E-02  0.8112050E-01
        2   -1    0    0  501    0  0.00000000000E+00  0.00000000000E+00  0.17808710975E+04  0.17808710975E+04  0.25500000920E-02 0. -1.
       -2   -1    0    0    0  501  0.00000000000E+00  0.00000000000E+00 -0.17268960435E+04  0.17268960435E+04  0.25500000920E-02 0.  1.
    10030    2    1    2    0    0  0.00000000000E+00  0.00000000000E+00  0.53975054003E+02  0.35077671410E+04  0.35073518513E+04 0.  0.
        3    1    3    3  502    0  0.16276956006E+04  0.41086501374E+03 -0.48019796185E+03  0.17460793569E+04  0.10100000352E+00 0.  1.
       -3    1    3    3    0  502 -0.16276956006E+04 -0.41086501374E+03  0.53417301585E+03  0.17616877841E+04  0.10100000352E+00 0. -1.
</event>
<event>
 5   0  0.3190112E-07  0.3515217E+04  0.7818609E-02  0.8110193E-01
       -2   -1    0    0    0  501  0.00000000000E+00  0.00000000000E+00  0.15883426888E+04  0.15883426888E+04  0.25500000920E-02 0. -1.
        2   -1    0    0  501    0  0.00000000000E+00  0.00000000000E+00 -0.19449126857E+04  0.19449126857E+04  0.25500000920E-02 0.  1.
    10030    2    1    2    0    0  0.00000000000E+00  0.00000000000E+00 -0.35656999694E+03  0.35332553745E+04  0.35152171169E+04 0.  0.
        5    1    3    3  502    0  0.69883981055E+03 -0.58859766830E+03 -0.16874360927E+04  0.19189285951E+04  0.46999998093E+01 0.  1.
       -5    1    3    3    0  502 -0.69883981055E+03  0.58859766830E+03  0.13308660958E+04  0.16143267795E+04  0.46999998093E+01 0. -1.
</event>
<event>
 5   0  0.1013863E-07  0.3495457E+04  0.7818609E-02  0.8114868E-01
       -1   -1    0    0    0  501  0.00000000000E+00  0.00000000000E+00  0.26565143619E+04  0.26565143619E+04  0.50400001928E-02 0.  1.
        1   -1    0    0  501    0  0.00000000000E+00  0.00000000000E+00 -0.11498353542E+04  0.11498353542E+04  0.50400001928E-02 0. -1.
    10030    2    1    2    0    0  0.00000000000E+00  0.00000000000E+00  0.15066790077E+04  0.38063497161E+04  0.34954565552E+04 0.  0.
        2    1    3    3  502    0 -0.67004374311E+03 -0.15337239736E+04  0.20530157293E+03  0.16862433338E+04  0.25500000920E-02 0.  1.
       -2    1    3    3    0  502  0.67004374311E+03  0.15337239736E+04  0.13013774347E+04  0.21201063824E+04  0.25500000920E-02 0. -1.
</event>
<event>
 5   0  0.1098171E-07  0.3492825E+04  0.7818609E-02  0.8115492E-01
        1   -1    0    0  501    0  0.00000000000E+00  0.00000000000E+00  0.18145618818E+04  0.18145618818E+04  0.50400001928E-02 0.  1.
       -1   -1    0    0    0  501  0.00000000000E+00  0.00000000000E+00 -0.16808226017E+04  0.16808226017E+04  0.50400001928E-02 0. -1.
    10030    2    1    2    0    0  0.00000000000E+00  0.00000000000E+00  0.13373928015E+03  0.34953844835E+04  0.34928250017E+04 0.  0.
        4    1    3    3  502    0 -0.65610853386E+03 -0.13267328161E+04  0.99450986931E+03  0.17831853147E+04  0.12699999809E+01 0.  1.
       -4    1    3    3    0  502  0.65610853386E+03  0.13267328161E+04 -0.86077058915E+03  0.17121991688E+04  0.12699999809E+01 0. -1.
</event>
<event>
 5   0  0.3219205E-07  0.3503888E+04  0.7818609E-02  0.8112869E-01
        2   -1    0    0  501    0  0.00000000000E+00  0.00000000000E+00  0.23529002436E+04  0.23529002436E+04  0.25500000920E-02 0.  1.
       -2   -1    0    0    0  501  0.00000000000E+00  0.00000000000E+00 -0.13044784782E+04  0.13044784782E+04  0.25500000920E-02 0. -1.
    10030    2    1    2    0    0  0.00000000000E+00  0.00000000000E+00  0.10484217654E+04  0.36573787218E+04  0.35038879714E+04 0.  0.
        2    1    3    3  502    0 -0.13905152187E+04  0.91881368634E+03  0.10878240550E+04  0.19902543401E+04  0.25500000920E-02 0.  1.
       -2    1    3    3    0  502  0.13905152187E+04 -0.91881368634E+03 -0.39402289663E+02  0.16671243817E+04  0.25500000920E-02 0. -1.
</event>
<event>
 5   0  0.3119048E-07  0.3512825E+04  0.7818609E-02  0.8110757E-01
        2   -1    0    0  501    0  0.00000000000E+00  0.00000000000E+00  0.17454315896E+04  0.17454315896E+04  0.25500000920E-02 0. -1.
       -2   -1    0    0    0  501  0.00000000000E+00  0.00000000000E+00 -0.17674623154E+04  0.17674623154E+04  0.25500000920E-02 0.  1.
    10030    2    1    2    0    0  0.00000000000E+00  0.00000000000E+00 -0.22030725721E+02  0.35128939050E+04  0.35128248227E+04 0.  0.
        3    1    3    3  502    0  0.99943026313E+03 -0.28794355172E+03  0.14043612650E+04  0.17475705745E+04  0.10100000352E+00 0. -1.
       -3    1    3    3    0  502 -0.99943026313E+03  0.28794355172E+03 -0.14263919907E+04  0.17653233305E+04  0.10100000352E+00 0.  1.
</event>
<event>
 5   0  0.1072381E-07  0.3509042E+04  0.7818609E-02  0.8111650E-01
        1   -1    0    0  501    0  0.00000000000E+00  0.00000000000E+00  0.12670345372E+04  0.12670345372E+04  0.50400001928E-02 0. -1.
       -1   -1    0    0    0  501  0.00000000000E+00  0.00000000000E+00 -0.24295661398E+04  0.24295661399E+04  0.50400001928E-02 0.  1.
    10030    2    1    2    0    0  0.00000000000E+00  0.00000000000E+00 -0.11625316027E+04  0.36966006770E+04  0.35090421540E+04 0.  0.
        1    1    3    3  502    0  0.42419896071E+03 -0.11566802791E+04  0.73469960783E+03  0.14344467715E+04  0.50400001928E-02 0.  1.
       -1    1    3    3    0  502 -0.42419896071E+03  0.11566802791E+04 -0.18972312105E+04  0.22621539056E+04  0.50400001928E-02 0. -1.
</event>
<event>
 5   0  0.3119048E-07  0.3497702E+04  0.7818609E-02  0.8114335E-01
        2   -1    0    0  501    0  0.00000000000E+00  0.00000000000E+00  0.10327390220E+04  0.10327390220E+04  0.25500000920E-02 0. -1.
       -2   -1    0    0    0  501  0.00000000000E+00  0.00000000000E+00 -0.29615225727E+04  0.29615225727E+04  0.25500000920E-02 0.  1.
    10030    2    1    2    0    0  0.00000000000E+00  0.00000000000E+00 -0.19287835507E+04  0.39942615947E+04  0.34977020602E+04 0.  0.
        3    1    3    3  502    0 -0.31798544945E+03 -0.16605210508E+04 -0.14751398014E+04  0.22437652172E+04  0.10100000352E+00 0.  1.
       -3    1    3    3    0  502  0.31798544945E+03  0.16605210508E+04 -0.45364374926E+03  0.17504963775E+04  0.10100000352E+00 0. -1.
</event>
<event>
 5   0  0.1098171E-07  0.3525779E+04  0.7818609E-02  0.8107708E-01
       -1   -1    0    0    0  501  0.00000000000E+00  0.00000000000E+00  0.15714124147E+04  0.15714124147E+04  0.50400001928E-02 0.  1.
        1   -1    0    0  501    0  0.00000000000E+00  0.00000000000E+00 -0.19776984866E+04  0.19776984866E+04  0.50400001928E-02 0. -1.
    10030    2    1    2    0    0  0.00000000000E+00  0.00000000000E+00 -0.40628607188E+03  0.35491109013E+04  0.35257793206E+04 0.  0.
        4    1    3    3  502    0  0.42060495268E+02 -0.21018359146E+03 -0.19645314322E+04  0.19761911821E+04  0.12699999809E+01 0. -1.
       -4    1    3    3    0  502 -0.42060495268E+02  0.21018359146E+03  0.15582453603E+04  0.15729197192E+04  0.12699999809E+01 0.  1.
</event>
<event>
 5   0  0.1013863E-07  0.3502141E+04  0.7818609E-02  0.8113283E-01
       -1   -1    0    0    0  501  0.00000000000E+00  0.00000000000E+00  0.27748248299E+04  0.27748248299E+04  0.50400001928E-02 0.  1.
        1   -1    0    0  501    0  0.00000000000E+00  0.00000000000E+00 -0.11050239219E+04  0.11050239219E+04  0.50400001928E-02 0. -1.
    10030    2    1    2    0    0  0.00000000000E+00  0.00000000000E+00  0.16698009080E+04  0.38798487517E+04  0.35021409543E+04 0.  0.
        5    1    3    3  502    0  0.43100475001E+03  0.16172981752E+04  0.14049939743E+04  0.21852799912E+04  0.46999998093E+01 0.  1.
       -5    1    3    3    0  502 -0.43100475001E+03 -0.16172981752E+04  0.26480693372E+03  0.16945687605E+04  0.46999998093E+01 0. -1.
</event>
<event>
 5   0  0.3219205E-07  0.3494481E+04  0.7818609E-02  0.8115099E-01
       -2   -1    0    0    0  501  0.00000000000E+00  0.00000000000E+00  0.13754015683E+04  0.13754015683E+04  0.25500000920E-02 0.  1.
        2   -1    0    0  501    0  0.00000000000E+00  0.00000000000E+00 -0.22196063069E+04  0.22196063069E+04  0.25500000920E-02 0. -1.
    10030    2    1    2    0    0  0.00000000000E+00  0.00000000000E+00 -0.84420473858E+03  0.35950078753E+04  0.34944813610E+04 0.  0.
        2    1    3    3  502    0  0.24034186140E+03 -0.17305734414E+04 -0.40750441664E+03  0.17940759449E+04  0.25500000920E-02 0.  1.
       -2    1    3    3    0  502 -0.24034186140E+03  0.17305734414E+04 -0.43670032193E+03  0.18009319303E+04  0.25500000920E-02 0. -1.
</event>
<event>
 5   0  0.1072381E-07  0.3535891E+04  0.7818609E-02  0.8105336E-01
       -1   -1    0    0    0  501  0.00000000000E+00  0.00000000000E+00  0.16911063575E+04  0.16911063575E+04  0.50400001928E-02 0. -1.
        1   -1    0    0  501    0  0.00000000000E+00  0.00000000000E+00 -0.18482763454E+04  0.18482763454E+04  0.50400001928E-02 0.  1.
    10030    2    1    2    0    0  0.00000000000E+00  0.00000000000E+00 -0.15716998798E+03  0.35393827029E+04  0.35358913321E+04 0.  0.
        1    1    3    3  502    0  0.14910879487E+04  0.54250292752E+02  0.87068969420E+03  0.17275378168E+04  0.50400001928E-02 0. -1.
       -1    1    3    3    0  502 -0.14910879487E+04 -0.54250292752E+02 -0.10278596822E+04  0.18118448861E+04  0.50400001928E-02 0.  1.
</event>
<event>
 5   0  0.1013863E-07  0.3498057E+04  0.7818609E-02  0.8114251E-01
        1   -1    0    0  501    0  0.00000000000E+00  0.00000000000E+00  0.13403391665E+04  0.13403391665E+04  0.50400001928E-02 0.  1.
       -1   -1    0    0    0  501  0.00000000000E+00  0.00000000000E+00 -0.22823332086E+04  0.22823332086E+04  0.50400001928E-02 0. -1.
    10030    2    1    2    0    0  0.00000000000E+00  0.00000000000E+00 -0.94199404206E+03  0.36226723751E+04  0.34980569409E+04 0.  0.
        2    1    3    3  502    0 -0.67532478160E+03 -0.96902587791E+03 -0.18069224688E+04  0.21587133948E+04  0.25500000920E-02 0. -1.
       -2    1    3    3    0  502  0.67532478160E+03  0.96902587791E+03  0.86492842670E+03  0.14639589803E+04  0.25500000920E-02 0.  1.
</event>
<event>
 5   0  0.3190112E-07  0.3561890E+04  0.7818609E-02  0.8099278E-01
        2   -1    0    0  501    0  0.00000000000E+00  0.00000000000E+00  0.14538391014E+04  0.14538391014E+04  0.25500000920E-02 0. -1.
       -2   -1    0    0    0  501  0.00000000000E+00  0.00000000000E+00 -0.21816475499E+04  0.21816475499E+04  0.25500000920E-02 0.  1.
    10030    2    1    2    0    0  0.00000000000E+00  0.00000000000E+00 -0.72780844856E+03  0.36354866513E+04  0.35618896746E+04 0.  0.
        5    1    3    3  502    0 -0.10748005053E+04  0.12107091083E+04 -0.11213496731E+04  0.19693805753E+04  0.46999998093E+01 0.  1.
       -5    1    3    3    0  502  0.10748005053E+04 -0.12107091083E+04  0.39354122449E+03  0.16661060760E+04  0.46999998093E+01 0. -1.
</event>
<event>
 5   0  0.2180451E-07  0.3507643E+04  0.7818609E-02  0.8111981E-01
       -2   -1    0    0    0  501  0.00000000000E+00  0.00000000000E+00  0.14502094765E+04  0.14502094765E+04  0.25500000920E-02 0. -1.
        2   -1    0    0  501    0  0.00000000000E+00  0.00000000000E+00 -0.21209965329E+04  0.21209965329E+04  0.25500000920E-02 0.  1.
    10030    2    1    2    0    0  0.00000000000E+00  0.00000000000E+00 -0.67078705640E+03  0.35712060094E+04  0.35076426680E+04 0.  0.
        4    1    3    3  502    0 -0.52292458576E+03  0.16000688545E+04  0.16568067753E+03  0.16914851939E+04  0.12699999809E+01 0. -1.
       -4    1    3    3    0  502  0.52292458576E+03 -0.16000688545E+04 -0.83646773393E+03  0.18797208155E+04  0.12699999809E+01 0.  1.
</event>
<event>
 5   0  0.1013863E-07  0.3494467E+04  0.7818609E-02  0.8115103E-01
       -1   -1    0    0    0  501  0.00000000000E+00  0.00000000000E+00  0.23087101028E+04  0.23087101028E+04  0.50400001928E-02 0.  1.
        1   -1    0    0  501    0  0.00000000000E+00  0.00000000000E+00 -0.13223072506E+04  0.13223072506E+04  0.50400001928E-02 0. -1.
    10030    2    1    2    0    0  0.00000000000E+00  0.00000000000E+00  0.98640285221E+03  0.36310173535E+04  0.34944665451E+04 0.  0.
        2    1    3    3  502    0 -0.12111821851E+03 -0.15046292930E+04  0.14074971564E+04  0.20638864255E+04  0.25500000920E-02 0.  1.
       -2    1    3    3    0  502  0.12111821851E+03  0.15046292930E+04 -0.42109430418E+03  0.15671309279E+04  0.25500000920E-02 0. -1.
</event>
<event>
 5   0  0.1033796E-07  0.3500812E+04  0.7818609E-02  0.8113597E-01
        1   -1    0    0  501    0  0.00000000000E+00  0.00000000000E+00  0.11183790969E+04  0.11183790969E+04  0.50400001928E-02 0. -1.
       -1   -1    0    0    0  501  0.00000000000E+00  0.00000000000E+00 -0.27396091407E+04  0.27396091407E+04  0.50400001928E-02 0.  1.
    10030    2    1    2    0    0  0.00000000000E+00  0.00000000000E+00 -0.16212300438E+04  0.38579882376E+04  0.35008122467E+04 0.  0.
        3    1    3    3  502    0  0.16177859823E+04 -0.26446008436E+02 -0.15465763360E+04  0.22382647853E+04  0.10100000352E+00 0.  1.
       -3    1    3    3    0  502 -0.16177859823E+04  0.26446008436E+02 -0.74653707878E+02  0.16197234523E+04  0.10100000352E+00 0. -1.
</event>
<event>
 5   0  0.1013863E-07  0.3498513E+04  0.7818609E-02  0.8114142E-01
        1   -1    0    0  501    0  0.00000000000E+00  0.00000000000E+00  0.31168560723E+04  0.31168560723E+04  0.50400001928E-02 0.  1.
       -1   -1    0    0    0  501  0.00000000000E+00  0.00000000000E+00 -0.98172572866E+03  0.98172572867E+03  0.50400001928E-02 0. -1.
    10030    2    1    2    0    0  0.00000000000E+00  0.00000000000E+00  0.21351303436E+04  0.40985818010E+04  0.34985127119E+04 0.  0.
        2    1    3    3  502    0  0.15070901256E+04 -0.69137950277E+03  0.17204415798E+04  0.23894027482E+04  0.25500000920E-02 0.  1.
       -2    1    3    3    0  502 -0.15070901256E+04  0.69137950277E+03  0.41468876384E+03  0.17091790528E+04  0.25500000920E-02 0. -1.
</event>
<event>
 5   0  0.3190185E-07  0.3490563E+04  0.7818609E-02  0.8116030E-01
       -2   -1    0    0    0  501  0.00000000000E+00  0.00000000000E+00  0.14368183247E+04  0.14368183247E+04  0.25500000920E-02 0. -1.
        2   -1    0    0  501    0  0.00000000000E+00  0.00000000000E+00 -0.21199671203E+04  0.21199671203E+04  0.25500000920E-02 0.  1.
    10030    2    1    2    0    0  0.00000000000E+00  0.00000000000E+00 -0.68314879565E+03  0.35567854450E+04  0.34905630527E+04 0.  0.
        1    1    3    3  502    0 -0.16472207769E+03 -0.10694676951E+04  0.10537523316E+04  0.15103934885E+04  0.50400001928E-02 0. -1.
       -1    1    3    3    0  502  0.16472207769E+03  0.10694676951E+04 -0.17369011272E+04  0.20463919565E+04  0.50400001928E-02 0.  1.
</event>
<event>
 5   0  0.1013863E-07  0.3478401E+04  0.7818609E-02  0.8118928E-01
       -1   -1    0    0    0  501  0.00000000000E+00  0.00000000000E+00  0.11177949432E+04  0.11177949432E+04  0.50400001928E-02 0.  1.
        1   -1    0    0  501    0  0.00000000000E+00  0.00000000000E+00 -0.27060577214E+04  0.27060577214E+04  0.50400001928E-02 0. -1.
    10030    2    1    2    0    0  0.00000000000E+00  0.00000000000E+00 -0.15882627783E+04  0.38238526646E+04  0.34784005732E+04 0.  0.
        5    1    3    3  502    0  0.92424245981E+03 -0.14504967017E+04 -0.10778964212E+04  0.20297900362E+04  0.46999998093E+01 0.  1.
       -5    1    3    3    0  502 -0.92424245981E+03  0.14504967017E+04 -0.51036635705E+03  0.17940626284E+04  0.46999998093E+01 0. -1.
</event>
<event>
 5   0  0.1098171E-07  0.3500686E+04  0.7818609E-02  0.8113627E-01
       -1   -1    0    0    0  501  0.00000000000E+00  0.00000000000E+00  0.11825572105E+04  0.11825572106E+04  0.50400001928E-02 0.  1.
        1   -1    0    0  501    0  0.00000000000E+00  0.00000000000E+00 -0.25907415479E+04  0.25907415480E+04  0.50400001928E-02 0. -1.
    10030    2    1    2    0    0  0.00000000000E+00  0.00000000000E+00 -0.14081843374E+04  0.37732987585E+04  0.35006857032E+04 0.  0.
        4    1    3    3  502    0  0.11730725615E+04  0.11795645202E+03  0.69036443076E+03  0.13662421525E+04  0.12699999809E+01 0.  1.
       -4    1    3    3    0  502 -0.11730725615E+04 -0.11795645202E+03 -0.20985487682E+04  0.24070566060E+04  0.12699999809E+01 0. -1.
</event>
<event>
 5   0  0.1072381E-07  0.3492571E+04  0.7818609E-02  0.8115553E-01
       -1   -1    0    0    0  501  0.00000000000E+00  0.00000000000E+00  0.12456354015E+04  0.12456354015E+04  0.50400001928E-02 0.  1.
        1   -1    0    0  501    0  0.00000000000E+00  0.00000000000E+00 -0.24481581579E+04  0.24481581579E+04  0.50400001928E-02 0. -1.
    10030    2    1    2    0    0  0.00000000000E+00  0.00000000000E+00 -0.12025227564E+04  0.36937935594E+04  0.34925706693E+04 0.  0.
        1    1    3    3  502    0 -0.48957234824E+03 -0.57363494952E+03  0.10645316763E+04  0.13045941244E+04  0.50400001928E-02 0.  1.
       -1    1    3    3    0  502  0.48957234824E+03  0.57363494952E+03 -0.22670544327E+04  0.23891994350E+04  0.50400001928E-02 0. -1.
</event>
<event>
 5   0  0.2180451E-07  0.3442488E+04  0.7818609E-02  0.8127556E-01
       -2   -1    0    0    0  501  0.00000000000E+00  0.00000000000E+00  0.21929863235E+04  0.21929863235E+04  0.25500000920E-02 0. -1.
        2   -1    0    0  501    0  0.00000000000E+00  0.00000000000E+00 -0.13509802712E+04  0.13509802712E+04  0.25500000920E-02 0.  1.
    10030    2    1    2    0    0  0.00000000000E+00  0.00000000000E+00  0.84200605228E+03  0.35439665948E+04  0.34424882037E+04 0.  0.
        4    1    3    3  502    0  0.12234013708E+04  0.47331679500E+03 -0.72627177901E+03  0.14994038857E+04  0.12699999809E+01 0.  1.
       -4    1    3    3    0  502 -0.12234013708E+04 -0.47331679500E+03  0.15682778313E+04  0.20445627091E+04  0.12699999809E+01 0. -1.
</event>
<event>
 5   0  0.1072381E-07  0.3498529E+04  0.7818609E-02  0.8114139E-01
        1   -1    0    0  501    0  0.00000000000E+00  0.00000000000E+00  0.14710737189E+04  0.14710737189E+04  0.50400001928E-02 0. -1.
       -1   -1    0    0    0  501  0.00000000000E+00  0.00000000000E+00 -0.20800634909E+04  0.20800634909E+04  0.50400001928E-02 0.  1.
    10030    2    1    2    0    0  0.00000000000E+00  0.00000000000E+00 -0.60898977204E+03  0.35511372099E+04  0.34985292540E+04 0.  0.
        1    1    3    3  502    0 -0.44767631953E+03 -0.14883610226E+04 -0.11192442410E+04  0.19152911768E+04  0.50400001928E-02 0.  1.
       -1    1    3    3    0  502  0.44767631953E+03  0.14883610226E+04  0.51025446897E+03  0.16358460331E+04  0.50400001928E-02 0. -1.
</event>
<event>
 5   0  0.3190185E-07  0.3467292E+04  0.7818609E-02  0.8121585E-01
        2   -1    0    0  501    0  0.00000000000E+00  0.00000000000E+00  0.20225619729E+04  0.20225619729E+04  0.25500000920E-02 0.  1.
       -2   -1    0    0    0  501  0.00000000000E+00  0.00000000000E+00 -0.14860010181E+04  0.14860010181E+04  0.25500000920E-02 0. -1.
    10030    2    1    2    0    0  0.00000000000E+00  0.00000000000E+00  0.53656095481E+03  0.35085629910E+04  0.34672924024E+04 0.  0.
        1    1    3    3  502    0 -0.11605276166E+04 -0.12816202111E+04  0.39689343306E+03  0.17739501435E+04  0.50400001928E-02 0.  1.
       -1    1    3    3    0  502  0.11605276166E+04  0.12816202111E+04  0.13966752174E+03  0.17346128476E+04  0.50400001928E-02 0. -1.
</event>
<event>
 5   0  0.3119048E-07  0.3364397E+04  0.7818609E-02  0.8146700E-01
       -2   -1    0    0    0  501  0.00000000000E+00  0.00000000000E+00  0.19306531054E+04  0.19306531054E+04  0.25500000920E-02 0.  1.
        2   -1    0    0  501    0  0.00000000000E+00  0.00000000000E+00 -0.14657177091E+04  0.14657177091E+04  0.25500000920E-02 0. -1.
    10030    2    1    2    0    0  0.00000000000E+00  0.00000000000E+00  0.46493539632E+03  0.33963708145E+04  0.33643973883E+04 0.  0.
        3    1    3    3  502    0  0.25816222822E+03  0.15952982472E+04  0.70399141319E+03  0.17627331487E+04  0.10100000352E+00 0.  1.
       -3    1    3    3    0  502 -0.25816222822E+03 -0.15952982472E+04 -0.23905601687E+03  0.16336376657E+04  0.10100000352E+00 0. -1.
</event>
<event>
 5   0  0.2180451E-07  0.3492722E+04  0.7818609E-02  0.8115517E-01
       -2   -1    0    0    0  501  0.00000000000E+00  0.00000000000E+00  0.20326982330E+04  0.20326982330E+04  0.25500000920E-02 0.  1.
        2   -1    0    0  501    0  0.00000000000E+00  0.00000000000E+00 -0.15003585453E+04  0.15003585453E+04  0.25500000920E-02 0. -1.
    10030    2    1    2    0    0  0.00000000000E+00  0.00000000000E+00  0.53233968775E+03  0.35330567783E+04  0.34927216687E+04 0.  0.
        4    1    3    3  502    0  0.81963137353E+03  0.14746062905E+04 -0.19016656216E+03  0.16977703716E+04  0.12699999809E+01 0. -1.
       -4    1    3    3    0  502 -0.81963137353E+03 -0.14746062905E+04  0.72250624992E+03  0.18352864067E+04  0.12699999809E+01 0.  1.
</event>
<event>
 5   0  0.1033796E-07  0.3505948E+04  0.7818609E-02  0.8112382E-01
        1   -1    0    0  501    0  0.00000000000E+00  0.00000000000E+00  0.17943864354E+04  0.17943864355E+04  0.50400001928E-02 0.  1.
       -1   -1    0    0    0  501  0.00000000000E+00  0.00000000000E+00 -0.17125174127E+04  0.17125174127E+04  0.50400001928E-02 0. -1.
    10030    2    1    2    0    0  0.00000000000E+00  0.00000000000E+00  0.81869022756E+02  0.35069038482E+04  0.35059480976E+04 0.  0.
        3    1    3    3  502    0  0.22085002167E+03  0.12455339685E+04  0.12548502848E+04  0.17817909098E+04  0.10100000352E+00 0.  1.
       -3    1    3    3    0  502 -0.22085002167E+03 -0.12455339685E+04 -0.11729812620E+04  0.17251129384E+04  0.10100000352E+00 0. -1.
</event>
<event>
 5   0  0.2180451E-07  0.3492281E+04  0.7818609E-02  0.8115622E-01
       -2   -1    0    0    0  501  0.00000000000E+00  0.00000000000E+00  0.20888741259E+04  0.20888741259E+04  0.25500000920E-02 0. -1.
        2   -1    0    0  501    0  0.00000000000E+00  0.00000000000E+00 -0.14596414228E+04  0.14596414228E+04  0.25500000920E-02 0.  1.
    10030    2    1    2    0    0  0.00000000000E+00  0.00000000000E+00  0.62923270307E+03  0.35485155486E+04  0.34922813180E+04 0.  0.
        4    1    3    3  502    0 -0.12794858037E+04  0.11407339931E+04 -0.23377295059E+02  0.17143237955E+04  0.12699999809E+01 0.  1.
       -4    1    3    3    0  502  0.12794858037E+04 -0.11407339931E+04  0.65260999813E+03  0.18341917532E+04  0.12699999809E+01 0. -1.
</event>
<event>
 5   0  0.1013863E-07  0.3525738E+04  0.7818609E-02  0.8107717E-01
        1   -1    0    0  501    0  0.00000000000E+00  0.00000000000E+00  0.15882900104E+04  0.15882900104E+04  0.50400001928E-02 0. -1.
       -1   -1    0    0    0  501  0.00000000000E+00  0.00000000000E+00 -0.19566371846E+04  0.19566371846E+04  0.50400001928E-02 0.  1.
    10030    2    1    2    0    0  0.00000000000E+00  0.00000000000E+00 -0.36834717418E+03  0.35449271949E+04  0.35257381038E+04 0.  0.
        5    1    3    3  502    0 -0.41746119128E+03  0.15026256930E+04 -0.10105515942E+04  0.18583310884E+04  0.46999998093E+01 0.  1.
       -5    1    3    3    0  502  0.41746119128E+03 -0.15026256930E+04  0.64220442005E+03  0.16865961065E+04  0.46999998093E+01 0. -1.
</event>
<event>
 5   0  0.3190185E-07  0.3500479E+04  0.7818609E-02  0.8113676E-01
        2   -1    0    0  501    0  0.00000000000E+00  0.00000000000E+00  0.25573192626E+04  0.25573192626E+04  0.25500000920E-02 0. -1.
       -2   -1    0    0    0  501  0.00000000000E+00  0.00000000000E+00 -0.11978709635E+04  0.11978709635E+04  0.25500000920E-02 0.  1.
    10030    2    1    2    0    0  0.00000000000E+00  0.00000000000E+00  0.13594482991E+04  0.37551902262E+04  0.35004791039E+04 0.  0.
        1    1    3    3  502    0 -0.11158157520E+04  0.58115648632E+03 -0.62559321134E+03  0.14050460918E+04  0.50400001928E-02 0.  1.
       -1    1    3    3    0  502  0.11158157520E+04 -0.58115648632E+03  0.19850415104E+04  0.23501441343E+04  0.50400001928E-02 0. -1.
</event>
<event>
 5   0  0.3190112E-07  0.3504419E+04  0.7818609E-02  0.8112744E-01
       -2   -1    0    0    0  501  0.00000000000E+00  0.00000000000E+00  0.24749760380E+04  0.24749760380E+04  0.25500000920E-02 0.  1.
        2   -1    0    0  501    0  0.00000000000E+00  0.00000000000E+00 -0.12405120590E+04  0.12405120590E+04  0.25500000920E-02 0. -1.
    10030    2    1    2    0    0  0.00000000000E+00  0.00000000000E+00  0.12344639789E+04  0.37154880970E+04  0.35044187083E+04 0.  0.
        5    1    3    3  502    0 -0.29832743716E+03 -0.17265439228E+04  0.63440488261E+03  0.18634497101E+04  0.46999998093E+01 0. -1.
       -5    1    3    3    0  502  0.29832743716E+03  0.17265439228E+04  0.60005909633E+03  0.18520383868E+04  0.46999998093E+01 0.  1.
</event>
<event>
 5   0  0.3190112E-07  0.3492909E+04  0.7818609E-02  0.8115472E-01
       -2   -1    0    0    0  501  0.00000000000E+00  0.00000000000E+00  0.13696121994E+04  0.13696121994E+04  0.25500000920E-02 0. -1.
        2   -1    0    0  501    0  0.00000000000E+00  0.00000000000E+00 -0.22269837009E+04  0.22269837009E+04  0.25500000920E-02 0.  1.
    10030    2    1    2    0    0  0.00000000000E+00  0.00000000000E+00 -0.85737150147E+03  0.35965959003E+04  0.34929094146E+04 0.  0.
        5    1    3    3  502    0  0.17176635103E+04 -0.24633344251E+03 -0.22525104510E+03  0.17498023382E+04  0.46999998093E+01 0. -1.
       -5    1    3    3    0  502 -0.17176635103E+04  0.24633344251E+03 -0.63212045637E+03  0.18467935621E+04  0.46999998093E+01 0.  1.
</event>
<event>
 5   0  0.1033796E-07  0.3554043E+04  0.7818609E-02  0.8101101E-01
       -1   -1    0    0    0  501  0.00000000000E+00  0.00000000000E+00  0.10986203990E+04  0.10986203990E+04  0.50400001928E-02 0. -1.
        1   -1    0    0  501    0  0.00000000000E+00  0.00000000000E+00 -0.28743364405E+04  0.28743364405E+04  0.50400001928E-02 0.  1.
    10030    2    1    2    0    0  0.00000000000E+00  0.00000000000E+00 -0.17757160415E+04  0.39729568396E+04  0.35540425700E+04 0.  0.
        3    1    3    3  502    0  0.31681670206E+03 -0.10328798802E+04  0.68932552006E+03  0.12815550524E+04  0.10100000352E+00 0. -1.
       -3    1    3    3    0  502 -0.31681670206E+03  0.10328798802E+04 -0.24650415616E+04  0.26914017872E+04  0.10100000352E+00 0.  1.
</event>
<event>
 5   0  0.1072381E-07  0.3500771E+04  0.7818609E-02  0.8113607E-01
       -1   -1    0    0    0  501  0.00000000000E+00  0.00000000000E+00  0.15733200371E+04  0.15733200371E+04  0.50400001928E-02 0.  1.
        1   -1    0    0  501    0  0.00000000000E+00  0.00000000000E+00 -0.19473779356E+04  0.19473779356E+04  0.50400001928E-02 0. -1.
    10030    2    1    2    0    0  0.00000000000E+00  0.00000000000E+00 -0.37405789850E+03  0.35206979726E+04  0.35007706156E+04 0.  0.
        1    1    3    3  502    0 -0.12871543309E+04  0.43361356550E+03  0.92336724350E+03  0.16423745194E+04  0.50400001928E-02 0.  1.
       -1    1    3    3    0  502  0.12871543309E+04 -0.43361356550E+03 -0.12974251420E+04  0.18783234532E+04  0.50400001928E-02 0. -1.
</event>
<event>
 5   0  0.1013863E-07  0.3489534E+04  0.7818609E-02  0.8116275E-01
       -1   -1    0    0    0  501  0.00000000000E+00  0.00000000000E+00  0.99976284958E+03  0.99976284959E+03  0.50400001928E-02 0. -1.
        1   -1    0    0  501    0  0.00000000000E+00  0.00000000000E+00 -0.30449342281E+04  0.30449342281E+04  0.50400001928E-02 0.  1.
    10030    2    1    2    0    0  0.00000000000E+00  0.00000000000E+00 -0.20451713785E+04  0.40446970777E+04  0.34895341355E+04 0.  0.
        5    1    3    3  502    0  0.55316901278E+03 -0.63223013935E+03  0.74991045404E+03  0.11260988788E+04  0.46999998093E+01 0. -1.
       -5    1    3    3    0  502 -0.55316901278E+03  0.63223013935E+03 -0.27950818326E+04  0.29185981989E+04  0.46999998093E+01 0.  1.
</event>
<event>
 5   0  0.1072381E-07  0.3501886E+04  0.7818609E-02  0.8113343E-01
       -1   -1    0    0    0  501  0.00000000000E+00  0.00000000000E+00  0.17581325830E+04  0.17581325830E+04  0.50400001928E-02 0.  1.
        1   -1    0    0  501    0  0.00000000000E+00  0.00000000000E+00 -0.17437827846E+04  0.17437827847E+04  0.50400001928E-02 0. -1.
    10030    2    1    2    0    0  0.00000000000E+00  0.00000000000E+00  0.14349798386E+02  0.35019153677E+04  0.35018859670E+04 0.  0.
        1    1    3    3  502    0 -0.94120258167E+03  0.22228623033E+03  0.14668199376E+04  0.17569388712E+04  0.50400001928E-02 0.  1.
       -1    1    3    3    0  502  0.94120258167E+03 -0.22228623033E+03 -0.14524701392E+04  0.17449764965E+04  0.50400001928E-02 0. -1.
</event>
<event>
 5   0  0.1013863E-07  0.3513610E+04  0.7818609E-02  0.8110572E-01
       -1   -1    0    0    0  501  0.00000000000E+00  0.00000000000E+00  0.18881762636E+04  0.18881762636E+04  0.50400001928E-02 0.  1.
        1   -1    0    0  501    0  0.00000000000E+00  0.00000000000E+00 -0.16345738674E+04  0.16345738674E+04  0.50400001928E-02 0. -1.
    10030    2    1    2    0    0  0.00000000000E+00  0.00000000000E+00  0.25360239620E+03  0.35227501309E+04  0.35136098687E+04 0.  0.
        2    1    3    3  502    0  0.60130297596E+03 -0.63766556124E+03  0.16533193290E+04  0.18712689386E+04  0.25500000920E-02 0.  1.
       -2    1    3    3    0  502 -0.60130297596E+03  0.63766556124E+03 -0.13997169328E+04  0.16514811924E+04  0.25500000920E-02 0. -1.
</event>
<event>
 5   0  0.1033796E-07  0.3418590E+04  0.7818609E-02  0.8133359E-01
        1   -1    0    0  501    0  0.00000000000E+00  0.00000000000E+00  0.22496769716E+04  0.22496769716E+04  0.50400001928E-02 0.  1.
       -1   -1    0    0    0  501  0.00000000000E+00  0.00000000000E+00 -0.12987152034E+04  0.12987152034E+04  0.50400001928E-02 0. -1.
    10030    2    1    2    0    0  0.00000000000E+00  0.00000000000E+00  0.95096176819E+03  0.35483921750E+04  0.34185901689E+04 0.  0.
        3    1    3    3  502    0  0.15633907200E+04  0.69089227648E+03  0.48889417847E+03  0.17777908226E+04  0.10100000352E+00 0.  1.
       -3    1    3    3    0  502 -0.15633907200E+04 -0.69089227648E+03  0.46206758971E+03  0.17706013523E+04  0.10100000352E+00 0. -1.
</event>
<event>
 5   0  0.3190112E-07  0.3504276E+04  0.7818609E-02  0.8112777E-01
        2   -1    0    0  501    0  0.00000000000E+00  0.00000000000E+00  0.16281288174E+04  0.16281288174E+04  0.25500000920E-02 0. -1.
       -2   -1    0    0    0  501  0.00000000000E+00  0.00000000000E+00 -0.18855925391E+04  0.18855925391E+04  0.25500000920E-02 0.  1.
    10030    2    1    2    0    0  0.00000000000E+00  0.00000000000E+00 -0.25746372170E+03  0.35137213565E+04  0.35042759884E+04 0.  0.
        5    1    3    3  502    0  0.68855749734E+03  0.14029718543E+04 -0.92303117756E+03  0.18150620088E+04  0.46999998093E+01 0.  1.
       -5    1    3    3    0  502 -0.68855749734E+03 -0.14029718543E+04  0.66556745586E+03  0.16986593477E+04  0.46999998093E+01 0. -1.
</event>
<event>
 5   0  0.1013863E-07  0.3471382E+04  0.7818609E-02  0.8120606E-01
       -1   -1    0    0    0  501  0.00000000000E+00  0.00000000000E+00  0.89606818411E+03  0.89606818412E+03  0.50400001928E-02 0. -1.
        1   -1    0    0  501    0  0.00000000000E+00  0.00000000000E+00 -0.33620465513E+04  0.33620465513E+04  0.50400001928E-02 0.  1.
    10030    2    1    2    0    0  0.00000000000E+00  0.00000000000E+00 -0.24659783672E+04  0.42581147354E+04  0.34713818275E+04 0.  0.
        5    1    3    3  502    0  0.77486301229E+03 -0.10171363579E+04  0.20673724526E+03  0.12952765871E+04  0.46999998093E+01 0. -1.
       -5    1    3    3    0  502 -0.77486301229E+03  0.10171363579E+04 -0.26727156125E+04  0.29628381484E+04  0.46999998093E+01 0.  1.
</event>
<event>
 5   0  0.3190185E-07  0.3523287E+04  0.7818609E-02  0.8108293E-01
        2   -1    0    0  501    0  0.00000000000E+00  0.00000000000E+00  0.26701301257E+04  0.26701301257E+04  0.25500000920E-02 0.  1.
       -2   -1    0    0    0  501  0.00000000000E+00  0.00000000000E+00 -0.11622605687E+04  0.11622605687E+04  0.25500000920E-02 0. -1.
    10030    2    1    2    0    0  0.00000000000E+00  0.00000000000E+00  0.15078695570E+04  0.38323906945E+04  0.35232865104E+04 0.  0.
        1    1    3    3  502    0  0.14313465639E+04  0.77081859208E+03  0.14920492935E+04  0.22066094765E+04  0.50400001928E-02 0.  1.
       -1    1    3    3    0  502 -0.14313465639E+04 -0.77081859208E+03  0.15820263492E+02  0.16257812179E+04  0.50400001928E-02 0. -1.
</event>
<event>
 5   0  0.1072381E-07  0.3495356E+04  0.7818609E-02  0.8114891E-01
        1   -1    0    0  501    0  0.00000000000E+00  0.00000000000E+00  0.14780517450E+04  0.14780517450E+04  0.50400001928E-02 0. -1.
       -1   -1    0    0    0  501  0.00000000000E+00  0.00000000000E+00 -0.20664893365E+04  0.20664893365E+04  0.50400001928E-02 0.  1.
    10030    2    1    2    0    0  0.00000000000E+00  0.00000000000E+00 -0.58843759147E+03  0.35445410815E+04  0.34953558730E+04 0.  0.
        1    1    3    3  502    0 -0.11674618687E+04 -0.13005322152E+04 -0.28895811354E+03  0.17713972025E+04  0.50400001928E-02 0. -1.
       -1    1    3    3    0  502  0.11674618687E+04  0.13005322152E+04 -0.29947947793E+03  0.17731438789E+04  0.50400001928E-02 0.  1.
</event>
<event>
 5   0  0.2180451E-07  0.3505086E+04  0.7818609E-02  0.8112586E-01
        2   -1    0    0  501    0  0.00000000000E+00  0.00000000000E+00  0.16319450837E+04  0.16319450837E+04  0.25500000920E-02 0. -1.
       -2   -1    0    0    0  501  0.00000000000E+00  0.00000000000E+00 -0.18820523622E+04  0.18820523622E+04  0.25500000920E-02 0.  1.
    10030    2    1    2    0    0  0.00000000000E+00  0.00000000000E+00 -0.25010727845E+03  0.35139974459E+04  0.35050855052E+04 0.  0.
        4    1    3    3  502    0 -0.10758948912E+04 -0.52509991297E+03 -0.14082003375E+04  0.18483261452E+04  0.12699999809E+01 0.  1.
       -4    1    3    3    0  502  0.10758948912E+04  0.52509991297E+03  0.11580930591E+04  0.16656713007E+04  0.12699999809E+01 0. -1.
</event>
<event>
 5   0  0.3190185E-07  0.3528273E+04  0.7818609E-02  0.8107122E-01
       -2   -1    0    0    0  501  0.00000000000E+00  0.00000000000E+00  0.18678185558E+04  0.18678185558E+04  0.25500000920E-02 0.  1.
        2   -1    0    0  501    0  0.00000000000E+00  0.00000000000E+00 -0.16662096076E+04  0.16662096076E+04  0.25500000920E-02 0. -1.
    10030    2    1    2    0    0  0.00000000000E+00  0.00000000000E+00  0.20160894820E+03  0.35340281635E+04  0.35282727916E+04 0.  0.
        1    1    3    3  502    0 -0.17129379527E+04 -0.10246045642E+03  0.51076742958E+03  0.17904016147E+04  0.50400001928E-02 0.  1.
       -1    1    3    3    0  502  0.17129379527E+04  0.10246045642E+03 -0.30915848138E+03  0.17436265487E+04  0.50400001928E-02 0. -1.
</event>
<event>
 5   0  0.1072381E-07  0.3498003E+04  0.7818609E-02  0.8114263E-01
       -1   -1    0    0    0  501  0.00000000000E+00  0.00000000000E+00  0.10540455527E+04  0.10540455527E+04  0.50400001928E-02 0.  1.
        1   -1    0    0  501    0  0.00000000000E+00  0.00000000000E+00 -0.29021572867E+04  0.29021572867E+04  0.50400001928E-02 0. -1.
    10030    2    1    2    0    0  0.00000000000E+00  0.00000000000E+00 -0.18481117340E+04  0.39562028394E+04  0.34980028481E+04 0.  0.
        1    1    3    3  502    0  0.18792113761E+03  0.42073106662E+03 -0.28322716673E+04  0.28695107217E+04  0.50400001928E-02 0. -1.
       -1    1    3    3    0  502 -0.18792113761E+03 -0.42073106662E+03  0.98415993332E+03  0.10866921177E+04  0.50400001928E-02 0.  1.
</event>
<event>
 5   0  0.1013863E-07  0.3501641E+04  0.7818609E-02  0.8113401E-01
        1   -1    0    0  501    0  0.00000000000E+00  0.00000000000E+00  0.14127803559E+04  0.14127803559E+04  0.50400001928E-02 0.  1.
       -1   -1    0    0    0  501  0.00000000000E+00  0.00000000000E+00 -0.21697443570E+04  0.21697443570E+04  0.50400001928E-02 0. -1.
    10030    2    1    2    0    0  0.00000000000E+00  0.00000000000E+00 -0.75696400106E+03  0.35825247129E+04  0.35016408753E+04 0.  0.
        5    1    3    3  502    0 -0.13335067624E+04 -0.13860236815E+03  0.77353783757E+03  0.15478481121E+04  0.46999998093E+01 0.  1.
       -5    1    3    3    0  502  0.13335067624E+04  0.13860236815E+03 -0.15305018386E+04  0.20346766008E+04  0.46999998093E+01 0. -1.
</event>
<event>
 5   0  0.1013863E-07  0.3542003E+04  0.7818609E-02  0.8103907E-01
        1   -1    0    0  501    0  0.00000000000E+00  0.00000000000E+00  0.17846384752E+04  0.17846384752E+04  0.50400001928E-02 0. -1.
       -1   -1    0    0    0  501  0.00000000000E+00  0.00000000000E+00 -0.17574691957E+04  0.17574691957E+04  0.50400001928E-02 0.  1.
    10030    2    1    2    0    0  0.00000000000E+00  0.00000000000E+00  0.27169279516E+02  0.35421076709E+04  0.35420034701E+04 0.  0.
        5    1    3    3  502    0  0.86609997836E+02 -0.13858277498E+04  0.11128918361E+04  0.17794859293E+04  0.46999998093E+01 0. -1.
       -5    1    3    3    0  502 -0.86609997836E+02  0.13858277498E+04 -0.10857225566E+04  0.17626217415E+04  0.46999998093E+01 0.  1.
</event>
<event>
 5   0  0.1013863E-07  0.3504246E+04  0.7818609E-02  0.8112784E-01
       -1   -1    0    0    0  501  0.00000000000E+00  0.00000000000E+00  0.23330534122E+04  0.23330534122E+04  0.50400001928E-02 0. -1.
        1   -1    0    0  501    0  0.00000000000E+00  0.00000000000E+00 -0.13158445306E+04  0.13158445306E+04  0.50400001928E-02 0.  1.
    10030    2    1    2    0    0  0.00000000000E+00  0.00000000000E+00  0.10172088816E+04  0.36488979427E+04  0.35042463223E+04 0.  0.
        2    1    3    3  502    0  0.14880478213E+04 -0.14480047360E+03 -0.44271776515E+03  0.15592474195E+04  0.25500000920E-02 0.  1.
       -2    1    3    3    0  502 -0.14880478213E+04  0.14480047360E+03  0.14599266467E+04  0.20896505233E+04  0.25500000920E-02 0. -1.
</event>
<event>
 5   0  0.3119048E-07  0.3481474E+04  0.7818609E-02  0.8118194E-01
        2   -1    0    0  501    0  0.00000000000E+00  0.00000000000E+00  0.23825990702E+04  0.23825990702E+04  0.25500000920E-02 0. -1.
       -2   -1    0    0    0  501  0.00000000000E+00  0.00000000000E+00 -0.12717897926E+04  0.12717897926E+04  0.25500000920E-02 0.  1.
    10030    2    1    2    0    0  0.00000000000E+00  0.00000000000E+00  0.11108092776E+04  0.36543888629E+04  0.34814739278E+04 0.  0.
        3    1    3    3  502    0 -0.49073843465E+03  0.16662577515E+04  0.67474427838E+03  0.18634696019E+04  0.10100000352E+00 0.  1.
       -3    1    3    3    0  502  0.49073843465E+03 -0.16662577515E+04  0.43606499925E+03  0.17909192610E+04  0.10100000352E+00 0. -1.
</event>
<event>
 5   0  0.3219205E-07  0.3486131E+04  0.7818609E-02  0.8117085E-01
       -2   -1    0    0    0  501  0.00000000000E+00  0.00000000000E+00  0.13415194479E+04  0.13415194479E+04  0.25500000920E-02 0.  1.
        2   -1    0    0  501    0  0.00000000000E+00  0.00000000000E+00 -0.22648024075E+04  0.22648024075E+04  0.25500000920E-02 0. -1.
    10030    2    1    2    0    0  0.00000000000E+00  0.00000000000E+00 -0.92328295967E+03  0.36063218554E+04  0.34861305054E+04 0.  0.
        2    1    3    3  502    0 -0.10970692511E+04 -0.73943852862E+03  0.71236286185E+03  0.15025947978E+04  0.25500000920E-02 0.  1.
       -2    1    3    3    0  502  0.10970692511E+04  0.73943852862E+03 -0.16356458215E+04  0.21037270576E+04  0.25500000920E-02 0. -1.
</event>
<event>
 5   0  0.3119048E-07  0.3465833E+04  0.7818609E-02  0.8121935E-01
       -2   -1    0    0    0  501  0.00000000000E+00  0.00000000000E+00  0.20012585567E+04  0.20012585567E+04  0.25500000920E-02 0. -1.
        2   -1    0    0  501    0  0.00000000000E+00  0.00000000000E+00 -0.15005557699E+04  0.15005557699E+04  0.25500000920E-02 0.  1.
    10030    2    1    2    0    0  0.00000000000E+00  0.00000000000E+00  0.50070278687E+03  0.35018143266E+04  0.34658332760E+04 0.  0.
        3    1    3    3  502    0 -0.10983536421E+04 -0.75088092275E+02 -0.11018175343E+04  0.15575688857E+04  0.10100000352E+00 0.  1.
       -3    1    3    3    0  502  0.10983536421E+04  0.75088092275E+02  0.16025203211E+04  0.19442454409E+04  0.10100000352E+00 0. -1.
</event>
<event>
 5   0  0.3219205E-07  0.3507651E+04  0.7818609E-02  0.8111979E-01
        2   -1    0    0  501    0  0.00000000000E+00  0.00000000000E+00  0.13891346392E+04  0.13891346392E+04  0.25500000920E-02 0. -1.
       -2   -1    0    0    0  501  0.00000000000E+00  0.00000000000E+00 -0.22142586598E+04  0.22142586598E+04  0.25500000920E-02 0.  1.
    10030    2    1    2    0    0  0.00000000000E+00  0.00000000000E+00 -0.82512402060E+03  0.36033932990E+04  0.35076507264E+04 0.  0.
        2    1    3    3  502    0  0.42239740077E+03 -0.16044219719E+04 -0.99668939081E+03  0.19354532208E+04  0.25500000920E-02 0.  1.
       -2    1    3    3    0  502 -0.42239740077E+03  0.16044219719E+04  0.17156537021E+03  0.16679400782E+04  0.25500000920E-02 0. -1.
</event>
<event>
 5   0  0.3119048E-07  0.3502143E+04  0.7818609E-02  0.8113282E-01
        2   -1    0    0  501    0  0.00000000000E+00  0.00000000000E+00  0.17543656232E+04  0.17543656232E+04  0.25500000920E-02 0.  1.
       -2   -1    0    0    0  501  0.00000000000E+00  0.00000000000E+00 -0.17477838989E+04  0.17477838989E+04  0.25500000920E-02 0. -1.
    10030    2    1    2    0    0  0.00000000000E+00  0.00000000000E+00  0.65817243487E+01  0.35021495221E+04  0.35021433374E+04 0.  0.
        3    1    3    3  502    0 -0.11711427644E+04  0.71712771064E+03 -0.10831752533E+04  0.17490329235E+04  0.10100000352E+00 0. -1.
       -3    1    3    3    0  502  0.11711427644E+04 -0.71712771064E+03  0.10897569776E+04  0.17531165986E+04  0.10100000352E+00 0.  1.
</event>
<event>
 5   0  0.3119048E-07  0.3501214E+04  0.7818609E-02  0.8113502E-01
       -2   -1    0    0    0  501  0.00000000000E+00  0.00000000000E+00  0.12025825205E+04  0.12025825205E+04  0.25500000920E-02 0. -1.
        2   -1    0    0  501    0  0.00000000000E+00  0.00000000000E+00 -0.25483701811E+04  0.25483701811E+04  0.25500000920E-02 0.  1.
    10030    2    1    2    0    0  0.00000000000E+00  0.00000000000E+00 -0.13457876606E+04  0.37509527016E+04  0.35012143239E+04 0.  0.
        3    1    3    3  502    0  0.96512580307E+03  0.13061218843E+04 -0.13731229326E+04  0.21267084404E+04  0.10100000352E+00 0.  1.
       -3    1    3    3    0  502 -0.96512580307E+03 -0.13061218843E+04  0.27335271990E+02  0.16242442611E+04  0.10100000352E+00 0. -1.
</event>
<event>
 5   0  0.2180451E-07  0.3502950E+04  0.7818609E-02  0.8113091E-01
       -2   -1    0    0    0  501  0.00000000000E+00  0.00000000000E+00  0.10446227058E+04  0.10446227058E+04  0.25500000920E-02 0. -1.
        2   -1    0    0  501    0  0.00000000000E+00  0.00000000000E+00 -0.29366247273E+04  0.29366247273E+04  0.25500000920E-02 0.  1.
    10030    2    1    2    0    0  0.00000000000E+00  0.00000000000E+00 -0.18920020215E+04  0.39812474331E+04  0.35029501101E+04 0.  0.
        4    1    3    3  502    0 -0.27793828451E+03 -0.11434998760E+04 -0.24203634437E+04  0.26912826810E+04  0.12699999809E+01 0.  1.
       -4    1    3    3    0  502  0.27793828451E+03  0.11434998760E+04  0.52836142212E+03  0.12899647521E+04  0.12699999809E+01 0. -1.
</event>
<event>
 5   0  0.2180451E-07  0.3501023E+04  0.7818609E-02  0.8113548E-01
       -2   -1    0    0    0  501  0.00000000000E+00  0.00000000000E+00  0.14085434544E+04  0.14085434545E+04  0.25500000920E-02 0.  1.
        2   -1    0    0  501    0  0.00000000000E+00  0.00000000000E+00 -0.21755031570E+04  0.21755031570E+04  0.25500000920E-02 0. -1.
    10030    2    1    2    0    0  0.00000000000E+00  0.00000000000E+00 -0.76695970253E+03  0.35840466114E+04  0.35010231258E+04 0.  0.
        4    1    3    3  502    0  0.12850982995E+04  0.97707183336E+03  0.30943325584E+03  0.16437449801E+04  0.12699999809E+01 0.  1.
       -4    1    3    3    0  502 -0.12850982995E+04 -0.97707183336E+03 -0.10763929584E+04  0.19403016313E+04  0.12699999809E+01 0. -1.
</event>
<event>
 5   0  0.1072381E-07  0.3495033E+04  0.7818609E-02  0.8114968E-01
       -1   -1    0    0    0  501  0.00000000000E+00  0.00000000000E+00  0.10754757567E+04  0.10754757567E+04  0.50400001928E-02 0. -1.
        1   -1    0    0  501    0  0.00000000000E+00  0.00000000000E+00 -0.28395009300E+04  0.28395009300E+04  0.50400001928E-02 0.  1.
    10030    2    1    2    0    0  0.00000000000E+00  0.00000000000E+00 -0.17640251734E+04  0.39149766867E+04  0.34950332824E+04 0.  0.
        1    1    3    3  502    0  0.62670851812E+03  0.92978344965E+03  0.61939273755E+03  0.12809793883E+04  0.50400001928E-02 0. -1.
       -1    1    3    3    0  502 -0.62670851812E+03 -0.92978344965E+03 -0.23834179109E+04  0.26339972984E+04  0.50400001928E-02 0.  1.
</event>
<event>
 5   0  0.3219205E-07  0.3506198E+04  0.7818609E-02  0.8112323E-01
        2   -1    0    0  501    0  0.00000000000E+00  0.00000000000E+00  0.16855441934E+04  0.16855441934E+04  0.25500000920E-02 0. -1.
       -2   -1    0    0    0  501  0.00000000000E+00  0.00000000000E+00 -0.18233616423E+04  0.18233616423E+04  0.25500000920E-02 0.  1.
    10030    2    1    2    0    0  0.00000000000E+00  0.00000000000E+00 -0.13781744889E+03  0.35089058357E+04  0.35061982994E+04 0.  0.
        2    1    3    3  502    0  0.66932560253E+03  0.77813847722E+03  0.13534066805E+04  0.16985893838E+04  0.25500000920E-02 0. -1.
       -2    1    3    3    0  502 -0.66932560253E+03 -0.77813847722E+03 -0.14912241294E+04  0.18103164519E+04  0.25500000920E-02 0.  1.
</event>
<event>
 5   0  0.1013863E-07  0.3476613E+04  0.7818609E-02  0.8119355E-01
        1   -1    0    0  501    0  0.00000000000E+00  0.00000000000E+00  0.21089215546E+04  0.21089215546E+04  0.50400001928E-02 0. -1.
       -1   -1    0    0    0  501  0.00000000000E+00  0.00000000000E+00 -0.14328217389E+04  0.14328217389E+04  0.50400001928E-02 0.  1.
    10030    2    1    2    0    0  0.00000000000E+00  0.00000000000E+00  0.67609981572E+03  0.35417432935E+04  0.34766125174E+04 0.  0.
        5    1    3    3  502    0  0.10162705663E+04 -0.54549583896E+03 -0.98681939933E+03  0.15179611955E+04  0.46999998093E+01 0.  1.
       -5    1    3    3    0  502 -0.10162705663E+04  0.54549583896E+03  0.16629192151E+04  0.20237820980E+04  0.46999998093E+01 0. -1.
</event>
<event>
 5   0  0.1098171E-07  0.3515038E+04  0.7818609E-02  0.8110235E-01
       -1   -1    0    0    0  501  0.00000000000E+00  0.00000000000E+00  0.31002037204E+04  0.31002037204E+04  0.50400001928E-02 0.  1.
        1   -1    0    0  501    0  0.00000000000E+00  0.00000000000E+00 -0.99634495362E+03  0.99634495364E+03  0.50400001928E-02 0. -1.
    10030    2    1    2    0    0  0.00000000000E+00  0.00000000000E+00  0.21038587668E+04  0.40965486740E+04  0.35150375998E+04 0.  0.
        4    1    3    3  502    0 -0.11583582112E+04  0.51184259400E+02  0.25912117592E+04  0.28388014315E+04  0.12699999809E+01 0.  1.
       -4    1    3    3    0  502  0.11583582112E+04 -0.51184259400E+02 -0.48735299242E+03  0.12577472425E+04  0.12699999809E+01 0. -1.
</event>
<event>
 5   0  0.1033796E-07  0.3540593E+04  0.7818609E-02  0.8104237E-01
       -1   -1    0    0    0  501  0.00000000000E+00  0.00000000000E+00  0.11402585778E+04  0.11402585778E+04  0.50400001928E-02 0.  1.
        1   -1    0    0  501    0  0.00000000000E+00  0.00000000000E+00 -0.27484552008E+04  0.27484552008E+04  0.50400001928E-02 0. -1.
    10030    2    1    2    0    0  0.00000000000E+00  0.00000000000E+00 -0.16081966230E+04  0.38887137787E+04  0.35405929551E+04 0.  0.
        3    1    3    3  502    0 -0.83096752336E+03 -0.10828183959E+02 -0.25209019579E+04  0.26543494431E+04  0.10100000352E+00 0. -1.
       -3    1    3    3    0  502  0.83096752336E+03  0.10828183959E+02  0.91270533486E+03  0.12343643356E+04  0.10100000352E+00 0.  1.
</event>
<event>
 5   0  0.3190185E-07  0.3488392E+04  0.7818609E-02  0.8116546E-01
        2   -1    0    0  501    0  0.00000000000E+00  0.00000000000E+00  0.17543571320E+04  0.17543571320E+04  0.25500000920E-02 0.  1.
       -2   -1    0    0    0  501  0.00000000000E+00  0.00000000000E+00 -0.17340940873E+04  0.17340940873E+04  0.25500000920E-02 0. -1.
    10030    2    1    2    0    0  0.00000000000E+00  0.00000000000E+00  0.20263044651E+02  0.34884512193E+04  0.34883923688E+04 0.  0.
        1    1    3    3  502    0  0.31703153353E+03  0.15363201048E+04  0.77266118744E+03  0.17486548453E+04  0.50400001928E-02 0.  1.
       -1    1    3    3    0  502 -0.31703153353E+03 -0.15363201048E+04 -0.75239814279E+03  0.17397963740E+04  0.50400001928E-02 0. -1.
</event>
<event>
 5   0  0.3119048E-07  0.3430309E+04  0.7818609E-02  0.8130507E-01
        2   -1    0    0  501    0  0.00000000000E+00  0.00000000000E+00  0.11852256503E+04  0.11852256503E+04  0.25500000920E-02 0.  1.
       -2   -1    0    0    0  501  0.00000000000E+00  0.00000000000E+00 -0.24820210624E+04  0.24820210624E+04  0.25500000920E-02 0. -1.
    10030    2    1    2    0    0  0.00000000000E+00  0.00000000000E+00 -0.12967954120E+04  0.36672467127E+04  0.34303090402E+04 0.  0.
        3    1    3    3  502    0 -0.99362903551E+03 -0.11303443343E+04  0.23109048057E+03  0.15226226698E+04  0.10100000352E+00 0.  1.
       -3    1    3    3    0  502  0.99362903551E+03  0.11303443343E+04 -0.15278858926E+04  0.21446240429E+04  0.10100000352E+00 0. -1.
</event>
<event>
 5   0  0.3190112E-07  0.3492807E+04  0.7818609E-02  0.8115497E-01
       -2   -1    0    0    0  501  0.00000000000E+00  0.00000000000E+00  0.15450171854E+04  0.15450171854E+04  0.25500000920E-02 0.  1.
        2   -1    0    0  501    0  0.00000000000E+00  0.00000000000E+00 -0.19740396146E+04  0.19740396146E+04  0.25500000920E-02 0. -1.
    10030    2    1    2    0    0  0.00000000000E+00  0.00000000000E+00 -0.42902242915E+03  0.35190568000E+04  0.34928069681E+04 0.  0.
        5    1    3    3  502    0  0.32307299421E+03 -0.12356414597E+04 -0.14145618961E+04  0.19058314260E+04  0.46999998093E+01 0. -1.
       -5    1    3    3    0  502 -0.32307299421E+03  0.12356414597E+04  0.98553946690E+03  0.16132253740E+04  0.46999998093E+01 0.  1.
</event>
<event>
 5   0  0.1013863E-07  0.3494128E+04  0.7818609E-02  0.8115183E-01
        1   -1    0    0  501    0  0.00000000000E+00  0.00000000000E+00  0.16483349973E+04  0.16483349973E+04  0.50400001928E-02 0. -1.
       -1   -1    0    0    0  501  0.00000000000E+00  0.00000000000E+00 -0.18517069641E+04  0.18517069641E+04  0.50400001928E-02 0.  1.
    10030    2    1    2    0    0  0.00000000000E+00  0.00000000000E+00 -0.20337196678E+03  0.35000419614E+04  0.34941284428E+04 0.  0.
        5    1    3    3  502    0 -0.16009095651E+04 -0.12650599474E+01 -0.80236840883E+03  0.17907345391E+04  0.46999998093E+01 0.  1.
       -5    1    3    3    0  502  0.16009095651E+04  0.12650599474E+01  0.59899644205E+03  0.17093074222E+04  0.46999998093E+01 0. -1.
</event>
<event>
 5   0  0.3190185E-07  0.3504415E+04  0.7818609E-02  0.8112745E-01
        2   -1    0    0  501    0  0.00000000000E+00  0.00000000000E+00  0.13993951305E+04  0.13993951305E+04  0.25500000920E-02 0. -1.
       -2   -1    0    0    0  501  0.00000000000E+00  0.00000000000E+00 -0.21939695337E+04  0.21939695337E+04  0.25500000920E-02 0.  1.
    10030    2    1    2    0    0  0.00000000000E+00  0.00000000000E+00 -0.79457440323E+03  0.35933646642E+04  0.35044145200E+04 0.  0.
        1    1    3    3  502    0  0.37272967040E+03 -0.13786302821E+04 -0.14382807676E+04  0.20268696130E+04  0.50400001928E-02 0.  1.
       -1    1    3    3    0  502 -0.37272967040E+03  0.13786302821E+04  0.64370636437E+03  0.15664950512E+04  0.50400001928E-02 0. -1.
</event>
<event>
 5   0  0.2180451E-07  0.3459127E+04  0.7818609E-02  0.8123545E-01
       -2   -1    0    0    0  501  0.00000000000E+00  0.00000000000E+00  0.10476056880E+04  0.10476056880E+04  0.25500000920E-02 0.  1.
        2   -1    0    0  501    0  0.00000000000E+00  0.00000000000E+00 -0.28554534044E+04  0.28554534044E+04  0.25500000920E-02 0. -1.
    10030    2    1    2    0    0  0.00000000000E+00  0.00000000000E+00 -0.18078477164E+04  0.39030590924E+04  0.34591266112E+04 0.  0.
        4    1    3    3  502    0 -0.39971730873E+03 -0.16033937943E+04 -0.14800852966E+04  0.22184002535E+04  0.12699999809E+01 0.  1.
       -4    1    3    3    0  502  0.39971730873E+03  0.16033937943E+04 -0.32776241986E+03  0.16846588389E+04  0.12699999809E+01 0. -1.
</event>
<event>
 5   0  0.3190112E-07  0.3508067E+04  0.7818609E-02  0.8111881E-01
        2   -1    0    0  501    0  0.00000000000E+00  0.00000000000E+00  0.25272360120E+04  0.25272360120E+04  0.25500000920E-02 0. -1.
       -2   -1    0    0    0  501  0.00000000000E+00  0.00000000000E+00 -0.12173904499E+04  0.12173904499E+04  0.25500000920E-02 0.  1.
    10030    2    1    2    0    0  0.00000000000E+00  0.00000000000E+00  0.13098455621E+04  0.37446264619E+04  0.35080666959E+04 0.  0.
        5    1    3    3  502    0 -0.15158732142E+04  0.21740037305E+03 -0.25801422464E+03  0.15529739063E+04  0.46999998093E+01 0.  1.
       -5    1    3    3    0  502  0.15158732142E+04 -0.21740037305E+03  0.15678597867E+04  0.21916525556E+04  0.46999998093E+01 0. -1.
</event>
<event>
 5   0  0.1033796E-07  0.3479764E+04  0.7818609E-02  0.8118602E-01
        1   -1    0    0  501    0  0.00000000000E+00  0.00000000000E+00  0.18612675910E+04  0.18612675911E+04  0.50400001928E-02 0. -1.
       -1   -1    0    0    0  501  0.00000000000E+00  0.00000000000E+00 -0.16264127102E+04  0.16264127102E+04  0.50400001928E-02 0.  1.
    10030    2    1    2    0    0  0.00000000000E+00  0.00000000000E+00  0.23485488087E+03  0.34876803012E+04  0.34797639386E+04 0.  0.
        3    1    3    3  502    0 -0.89142995777E+03  0.14565341913E+04  0.45142726522E+03  0.17663311711E+04  0.10100000352E+00 0.  1.
       -3    1    3    3    0  502  0.89142995777E+03 -0.14565341913E+04 -0.21657238435E+03  0.17213491301E+04  0.10100000352E+00 0. -1.
</event>
<event>
 5   0  0.3119048E-07  0.3495243E+04  0.7818609E-02  0.8114918E-01
        2   -1    0    0  501    0  0.00000000000E+00  0.00000000000E+00  0.25694490958E+04  0.25694490958E+04  0.25500000920E-02 0. -1.
       -2   -1    0    0    0  501  0.00000000000E+00  0.00000000000E+00 -0.11886523503E+04  0.11886523503E+04  0.25500000920E-02 0.  1.
    10030    2    1    2    0    0  0.00000000000E+00  0.00000000000E+00  0.13807967455E+04  0.37581014461E+04  0.34952434575E+04 0.  0.
        3    1    3    3  502    0 -0.76750125952E+03 -0.12414562354E+03 -0.99246371832E+03  0.12607357223E+04  0.10100000352E+00 0.  1.
       -3    1    3    3    0  502  0.76750125952E+03  0.12414562354E+03  0.23732604638E+04  0.24973657238E+04  0.10100000352E+00 0. -1.
</event>
<event>
 5   0  0.3190185E-07  0.3476683E+04  0.7818609E-02  0.8119338E-01
        2   -1    0    0  501    0  0.00000000000E+00  0.00000000000E+00  0.21718342420E+04  0.21718342420E+04  0.25500000920E-02 0. -1.
       -2   -1    0    0    0  501  0.00000000000E+00  0.00000000000E+00 -0.13913725337E+04  0.13913725337E+04  0.25500000920E-02 0.  1.
    10030    2    1    2    0    0  0.00000000000E+00  0.00000000000E+00  0.78046170835E+03  0.35632067757E+04  0.34766826212E+04 0.  0.
        1    1    3    3  502    0  0.73314534255E+03 -0.11962271916E+04  0.14421109322E+04  0.20120003798E+04  0.50400001928E-02 0. -1.
       -1    1    3    3    0  502 -0.73314534255E+03  0.11962271916E+04 -0.66164922389E+03  0.15512063959E+04  0.50400001928E-02 0.  1.
</event>
<event>
 5   0  0.2180451E-07  0.3493312E+04  0.7818609E-02  0.8115377E-01
       -2   -1    0    0    0  501  0.00000000000E+00  0.00000000000E+00  0.11628941701E+04  0.11628941702E+04  0.25500000920E-02 0.  1.
        2   -1    0    0  501    0  0.00000000000E+00  0.00000000000E+00 -0.26234606514E+04  0.26234606514E+04  0.25500000920E-02 0. -1.
    10030    2    1    2    0    0  0.00000000000E+00  0.00000000000E+00 -0.14605664812E+04  0.37863548215E+04  0.34933119512E+04 0.  0.
        4    1    3    3  502    0 -0.10107157094E+04  0.56751644310E+03 -0.21464817965E+04  0.24394685639E+04  0.12699999809E+01 0. -1.
       -4    1    3    3    0  502  0.10107157094E+04 -0.56751644310E+03  0.68591531525E+03  0.13468862577E+04  0.12699999809E+01 0.  1.
</event>
<event>
 5   0  0.2180451E-07  0.3526512E+04  0.7818609E-02  0.8107536E-01
        2   -1    0    0  501    0  0.00000000000E+00  0.00000000000E+00  0.13638589445E+04  0.13638589445E+04  0.25500000920E-02 0.  1.
       -2   -1    0    0    0  501  0.00000000000E+00  0.00000000000E+00 -0.22796136491E+04  0.22796136491E+04  0.25500000920E-02 0. -1.
    10030    2    1    2    0    0  0.00000000000E+00  0.00000000000E+00 -0.91575470464E+03  0.36434725936E+04  0.35265118547E+04 0.  0.
        4    1    3    3  502    0  0.10926940062E+03 -0.12715467462E+04  0.79915041302E+03  0.15057934537E+04  0.12699999809E+01 0.  1.
       -4    1    3    3    0  502 -0.10926940062E+03  0.12715467462E+04 -0.17149051177E+04  0.21376791399E+04  0.12699999809E+01 0. -1.
</event>
<event>
 5   0  0.3119048E-07  0.3476550E+04  0.7818609E-02  0.8119370E-01
       -2   -1    0    0    0  501  0.00000000000E+00  0.00000000000E+00  0.12386139324E+04  0.12386139324E+04  0.25500000920E-02 0. -1.
        2   -1    0    0  501    0  0.00000000000E+00  0.00000000000E+00 -0.24395015082E+04  0.24395015082E+04  0.25500000920E-02 0.  1.
    10030    2    1    2    0    0  0.00000000000E+00  0.00000000000E+00 -0.12008875757E+04  0.36781154406E+04  0.34765503340E+04 0.  0.
        3    1    3    3  502    0 -0.91001294169E+03  0.39311170849E+03  0.91025915784E+03  0.13458202384E+04  0.10100000352E+00 0. -1.
       -3    1    3    3    0  502  0.91001294169E+03 -0.39311170849E+03 -0.21111467336E+04  0.23322952022E+04  0.10100000352E+00 0.  1.
</event>
<event>
 5   0  0.3219205E-07  0.3451081E+04  0.7818609E-02  0.8125482E-01
        2   -1    0    0  501    0  0.00000000000E+00  0.00000000000E+00  0.26615227882E+04  0.26615227882E+04  0.25500000920E-02 0.  1.
       -2   -1    0    0    0  501  0.00000000000E+00  0.00000000000E+00 -0.11187167684E+04  0.11187167684E+04  0.25500000920E-02 0. -1.
    10030    2    1    2    0    0  0.00000000000E+00  0.00000000000E+00  0.15428060198E+04  0.37802395566E+04  0.34510810901E+04 0.  0.
        2    1    3    3  502    0 -0.14602152306E+04 -0.43849831863E+03 -0.11374192763E+03  0.15288709956E+04  0.25500000920E-02 0. -1.
       -2    1    3    3    0  502  0.14602152306E+04  0.43849831863E+03  0.16565479474E+04  0.22513685610E+04  0.25500000920E-02 0.  1.
</event>
<event>
 5   0  0.3190185E-07  0.3275867E+04  0.7818609E-02  0.8169063E-01
        2   -1    0    0  501    0  0.00000000000E+00  0.00000000000E+00  0.16729451549E+04  0.16729451549E+04  0.25500000920E-02 0. -1.
       -2   -1    0    0    0  501  0.00000000000E+00  0.00000000000E+00 -0.16036550024E+04  0.16036550024E+04  0.25500000920E-02 0.  1.
    10030    2    1    2    0    0  0.00000000000E+00  0.00000000000E+00  0.69290152532E+02  0.32766001574E+04  0.32758674372E+04 0.  0.
        1    1    3    3  502    0 -0.11492887744E+04 -0.99042454085E+03 -0.58276230551E+03  0.16252437857E+04  0.50400001928E-02 0.  1.
       -1    1    3    3    0  502  0.11492887744E+04  0.99042454085E+03  0.65205245804E+03  0.16513563717E+04  0.50400001928E-02 0. -1.
</event>
<event>
 5   0  0.3219205E-07  0.3489183E+04  0.7818609E-02  0.8116358E-01
        2   -1    0    0  501    0  0.00000000000E+00  0.00000000000E+00  0.18171905980E+04  0.18171905980E+04  0.25500000920E-02 0.  1.
       -2   -1    0    0    0  501  0.00000000000E+00  0.00000000000E+00 -0.16748927715E+04  0.16748927715E+04  0.25500000920E-02 0. -1.
    10030    2    1    2    0    0  0.00000000000E+00  0.00000000000E+00  0.14229782654E+03  0.34920833695E+04  0.34891829399E+04 0.  0.
        2    1    3    3  502    0  0.78382116889E+03  0.25062834209E+03 -0.14684435847E+04  0.16833053056E+04  0.25500000920E-02 0. -1.
       -2    1    3    3    0  502 -0.78382116889E+03 -0.25062834209E+03  0.16107414112E+04  0.18087780639E+04  0.25500000920E-02 0.  1.
</event>
<event>
 5   0  0.1098171E-07  0.3497644E+04  0.7818609E-02  0.8114349E-01
        1   -1    0    0  501    0  0.00000000000E+00  0.00000000000E+00  0.16377568563E+04  0.16377568563E+04  0.50400001928E-02 0. -1.
       -1   -1    0    0    0  501  0.00000000000E+00  0.00000000000E+00 -0.18674187391E+04  0.18674187391E+04  0.50400001928E-02 0.  1.
    10030    2    1    2    0    0  0.00000000000E+00  0.00000000000E+00 -0.22966188274E+03  0.35051755954E+04  0.34976436889E+04 0.  0.
        4    1    3    3  502    0 -0.57962167752E+03  0.15209207347E+04 -0.75590767953E+03  0.17945916536E+04  0.12699999809E+01 0.  1.
       -4    1    3    3    0  502  0.57962167752E+03 -0.15209207347E+04  0.52624579679E+03  0.17105839418E+04  0.12699999809E+01 0. -1.
</event>
<event>
 5   0  0.1013863E-07  0.3500714E+04  0.7818609E-02  0.8113621E-01
        1   -1    0    0  501    0  0.00000000000E+00  0.00000000000E+00  0.25525176462E+04  0.25525176462E+04  0.50400001928E-02 0. -1.
       -1   -1    0    0    0  501  0.00000000000E+00  0.00000000000E+00 -0.12002853643E+04  0.12002853644E+04  0.50400001928E-02 0.  1.
    10030    2    1    2    0    0  0.00000000000E+00  0.00000000000E+00  0.13522322818E+04  0.37528030105E+04  0.35007139689E+04 0.  0.
        2    1    3    3  502    0 -0.11456891910E+04 -0.90045040640E+02 -0.73919699077E+03  0.13664274671E+04  0.25500000920E-02 0.  1.
       -2    1    3    3    0  502  0.11456891910E+04  0.90045040640E+02  0.20914292726E+04  0.23863755434E+04  0.25500000920E-02 0. -1.
</event>
<event>
 5   0  0.1013863E-07  0.3500506E+04  0.7818609E-02  0.8113670E-01
       -1   -1    0    0    0  501  0.00000000000E+00  0.00000000000E+00  0.13596109618E+04  0.13596109619E+04  0.50400001928E-02 0. -1.
        1   -1    0    0  501    0  0.00000000000E+00  0.00000000000E+00 -0.22531342116E+04  0.22531342116E+04  0.50400001928E-02 0.  1.
    10030    2    1    2    0    0  0.00000000000E+00  0.00000000000E+00 -0.89352324977E+03  0.36127451735E+04  0.35005062335E+04 0.  0.
        2    1    3    3  502    0 -0.70680620703E+03 -0.77246110173E+03 -0.18942708080E+04  0.21643782161E+04  0.25500000920E-02 0.  1.
       -2    1    3    3    0  502  0.70680620703E+03  0.77246110173E+03  0.10007475583E+04  0.14483669574E+04  0.25500000920E-02 0. -1.
</event>
<event>
 5   0  0.1013863E-07  0.3500285E+04  0.7818609E-02  0.8113722E-01
       -1   -1    0    0    0  501  0.00000000000E+00  0.00000000000E+00  0.14619463914E+04  0.14619463914E+04  0.50400001928E-02 0. -1.
        1   -1    0    0  501    0  0.00000000000E+00  0.00000000000E+00 -0.20951516141E+04  0.20951516141E+04  0.50400001928E-02 0.  1.
    10030    2    1    2    0    0  0.00000000000E+00  0.00000000000E+00 -0.63320522268E+03  0.35570980055E+04  0.35002853265E+04 0.  0.
        5    1    3    3  502    0 -0.11936586029E+03 -0.17434239754E+04 -0.41408603798E+03  0.17959021976E+04  0.46999998093E+01 0.  1.
       -5    1    3    3    0  502  0.11936586029E+03  0.17434239754E+04 -0.21911918471E+03  0.17611958079E+04  0.46999998093E+01 0. -1.
</event>
<event>
 5   0  0.3190185E-07  0.3723702E+04  0.7818609E-02  0.8062729E-01
        2   -1    0    0  501    0  0.00000000000E+00  0.00000000000E+00  0.15722976593E+04  0.15722976593E+04  0.25500000920E-02 0. -1.
       -2   -1    0    0    0  501  0.00000000000E+00  0.00000000000E+00 -0.22047278595E+04  0.22047278595E+04  0.25500000920E-02 0.  1.
    10030    2    1    2    0    0  0.00000000000E+00  0.00000000000E+00 -0.63243020017E+03  0.37770255188E+04  0.37237016276E+04 0.  0.
        1    1    3    3  502    0  0.25607897115E+03  0.17668016984E+04  0.21986414507E+03  0.17987509342E+04  0.50400001928E-02 0. -1.
       -1    1    3    3    0  502 -0.25607897115E+03 -0.17668016984E+04 -0.85229434523E+03  0.19782745846E+04  0.50400001928E-02 0.  1.
</event>
<event>
 5   0  0.1013863E-07  0.3498953E+04  0.7818609E-02  0.8114038E-01
        1   -1    0    0  501    0  0.00000000000E+00  0.00000000000E+00  0.16595699226E+04  0.16595699226E+04  0.50400001928E-02 0. -1.
       -1   -1    0    0    0  501  0.00000000000E+00  0.00000000000E+00 -0.18442534017E+04  0.18442534017E+04  0.50400001928E-02 0.  1.
    10030    2    1    2    0    0  0.00000000000E+00  0.00000000000E+00 -0.18468347914E+03  0.35038233243E+04  0.34989526862E+04 0.  0.
        5    1    3    3  502    0  0.50857127921E+03  0.11203301798E+04 -0.13378016829E+04  0.18175587722E+04  0.46999998093E+01 0.  1.
       -5    1    3    3    0  502 -0.50857127921E+03 -0.11203301798E+04  0.11531182038E+04  0.16862645521E+04  0.46999998093E+01 0. -1.
</event>
<event>
 5   0  0.3190185E-07  0.3480082E+04  0.7818609E-02  0.8118527E-01
        2   -1    0    0  501    0  0.00000000000E+00  0.00000000000E+00  0.19176779590E+04  0.19176779590E+04  0.25500000920E-02 0. -1.
       -2   -1    0    0    0  501  0.00000000000E+00  0.00000000000E+00 -0.15788587942E+04  0.15788587942E+04  0.25500000920E-02 0.  1.
    10030    2    1    2    0    0  0.00000000000E+00  0.00000000000E+00  0.33881916481E+03  0.34965367533E+04  0.34800820163E+04 0.  0.
        1    1    3    3  502    0  0.28646691121E+03  0.10992815980E+04 -0.11548738686E+04  0.16199435099E+04  0.50400001928E-02 0.  1.
       -1    1    3    3    0  502 -0.28646691121E+03 -0.10992815980E+04  0.14936930334E+04  0.18765932433E+04  0.50400001928E-02 0. -1.
</event>
<event>
 5   0  0.1033796E-07  0.3477760E+04  0.7818609E-02  0.8119081E-01
        1   -1    0    0  501    0  0.00000000000E+00  0.00000000000E+00  0.19793214975E+04  0.19793214975E+04  0.50400001928E-02 0.  1.
       -1   -1    0    0    0  501  0.00000000000E+00  0.00000000000E+00 -0.15276461794E+04  0.15276461794E+04  0.50400001928E-02 0. -1.
    10030    2    1    2    0    0  0.00000000000E+00  0.00000000000E+00  0.45167531808E+03  0.35069676769E+04  0.34777595796E+04 0.  0.
        3    1    3    3  502    0 -0.42048228482E+03  0.16219608879E+02 -0.14755295595E+04  0.15343584713E+04  0.10100000352E+00 0. -1.
       -3    1    3    3    0  502  0.42048228482E+03 -0.16219608879E+02  0.19272048775E+04  0.19726092055E+04  0.10100000352E+00 0.  1.
</event>
<event>
 5   0  0.1013863E-07  0.3477741E+04  0.7818609E-02  0.8119085E-01
        1   -1    0    0  501    0  0.00000000000E+00  0.00000000000E+00  0.12382260291E+04  0.12382260291E+04  0.50400001928E-02 0.  1.
       -1   -1    0    0    0  501  0.00000000000E+00  0.00000000000E+00 -0.24419374342E+04  0.24419374342E+04  0.50400001928E-02 0. -1.
    10030    2    1    2    0    0  0.00000000000E+00  0.00000000000E+00 -0.12037114051E+04  0.36801634632E+04  0.34777409290E+04 0.  0.
        2    1    3    3  502    0 -0.13134220227E+04 -0.76660480504E+02 -0.18050104455E+04  0.22336107421E+04  0.25500000920E-02 0. -1.
       -2    1    3    3    0  502  0.13134220227E+04  0.76660480504E+02  0.60129904043E+03  0.14465527211E+04  0.25500000920E-02 0.  1.
</event>
<event>
 5   0  0.1013863E-07  0.3486635E+04  0.7818609E-02  0.8116965E-01
        1   -1    0    0  501    0  0.00000000000E+00  0.00000000000E+00  0.22745370359E+04  0.22745370359E+04  0.50400001928E-02 0. -1.
       -1   -1    0    0    0  501  0.00000000000E+00  0.00000000000E+00 -0.13361646253E+04  0.13361646253E+04  0.50400001928E-02 0.  1.
    10030    2    1    2    0    0  0.00000000000E+00  0.00000000000E+00  0.93837241061E+03  0.36107016612E+04  0.34866350118E+04 0.  0.
        5    1    3    3  502    0  0.94223878154E+03 -0.37137707745E+03  0.19386200589E+04  0.21872367677E+04  0.46999998093E+01 0. -1.
       -5    1    3    3    0  502 -0.94223878154E+03  0.37137707745E+03 -0.10002476483E+04  0.14234648935E+04  0.46999998093E+01 0.  1.
</event>
<event>
 5   0  0.2180451E-07  0.3488288E+04  0.7818609E-02  0.8116571E-01
       -2   -1    0    0    0  501  0.00000000000E+00  0.00000000000E+00  0.14952811036E+04  0.14952811036E+04  0.25500000920E-02 0. -1.
        2   -1    0    0  501    0  0.00000000000E+00  0.00000000000E+00 -0.20344256583E+04  0.20344256583E+04  0.25500000920E-02 0.  1.
    10030    2    1    2    0    0  0.00000000000E+00  0.00000000000E+00 -0.53914455479E+03  0.35297067619E+04  0.34882879718E+04 0.  0.
        4    1    3    3  502    0 -0.22053342857E+03 -0.17201578463E+04 -0.45740672628E+03  0.17935441270E+04  0.12699999809E+01 0. -1.
       -4    1    3    3    0  502  0.22053342857E+03  0.17201578463E+04 -0.81737828507E+02  0.17361626349E+04  0.12699999809E+01 0.  1.
</event>
<event>
 5   0  0.2180451E-07  0.3546398E+04  0.7818609E-02  0.8102881E-01
       -2   -1    0    0    0  501  0.00000000000E+00  0.00000000000E+00  0.13906767920E+04  0.13906767920E+04  0.25500000920E-02 0. -1.
        2   -1    0    0  501    0  0.00000000000E+00  0.00000000000E+00 -0.22609386677E+04  0.22609386677E+04  0.25500000920E-02 0.  1.
    10030    2    1    2    0    0  0.00000000000E+00  0.00000000000E+00 -0.87026187577E+03  0.36516154597E+04  0.35463981351E+04 0.  0.
        4    1    3    3  502    0  0.10436322902E+04  0.11820737448E+04 -0.12702212857E+04  0.20248284922E+04  0.12699999809E+01 0. -1.
       -4    1    3    3    0  502 -0.10436322902E+04 -0.11820737448E+04  0.39995940992E+03  0.16267869675E+04  0.12699999809E+01 0.  1.
</event>
<event>
 5   0  0.3119048E-07  0.3509208E+04  0.7818609E-02  0.8111611E-01
       -2   -1    0    0    0  501  0.00000000000E+00  0.00000000000E+00  0.12271125162E+04  0.12271125162E+04  0.25500000920E-02 0.  1.
        2   -1    0    0  501    0  0.00000000000E+00  0.00000000000E+00 -0.25088453978E+04  0.25088453978E+04  0.25500000920E-02 0. -1.
    10030    2    1    2    0    0  0.00000000000E+00  0.00000000000E+00 -0.12817328816E+04  0.37359579140E+04  0.35092082235E+04 0.  0.
        3    1    3    3  502    0  0.10984786768E+04 -0.11137187365E+04 -0.14869584507E+04  0.21582563035E+04  0.10100000352E+00 0.  1.
       -3    1    3    3    0  502 -0.10984786768E+04  0.11137187365E+04  0.20522556914E+03  0.15777016105E+04  0.10100000352E+00 0. -1.
</event>
<event>
 5   0  0.1098171E-07  0.3551867E+04  0.7818609E-02  0.8101607E-01
        1   -1    0    0  501    0  0.00000000000E+00  0.00000000000E+00  0.11833036674E+04  0.11833036674E+04  0.50400001928E-02 0. -1.
       -1   -1    0    0    0  501  0.00000000000E+00  0.00000000000E+00 -0.26653681025E+04  0.26653681025E+04  0.50400001928E-02 0.  1.
    10030    2    1    2    0    0  0.00000000000E+00  0.00000000000E+00 -0.14820644351E+04  0.38486717699E+04  0.35518670305E+04 0.  0.
        4    1    3    3  502    0  0.14792615127E+04 -0.97438955627E+03 -0.87932392973E+03  0.19775899010E+04  0.12699999809E+01 0.  1.
       -4    1    3    3    0  502 -0.14792615127E+04  0.97438955627E+03 -0.60274050537E+03  0.18710818689E+04  0.12699999809E+01 0. -1.
</event>
<event>
 5   0  0.2180451E-07  0.3505691E+04  0.7818609E-02  0.8112443E-01
       -2   -1    0    0    0  501  0.00000000000E+00  0.00000000000E+00  0.13385489558E+04  0.13385489558E+04  0.25500000920E-02 0. -1.
        2   -1    0    0  501    0  0.00000000000E+00  0.00000000000E+00 -0.22953712841E+04  0.22953712841E+04  0.25500000920E-02 0.  1.
    10030    2    1    2    0    0  0.00000000000E+00  0.00000000000E+00 -0.95682232838E+03  0.36339202399E+04  0.35056907082E+04 0.  0.
        4    1    3    3  502    0 -0.15255981562E+04 -0.26137416102E+03  0.37429533345E+03  0.15924398876E+04  0.12699999809E+01 0. -1.
       -4    1    3    3    0  502  0.15255981562E+04  0.26137416102E+03 -0.13311176618E+04  0.20414803523E+04  0.12699999809E+01 0.  1.
</event>
<event>
 5   0  0.1013863E-07  0.3504676E+04  0.7818609E-02  0.8112683E-01
        1   -1    0    0  501    0  0.00000000000E+00  0.00000000000E+00  0.15181035415E+04  0.15181035415E+04  0.50400001928E-02 0. -1.
       -1   -1    0    0    0  501  0.00000000000E+00  0.00000000000E+00 -0.20227133929E+04  0.20227133929E+04  0.50400001928E-02 0.  1.
    10030    2    1    2    0    0  0.00000000000E+00  0.00000000000E+00 -0.50460985142E+03  0.35408169343E+04  0.35046759423E+04 0.  0.
        2    1    3    3  502    0 -0.12842483530E+03  0.13021579494E+04  0.92529625099E+03  0.16025858528E+04  0.25500000920E-02 0. -1.
       -2    1    3    3    0  502  0.12842483530E+03 -0.13021579494E+04 -0.14299061024E+04  0.19382310815E+04  0.25500000920E-02 0.  1.
</event>
<event>
 5   0  0.3190185E-07  0.3501029E+04  0.7818609E-02  0.8113546E-01
       -2   -1    0    0    0  501  0.00000000000E+00  0.00000000000E+00  0.17273668953E+04  0.17273668953E+04  0.25500000920E-02 0. -1.
        2   -1    0    0  501    0  0.00000000000E+00  0.00000000000E+00 -0.17739725125E+04  0.17739725125E+04  0.25500000920E-02 0.  1.
    10030    2    1    2    0    0  0.00000000000E+00  0.00000000000E+00 -0.46605617157E+02  0.35013394078E+04  0.35010292151E+04 0.  0.
        1    1    3    3  502    0  0.11412103722E+03  0.44848733140E+03  0.16650816153E+04  0.17281959620E+04  0.50400001928E-02 0. -1.
       -1    1    3    3    0  502 -0.11412103722E+03 -0.44848733140E+03 -0.17116872325E+04  0.17731434458E+04  0.50400001928E-02 0.  1.
</event>
<event>
 5   0  0.3119048E-07  0.3497442E+04  0.7818609E-02  0.8114396E-01
       -2   -1    0    0    0  501  0.00000000000E+00  0.00000000000E+00  0.13398450296E+04  0.13398450296E+04  0.25500000920E-02 0. -1.
        2   -1    0    0  501    0  0.00000000000E+00  0.00000000000E+00 -0.22823728707E+04  0.22823728707E+04  0.25500000920E-02 0.  1.
    10030    2    1    2    0    0  0.00000000000E+00  0.00000000000E+00 -0.94252784120E+03  0.36222179003E+04  0.34974424636E+04 0.  0.
        3    1    3    3  502    0  0.17225764338E+04  0.57701456997E+02 -0.16503475392E+03  0.17314258600E+04  0.10100000352E+00 0. -1.
       -3    1    3    3    0  502 -0.17225764338E+04 -0.57701456997E+02 -0.77749308728E+03  0.18907920403E+04  0.10100000352E+00 0.  1.
</event>
<event>
 5   0  0.1098171E-07  0.3501142E+04  0.7818609E-02  0.8113519E-01
        1   -1    0    0  501    0  0.00000000000E+00  0.00000000000E+00  0.89675156989E+03  0.89675156991E+03  0.50400001928E-02 0. -1.
       -1   -1    0    0    0  501  0.00000000000E+00  0.00000000000E+00 -0.34173331060E+04  0.34173331060E+04  0.50400001928E-02 0.  1.
    10030    2    1    2    0    0  0.00000000000E+00  0.00000000000E+00 -0.25205815361E+04  0.43140846759E+04  0.35011420010E+04 0.  0.
        4    1    3    3  502    0 -0.77605917804E+02  0.16767233923E+04 -0.18727705563E+04  0.25148946662E+04  0.12699999809E+01 0. -1.
       -4    1    3    3    0  502  0.77605917804E+02 -0.16767233923E+04 -0.64781097988E+03  0.17991900098E+04  0.12699999809E+01 0.  1.
</event>
<event>
 5   0  0.1098171E-07  0.3517122E+04  0.7818609E-02  0.8109744E-01
        1   -1    0    0  501    0  0.00000000000E+00  0.00000000000E+00  0.18675200593E+04  0.18675200593E+04  0.50400001928E-02 0. -1.
       -1   -1    0    0    0  501  0.00000000000E+00  0.00000000000E+00 -0.16559587426E+04  0.16559587426E+04  0.50400001928E-02 0.  1.
    10030    2    1    2    0    0  0.00000000000E+00  0.00000000000E+00  0.21156131666E+03  0.35234788019E+04  0.35171216465E+04 0.  0.
        4    1    3    3  502    0 -0.45274312260E+03  0.10124527889E+04  0.14729809145E+04  0.18438306246E+04  0.12699999809E+01 0. -1.
       -4    1    3    3    0  502  0.45274312260E+03 -0.10124527889E+04 -0.12614195978E+04  0.16796481773E+04  0.12699999809E+01 0.  1.
</event>
<event>
 5   0  0.1098171E-07  0.3498791E+04  0.7818609E-02  0.8114076E-01
        1   -1    0    0  501    0  0.00000000000E+00  0.00000000000E+00  0.12261599629E+04  0.12261599629E+04  0.50400001928E-02 0. -1.
       -1   -1    0    0    0  501  0.00000000000E+00  0.00000000000E+00 -0.24959099748E+04  0.24959099748E+04  0.50400001928E-02 0.  1.
    10030    2    1    2    0    0  0.00000000000E+00  0.00000000000E+00 -0.12697500119E+04  0.37220699378E+04  0.34987911525E+04 0.  0.
        4    1    3    3  502    0 -0.11911446947E+04 -0.50335364998E+03 -0.18882798996E+04  0.22886225493E+04  0.12699999809E+01 0.  1.
       -4    1    3    3    0  502  0.11911446947E+04  0.50335364998E+03  0.61852988772E+03  0.14334473885E+04  0.12699999809E+01 0. -1.
</event>
<event>
 5   0  0.2180451E-07  0.3506228E+04  0.7818609E-02  0.8112316E-01
        2   -1    0    0  501    0  0.00000000000E+00  0.00000000000E+00  0.12274312175E+04  0.12274312175E+04  0.25500000920E-02 0.  1.
       -2   -1    0    0    0  501  0.00000000000E+00  0.00000000000E+00 -0.25039349145E+04  0.25039349145E+04  0.25500000920E-02 0. -1.
    10030    2    1    2    0    0  0.00000000000E+00  0.00000000000E+00 -0.12765036971E+04  0.37313661320E+04  0.35062275343E+04 0.  0.
        4    1    3    3  502    0 -0.31067028904E+03 -0.69257084465E+03  0.10434831065E+04  0.12903600311E+04  0.12699999809E+01 0.  1.
       -4    1    3    3    0  502  0.31067028904E+03  0.69257084465E+03 -0.23199868035E+04  0.24410061009E+04  0.12699999809E+01 0. -1.
</event>
<event>
 5   0  0.1072381E-07  0.3486824E+04  0.7818609E-02  0.8116920E-01
        1   -1    0    0  501    0  0.00000000000E+00  0.00000000000E+00  0.18699018963E+04  0.18699018963E+04  0.50400001928E-02 0.  1.
       -1   -1    0    0    0  501  0.00000000000E+00  0.00000000000E+00 -0.16254788431E+04  0.16254788431E+04  0.50400001928E-02 0. -1.
    10030    2    1    2    0    0  0.00000000000E+00  0.00000000000E+00  0.24442305318E+03  0.34953807394E+04  0.34868243265E+04 0.  0.
        1    1    3    3  502    0  0.59281668361E+03 -0.11351565315E+04 -0.10636851137E+04  0.16647636446E+04  0.50400001928E-02 0. -1.
       -1    1    3    3    0  502 -0.59281668361E+03  0.11351565315E+04  0.13081081669E+04  0.18306170947E+04  0.50400001928E-02 0.  1.
</event>
<event>
 5   0  0.2180451E-07  0.3495059E+04  0.7818609E-02  0.8114962E-01
       -2   -1    0    0    0  501  0.00000000000E+00  0.00000000000E+00  0.27056984439E+04  0.27056984439E+04  0.25500000920E-02 0. -1.
        2   -1    0    0  501    0  0.00000000000E+00  0.00000000000E+00 -0.11286771849E+04  0.11286771849E+04  0.25500000920E-02 0.  1.
    10030    2    1    2    0    0  0.00000000000E+00  0.00000000000E+00  0.15770212590E+04  0.38343756288E+04  0.34950594289E+04 0.  0.
        4    1    3    3  502    0 -0.12821757476E+04  0.35099477619E+02  0.20906034034E+04  0.24527190676E+04  0.12699999809E+01 0. -1.
       -4    1    3    3    0  502  0.12821757476E+04 -0.35099477619E+02 -0.51358214447E+03  0.13816565612E+04  0.12699999809E+01 0.  1.
</event>
<event>
 5   0  0.1013863E-07  0.3497544E+04  0.7818609E-02  0.8114372E-01
        1   -1    0    0  501    0  0.00000000000E+00  0.00000000000E+00  0.19256260612E+04  0.19256260612E+04  0.50400001928E-02 0. -1.
       -1   -1    0    0    0  501  0.00000000000E+00  0.00000000000E+00 -0.15881607182E+04  0.15881607182E+04  0.50400001928E-02 0.  1.
    10030    2    1    2    0    0  0.00000000000E+00  0.00000000000E+00  0.33746534299E+03  0.35137867794E+04  0.34975440917E+04 0.  0.
        5    1    3    3  502    0 -0.21967378163E+03 -0.14880081323E+04 -0.72746206163E+03  0.16708225260E+04  0.46999998093E+01 0.  1.
       -5    1    3    3    0  502  0.21967378163E+03  0.14880081323E+04  0.10649274046E+04  0.18429642534E+04  0.46999998093E+01 0. -1.
</event>
<event>
 5   0  0.1013863E-07  0.3495010E+04  0.7818609E-02  0.8114974E-01
       -1   -1    0    0    0  501  0.00000000000E+00  0.00000000000E+00  0.22965206429E+04  0.22965206429E+04  0.50400001928E-02 0. -1.
        1   -1    0    0  501    0  0.00000000000E+00  0.00000000000E+00 -0.13297389768E+04  0.13297389769E+04  0.50400001928E-02 0.  1.
    10030    2    1    2    0    0  0.00000000000E+00  0.00000000000E+00  0.96678166607E+03  0.36262596198E+04  0.34950095909E+04 0.  0.
        5    1    3    3  502    0  0.42823060729E+03  0.69913572374E+03 -0.11177996179E+04  0.13862432286E+04  0.46999998093E+01 0.  1.
       -5    1    3    3    0  502 -0.42823060729E+03 -0.69913572374E+03  0.20845812839E+04  0.22400163911E+04  0.46999998093E+01 0. -1.
</event>
<event>
 5   0  0.3119048E-07  0.3503105E+04  0.7818609E-02  0.8113054E-01
       -2   -1    0    0    0  501  0.00000000000E+00  0.00000000000E+00  0.15330645524E+04  0.15330645524E+04  0.25500000920E-02 0.  1.
        2   -1    0    0  501    0  0.00000000000E+00  0.00000000000E+00 -0.20011789761E+04  0.20011789761E+04  0.25500000920E-02 0. -1.
    10030    2    1    2    0    0  0.00000000000E+00  0.00000000000E+00 -0.46811442370E+03  0.35342435286E+04  0.35031052233E+04 0.  0.
        3    1    3    3  502    0 -0.13398186747E+04 -0.85014759901E+03  0.51420337273E+03  0.16680138309E+04  0.10100000352E+00 0.  1.
       -3    1    3    3    0  502  0.13398186747E+04  0.85014759901E+03 -0.98231779643E+03  0.18662296977E+04  0.10100000352E+00 0. -1.
</event>
<event>
 5   0  0.1072381E-07  0.3508694E+04  0.7818609E-02  0.8111733E-01
       -1   -1    0    0    0  501  0.00000000000E+00  0.00000000000E+00  0.20020964326E+04  0.20020964327E+04  0.50400001928E-02 0.  1.
        1   -1    0    0  501    0  0.00000000000E+00  0.00000000000E+00 -0.15372552331E+04  0.15372552331E+04  0.50400001928E-02 0. -1.
    10030    2    1    2    0    0  0.00000000000E+00  0.00000000000E+00  0.46484119950E+03  0.35393516658E+04  0.35086938985E+04 0.  0.
        1    1    3    3  502    0  0.97503249785E+03  0.13347884943E+04 -0.36040871340E+03  0.16918165199E+04  0.50400001928E-02 0. -1.
       -1    1    3    3    0  502 -0.97503249785E+03 -0.13347884943E+04  0.82524991291E+03  0.18475351459E+04  0.50400001928E-02 0.  1.
</event>
<event>
 5   0  0.1013863E-07  0.3497808E+04  0.7818609E-02  0.8114310E-01
       -1   -1    0    0    0  501  0.00000000000E+00  0.00000000000E+00  0.12281508568E+04  0.12281508568E+04  0.50400001928E-02 0.  1.
        1   -1    0    0  501    0  0.00000000000E+00  0.00000000000E+00 -0.24904639551E+04  0.24904639551E+04  0.50400001928E-02 0. -1.
    10030    2    1    2    0    0  0.00000000000E+00  0.00000000000E+00 -0.12623130983E+04  0.37186148120E+04  0.34978081368E+04 0.  0.
        5    1    3    3  502    0  0.14377766358E+04  0.99234169784E+03 -0.54413810898E+03  0.18297683108E+04  0.46999998093E+01 0. -1.
       -5    1    3    3    0  502 -0.14377766358E+04 -0.99234169784E+03 -0.71817498928E+03  0.18888465011E+04  0.46999998093E+01 0.  1.
</event>
<event>
 5   0  0.1013863E-07  0.3449869E+04  0.7818609E-02  0.8125774E-01
       -3   -1    0    0    0  501  0.00000000000E+00  0.00000000000E+00  0.10839359431E+04  0.10839359478E+04  0.10100000352E+00 0.  1.
        3   -1    0    0  501    0  0.00000000000E+00  0.00000000000E+00 -0.27449955836E+04  0.27449955855E+04  0.10100000352E+00 0. -1.
    10030    2    1    2    0    0  0.00000000000E+00  0.00000000000E+00 -0.16610596406E+04  0.38289315333E+04  0.34498692087E+04 0.  0.
        2    1    3    3  502    0  0.46564542314E+03 -0.13923465600E+03  0.10063715832E+04  0.11175847677E+04  0.25500000920E-02 0.  1.
       -2    1    3    3    0  502 -0.46564542314E+03  0.13923465600E+03 -0.26674312238E+04  0.27113467655E+04  0.25500000920E-02 0. -1.
</event>
<event>
 5   0  0.3119048E-07  0.3496575E+04  0.7818609E-02  0.8114602E-01
       -2   -1    0    0    0  501  0.00000000000E+00  0.00000000000E+00  0.11516235952E+04  0.11516235952E+04  0.25500000920E-02 0. -1.
        2   -1    0    0  501    0  0.00000000000E+00  0.00000000000E+00 -0.26540865381E+04  0.26540865381E+04  0.25500000920E-02 0.  1.
    10030    2    1    2    0    0  0.00000000000E+00  0.00000000000E+00 -0.15024629429E+04  0.38057101333E+04  0.34965747130E+04 0.  0.
        3    1    3    3  502    0  0.38847930452E+03 -0.20033754801E+03  0.10911937487E+04  0.11754807997E+04  0.10100000352E+00 0. -1.
       -3    1    3    3    0  502 -0.38847930452E+03  0.20033754801E+03 -0.25936566916E+04  0.26302293336E+04  0.10100000352E+00 0.  1.
</event>
<event>
 5   0  0.1072381E-07  0.3495057E+04  0.7818609E-02  0.8114962E-01
        1   -1    0    0  501    0  0.00000000000E+00  0.00000000000E+00  0.12990007358E+04  0.12990007358E+04  0.50400001928E-02 0. -1.
       -1   -1    0    0    0  501  0.00000000000E+00  0.00000000000E+00 -0.23509273351E+04  0.23509273351E+04  0.50400001928E-02 0.  1.
    10030    2    1    2    0    0  0.00000000000E+00  0.00000000000E+00 -0.10519265993E+04  0.36499280709E+04  0.34950572746E+04 0.  0.
        1    1    3    3  502    0 -0.12559323185E+04  0.11760702611E+04 -0.84503262513E+03  0.19169213300E+04  0.50400001928E-02 0. -1.
       -1    1    3    3    0  502  0.12559323185E+04 -0.11760702611E+04 -0.20689397414E+03  0.17330067410E+04  0.50400001928E-02 0.  1.
</event>
<event>
 5   0  0.1013863E-07  0.3501671E+04  0.7818609E-02  0.8113394E-01
        1   -1    0    0  501    0  0.00000000000E+00  0.00000000000E+00  0.29111673002E+04  0.29111673003E+04  0.50400001928E-02 0.  1.
       -1   -1    0    0    0  501  0.00000000000E+00  0.00000000000E+00 -0.10529881430E+04  0.10529881430E+04  0.50400001928E-02 0. -1.
    10030    2    1    2    0    0  0.00000000000E+00  0.00000000000E+00  0.18581791572E+04  0.39641554433E+04  0.35016708295E+04 0.  0.
        5    1    3    3  502    0  0.13082156166E+03  0.17115572857E+04  0.53879447401E+03  0.17991287332E+04  0.46999998093E+01 0. -1.
       -5    1    3    3    0  502 -0.13082156166E+03 -0.17115572857E+04  0.13193846832E+04  0.21650267101E+04  0.46999998093E+01 0.  1.
</event>
<event>
 5   0  0.1072381E-07  0.3484358E+04  0.7818609E-02  0.8117507E-01
       -1   -1    0    0    0  501  0.00000000000E+00  0.00000000000E+00  0.10332637272E+04  0.10332637272E+04  0.50400001928E-02 0.  1.
        1   -1    0    0  501    0  0.00000000000E+00  0.00000000000E+00 -0.29374769547E+04  0.29374769547E+04  0.50400001928E-02 0. -1.
    10030    2    1    2    0    0  0.00000000000E+00  0.00000000000E+00 -0.19042132274E+04  0.39707406819E+04  0.34843584126E+04 0.  0.
        1    1    3    3  502    0  0.96204273001E+02  0.55465302073E+03 -0.28309771208E+04  0.28864037649E+04  0.50400001928E-02 0. -1.
       -1    1    3    3    0  502 -0.96204273001E+02 -0.55465302073E+03  0.92676389335E+03  0.10843369170E+04  0.50400001928E-02 0.  1.
</event>
<event>
 5   0  0.2180451E-07  0.3493735E+04  0.7818609E-02  0.8115276E-01
        2   -1    0    0  501    0  0.00000000000E+00  0.00000000000E+00  0.25236274370E+04  0.25236274370E+04  0.25500000920E-02 0.  1.
       -2   -1    0    0    0  501  0.00000000000E+00  0.00000000000E+00 -0.12091904535E+04  0.12091904535E+04  0.25500000920E-02 0. -1.
    10030    2    1    2    0    0  0.00000000000E+00  0.00000000000E+00  0.13144369835E+04  0.37328178905E+04  0.34937350816E+04 0.  0.
        4    1    3    3  502    0  0.28100041467E+03 -0.12623970098E+04 -0.59742133073E+03  0.14246126852E+04  0.12699999809E+01 0.  1.
       -4    1    3    3    0  502 -0.28100041467E+03  0.12623970098E+04  0.19118583143E+04  0.23082052054E+04  0.12699999809E+01 0. -1.
</event>
<event>
 5   0  0.3190112E-07  0.3490767E+04  0.7818609E-02  0.8115982E-01
        2   -1    0    0  501    0  0.00000000000E+00  0.00000000000E+00  0.18621127802E+04  0.18621127802E+04  0.25500000920E-02 0.  1.
       -2   -1    0    0    0  501  0.00000000000E+00  0.00000000000E+00 -0.16359716437E+04  0.16359716437E+04  0.25500000920E-02 0. -1.
    10030    2    1    2    0    0  0.00000000000E+00  0.00000000000E+00  0.22614113650E+03  0.34980844239E+04  0.34907670823E+04 0.  0.
        5    1    3    3  502    0 -0.14186410194E+04  0.72761426779E+03  0.82475414632E+03  0.17950505164E+04  0.46999998093E+01 0.  1.
       -5    1    3    3    0  502  0.14186410194E+04 -0.72761426779E+03 -0.59861300982E+03  0.17030339075E+04  0.46999998093E+01 0. -1.
</event>
<event>
 5   0  0.1013863E-07  0.3489930E+04  0.7818609E-02  0.8116181E-01
       -1   -1    0    0    0  501  0.00000000000E+00  0.00000000000E+00  0.23245126654E+04  0.23245126654E+04  0.50400001928E-02 0. -1.
        1   -1    0    0  501    0  0.00000000000E+00  0.00000000000E+00 -0.13099098917E+04  0.13099098917E+04  0.50400001928E-02 0.  1.
    10030    2    1    2    0    0  0.00000000000E+00  0.00000000000E+00  0.10146027737E+04  0.36344225571E+04  0.34899295889E+04 0.  0.
        5    1    3    3  502    0 -0.48343824959E+02  0.16957019043E+04  0.93305301377E+03  0.19360661378E+04  0.46999998093E+01 0. -1.
       -5    1    3    3    0  502  0.48343824959E+02 -0.16957019043E+04  0.81549759970E+02  0.16983564193E+04  0.46999998093E+01 0.  1.
</event>
<event>
 5   0  0.2180451E-07  0.3499367E+04  0.7818609E-02  0.8113940E-01
       -2   -1    0    0    0  501  0.00000000000E+00  0.00000000000E+00  0.11355290606E+04  0.11355290606E+04  0.25500000920E-02 0. -1.
        2   -1    0    0  501    0  0.00000000000E+00  0.00000000000E+00 -0.26960056724E+04  0.26960056724E+04  0.25500000920E-02 0.  1.
    10030    2    1    2    0    0  0.00000000000E+00  0.00000000000E+00 -0.15604766118E+04  0.38315347330E+04  0.34993672506E+04 0.  0.
        4    1    3    3  502    0 -0.16270641740E+04  0.57912698699E+03 -0.10873347565E+04  0.20408391360E+04  0.12699999809E+01 0. -1.
       -4    1    3    3    0  502  0.16270641740E+04 -0.57912698699E+03 -0.47314185531E+03  0.17906955971E+04  0.12699999809E+01 0.  1.
</event>
<event>
 5   0  0.2180451E-07  0.3492778E+04  0.7818609E-02  0.8115504E-01
        2   -1    0    0  501    0  0.00000000000E+00  0.00000000000E+00  0.29120756806E+04  0.29120756806E+04  0.25500000920E-02 0.  1.
       -2   -1    0    0    0  501  0.00000000000E+00  0.00000000000E+00 -0.10473200233E+04  0.10473200233E+04  0.25500000920E-02 0. -1.
    10030    2    1    2    0    0  0.00000000000E+00  0.00000000000E+00  0.18647556573E+04  0.39593957038E+04  0.34927783609E+04 0.  0.
        4    1    3    3  502    0  0.17200220128E+04 -0.29403085617E+03  0.10120824300E+04  0.20172363092E+04  0.12699999809E+01 0. -1.
       -4    1    3    3    0  502 -0.17200220128E+04  0.29403085617E+03  0.85267322722E+03  0.19421593947E+04  0.12699999809E+01 0.  1.
</event>
<event>
 5   0  0.2180451E-07  0.3498171E+04  0.7818609E-02  0.8114224E-01
       -2   -1    0    0    0  501  0.00000000000E+00  0.00000000000E+00  0.26703834535E+04  0.26703834535E+04  0.25500000920E-02 0. -1.
        2   -1    0    0  501    0  0.00000000000E+00  0.00000000000E+00 -0.11456407145E+04  0.11456407145E+04  0.25500000920E-02 0.  1.
    10030    2    1    2    0    0  0.00000000000E+00  0.00000000000E+00  0.15247427390E+04  0.38160241681E+04  0.34981709551E+04 0.  0.
        4    1    3    3  502    0  0.23293914224E+02 -0.10778373969E+04 -0.74010035971E+03  0.13076797070E+04  0.12699999809E+01 0.  1.
       -4    1    3    3    0  502 -0.23293914224E+02  0.10778373969E+04  0.22648430987E+04  0.25083444611E+04  0.12699999809E+01 0. -1.
</event>
<event>
 5   0  0.3219205E-07  0.3503247E+04  0.7818609E-02  0.8113021E-01
        2   -1    0    0  501    0  0.00000000000E+00  0.00000000000E+00  0.97053583909E+03  0.97053583909E+03  0.25500000920E-02 0.  1.
       -2   -1    0    0    0  501  0.00000000000E+00  0.00000000000E+00 -0.31613310420E+04  0.31613310420E+04  0.25500000920E-02 0. -1.
    10030    2    1    2    0    0  0.00000000000E+00  0.00000000000E+00 -0.21907952029E+04  0.41318668811E+04  0.35032471083E+04 0.  0.
        2    1    3    3  502    0 -0.13446567974E+04  0.64083031525E+03 -0.21824155330E+04  0.26422912320E+04  0.25500000920E-02 0. -1.
       -2    1    3    3    0  502  0.13446567974E+04 -0.64083031525E+03 -0.83796699316E+01  0.14895756492E+04  0.25500000920E-02 0.  1.
</event>
<event>
 5   0  0.3190185E-07  0.3502713E+04  0.7818609E-02  0.8113147E-01
       -2   -1    0    0    0  501  0.00000000000E+00  0.00000000000E+00  0.27873428275E+04  0.27873428275E+04  0.25500000920E-02 0. -1.
        2   -1    0    0  501    0  0.00000000000E+00  0.00000000000E+00 -0.11004204013E+04  0.11004204013E+04  0.25500000920E-02 0.  1.
    10030    2    1    2    0    0  0.00000000000E+00  0.00000000000E+00  0.16869224262E+04  0.38877632289E+04  0.35027126134E+04 0.  0.
        1    1    3    3  502    0  0.16918417709E+04 -0.32458795625E+03  0.49323852683E+03  0.17919180125E+04  0.50400001928E-02 0.  1.
       -1    1    3    3    0  502 -0.16918417709E+04  0.32458795625E+03  0.11936838994E+04  0.20958452163E+04  0.50400001928E-02 0. -1.
</event>
<event>
 5   0  0.1033796E-07  0.3505455E+04  0.7818609E-02  0.8112499E-01
        1   -1    0    0  501    0  0.00000000000E+00  0.00000000000E+00  0.26500568708E+04  0.26500568708E+04  0.50400001928E-02 0.  1.
       -1   -1    0    0    0  501  0.00000000000E+00  0.00000000000E+00 -0.11592403701E+04  0.11592403701E+04  0.50400001928E-02 0. -1.
    10030    2    1    2    0    0  0.00000000000E+00  0.00000000000E+00  0.14908165007E+04  0.38092972410E+04  0.35054545541E+04 0.  0.
        3    1    3    3  502    0  0.11909105837E+04  0.40973948981E+02  0.21421608140E+04  0.24512853457E+04  0.10100000352E+00 0.  1.
       -3    1    3    3    0  502 -0.11909105837E+04 -0.40973948981E+02 -0.65134431327E+03  0.13580118952E+04  0.10100000352E+00 0. -1.
</event>
<event>
 5   0  0.1098171E-07  0.3502153E+04  0.7818609E-02  0.8113280E-01
       -1   -1    0    0    0  501  0.00000000000E+00  0.00000000000E+00  0.24423105507E+04  0.24423105507E+04  0.50400001928E-02 0. -1.
        1   -1    0    0  501    0  0.00000000000E+00  0.00000000000E+00 -0.12554788621E+04  0.12554788621E+04  0.50400001928E-02 0.  1.
    10030    2    1    2    0    0  0.00000000000E+00  0.00000000000E+00  0.11868316886E+04  0.36977894128E+04  0.35021532068E+04 0.  0.
        4    1    3    3  502    0  0.87185787943E+03 -0.23815884501E+03  0.21770013718E+04  0.23571576916E+04  0.12699999809E+01 0. -1.
       -4    1    3    3    0  502 -0.87185787943E+03  0.23815884501E+03 -0.99016968321E+03  0.13406317212E+04  0.12699999809E+01 0.  1.
</event>
<event>
 5   0  0.3119048E-07  0.3485801E+04  0.7818609E-02  0.8117163E-01
       -2   -1    0    0    0  501  0.00000000000E+00  0.00000000000E+00  0.12372751344E+04  0.12372751344E+04  0.25500000920E-02 0.  1.
        2   -1    0    0  501    0  0.00000000000E+00  0.00000000000E+00 -0.24551555243E+04  0.24551555243E+04  0.25500000920E-02 0. -1.
    10030    2    1    2    0    0  0.00000000000E+00  0.00000000000E+00 -0.12178803898E+04  0.36924306587E+04  0.34858014180E+04 0.  0.
        3    1    3    3  502    0 -0.11808818558E+04  0.65627996799E+03 -0.17753568626E+04  0.22309364297E+04  0.10100000352E+00 0. -1.
       -3    1    3    3    0  502  0.11808818558E+04 -0.65627996799E+03  0.55747647273E+03  0.14614942290E+04  0.10100000352E+00 0.  1.
</event>
<event>
 5   0  0.3219205E-07  0.3517429E+04  0.7818609E-02  0.8109672E-01
        2   -1    0    0  501    0  0.00000000000E+00  0.00000000000E+00  0.16613699979E+04  0.16613699979E+04  0.25500000920E-02 0. -1.
       -2   -1    0    0    0  501  0.00000000000E+00  0.00000000000E+00 -0.18617627497E+04  0.18617627497E+04  0.25500000920E-02 0.  1.
    10030    2    1    2    0    0  0.00000000000E+00  0.00000000000E+00 -0.20039275186E+03  0.35231327476E+04  0.35174290472E+04 0.  0.
        2    1    3    3  502    0 -0.80273748136E+03  0.55612837984E+03  0.13648478216E+04  0.16782359235E+04  0.25500000920E-02 0. -1.
       -2    1    3    3    0  502  0.80273748136E+03 -0.55612837984E+03 -0.15652405734E+04  0.18448968241E+04  0.25500000920E-02 0.  1.
</event>
<event>
 5   0  0.1072381E-07  0.3486577E+04  0.7818609E-02  0.8116979E-01
       -1   -1    0    0    0  501  0.00000000000E+00  0.00000000000E+00  0.22405591269E+04  0.22405591269E+04  0.50400001928E-02 0. -1.
        1   -1    0    0  501    0  0.00000000000E+00  0.00000000000E+00 -0.13563819827E+04  0.13563819827E+04  0.50400001928E-02 0.  1.
    10030    2    1    2    0    0  0.00000000000E+00  0.00000000000E+00  0.88417714417E+03  0.35969411096E+04  0.34865765622E+04 0.  0.
        1    1    3    3  502    0 -0.70240950381E+02 -0.69815106007E+02  0.22376546793E+04  0.22398451741E+04  0.50400001928E-02 0. -1.
       -1    1    3    3    0  502  0.70240950381E+02  0.69815106007E+02 -0.13534775351E+04  0.13570959355E+04  0.50400001928E-02 0.  1.
</event>
<event>
 5   0  0.2180451E-07  0.3505563E+04  0.7818609E-02  0.8112473E-01
        2   -1    0    0  501    0  0.00000000000E+00  0.00000000000E+00  0.20245532825E+04  0.20245532825E+04  0.25500000920E-02 0.  1.
       -2   -1    0    0    0  501  0.00000000000E+00  0.00000000000E+00 -0.15174915925E+04  0.15174915926E+04  0.25500000920E-02 0. -1.
    10030    2    1    2    0    0  0.00000000000E+00  0.00000000000E+00  0.50706168993E+03  0.35420448750E+04  0.35055627707E+04 0.  0.
        4    1    3    3  502    0 -0.29953694922E+03  0.48140224212E+03 -0.14222741777E+04  0.15311224484E+04  0.12699999809E+01 0. -1.
       -4    1    3    3    0  502  0.29953694922E+03 -0.48140224212E+03  0.19293358676E+04  0.20109224266E+04  0.12699999809E+01 0.  1.
</event>
<event>
 5   0  0.1013863E-07  0.3489181E+04  0.7818609E-02  0.8116359E-01
       -1   -1    0    0    0  501  0.00000000000E+00  0.00000000000E+00  0.17039334218E+04  0.17039334218E+04  0.50400001928E-02 0.  1.
        1   -1    0    0  501    0  0.00000000000E+00  0.00000000000E+00 -0.17862173242E+04  0.17862173242E+04  0.50400001928E-02 0. -1.
    10030    2    1    2    0    0  0.00000000000E+00  0.00000000000E+00 -0.82283902398E+02  0.34901507460E+04  0.34891806473E+04 0.  0.
        2    1    3    3  502    0  0.17088831077E+04  0.20093525603E+03  0.24692934197E+03  0.17382837953E+04  0.25500000920E-02 0. -1.
       -2    1    3    3    0  502 -0.17088831077E+04 -0.20093525603E+03 -0.32921324436E+03  0.17518669508E+04  0.25500000920E-02 0.  1.
</event>
<event>
 5   0  0.3119048E-07  0.3500472E+04  0.7818609E-02  0.8113678E-01
       -2   -1    0    0    0  501  0.00000000000E+00  0.00000000000E+00  0.16939474462E+04  0.16939474462E+04  0.25500000920E-02 0. -1.
        2   -1    0    0  501    0  0.00000000000E+00  0.00000000000E+00 -0.18083948367E+04  0.18083948367E+04  0.25500000920E-02 0.  1.
    10030    2    1    2    0    0  0.00000000000E+00  0.00000000000E+00 -0.11444739052E+03  0.35023422829E+04  0.35004718627E+04 0.  0.
        3    1    3    3  502    0 -0.82404407913E+03  0.13199745415E+04  0.74441873069E+03  0.17249755625E+04  0.10100000352E+00 0.  1.
       -3    1    3    3    0  502  0.82404407913E+03 -0.13199745415E+04 -0.85886612121E+03  0.17773667204E+04  0.10100000352E+00 0. -1.
</event>
<event>
 5   0  0.3190112E-07  0.3519846E+04  0.7818609E-02  0.8109103E-01
        2   -1    0    0  501    0  0.00000000000E+00  0.00000000000E+00  0.98869892488E+03  0.98869892489E+03  0.25500000920E-02 0. -1.
       -2   -1    0    0    0  501  0.00000000000E+00  0.00000000000E+00 -0.31327322279E+04  0.31327322280E+04  0.25500000920E-02 0.  1.
    10030    2    1    2    0    0  0.00000000000E+00  0.00000000000E+00 -0.21440333031E+04  0.41214311528E+04  0.35198460113E+04 0.  0.
        5    1    3    3  502    0 -0.51697607531E+03 -0.12207336199E+04 -0.24273708643E+04  0.27657921534E+04  0.46999998093E+01 0.  1.
       -5    1    3    3    0  502  0.51697607531E+03  0.12207336199E+04  0.28333756123E+03  0.13556389994E+04  0.46999998093E+01 0. -1.
</event>
<event>
 5   0  0.1072381E-07  0.3495582E+04  0.7818609E-02  0.8114838E-01
       -1   -1    0    0    0  501  0.00000000000E+00  0.00000000000E+00  0.20718333523E+04  0.20718333523E+04  0.50400001928E-02 0. -1.
        1   -1    0    0  501    0  0.00000000000E+00  0.00000000000E+00 -0.14744302876E+04  0.14744302876E+04  0.50400001928E-02 0.  1.
    10030    2    1    2    0    0  0.00000000000E+00  0.00000000000E+00  0.59740306471E+03  0.35462636400E+04  0.34955822666E+04 0.  0.
        1    1    3    3  502    0 -0.11201417257E+04 -0.42140625317E+03 -0.99352974423E+03  0.15554427243E+04  0.50400001928E-02 0.  1.
       -1    1    3    3    0  502  0.11201417257E+04  0.42140625317E+03  0.15909328089E+04  0.19908209157E+04  0.50400001928E-02 0. -1.
</event>
<event>
 5   0  0.1013863E-07  0.3511939E+04  0.7818609E-02  0.8110966E-01
       -1   -1    0    0    0  501  0.00000000000E+00  0.00000000000E+00  0.11153172525E+04  0.11153172525E+04  0.50400001928E-02 0.  1.
        1   -1    0    0  501    0  0.00000000000E+00  0.00000000000E+00 -0.27646204098E+04  0.27646204098E+04  0.50400001928E-02 0. -1.
    10030    2    1    2    0    0  0.00000000000E+00  0.00000000000E+00 -0.16493031573E+04  0.38799376623E+04  0.35119389742E+04 0.  0.
        5    1    3    3  502    0 -0.93319830223E+03  0.14868239802E+04 -0.87283503025E+03  0.19604508919E+04  0.46999998093E+01 0. -1.
       -5    1    3    3    0  502  0.93319830223E+03 -0.14868239802E+04 -0.77646812703E+03  0.19194867704E+04  0.46999998093E+01 0.  1.
</event>
<event>
 5   0  0.2180451E-07  0.3501070E+04  0.7818609E-02  0.8113536E-01
       -2   -1    0    0    0  501  0.00000000000E+00  0.00000000000E+00  0.17860809661E+04  0.17860809661E+04  0.25500000920E-02 0.  1.
        2   -1    0    0  501    0  0.00000000000E+00  0.00000000000E+00 -0.17156965636E+04  0.17156965636E+04  0.25500000920E-02 0. -1.
    10030    2    1    2    0    0  0.00000000000E+00  0.00000000000E+00  0.70384402479E+02  0.35017775297E+04  0.35010701083E+04 0.  0.
        4    1    3    3  502    0 -0.10585719403E+04 -0.10524336959E+04  0.94980582172E+03  0.17692721523E+04  0.12699999809E+01 0.  1.
       -4    1    3    3    0  502  0.10585719403E+04  0.10524336959E+04 -0.87942141924E+03  0.17325053774E+04  0.12699999809E+01 0. -1.
</event>
<event>
 5   0  0.1033796E-07  0.3476545E+04  0.7818609E-02  0.8119371E-01
        1   -1    0    0  501    0  0.00000000000E+00  0.00000000000E+00  0.18740672259E+04  0.18740672259E+04  0.50400001928E-02 0. -1.
       -1   -1    0    0    0  501  0.00000000000E+00  0.00000000000E+00 -0.16123171851E+04  0.16123171851E+04  0.50400001928E-02 0.  1.
    10030    2    1    2    0    0  0.00000000000E+00  0.00000000000E+00  0.26175004083E+03  0.34863844110E+04  0.34765447182E+04 0.  0.
        3    1    3    3  502    0 -0.57393562905E+03 -0.12374484974E+04  0.12113798372E+04  0.18243141205E+04  0.10100000352E+00 0. -1.
       -3    1    3    3    0  502  0.57393562905E+03  0.12374484974E+04 -0.94962979639E+03  0.16620702905E+04  0.10100000352E+00 0.  1.
</event>
<event>
 5   0  0.3219205E-07  0.3486847E+04  0.7818609E-02  0.8116914E-01
       -2   -1    0    0    0  501  0.00000000000E+00  0.00000000000E+00  0.17355966403E+04  0.17355966403E+04  0.25500000920E-02 0.  1.
        2   -1    0    0  501    0  0.00000000000E+00  0.00000000000E+00 -0.17512860654E+04  0.17512860654E+04  0.25500000920E-02 0. -1.
    10030    2    1    2    0    0  0.00000000000E+00  0.00000000000E+00 -0.15689425051E+02  0.34868827057E+04  0.34868474078E+04 0.  0.
        2    1    3    3  502    0  0.65225807242E+03 -0.30130283794E+03  0.15806619151E+04  0.17362937779E+04  0.25500000920E-02 0.  1.
       -2    1    3    3    0  502 -0.65225807242E+03  0.30130283794E+03 -0.15963513401E+04  0.17505889279E+04  0.25500000920E-02 0. -1.
</event>
<event>
 5   0  0.1098171E-07  0.3519931E+04  0.7818609E-02  0.8109083E-01
       -1   -1    0    0    0  501  0.00000000000E+00  0.00000000000E+00  0.29000851780E+04  0.29000851780E+04  0.50400001928E-02 0.  1.
        1   -1    0    0  501    0  0.00000000000E+00  0.00000000000E+00 -0.10680644230E+04  0.10680644231E+04  0.50400001928E-02 0. -1.
    10030    2    1    2    0    0  0.00000000000E+00  0.00000000000E+00  0.18320207550E+04  0.39681496011E+04  0.35199305689E+04 0.  0.
        4    1    3    3  502    0 -0.16114176493E+04 -0.42334449974E+03  0.27671084580E+03  0.16889221152E+04  0.12699999809E+01 0. -1.
       -4    1    3    3    0  502  0.16114176493E+04  0.42334449974E+03  0.15553099092E+04  0.22792274859E+04  0.12699999809E+01 0.  1.
</event>
<event>
 5   0  0.1013863E-07  0.3542870E+04  0.7818609E-02  0.8103705E-01
        1   -1    0    0  501    0  0.00000000000E+00  0.00000000000E+00  0.19321046065E+04  0.19321046065E+04  0.50400001928E-02 0. -1.
       -1   -1    0    0    0  501  0.00000000000E+00  0.00000000000E+00 -0.16241263103E+04  0.16241263103E+04  0.50400001928E-02 0.  1.
    10030    2    1    2    0    0  0.00000000000E+00  0.00000000000E+00  0.30797829623E+03  0.35562309169E+04  0.35428699811E+04 0.  0.
        5    1    3    3  502    0 -0.36236745925E+03  0.10288410385E+04 -0.12470308998E+04  0.16567836953E+04  0.46999998093E+01 0.  1.
       -5    1    3    3    0  502  0.36236745925E+03 -0.10288410385E+04  0.15550091960E+04  0.18994472216E+04  0.46999998093E+01 0. -1.
</event>
<event>
 5   0  0.3190112E-07  0.3444169E+04  0.7818609E-02  0.8127150E-01
       -2   -1    0    0    0  501  0.00000000000E+00  0.00000000000E+00  0.15112721513E+04  0.15112721513E+04  0.25500000920E-02 0.  1.
        2   -1    0    0  501    0  0.00000000000E+00  0.00000000000E+00 -0.19623035049E+04  0.19623035049E+04  0.25500000920E-02 0. -1.
    10030    2    1    2    0    0  0.00000000000E+00  0.00000000000E+00 -0.45103135365E+03  0.34735756562E+04  0.34441687760E+04 0.  0.
        5    1    3    3  502    0  0.16609526004E+04 -0.45313129358E+03 -0.18696577395E+03  0.17317822613E+04  0.46999998093E+01 0.  1.
       -5    1    3    3    0  502 -0.16609526004E+04  0.45313129358E+03 -0.26406557970E+03  0.17417933949E+04  0.46999998093E+01 0. -1.
</event>
<event>
 5   0  0.1013863E-07  0.3497314E+04  0.7818609E-02  0.8114427E-01
       -1   -1    0    0    0  501  0.00000000000E+00  0.00000000000E+00  0.11855447284E+04  0.11855447285E+04  0.50400001928E-02 0.  1.
        1   -1    0    0  501    0  0.00000000000E+00  0.00000000000E+00 -0.25792372118E+04  0.25792372118E+04  0.50400001928E-02 0. -1.
    10030    2    1    2    0    0  0.00000000000E+00  0.00000000000E+00 -0.13936924833E+04  0.37647819402E+04  0.34973138720E+04 0.  0.
        5    1    3    3  502    0  0.47485592465E+03 -0.16731537137E+04 -0.50174666981E+03  0.18101666524E+04  0.46999998093E+01 0.  1.
       -5    1    3    3    0  502 -0.47485592465E+03  0.16731537137E+04 -0.89194581351E+03  0.19546152878E+04  0.46999998093E+01 0. -1.
</event>
<event>
 5   0  0.3190112E-07  0.3432498E+04  0.7818609E-02  0.8129976E-01
        2   -1    0    0  501    0  0.00000000000E+00  0.00000000000E+00  0.10622506318E+04  0.10622506318E+04  0.25500000920E-02 0. -1.
       -2   -1    0    0    0  501  0.00000000000E+00  0.00000000000E+00 -0.27728955070E+04  0.27728955070E+04  0.25500000920E-02 0.  1.
    10030    2    1    2    0    0  0.00000000000E+00  0.00000000000E+00 -0.17106448752E+04  0.38351461388E+04  0.34324976354E+04 0.  0.
        5    1    3    3  502    0 -0.48349756861E+02 -0.10822609859E+03  0.10576643809E+04  0.10642963027E+04  0.46999998093E+01 0. -1.
       -5    1    3    3    0  502  0.48349756861E+02  0.10822609859E+03 -0.27683092560E+04  0.27708498361E+04  0.46999998093E+01 0.  1.
</event>
<event>
 5   0  0.2180451E-07  0.3499009E+04  0.7818609E-02  0.8114025E-01
       -2   -1    0    0    0  501  0.00000000000E+00  0.00000000000E+00  0.16870000548E+04  0.16870000548E+04  0.25500000920E-02 0. -1.
        2   -1    0    0  501    0  0.00000000000E+00  0.00000000000E+00 -0.18143242923E+04  0.18143242923E+04  0.25500000920E-02 0.  1.
    10030    2    1    2    0    0  0.00000000000E+00  0.00000000000E+00 -0.12732423744E+03  0.35013243471E+04  0.34990085342E+04 0.  0.
        4    1    3    3  502    0  0.10572276410E+04  0.85000715219E+01  0.13311618034E+04  0.16999399683E+04  0.12699999809E+01 0. -1.
       -4    1    3    3    0  502 -0.10572276410E+04 -0.85000715219E+01 -0.14584860409E+04  0.18013843788E+04  0.12699999809E+01 0.  1.
</event>
<event>
 5   0  0.1098171E-07  0.3472454E+04  0.7818609E-02  0.8120349E-01
        1   -1    0    0  501    0  0.00000000000E+00  0.00000000000E+00  0.21118281362E+04  0.21118281362E+04  0.50400001928E-02 0. -1.
       -1   -1    0    0    0  501  0.00000000000E+00  0.00000000000E+00 -0.14274285069E+04  0.14274285069E+04  0.50400001928E-02 0.  1.
    10030    2    1    2    0    0  0.00000000000E+00  0.00000000000E+00  0.68439962933E+03  0.35392566431E+04  0.34724537050E+04 0.  0.
        4    1    3    3  502    0 -0.69374384319E+02  0.16148577691E+04 -0.30395497388E+03  0.16446788922E+04  0.12699999809E+01 0. -1.
       -4    1    3    3    0  502  0.69374384319E+02 -0.16148577691E+04  0.98835460321E+03  0.18945777509E+04  0.12699999809E+01 0.  1.
</event>
<event>
 5   0  0.2180451E-07  0.3506191E+04  0.7818609E-02  0.8112324E-01
        2   -1    0    0  501    0  0.00000000000E+00  0.00000000000E+00  0.25205340118E+04  0.25205340118E+04  0.25500000920E-02 0.  1.
       -2   -1    0    0    0  501  0.00000000000E+00  0.00000000000E+00 -0.12193224854E+04  0.12193224854E+04  0.25500000920E-02 0. -1.
    10030    2    1    2    0    0  0.00000000000E+00  0.00000000000E+00  0.13012115264E+04  0.37398564972E+04  0.35061909793E+04 0.  0.
        4    1    3    3  502    0  0.34885599547E+03  0.48802930930E+03 -0.11064348814E+04  0.12585995677E+04  0.12699999809E+01 0. -1.
       -4    1    3    3    0  502 -0.34885599547E+03 -0.48802930930E+03  0.24076464078E+04  0.24812569295E+04  0.12699999809E+01 0.  1.
</event>
<event>
 5   0  0.2180451E-07  0.3498782E+04  0.7818609E-02  0.8114079E-01
       -2   -1    0    0    0  501  0.00000000000E+00  0.00000000000E+00  0.13082932126E+04  0.13082932126E+04  0.25500000920E-02 0.  1.
        2   -1    0    0  501    0  0.00000000000E+00  0.00000000000E+00 -0.23392077185E+04  0.23392077185E+04  0.25500000920E-02 0. -1.
    10030    2    1    2    0    0  0.00000000000E+00  0.00000000000E+00 -0.10309145060E+04  0.36475009311E+04  0.34987824059E+04 0.  0.
        4    1    3    3  502    0  0.10903571057E+04  0.13187163740E+04 -0.13601310489E+03  0.17165059483E+04  0.12699999809E+01 0.  1.
       -4    1    3    3    0  502 -0.10903571057E+04 -0.13187163740E+04 -0.89490140106E+03  0.19309949828E+04  0.12699999809E+01 0. -1.
</event>
<event>
 5   0  0.1098171E-07  0.3450072E+04  0.7818609E-02  0.8125725E-01
        1   -1    0    0  501    0  0.00000000000E+00  0.00000000000E+00  0.13243749644E+04  0.13243749644E+04  0.50400001928E-02 0.  1.
       -1   -1    0    0    0  501  0.00000000000E+00  0.00000000000E+00 -0.22469087001E+04  0.22469087002E+04  0.50400001928E-02 0. -1.
    10030    2    1    2    0    0  0.00000000000E+00  0.00000000000E+00 -0.92253373574E+03  0.35712836646E+04  0.34500722484E+04 0.  0.
        4    1    3    3  502    0  0.35810326190E+03 -0.16238834420E+04 -0.93620303568E+03  0.19083273085E+04  0.12699999809E+01 0. -1.
       -4    1    3    3    0  502 -0.35810326190E+03  0.16238834420E+04  0.13669299946E+02  0.16629563561E+04  0.12699999809E+01 0.  1.
</event>
<event>
 5   0  0.1033796E-07  0.3506844E+04  0.7818609E-02  0.8112170E-01
       -1   -1    0    0    0  501  0.00000000000E+00  0.00000000000E+00  0.28237213023E+04  0.28237213023E+04  0.50400001928E-02 0. -1.
        1   -1    0    0  501    0  0.00000000000E+00  0.00000000000E+00 -0.10888076278E+04  0.10888076278E+04  0.50400001928E-02 0.  1.
    10030    2    1    2    0    0  0.00000000000E+00  0.00000000000E+00  0.17349136745E+04  0.39125289301E+04  0.35068443323E+04 0.  0.
        3    1    3    3  502    0  0.84320080476E+03  0.13911040420E+04  0.13727513815E+03  0.16324835455E+04  0.10100000352E+00 0.  1.
       -3    1    3    3    0  502 -0.84320080476E+03 -0.13911040420E+04  0.15976385363E+04  0.22800453846E+04  0.10100000352E+00 0. -1.
</event>
<event>
 5   0  0.1013863E-07  0.3506208E+04  0.7818609E-02  0.8112320E-01
       -3   -1    0    0    0  501  0.00000000000E+00  0.00000000000E+00  0.28940413187E+04  0.28940413205E+04  0.10100000352E+00 0. -1.
        3   -1    0    0  501    0  0.00000000000E+00  0.00000000000E+00 -0.10619657819E+04  0.10619657867E+04  0.10100000352E+00 0.  1.
    10030    2    1    2    0    0  0.00000000000E+00  0.00000000000E+00  0.18320755369E+04  0.39560071072E+04  0.35062075608E+04 0.  0.
        5    1    3    3  502    0 -0.13613736237E+04 -0.68727806032E+02  0.21598626671E+04  0.25540341590E+04  0.46999998093E+01 0. -1.
       -5    1    3    3    0  502  0.13613736237E+04  0.68727806032E+02 -0.32778713021E+03  0.14019729482E+04  0.46999998093E+01 0.  1.
</event>
<event>
 5   0  0.2180451E-07  0.3492946E+04  0.7818609E-02  0.8115464E-01
        2   -1    0    0  501    0  0.00000000000E+00  0.00000000000E+00  0.12786899737E+04  0.12786899737E+04  0.25500000920E-02 0. -1.
       -2   -1    0    0    0  501  0.00000000000E+00  0.00000000000E+00 -0.23853856137E+04  0.23853856137E+04  0.25500000920E-02 0.  1.
    10030    2    1    2    0    0  0.00000000000E+00  0.00000000000E+00 -0.11066956400E+04  0.36640755874E+04  0.34929464167E+04 0.  0.
        4    1    3    3  502    0 -0.17368752282E+04  0.18284072591E+03 -0.55243024420E+03  0.18317606495E+04  0.12699999809E+01 0. -1.
       -4    1    3    3    0  502  0.17368752282E+04 -0.18284072591E+03 -0.55426539585E+03  0.18323149378E+04  0.12699999809E+01 0.  1.
</event>
<event>
 5   0  0.1098171E-07  0.3498765E+04  0.7818609E-02  0.8114083E-01
       -1   -1    0    0    0  501  0.00000000000E+00  0.00000000000E+00  0.19105962683E+04  0.19105962683E+04  0.50400001928E-02 0. -1.
        1   -1    0    0  501    0  0.00000000000E+00  0.00000000000E+00 -0.16017715311E+04  0.16017715311E+04  0.50400001928E-02 0.  1.
    10030    2    1    2    0    0  0.00000000000E+00  0.00000000000E+00  0.30882473717E+03  0.35123677994E+04  0.34987647591E+04 0.  0.
        4    1    3    3  502    0 -0.52083920482E+03 -0.76788749250E+03 -0.13343952411E+04  0.16252805761E+04  0.12699999809E+01 0.  1.
       -4    1    3    3    0  502  0.52083920482E+03  0.76788749250E+03  0.16432199783E+04  0.18870872233E+04  0.12699999809E+01 0. -1.
</event>
<event>
 5   0  0.1072381E-07  0.3492551E+04  0.7818609E-02  0.8115558E-01
       -1   -1    0    0    0  501  0.00000000000E+00  0.00000000000E+00  0.24436085637E+04  0.24436085638E+04  0.50400001928E-02 0. -1.
        1   -1    0    0  501    0  0.00000000000E+00  0.00000000000E+00 -0.12479405560E+04  0.12479405560E+04  0.50400001928E-02 0.  1.
    10030    2    1    2    0    0  0.00000000000E+00  0.00000000000E+00  0.11956680077E+04  0.36915491198E+04  0.34925510618E+04 0.  0.
        1    1    3    3  502    0  0.96481445936E+03  0.14362727140E+04  0.34830667181E+03  0.17649543302E+04  0.50400001928E-02 0. -1.
       -1    1    3    3    0  502 -0.96481445936E+03 -0.14362727140E+04  0.84736133590E+03  0.19265947896E+04  0.50400001928E-02 0.  1.
</event>
<event>
 5   0  0.1013863E-07  0.3491468E+04  0.7818609E-02  0.8115815E-01
        1   -1    0    0  501    0  0.00000000000E+00  0.00000000000E+00  0.19935332028E+04  0.19935332028E+04  0.50400001928E-02 0.  1.
       -1   -1    0    0    0  501  0.00000000000E+00  0.00000000000E+00 -0.15287364309E+04  0.15287364309E+04  0.50400001928E-02 0. -1.
    10030    2    1    2    0    0  0.00000000000E+00  0.00000000000E+00  0.46479677190E+03  0.35222696338E+04  0.34914677907E+04 0.  0.
        5    1    3    3  502    0  0.77466053649E+03 -0.54179988036E+03  0.17129692908E+04  0.19565101427E+04  0.46999998093E+01 0.  1.
       -5    1    3    3    0  502 -0.77466053649E+03  0.54179988036E+03 -0.12481725189E+04  0.15657594911E+04  0.46999998093E+01 0. -1.
</event>
<event>
 5   0  0.2180451E-07  0.3534226E+04  0.7818609E-02  0.8105726E-01
        2   -1    0    0  501    0  0.00000000000E+00  0.00000000000E+00  0.27293391857E+04  0.27293391857E+04  0.25500000920E-02 0.  1.
       -2   -1    0    0    0  501  0.00000000000E+00  0.00000000000E+00 -0.11441190199E+04  0.11441190199E+04  0.25500000920E-02 0. -1.
    10030    2    1    2    0    0  0.00000000000E+00  0.00000000000E+00  0.15852201657E+04  0.38734582056E+04  0.35342262939E+04 0.  0.
        4    1    3    3  502    0 -0.10752688244E+04  0.86943104556E+03  0.19984791896E+04  0.24302333369E+04  0.12699999809E+01 0.  1.
       -4    1    3    3    0  502  0.10752688244E+04 -0.86943104556E+03 -0.41325902387E+03  0.14432248687E+04  0.12699999809E+01 0. -1.
</event>
<event>
 5   0  0.3219205E-07  0.3494593E+04  0.7818609E-02  0.8115072E-01
        2   -1    0    0  501    0  0.00000000000E+00  0.00000000000E+00  0.20170773398E+04  0.20170773399E+04  0.25500000920E-02 0. -1.
       -2   -1    0    0    0  501  0.00000000000E+00  0.00000000000E+00 -0.15135987970E+04  0.15135987970E+04  0.25500000920E-02 0.  1.
    10030    2    1    2    0    0  0.00000000000E+00  0.00000000000E+00  0.50347854284E+03  0.35306761369E+04  0.34945934442E+04 0.  0.
        2    1    3    3  502    0 -0.63423887230E+03 -0.55495780525E+03 -0.12946885007E+04  0.15448156611E+04  0.25500000920E-02 0.  1.
       -2    1    3    3    0  502  0.63423887230E+03  0.55495780525E+03  0.17981670436E+04  0.19858604758E+04  0.25500000920E-02 0. -1.
</event>
<event>
 5   0  0.1013863E-07  0.3502022E+04  0.7818609E-02  0.8113311E-01
       -1   -1    0    0    0  501  0.00000000000E+00  0.00000000000E+00  0.19967340910E+04  0.19967340910E+04  0.50400001928E-02 0. -1.
        1   -1    0    0  501    0  0.00000000000E+00  0.00000000000E+00 -0.15355270289E+04  0.15355270289E+04  0.50400001928E-02 0.  1.
    10030    2    1    2    0    0  0.00000000000E+00  0.00000000000E+00  0.46120706213E+03  0.35322611199E+04  0.35020217968E+04 0.  0.
        5    1    3    3  502    0  0.17235545022E+04  0.16016785229E+03  0.49693510341E+03  0.18009054528E+04  0.46999998093E+01 0. -1.
       -5    1    3    3    0  502 -0.17235545022E+04 -0.16016785229E+03 -0.35728041273E+02  0.17313556671E+04  0.46999998093E+01 0.  1.
</event>
<event>
 5   0  0.1072381E-07  0.3514181E+04  0.7818609E-02  0.8110437E-01
        1   -1    0    0  501    0  0.00000000000E+00  0.00000000000E+00  0.25974742528E+04  0.25974742528E+04  0.50400001928E-02 0.  1.
       -1   -1    0    0    0  501  0.00000000000E+00  0.00000000000E+00 -0.11886038019E+04  0.11886038019E+04  0.50400001928E-02 0. -1.
    10030    2    1    2    0    0  0.00000000000E+00  0.00000000000E+00  0.14088704509E+04  0.37860780547E+04  0.35141814251E+04 0.  0.
        1    1    3    3  502    0  0.16830640300E+04 -0.14666334478E+03  0.18421649204E+03  0.16994559076E+04  0.50400001928E-02 0.  1.
       -1    1    3    3    0  502 -0.16830640300E+04  0.14666334478E+03  0.12246539589E+04  0.20866221471E+04  0.50400001928E-02 0. -1.
</event>
<event>
 5   0  0.3119048E-07  0.3491292E+04  0.7818609E-02  0.8115857E-01
        2   -1    0    0  501    0  0.00000000000E+00  0.00000000000E+00  0.25217612109E+04  0.25217612109E+04  0.25500000920E-02 0.  1.
       -2   -1    0    0    0  501  0.00000000000E+00  0.00000000000E+00 -0.12083933905E+04  0.12083933905E+04  0.25500000920E-02 0. -1.
    10030    2    1    2    0    0  0.00000000000E+00  0.00000000000E+00  0.13133678204E+04  0.37301546014E+04  0.34912917837E+04 0.  0.
        3    1    3    3  502    0 -0.46611347306E+03  0.11321464739E+04  0.19861061377E+04  0.23331598763E+04  0.10100000352E+00 0.  1.
       -3    1    3    3    0  502  0.46611347306E+03 -0.11321464739E+04 -0.67273831724E+03  0.13969947251E+04  0.10100000352E+00 0. -1.
</event>
<event>
 5   0  0.2180451E-07  0.3516770E+04  0.7818609E-02  0.8109827E-01
       -2   -1    0    0    0  501  0.00000000000E+00  0.00000000000E+00  0.16095596827E+04  0.16095596827E+04  0.25500000920E-02 0. -1.
        2   -1    0    0  501    0  0.00000000000E+00  0.00000000000E+00 -0.19209710429E+04  0.19209710429E+04  0.25500000920E-02 0.  1.
    10030    2    1    2    0    0  0.00000000000E+00  0.00000000000E+00 -0.31141136018E+03  0.35305307256E+04  0.35167698488E+04 0.  0.
        4    1    3    3  502    0  0.59164697704E+03 -0.12555319691E+04  0.92810621207E+03  0.16696674593E+04  0.12699999809E+01 0. -1.
       -4    1    3    3    0  502 -0.59164697704E+03  0.12555319691E+04 -0.12395175722E+04  0.18608632663E+04  0.12699999809E+01 0.  1.
</event>
<event>
 5   0  0.2180451E-07  0.3513676E+04  0.7818609E-02  0.8110557E-01
        2   -1    0    0  501    0  0.00000000000E+00  0.00000000000E+00  0.10567624185E+04  0.10567624186E+04  0.25500000920E-02 0.  1.
       -2   -1    0    0    0  501  0.00000000000E+00  0.00000000000E+00 -0.29206940134E+04  0.29206940134E+04  0.25500000920E-02 0. -1.
    10030    2    1    2    0    0  0.00000000000E+00  0.00000000000E+00 -0.18639315949E+04  0.39774564320E+04  0.35136759495E+04 0.  0.
        4    1    3    3  502    0  0.81771407145E+03  0.13178799572E+04  0.21953489939E+01  0.15509578707E+04  0.12699999809E+01 0.  1.
       -4    1    3    3    0  502 -0.81771407145E+03 -0.13178799572E+04 -0.18661269439E+04  0.24264985613E+04  0.12699999809E+01 0. -1.
</event>
<event>
 5   0  0.1033796E-07  0.3511286E+04  0.7818609E-02  0.8111121E-01
       -1   -1    0    0    0  501  0.00000000000E+00  0.00000000000E+00  0.29966022793E+04  0.29966022793E+04  0.50400001928E-02 0. -1.
        1   -1    0    0  501    0  0.00000000000E+00  0.00000000000E+00 -0.10285922153E+04  0.10285922153E+04  0.50400001928E-02 0.  1.
    10030    2    1    2    0    0  0.00000000000E+00  0.00000000000E+00  0.19680100640E+04  0.40251944946E+04  0.35112856772E+04 0.  0.
        3    1    3    3  502    0 -0.92006353465E+03  0.12182773209E+03 -0.72438662727E+03  0.11773253162E+04  0.10100000352E+00 0.  1.
       -3    1    3    3    0  502  0.92006353465E+03 -0.12182773209E+03  0.26923966912E+04  0.28478691784E+04  0.10100000352E+00 0. -1.
</event>
<event>
 5   0  0.1033796E-07  0.3500930E+04  0.7818609E-02  0.8113570E-01
       -1   -1    0    0    0  501  0.00000000000E+00  0.00000000000E+00  0.15376547129E+04  0.15376547129E+04  0.50400001928E-02 0.  1.
        1   -1    0    0  501    0  0.00000000000E+00  0.00000000000E+00 -0.19927282654E+04  0.19927282654E+04  0.50400001928E-02 0. -1.
    10030    2    1    2    0    0  0.00000000000E+00  0.00000000000E+00 -0.45507355245E+03  0.35303829783E+04  0.35009301672E+04 0.  0.
        3    1    3    3  502    0 -0.84204810372E+03 -0.89375233646E+03 -0.14855453505E+04  0.19273513552E+04  0.10100000352E+00 0. -1.
       -3    1    3    3    0  502  0.84204810372E+03  0.89375233646E+03  0.10304717981E+04  0.16030316231E+04  0.10100000352E+00 0.  1.
</event>
<event>
 5   0  0.1072381E-07  0.3495785E+04  0.7818609E-02  0.8114790E-01
       -1   -1    0    0    0  501  0.00000000000E+00  0.00000000000E+00  0.16132135935E+04  0.16132135935E+04  0.50400001928E-02 0.  1.
        1   -1    0    0  501    0  0.00000000000E+00  0.00000000000E+00 -0.18938147175E+04  0.18938147175E+04  0.50400001928E-02 0. -1.
    10030    2    1    2    0    0  0.00000000000E+00  0.00000000000E+00 -0.28060112394E+03  0.35070283110E+04  0.34957846878E+04 0.  0.
        1    1    3    3  502    0  0.45331228433E+03  0.66970134041E+03 -0.16948443209E+04  0.18778948811E+04  0.50400001928E-02 0. -1.
       -1    1    3    3    0  502 -0.45331228433E+03 -0.66970134041E+03  0.14142431969E+04  0.16291334299E+04  0.50400001928E-02 0.  1.
</event>
<event>
 5   0  0.3190112E-07  0.3505621E+04  0.7818609E-02  0.8112459E-01
       -2   -1    0    0    0  501  0.00000000000E+00  0.00000000000E+00  0.12030796545E+04  0.12030796545E+04  0.25500000920E-02 0.  1.
        2   -1    0    0  501    0  0.00000000000E+00  0.00000000000E+00 -0.25537326484E+04  0.25537326484E+04  0.25500000920E-02 0. -1.
    10030    2    1    2    0    0  0.00000000000E+00  0.00000000000E+00 -0.13506529939E+04  0.37568123029E+04  0.35056205113E+04 0.  0.
        5    1    3    3  502    0  0.11505942220E+04 -0.13222700775E+04 -0.68338036424E+03  0.18813016860E+04  0.46999998093E+01 0.  1.
       -5    1    3    3    0  502 -0.11505942220E+04  0.13222700775E+04 -0.66727262971E+03  0.18755106169E+04  0.46999998093E+01 0. -1.
</event>
<event>
 5   0  0.3190185E-07  0.3483716E+04  0.7818609E-02  0.8117660E-01
       -2   -1    0    0    0  501  0.00000000000E+00  0.00000000000E+00  0.14640913880E+04  0.14640913880E+04  0.25500000920E-02 0.  1.
        2   -1    0    0  501    0  0.00000000000E+00  0.00000000000E+00 -0.20723226339E+04  0.20723226339E+04  0.25500000920E-02 0. -1.
    10030    2    1    2    0    0  0.00000000000E+00  0.00000000000E+00 -0.60823124591E+03  0.35364140219E+04  0.34837162464E+04 0.  0.
        1    1    3    3  502    0  0.37992964493E+03  0.23171054481E+03  0.14054115227E+04  0.14741837944E+04  0.50400001928E-02 0.  1.
       -1    1    3    3    0  502 -0.37992964493E+03 -0.23171054481E+03 -0.20136427686E+04  0.20622302275E+04  0.50400001928E-02 0. -1.
</event>
<event>
 5   0  0.3190185E-07  0.3508790E+04  0.7818609E-02  0.8111710E-01
        2   -1    0    0  501    0  0.00000000000E+00  0.00000000000E+00  0.11436707579E+04  0.11436707579E+04  0.25500000920E-02 0.  1.
       -2   -1    0    0    0  501  0.00000000000E+00  0.00000000000E+00 -0.26912477152E+04  0.26912477152E+04  0.25500000920E-02 0. -1.
    10030    2    1    2    0    0  0.00000000000E+00  0.00000000000E+00 -0.15475769572E+04  0.38349184731E+04  0.35087897139E+04 0.  0.
        1    1    3    3  502    0  0.14429308536E+04 -0.87276292129E+02 -0.18602862687E+04  0.23559141752E+04  0.50400001928E-02 0. -1.
       -1    1    3    3    0  502 -0.14429308536E+04  0.87276292129E+02  0.31270931150E+03  0.14790042978E+04  0.50400001928E-02 0.  1.
</event>
<event>
 5   0  0.1033796E-07  0.3518540E+04  0.7818609E-02  0.8109410E-01
       -1   -1    0    0    0  501  0.00000000000E+00  0.00000000000E+00  0.13685999948E+04  0.13685999948E+04  0.50400001928E-02 0.  1.
        1   -1    0    0  501    0  0.00000000000E+00  0.00000000000E+00 -0.22614571669E+04  0.22614571669E+04  0.50400001928E-02 0. -1.
    10030    2    1    2    0    0  0.00000000000E+00  0.00000000000E+00 -0.89285717207E+03  0.36300571617E+04  0.35185396214E+04 0.  0.
        3    1    3    3  502    0 -0.98135221035E+03 -0.11010774128E+04 -0.14357833835E+04  0.20583725524E+04  0.10100000352E+00 0. -1.
       -3    1    3    3    0  502  0.98135221035E+03  0.11010774128E+04  0.54292621146E+03  0.15716846093E+04  0.10100000352E+00 0.  1.
</event>
<event>
 5   0  0.3219205E-07  0.3505757E+04  0.7818609E-02  0.8112427E-01
       -2   -1    0    0    0  501  0.00000000000E+00  0.00000000000E+00  0.25389339484E+04  0.25389339484E+04  0.25500000920E-02 0.  1.
        2   -1    0    0  501    0  0.00000000000E+00  0.00000000000E+00 -0.12101864996E+04  0.12101864996E+04  0.25500000920E-02 0. -1.
    10030    2    1    2    0    0  0.00000000000E+00  0.00000000000E+00  0.13287474487E+04  0.37491204480E+04  0.35057573149E+04 0.  0.
        2    1    3    3  502    0  0.55064605007E+03  0.90546799646E+03  0.21575434946E+04  0.24037631531E+04  0.25500000920E-02 0.  1.
       -2    1    3    3    0  502 -0.55064605007E+03 -0.90546799646E+03 -0.82879604590E+03  0.13453572948E+04  0.25500000920E-02 0. -1.
</event>
<event>
 5   0  0.2180451E-07  0.3500356E+04  0.7818609E-02  0.8113705E-01
        2   -1    0    0  501    0  0.00000000000E+00  0.00000000000E+00  0.17585421395E+04  0.17585421395E+04  0.25500000920E-02 0. -1.
       -2   -1    0    0    0  501  0.00000000000E+00  0.00000000000E+00 -0.17418540327E+04  0.17418540327E+04  0.25500000920E-02 0.  1.
    10030    2    1    2    0    0  0.00000000000E+00  0.00000000000E+00  0.16688106846E+02  0.35003961722E+04  0.35003563918E+04 0.  0.
        4    1    3    3  502    0  0.45625483776E+02  0.79918388378E+03 -0.15480622554E+04  0.17427779332E+04  0.12699999809E+01 0.  1.
       -4    1    3    3    0  502 -0.45625483776E+02 -0.79918388378E+03  0.15647503623E+04  0.17576182390E+04  0.12699999809E+01 0. -1.
</event>
<event>
 5   0  0.2180451E-07  0.3538988E+04  0.7818609E-02  0.8104612E-01
        2   -1    0    0  501    0  0.00000000000E+00  0.00000000000E+00  0.21166203210E+04  0.21166203210E+04  0.25500000920E-02 0.  1.
       -2   -1    0    0    0  501  0.00000000000E+00  0.00000000000E+00 -0.14792964091E+04  0.14792964091E+04  0.25500000920E-02 0. -1.
    10030    2    1    2    0    0  0.00000000000E+00  0.00000000000E+00  0.63732391187E+03  0.35959167301E+04  0.35389879007E+04 0.  0.
        4    1    3    3  502    0  0.24828555805E+03  0.13248588698E+04 -0.84616929101E+03  0.15915089774E+04  0.12699999809E+01 0. -1.
       -4    1    3    3    0  502 -0.24828555805E+03 -0.13248588698E+04  0.14834932029E+04  0.20044077527E+04  0.12699999809E+01 0.  1.
</event>
<event>
 5   0  0.1013863E-07  0.3521503E+04  0.7818609E-02  0.8108713E-01
       -1   -1    0    0    0  501  0.00000000000E+00  0.00000000000E+00  0.21777573799E+04  0.21777573799E+04  0.50400001928E-02 0.  1.
        1   -1    0    0  501    0  0.00000000000E+00  0.00000000000E+00 -0.14235956575E+04  0.14235956575E+04  0.50400001928E-02 0. -1.
    10030    2    1    2    0    0  0.00000000000E+00  0.00000000000E+00  0.75416172240E+03  0.36013530374E+04  0.35215030593E+04 0.  0.
        5    1    3    3  502    0  0.54646248710E+03 -0.41567710965E+03  0.20352073276E+04  0.21479058791E+04  0.46999998093E+01 0.  1.
       -5    1    3    3    0  502 -0.54646248710E+03  0.41567710965E+03 -0.12810456052E+04  0.14534471583E+04  0.46999998093E+01 0. -1.
</event>
<event>
 5   0  0.3190185E-07  0.3497859E+04  0.7818609E-02  0.8114297E-01
        2   -1    0    0  501    0  0.00000000000E+00  0.00000000000E+00  0.20780498948E+04  0.20780498948E+04  0.25500000920E-02 0.  1.
       -2   -1    0    0    0  501  0.00000000000E+00  0.00000000000E+00 -0.14719352222E+04  0.14719352222E+04  0.25500000920E-02 0. -1.
    10030    2    1    2    0    0  0.00000000000E+00  0.00000000000E+00  0.60611467262E+03  0.35499851170E+04  0.34978592503E+04 0.  0.
        1    1    3    3  502    0 -0.15395674124E+04 -0.38085440881E+03 -0.44511006011E+03  0.16472525197E+04  0.50400001928E-02 0.  1.
       -1    1    3    3    0  502  0.15395674124E+04  0.38085440881E+03  0.10512247327E+04  0.19027325973E+04  0.50400001928E-02 0. -1.
</event>
<event>
 5   0  0.3119048E-07  0.3495222E+04  0.7818609E-02  0.8114923E-01
       -2   -1    0    0    0  501  0.00000000000E+00  0.00000000000E+00  0.11055234549E+04  0.11055234549E+04  0.25500000920E-02 0.  1.
        2   -1    0    0  501    0  0.00000000000E+00  0.00000000000E+00 -0.27626225596E+04  0.27626225596E+04  0.25500000920E-02 0. -1.
    10030    2    1    2    0    0  0.00000000000E+00  0.00000000000E+00 -0.16570991048E+04  0.38681460145E+04  0.34952219023E+04 0.  0.
        3    1    3    3  502    0 -0.15760039714E+04 -0.23640389218E+02  0.68380936795E+01  0.15761961031E+04  0.10100000352E+00 0.  1.
       -3    1    3    3    0  502  0.15760039714E+04  0.23640389218E+02 -0.16639371985E+04  0.22919499114E+04  0.10100000352E+00 0. -1.
</event>
<event>
 5   0  0.1098171E-07  0.3498260E+04  0.7818609E-02  0.8114202E-01
        1   -1    0    0  501    0  0.00000000000E+00  0.00000000000E+00  0.19477869311E+04  0.19477869311E+04  0.50400001928E-02 0. -1.
       -1   -1    0    0    0  501  0.00000000000E+00  0.00000000000E+00 -0.15707345645E+04  0.15707345645E+04  0.50400001928E-02 0.  1.
    10030    2    1    2    0    0  0.00000000000E+00  0.00000000000E+00  0.37705236668E+03  0.35185214956E+04  0.34982602859E+04 0.  0.
        4    1    3    3  502    0 -0.54452579716E+03  0.14903186690E+04  0.92892597509E+03  0.18386035894E+04  0.12699999809E+01 0. -1.
       -4    1    3    3    0  502  0.54452579716E+03 -0.14903186690E+04 -0.55187360841E+03  0.16799179062E+04  0.12699999809E+01 0.  1.
</event>
<event>
 5   0  0.3190112E-07  0.3456887E+04  0.7818609E-02  0.8124084E-01
        2   -1    0    0  501    0  0.00000000000E+00  0.00000000000E+00  0.17178758891E+04  0.17178758891E+04  0.25500000920E-02 0.  1.
       -2   -1    0    0    0  501  0.00000000000E+00  0.00000000000E+00 -0.17390764233E+04  0.17390764233E+04  0.25500000920E-02 0. -1.
    10030    2    1    2    0    0  0.00000000000E+00  0.00000000000E+00 -0.21200534169E+02  0.34569523125E+04  0.34568873033E+04 0.  0.
        5    1    3    3  502    0 -0.16314687026E+04  0.61935426988E+02 -0.57803427392E+03  0.17319560723E+04  0.46999998093E+01 0. -1.
       -5    1    3    3    0  502  0.16314687026E+04 -0.61935426988E+02  0.55683373976E+03  0.17249962401E+04  0.46999998093E+01 0.  1.
</event>
<event>
 5   0  0.3219205E-07  0.3510994E+04  0.7818609E-02  0.8111189E-01
       -2   -1    0    0    0  501  0.00000000000E+00  0.00000000000E+00  0.12964893876E+04  0.12964893876E+04  0.25500000920E-02 0.  1.
        2   -1    0    0  501    0  0.00000000000E+00  0.00000000000E+00 -0.23770116640E+04  0.23770116640E+04  0.25500000920E-02 0. -1.
    10030    2    1    2    0    0  0.00000000000E+00  0.00000000000E+00 -0.10805222764E+04  0.36735010515E+04  0.35109943870E+04 0.  0.
        2    1    3    3  502    0  0.15200659882E+04 -0.37471148780E+03  0.29070338087E+03  0.15923309214E+04  0.25500000920E-02 0.  1.
       -2    1    3    3    0  502 -0.15200659882E+04  0.37471148780E+03 -0.13712256573E+04  0.20811701302E+04  0.25500000920E-02 0. -1.
</event>
<event>
 5   0  0.3219205E-07  0.3473564E+04  0.7818609E-02  0.8120084E-01
        2   -1    0    0  501    0  0.00000000000E+00  0.00000000000E+00  0.16435314324E+04  0.16435314324E+04  0.25500000920E-02 0. -1.
       -2   -1    0    0    0  501  0.00000000000E+00  0.00000000000E+00 -0.18353235150E+04  0.18353235150E+04  0.25500000920E-02 0.  1.
    10030    2    1    2    0    0  0.00000000000E+00  0.00000000000E+00 -0.19179208255E+03  0.34788549474E+04  0.34735640979E+04 0.  0.
        2    1    3    3  502    0  0.36224460834E+03  0.86328138229E+03 -0.15609762259E+04  0.18201985274E+04  0.25500000920E-02 0.  1.
       -2    1    3    3    0  502 -0.36224460834E+03 -0.86328138229E+03  0.13691841433E+04  0.16586564200E+04  0.25500000920E-02 0. -1.
</event>
<event>
 5   0  0.1033796E-07  0.3503901E+04  0.7818609E-02  0.8112866E-01
       -1   -1    0    0    0  501  0.00000000000E+00  0.00000000000E+00  0.27385255532E+04  0.27385255533E+04  0.50400001928E-02 0.  1.
        1   -1    0    0  501    0  0.00000000000E+00  0.00000000000E+00 -0.11207968503E+04  0.11207968504E+04  0.50400001928E-02 0. -1.
    10030    2    1    2    0    0  0.00000000000E+00  0.00000000000E+00  0.16177287029E+04  0.38593224036E+04  0.35039011485E+04 0.  0.
        3    1    3    3  502    0  0.12881837747E+02  0.51126747706E+02 -0.11199228043E+04  0.11211632280E+04  0.10100000352E+00 0. -1.
       -3    1    3    3    0  502 -0.12881837747E+02 -0.51126747706E+02  0.27376515072E+04  0.27381591756E+04  0.10100000352E+00 0.  1.
</event>
<event>
 5   0  0.1013863E-07  0.3466895E+04  0.7818609E-02  0.8121680E-01
        1   -1    0    0  501    0  0.00000000000E+00  0.00000000000E+00  0.16313191024E+04  0.16313191024E+04  0.50400001928E-02 0.  1.
       -1   -1    0    0    0  501  0.00000000000E+00  0.00000000000E+00 -0.18419700657E+04  0.18419700657E+04  0.50400001928E-02 0. -1.
    10030    2    1    2    0    0  0.00000000000E+00  0.00000000000E+00 -0.21065096329E+03  0.34732891681E+04  0.34668954148E+04 0.  0.
        2    1    3    3  502    0 -0.16227213292E+04 -0.53276706268E+03  0.19149054668E+03  0.17186430359E+04  0.25500000920E-02 0. -1.
       -2    1    3    3    0  502  0.16227213292E+04  0.53276706268E+03 -0.40214150997E+03  0.17546461322E+04  0.25500000920E-02 0.  1.
</event>
<event>
 5   0  0.2180451E-07  0.3498157E+04  0.7818609E-02  0.8114227E-01
       -2   -1    0    0    0  501  0.00000000000E+00  0.00000000000E+00  0.13441810844E+04  0.13441810844E+04  0.25500000920E-02 0.  1.
        2   -1    0    0  501    0  0.00000000000E+00  0.00000000000E+00 -0.22759398164E+04  0.22759398164E+04  0.25500000920E-02 0. -1.
    10030    2    1    2    0    0  0.00000000000E+00  0.00000000000E+00 -0.93175873205E+03  0.36201209008E+04  0.34981568006E+04 0.  0.
        4    1    3    3  502    0  0.28267786117E+03  0.17193431050E+04 -0.30816457290E+03  0.17694672935E+04  0.12699999809E+01 0.  1.
       -4    1    3    3    0  502 -0.28267786117E+03 -0.17193431050E+04 -0.62359415915E+03  0.18506536073E+04  0.12699999809E+01 0. -1.
</event>
<event>
 5   0  0.3190112E-07  0.3501081E+04  0.7818609E-02  0.8113534E-01
        2   -1    0    0  501    0  0.00000000000E+00  0.00000000000E+00  0.25895718261E+04  0.25895718261E+04  0.25500000920E-02 0. -1.
       -2   -1    0    0    0  501  0.00000000000E+00  0.00000000000E+00 -0.11833582668E+04  0.11833582668E+04  0.25500000920E-02 0.  1.
    10030    2    1    2    0    0  0.00000000000E+00  0.00000000000E+00  0.14062135594E+04  0.37729300929E+04  0.35010805348E+04 0.  0.
        5    1    3    3  502    0  0.77538358154E+03  0.10366220229E+04  0.19729778893E+04  0.23597603180E+04  0.46999998093E+01 0. -1.
       -5    1    3    3    0  502 -0.77538358154E+03 -0.10366220229E+04 -0.56676432992E+03  0.14131697749E+04  0.46999998093E+01 0.  1.
</event>
<event>
 5   0  0.1013863E-07  0.3461979E+04  0.7818609E-02  0.8122860E-01
       -1   -1    0    0    0  501  0.00000000000E+00  0.00000000000E+00  0.14742813459E+04  0.14742813459E+04  0.50400001928E-02 0.  1.
        1   -1    0    0  501    0  0.00000000000E+00  0.00000000000E+00 -0.20323968058E+04  0.20323968058E+04  0.50400001928E-02 0. -1.
    10030    2    1    2    0    0  0.00000000000E+00  0.00000000000E+00 -0.55811545993E+03  0.35066781517E+04  0.34619790283E+04 0.  0.
        5    1    3    3  502    0 -0.49618781866E+03  0.11111813522E+04  0.96784252666E+03  0.15548850746E+04  0.46999998093E+01 0.  1.
       -5    1    3    3    0  502  0.49618781866E+03 -0.11111813522E+04 -0.15259579866E+04  0.19517930771E+04  0.46999998093E+01 0. -1.
</event>
<event>
 5   0  0.3119048E-07  0.3612439E+04  0.7818609E-02  0.8087648E-01
        2   -1    0    0  501    0  0.00000000000E+00  0.00000000000E+00  0.22056922175E+04  0.22056922175E+04  0.25500000920E-02 0. -1.
       -2   -1    0    0    0  501  0.00000000000E+00  0.00000000000E+00 -0.14790955321E+04  0.14790955321E+04  0.25500000920E-02 0.  1.
    10030    2    1    2    0    0  0.00000000000E+00  0.00000000000E+00  0.72659668545E+03  0.36847877496E+04  0.36124393443E+04 0.  0.
        3    1    3    3  502    0 -0.14017635240E+04  0.10663619014E+04 -0.45172476246E+02  0.17618482468E+04  0.10100000352E+00 0. -1.
       -3    1    3    3    0  502  0.14017635240E+04 -0.10663619014E+04  0.77176916169E+03  0.19229395028E+04  0.10100000352E+00 0.  1.
</event>
<event>
 5   0  0.3190112E-07  0.3497188E+04  0.7818609E-02  0.8114457E-01
        2   -1    0    0  501    0  0.00000000000E+00  0.00000000000E+00  0.25617736891E+04  0.25617736891E+04  0.25500000920E-02 0. -1.
       -2   -1    0    0    0  501  0.00000000000E+00  0.00000000000E+00 -0.11935404375E+04  0.11935404375E+04  0.25500000920E-02 0.  1.
    10030    2    1    2    0    0  0.00000000000E+00  0.00000000000E+00  0.13682332515E+04  0.37553141266E+04  0.34971877214E+04 0.  0.
        5    1    3    3  502    0 -0.11254736683E+04 -0.42199377216E+03  0.20478078918E+04  0.23745123654E+04  0.46999998093E+01 0. -1.
       -5    1    3    3    0  502  0.11254736683E+04  0.42199377216E+03 -0.67957464026E+03  0.13808017611E+04  0.46999998093E+01 0.  1.
</event>
<event>
 5   0  0.1033796E-07  0.3506226E+04  0.7818609E-02  0.8112316E-01
       -1   -1    0    0    0  501  0.00000000000E+00  0.00000000000E+00  0.24623801569E+04  0.24623801569E+04  0.50400001928E-02 0.  1.
        1   -1    0    0  501    0  0.00000000000E+00  0.00000000000E+00 -0.12481443410E+04  0.12481443410E+04  0.50400001928E-02 0. -1.
    10030    2    1    2    0    0  0.00000000000E+00  0.00000000000E+00  0.12142358160E+04  0.37105244979E+04  0.35062263807E+04 0.  0.
        3    1    3    3  502    0 -0.29596080900E+03  0.47919311781E+03 -0.11497928029E+04  0.12803289985E+04  0.10100000352E+00 0. -1.
       -3    1    3    3    0  502  0.29596080900E+03 -0.47919311781E+03  0.23640286188E+04  0.24301954994E+04  0.10100000352E+00 0.  1.
</event>
<event>
 5   0  0.1033796E-07  0.3251065E+04  0.7818609E-02  0.8175460E-01
        1   -1    0    0  501    0  0.00000000000E+00  0.00000000000E+00  0.10010061895E+04  0.10010061895E+04  0.50400001928E-02 0.  1.
       -1   -1    0    0    0  501  0.00000000000E+00  0.00000000000E+00 -0.26397002053E+04  0.26397002053E+04  0.50400001928E-02 0. -1.
    10030    2    1    2    0    0  0.00000000000E+00  0.00000000000E+00 -0.16386940158E+04  0.36407063949E+04  0.32510652064E+04 0.  0.
        3    1    3    3  502    0  0.18404891670E+01 -0.84069865820E+03  0.73864556765E+03  0.11190955751E+04  0.10100000352E+00 0.  1.
       -3    1    3    3    0  502 -0.18404891670E+01  0.84069865820E+03 -0.23773395834E+04  0.25216108198E+04  0.10100000352E+00 0. -1.
</event>
<event>
 5   0  0.3219205E-07  0.3635296E+04  0.7818609E-02  0.8082454E-01
       -2   -1    0    0    0  501  0.00000000000E+00  0.00000000000E+00  0.10704166880E+04  0.10704166880E+04  0.25500000920E-02 0.  1.
        2   -1    0    0  501    0  0.00000000000E+00  0.00000000000E+00 -0.30865028314E+04  0.30865028314E+04  0.25500000920E-02 0. -1.
    10030    2    1    2    0    0  0.00000000000E+00  0.00000000000E+00 -0.20160861433E+04  0.41569195194E+04  0.36352959375E+04 0.  0.
        2    1    3    3  502    0 -0.10659161885E+04 -0.11079273165E+04  0.10070691085E+03  0.15407213056E+04  0.25500000920E-02 0.  1.
       -2    1    3    3    0  502  0.10659161885E+04  0.11079273165E+04 -0.21167930542E+04  0.26161982138E+04  0.25500000920E-02 0. -1.
</event>
<event>
 5   0  0.3190185E-07  0.3491800E+04  0.7818609E-02  0.8115736E-01
       -2   -1    0    0    0  501  0.00000000000E+00  0.00000000000E+00  0.13933636664E+04  0.13933636664E+04  0.25500000920E-02 0. -1.
        2   -1    0    0  501    0  0.00000000000E+00  0.00000000000E+00 -0.21876321820E+04  0.21876321820E+04  0.25500000920E-02 0.  1.
    10030    2    1    2    0    0  0.00000000000E+00  0.00000000000E+00 -0.79426851560E+03  0.35809958484E+04  0.34918002222E+04 0.  0.
        1    1    3    3  502    0 -0.14709395913E+04 -0.80216325846E+03  0.10636311408E+03  0.16788216958E+04  0.50400001928E-02 0.  1.
       -1    1    3    3    0  502  0.14709395913E+04  0.80216325846E+03 -0.90063162968E+03  0.19021741526E+04  0.50400001928E-02 0. -1.
</event>
<event>
 5   0  0.1072381E-07  0.3463202E+04  0.7818609E-02  0.8122566E-01
        1   -1    0    0  501    0  0.00000000000E+00  0.00000000000E+00  0.13492758789E+04  0.13492758789E+04  0.50400001928E-02 0.  1.
       -1   -1    0    0    0  501  0.00000000000E+00  0.00000000000E+00 -0.22222600756E+04  0.22222600756E+04  0.50400001928E-02 0. -1.
    10030    2    1    2    0    0  0.00000000000E+00  0.00000000000E+00 -0.87298419672E+03  0.35715359546E+04  0.34632019385E+04 0.  0.
        1    1    3    3  502    0  0.98433181872E+03  0.12013433288E+04 -0.12261513864E+04  0.19787829960E+04  0.50400001928E-02 0. -1.
       -1    1    3    3    0  502 -0.98433181872E+03 -0.12013433288E+04  0.35316718972E+03  0.15927529585E+04  0.50400001928E-02 0.  1.
</event>
<event>
 5   0  0.2180451E-07  0.3503530E+04  0.7818609E-02  0.8112954E-01
        2   -1    0    0  501    0  0.00000000000E+00  0.00000000000E+00  0.18447152921E+04  0.18447152921E+04  0.25500000920E-02 0.  1.
       -2   -1    0    0    0  501  0.00000000000E+00  0.00000000000E+00 -0.16634983444E+04  0.16634983444E+04  0.25500000920E-02 0. -1.
    10030    2    1    2    0    0  0.00000000000E+00  0.00000000000E+00  0.18121694772E+03  0.35082136365E+04  0.35035301251E+04 0.  0.
        4    1    3    3  502    0  0.13405436742E+03 -0.15376543669E+04  0.92016491263E+03  0.17969575969E+04  0.12699999809E+01 0.  1.
       -4    1    3    3    0  502 -0.13405436742E+03  0.15376543669E+04 -0.73894796491E+03  0.17112560397E+04  0.12699999809E+01 0. -1.
</event>
<event>
 5   0  0.3190185E-07  0.3503084E+04  0.7818609E-02  0.8113060E-01
       -2   -1    0    0    0  501  0.00000000000E+00  0.00000000000E+00  0.14465045489E+04  0.14465045489E+04  0.25500000920E-02 0.  1.
        2   -1    0    0  501    0  0.00000000000E+00  0.00000000000E+00 -0.21209049490E+04  0.21209049490E+04  0.25500000920E-02 0. -1.
    10030    2    1    2    0    0  0.00000000000E+00  0.00000000000E+00 -0.67440040006E+03  0.35674094979E+04  0.35030835883E+04 0.  0.
        1    1    3    3  502    0  0.68521849615E+03 -0.10937980979E+04  0.86859450253E+03  0.15557554681E+04  0.50400001928E-02 0.  1.
       -1    1    3    3    0  502 -0.68521849615E+03  0.10937980979E+04 -0.15429949026E+04  0.20116540299E+04  0.50400001928E-02 0. -1.
</event>
<event>
 5   0  0.3190112E-07  0.3499514E+04  0.7818609E-02  0.8113905E-01
        2   -1    0    0  501    0  0.00000000000E+00  0.00000000000E+00  0.17311848613E+04  0.17311848613E+04  0.25500000920E-02 0. -1.
       -2   -1    0    0    0  501  0.00000000000E+00  0.00000000000E+00 -0.17685283085E+04  0.17685283085E+04  0.25500000920E-02 0.  1.
    10030    2    1    2    0    0  0.00000000000E+00  0.00000000000E+00 -0.37343447223E+02  0.34997131698E+04  0.34995139288E+04 0.  0.
        5    1    3    3  502    0  0.83481540179E+03 -0.54066074945E+03  0.14209923099E+04  0.17344947495E+04  0.46999998093E+01 0. -1.
       -5    1    3    3    0  502 -0.83481540179E+03  0.54066074945E+03 -0.14583357571E+04  0.17652184204E+04  0.46999998093E+01 0.  1.
</event>
<event>
 5   0  0.3190185E-07  0.3501850E+04  0.7818609E-02  0.8113352E-01
        2   -1    0    0  501    0  0.00000000000E+00  0.00000000000E+00  0.12861133176E+04  0.12861133176E+04  0.25500000920E-02 0.  1.
       -2   -1    0    0    0  501  0.00000000000E+00  0.00000000000E+00 -0.23837231434E+04  0.23837231434E+04  0.25500000920E-02 0. -1.
    10030    2    1    2    0    0  0.00000000000E+00  0.00000000000E+00 -0.10976098259E+04  0.36698364610E+04  0.35018498427E+04 0.  0.
        1    1    3    3  502    0  0.44611477079E+03  0.16442995818E+04 -0.12570679095E+03  0.17083739932E+04  0.50400001928E-02 0.  1.
       -1    1    3    3    0  502 -0.44611477079E+03 -0.16442995818E+04 -0.97190303490E+03  0.19614624678E+04  0.50400001928E-02 0. -1.
</event>
<event>
 5   0  0.1098171E-07  0.3506677E+04  0.7818609E-02  0.8112209E-01
        1   -1    0    0  501    0  0.00000000000E+00  0.00000000000E+00  0.21605680208E+04  0.21605680208E+04  0.50400001928E-02 0. -1.
       -1   -1    0    0    0  501  0.00000000000E+00  0.00000000000E+00 -0.14228647518E+04  0.14228647518E+04  0.50400001928E-02 0.  1.
    10030    2    1    2    0    0  0.00000000000E+00  0.00000000000E+00  0.73770326905E+03  0.35834327727E+04  0.35066771056E+04 0.  0.
        4    1    3    3  502    0 -0.23284121300E+03 -0.38763027671E+03  0.20999566413E+04  0.21480902612E+04  0.12699999809E+01 0. -1.
       -4    1    3    3    0  502  0.23284121300E+03  0.38763027671E+03 -0.13622533723E+04  0.14353425114E+04  0.12699999809E+01 0.  1.
</event>
<event>
 5   0  0.1072381E-07  0.3505305E+04  0.7818609E-02  0.8112534E-01
        1   -1    0    0  501    0  0.00000000000E+00  0.00000000000E+00  0.20070398171E+04  0.20070398171E+04  0.50400001928E-02 0.  1.
       -1   -1    0    0    0  501  0.00000000000E+00  0.00000000000E+00 -0.15305080623E+04  0.15305080623E+04  0.50400001928E-02 0. -1.
    10030    2    1    2    0    0  0.00000000000E+00  0.00000000000E+00  0.47653175475E+03  0.35375478794E+04  0.35053049062E+04 0.  0.
        1    1    3    3  502    0 -0.94811308613E+03 -0.14314026644E+04 -0.11705021232E+03  0.17209104463E+04  0.50400001928E-02 0. -1.
       -1    1    3    3    0  502  0.94811308613E+03  0.14314026644E+04  0.59358196707E+03  0.18166374331E+04  0.50400001928E-02 0.  1.
</event>
<event>
 5   0  0.1072381E-07  0.3492949E+04  0.7818609E-02  0.8115463E-01
       -1   -1    0    0    0  501  0.00000000000E+00  0.00000000000E+00  0.14057050108E+04  0.14057050108E+04  0.50400001928E-02 0. -1.
        1   -1    0    0  501    0  0.00000000000E+00  0.00000000000E+00 -0.21698532676E+04  0.21698532676E+04  0.50400001928E-02 0.  1.
    10030    2    1    2    0    0  0.00000000000E+00  0.00000000000E+00 -0.76414825681E+03  0.35755582785E+04  0.34929492473E+04 0.  0.
        1    1    3    3  502    0 -0.53238587262E+02 -0.14619485841E+04  0.59445041508E+03  0.15790817920E+04  0.50400001928E-02 0. -1.
       -1    1    3    3    0  502  0.53238587262E+02  0.14619485841E+04 -0.13585986719E+04  0.19964764865E+04  0.50400001928E-02 0.  1.
</event>
<event>
 5   0  0.3119048E-07  0.3524721E+04  0.7818609E-02  0.8107956E-01
        2   -1    0    0  501    0  0.00000000000E+00  0.00000000000E+00  0.19510466526E+04  0.19510466526E+04  0.25500000920E-02 0.  1.
       -2   -1    0    0    0  501  0.00000000000E+00  0.00000000000E+00 -0.15919222533E+04  0.15919222533E+04  0.25500000920E-02 0. -1.
    10030    2    1    2    0    0  0.00000000000E+00  0.00000000000E+00  0.35912439932E+03  0.35429689059E+04  0.35247210292E+04 0.  0.
        3    1    3    3  502    0 -0.39618172349E+03 -0.15149368497E+04 -0.63327808471E+03  0.16890928806E+04  0.10100000352E+00 0. -1.
       -3    1    3    3    0  502  0.39618172349E+03  0.15149368497E+04  0.99240248403E+03  0.18538760253E+04  0.10100000352E+00 0.  1.
</event>
<event>
 5   0  0.2180451E-07  0.3438768E+04  0.7818609E-02  0.8128456E-01
       -2   -1    0    0    0  501  0.00000000000E+00  0.00000000000E+00  0.22203495987E+04  0.22203495987E+04  0.25500000920E-02 0.  1.
        2   -1    0    0  501    0  0.00000000000E+00  0.00000000000E+00 -0.13314483973E+04  0.13314483973E+04  0.25500000920E-02 0. -1.
    10030    2    1    2    0    0  0.00000000000E+00  0.00000000000E+00  0.88890120140E+03  0.35517979960E+04  0.34387677529E+04 0.  0.
        4    1    3    3  502    0 -0.13621305301E+04 -0.10255901974E+04  0.21571149191E+03  0.17186529303E+04  0.12699999809E+01 0. -1.
       -4    1    3    3    0  502  0.13621305301E+04  0.10255901974E+04  0.67318970949E+03  0.18331450657E+04  0.12699999809E+01 0.  1.
</event>
<event>
 5   0  0.1033796E-07  0.3535951E+04  0.7818609E-02  0.8105323E-01
       -1   -1    0    0    0  501  0.00000000000E+00  0.00000000000E+00  0.10574680673E+04  0.10574680673E+04  0.50400001928E-02 0. -1.
        1   -1    0    0  501    0  0.00000000000E+00  0.00000000000E+00 -0.29558685691E+04  0.29558685691E+04  0.50400001928E-02 0.  1.
    10030    2    1    2    0    0  0.00000000000E+00  0.00000000000E+00 -0.18984005018E+04  0.40133366365E+04  0.35359505783E+04 0.  0.
        3    1    3    3  502    0 -0.10212039470E+04  0.20215987340E+03 -0.25711163645E+04  0.27738719303E+04  0.10100000352E+00 0.  1.
       -3    1    3    3    0  502  0.10212039470E+04 -0.20215987340E+03  0.67271586264E+03  0.12394647062E+04  0.10100000352E+00 0. -1.
</event>
<event>
 5   0  0.1033796E-07  0.3503661E+04  0.7818609E-02  0.8112923E-01
        1   -1    0    0  501    0  0.00000000000E+00  0.00000000000E+00  0.25757351479E+04  0.25757351479E+04  0.50400001928E-02 0. -1.
       -1   -1    0    0    0  501  0.00000000000E+00  0.00000000000E+00 -0.11914697441E+04  0.11914697441E+04  0.50400001928E-02 0.  1.
    10030    2    1    2    0    0  0.00000000000E+00  0.00000000000E+00  0.13842654038E+04  0.37672048921E+04  0.35036612266E+04 0.  0.
        3    1    3    3  502    0 -0.16278408212E+04  0.31463130529E+03  0.13004180176E+04  0.21071178486E+04  0.10100000352E+00 0. -1.
       -3    1    3    3    0  502  0.16278408212E+04 -0.31463130529E+03  0.83847386191E+02  0.16600870434E+04  0.10100000352E+00 0.  1.
</event>
<event>
 5   0  0.2180451E-07  0.3509888E+04  0.7818609E-02  0.8111451E-01
       -2   -1    0    0    0  501  0.00000000000E+00  0.00000000000E+00  0.12596112721E+04  0.12596112721E+04  0.25500000920E-02 0.  1.
        2   -1    0    0  501    0  0.00000000000E+00  0.00000000000E+00 -0.24450623747E+04  0.24450623747E+04  0.25500000920E-02 0. -1.
    10030    2    1    2    0    0  0.00000000000E+00  0.00000000000E+00 -0.11854511027E+04  0.37046736468E+04  0.35098878205E+04 0.  0.
        4    1    3    3  502    0  0.72115257269E+03 -0.15762613239E+04 -0.88210429955E+03  0.19449345496E+04  0.12699999809E+01 0. -1.
       -4    1    3    3    0  502 -0.72115257269E+03  0.15762613239E+04 -0.30334680312E+03  0.17597390972E+04  0.12699999809E+01 0.  1.
</event>
<event>
 5   0  0.1072381E-07  0.3485954E+04  0.7818609E-02  0.8117127E-01
        1   -1    0    0  501    0  0.00000000000E+00  0.00000000000E+00  0.19751391015E+04  0.19751391015E+04  0.50400001928E-02 0.  1.
       -1   -1    0    0    0  501  0.00000000000E+00  0.00000000000E+00 -0.15381039302E+04  0.15381039302E+04  0.50400001928E-02 0. -1.
    10030    2    1    2    0    0  0.00000000000E+00  0.00000000000E+00  0.43703517133E+03  0.35132430318E+04  0.34859542251E+04 0.  0.
        1    1    3    3  502    0  0.11465479830E+04  0.11367986850E+04  0.88022852661E+03  0.18389360474E+04  0.50400001928E-02 0.  1.
       -1    1    3    3    0  502 -0.11465479830E+04 -0.11367986850E+04 -0.44319335528E+03  0.16743069843E+04  0.50400001928E-02 0. -1.
</event>
<event>
 5   0  0.1013863E-07  0.3576696E+04  0.7818609E-02  0.8095851E-01
       -1   -1    0    0    0  501  0.00000000000E+00  0.00000000000E+00  0.16331046064E+04  0.16331046064E+04  0.50400001928E-02 0. -1.
        1   -1    0    0  501    0  0.00000000000E+00  0.00000000000E+00 -0.19583490462E+04  0.19583490462E+04  0.50400001928E-02 0.  1.
    10030    2    1    2    0    0  0.00000000000E+00  0.00000000000E+00 -0.32524443975E+03  0.35914536526E+04  0.35766961561E+04 0.  0.
        2    1    3    3  502    0  0.96757078644E+03  0.29493688460E+03  0.13182535704E+04  0.16616177264E+04  0.25500000920E-02 0. -1.
       -2    1    3    3    0  502 -0.96757078644E+03 -0.29493688460E+03 -0.16434980102E+04  0.19298359262E+04  0.25500000920E-02 0.  1.
</event>
<event>
 5   0  0.1098171E-07  0.3505889E+04  0.7818609E-02  0.8112396E-01
       -1   -1    0    0    0  501  0.00000000000E+00  0.00000000000E+00  0.15071113351E+04  0.15071113351E+04  0.50400001928E-02 0.  1.
        1   -1    0    0  501    0  0.00000000000E+00  0.00000000000E+00 -0.20388766590E+04  0.20388766590E+04  0.50400001928E-02 0. -1.
    10030    2    1    2    0    0  0.00000000000E+00  0.00000000000E+00 -0.53176532384E+03  0.35459879941E+04  0.35058888309E+04 0.  0.
        4    1    3    3  502    0 -0.76540836087E+03  0.12173194740E+04  0.74812879031E+03  0.16209302763E+04  0.12699999809E+01 0.  1.
       -4    1    3    3    0  502  0.76540836087E+03 -0.12173194740E+04 -0.12798941142E+04  0.19250577179E+04  0.12699999809E+01 0. -1.
</event>
<event>
 5   0  0.1013863E-07  0.3471221E+04  0.7818609E-02  0.8120644E-01
       -1   -1    0    0    0  501  0.00000000000E+00  0.00000000000E+00  0.13917997323E+04  0.13917997324E+04  0.50400001928E-02 0. -1.
        1   -1    0    0  501    0  0.00000000000E+00  0.00000000000E+00 -0.21643511018E+04  0.21643511018E+04  0.50400001928E-02 0.  1.
    10030    2    1    2    0    0  0.00000000000E+00  0.00000000000E+00 -0.77255136948E+03  0.35561508342E+04  0.34712206984E+04 0.  0.
        2    1    3    3  502    0  0.64566551091E+03 -0.89245042128E+03  0.98780587567E+03  0.14795648531E+04  0.25500000920E-02 0. -1.
       -2    1    3    3    0  502 -0.64566551091E+03  0.89245042128E+03 -0.17603572451E+04  0.20765859811E+04  0.25500000920E-02 0.  1.
</event>
<event>
 5   0  0.1098171E-07  0.3500173E+04  0.7818609E-02  0.8113749E-01
       -1   -1    0    0    0  501  0.00000000000E+00  0.00000000000E+00  0.23890143189E+04  0.23890143189E+04  0.50400001928E-02 0. -1.
        1   -1    0    0  501    0  0.00000000000E+00  0.00000000000E+00 -0.12820363682E+04  0.12820363682E+04  0.50400001928E-02 0.  1.
    10030    2    1    2    0    0  0.00000000000E+00  0.00000000000E+00  0.11069779507E+04  0.36710506871E+04  0.35001732763E+04 0.  0.
        4    1    3    3  502    0  0.15206076575E+04 -0.51188187985E+03  0.12865613690E+04  0.20565778556E+04  0.12699999809E+01 0. -1.
       -4    1    3    3    0  502 -0.15206076575E+04  0.51188187985E+03 -0.17958341834E+03  0.16144728316E+04  0.12699999809E+01 0.  1.
</event>
<event>
 5   0  0.1033796E-07  0.3500754E+04  0.7818609E-02  0.8113611E-01
        1   -1    0    0  501    0  0.00000000000E+00  0.00000000000E+00  0.23367875675E+04  0.23367875675E+04  0.50400001928E-02 0. -1.
       -1   -1    0    0    0  501  0.00000000000E+00  0.00000000000E+00 -0.13111247746E+04  0.13111247746E+04  0.50400001928E-02 0.  1.
    10030    2    1    2    0    0  0.00000000000E+00  0.00000000000E+00  0.10256627929E+04  0.36479123422E+04  0.35007542461E+04 0.  0.
        3    1    3    3  502    0  0.37624663792E+03  0.13060066382E+04 -0.63653263547E+03  0.15007960147E+04  0.10100000352E+00 0.  1.
       -3    1    3    3    0  502 -0.37624663792E+03 -0.13060066382E+04  0.16621954283E+04  0.21471163275E+04  0.10100000352E+00 0. -1.
</event>
<event>
 5   0  0.1098171E-07  0.3496445E+04  0.7818609E-02  0.8114633E-01
       -1   -1    0    0    0  501  0.00000000000E+00  0.00000000000E+00  0.14433009410E+04  0.14433009410E+04  0.50400001928E-02 0. -1.
        1   -1    0    0  501    0  0.00000000000E+00  0.00000000000E+00 -0.21175637101E+04  0.21175637101E+04  0.50400001928E-02 0.  1.
    10030    2    1    2    0    0  0.00000000000E+00  0.00000000000E+00 -0.67426276910E+03  0.35608646512E+04  0.34964448776E+04 0.  0.
        4    1    3    3  502    0  0.11619118182E+04  0.11699176998E+04  0.25454914300E+03  0.16683954497E+04  0.12699999809E+01 0. -1.
       -4    1    3    3    0  502 -0.11619118182E+04 -0.11699176998E+04 -0.92881191210E+03  0.18924692015E+04  0.12699999809E+01 0.  1.
</event>
<event>
 5   0  0.3119048E-07  0.3492120E+04  0.7818609E-02  0.8115660E-01
        2   -1    0    0  501    0  0.00000000000E+00  0.00000000000E+00  0.13453700525E+04  0.13453700525E+04  0.25500000920E-02 0. -1.
       -2   -1    0    0    0  501  0.00000000000E+00  0.00000000000E+00 -0.22660872929E+04  0.22660872929E+04  0.25500000920E-02 0.  1.
    10030    2    1    2    0    0  0.00000000000E+00  0.00000000000E+00 -0.92071724043E+03  0.36114573454E+04  0.34921202615E+04 0.  0.
        3    1    3    3  502    0  0.25587130675E+03 -0.33972848484E+03 -0.22116999134E+04  0.22522215891E+04  0.10100000352E+00 0.  1.
       -3    1    3    3    0  502 -0.25587130675E+03  0.33972848484E+03  0.12909826730E+04  0.13592357563E+04  0.10100000352E+00 0. -1.
</event>
<event>
 5   0  0.1013863E-07  0.3502290E+04  0.7818609E-02  0.8113247E-01
        1   -1    0    0  501    0  0.00000000000E+00  0.00000000000E+00  0.99484004106E+03  0.99484004108E+03  0.50400001928E-02 0. -1.
       -1   -1    0    0    0  501  0.00000000000E+00  0.00000000000E+00 -0.30824140794E+04  0.30824140794E+04  0.50400001928E-02 0.  1.
    10030    2    1    2    0    0  0.00000000000E+00  0.00000000000E+00 -0.20875740384E+04  0.40772541205E+04  0.35022900790E+04 0.  0.
        2    1    3    3  502    0 -0.24692744167E+03  0.15629459017E+04 -0.17047793857E+03  0.15914885425E+04  0.25500000920E-02 0. -1.
       -2    1    3    3    0  502  0.24692744167E+03 -0.15629459017E+04 -0.19170960998E+04  0.24857655781E+04  0.25500000920E-02 0.  1.
</event>
<event>
 5   0  0.1033796E-07  0.3510739E+04  0.7818609E-02  0.8111250E-01
        1   -1    0    0  501    0  0.00000000000E+00  0.00000000000E+00  0.10553581876E+04  0.10553581876E+04  0.50400001928E-02 0. -1.
       -1   -1    0    0    0  501  0.00000000000E+00  0.00000000000E+00 -0.29196937128E+04  0.29196937128E+04  0.50400001928E-02 0.  1.
    10030    2    1    2    0    0  0.00000000000E+00  0.00000000000E+00 -0.18643355252E+04  0.39750519004E+04  0.35107393324E+04 0.  0.
        3    1    3    3  502    0  0.14071910679E+04  0.10129735501E+04 -0.62204452326E+03  0.18420753280E+04  0.10100000352E+00 0. -1.
       -3    1    3    3    0  502 -0.14071910679E+04 -0.10129735501E+04 -0.12422910019E+04  0.21329765724E+04  0.10100000352E+00 0.  1.
</event>
<event>
 5   0  0.3190112E-07  0.3500663E+04  0.7818609E-02  0.8113633E-01
        2   -1    0    0  501    0  0.00000000000E+00  0.00000000000E+00  0.25190058390E+04  0.25190058390E+04  0.25500000920E-02 0. -1.
       -2   -1    0    0    0  501  0.00000000000E+00  0.00000000000E+00 -0.12162176995E+04  0.12162176995E+04  0.25500000920E-02 0.  1.
    10030    2    1    2    0    0  0.00000000000E+00  0.00000000000E+00  0.13027881395E+04  0.37352235385E+04  0.35006625011E+04 0.  0.
        5    1    3    3  502    0 -0.13984658820E+04  0.69699437162E+03 -0.19020786398E+03  0.15740740449E+04  0.46999998093E+01 0.  1.
       -5    1    3    3    0  502  0.13984658820E+04 -0.69699437162E+03  0.14929960035E+04  0.21611494936E+04  0.46999998093E+01 0. -1.
</event>
<event>
 5   0  0.2180451E-07  0.3425503E+04  0.7818609E-02  0.8131675E-01
       -2   -1    0    0    0  501  0.00000000000E+00  0.00000000000E+00  0.23023685919E+04  0.23023685919E+04  0.25500000920E-02 0.  1.
        2   -1    0    0  501    0  0.00000000000E+00  0.00000000000E+00 -0.12741306748E+04  0.12741306748E+04  0.25500000920E-02 0. -1.
    10030    2    1    2    0    0  0.00000000000E+00  0.00000000000E+00  0.10282379172E+04  0.35764992667E+04  0.34255034361E+04 0.  0.
        4    1    3    3  502    0  0.77964956310E+03 -0.13839719007E+04  0.11828887434E+04  0.19805198952E+04  0.12699999809E+01 0.  1.
       -4    1    3    3    0  502 -0.77964956310E+03  0.13839719007E+04 -0.15465082624E+03  0.15959793715E+04  0.12699999809E+01 0. -1.
</event>
<event>
 5   0  0.1013863E-07  0.3497578E+04  0.7818609E-02  0.8114364E-01
       -3   -1    0    0    0  501  0.00000000000E+00  0.00000000000E+00  0.24172322516E+04  0.24172322537E+04  0.10100000352E+00 0.  1.
        3   -1    0    0  501    0  0.00000000000E+00  0.00000000000E+00 -0.12651923652E+04  0.12651923693E+04  0.10100000352E+00 0. -1.
    10030    2    1    2    0    0  0.00000000000E+00  0.00000000000E+00  0.11520398863E+04  0.36824246230E+04  0.34975784772E+04 0.  0.
        5    1    3    3  502    0 -0.42521253211E+03  0.75240567063E+03 -0.10246308654E+04  0.13404515996E+04  0.46999998093E+01 0. -1.
       -5    1    3    3    0  502  0.42521253211E+03 -0.75240567063E+03  0.21766707517E+04  0.23419730233E+04  0.46999998093E+01 0.  1.
</event>
<event>
 5   0  0.1072381E-07  0.3514858E+04  0.7818609E-02  0.8110278E-01
        1   -1    0    0  501    0  0.00000000000E+00  0.00000000000E+00  0.11892344697E+04  0.11892344697E+04  0.50400001928E-02 0.  1.
       -1   -1    0    0    0  501  0.00000000000E+00  0.00000000000E+00 -0.25970966853E+04  0.25970966853E+04  0.50400001928E-02 0. -1.
    10030    2    1    2    0    0  0.00000000000E+00  0.00000000000E+00 -0.14078622156E+04  0.37863311549E+04  0.35148581190E+04 0.  0.
        1    1    3    3  502    0  0.51126036499E+03  0.14380202574E+04 -0.16425908562E+04  0.22421851267E+04  0.50400001928E-02 0.  1.
       -1    1    3    3    0  502 -0.51126036499E+03 -0.14380202574E+04  0.23472864063E+03  0.15441460282E+04  0.50400001928E-02 0. -1.
</event>
<event>
 5   0  0.3219205E-07  0.3497994E+04  0.7818609E-02  0.8114266E-01
        2   -1    0    0  501    0  0.00000000000E+00  0.00000000000E+00  0.19273921756E+04  0.19273921756E+04  0.25500000920E-02 0. -1.
       -2   -1    0    0    0  501  0.00000000000E+00  0.00000000000E+00 -0.15871136930E+04  0.15871136930E+04  0.25500000920E-02 0.  1.
    10030    2    1    2    0    0  0.00000000000E+00  0.00000000000E+00  0.34027848259E+03  0.35145058687E+04  0.34979940045E+04 0.  0.
        2    1    3    3  502    0 -0.76136888312E+03  0.60685575556E+03 -0.12896589767E+04  0.16159135993E+04  0.25500000920E-02 0.  1.
       -2    1    3    3    0  502  0.76136888312E+03 -0.60685575556E+03  0.16299374593E+04  0.18985922694E+04  0.25500000920E-02 0. -1.
</event>
<event>
 5   0  0.1013863E-07  0.3508691E+04  0.7818609E-02  0.8111733E-01
        1   -1    0    0  501    0  0.00000000000E+00  0.00000000000E+00  0.16713193628E+04  0.16713193628E+04  0.50400001928E-02 0.  1.
       -1   -1    0    0    0  501  0.00000000000E+00  0.00000000000E+00 -0.18414960032E+04  0.18414960032E+04  0.50400001928E-02 0. -1.
    10030    2    1    2    0    0  0.00000000000E+00  0.00000000000E+00 -0.17017664038E+03  0.35128153659E+04  0.35086908821E+04 0.  0.
        5    1    3    3  502    0 -0.11521546527E+03  0.51912905965E+03  0.15886831809E+04  0.16753226326E+04  0.46999998093E+01 0.  1.
       -5    1    3    3    0  502  0.11521546527E+03 -0.51912905965E+03 -0.17588598213E+04  0.18374927333E+04  0.46999998093E+01 0. -1.
</event>
<event>
 5   0  0.1098171E-07  0.3492598E+04  0.7818609E-02  0.8115546E-01
       -1   -1    0    0    0  501  0.00000000000E+00  0.00000000000E+00  0.23787425150E+04  0.23787425151E+04  0.50400001928E-02 0. -1.
        1   -1    0    0  501    0  0.00000000000E+00  0.00000000000E+00 -0.12820054782E+04  0.12820054782E+04  0.50400001928E-02 0.  1.
    10030    2    1    2    0    0  0.00000000000E+00  0.00000000000E+00  0.10967370368E+04  0.36607479933E+04  0.34925984227E+04 0.  0.
        4    1    3    3  502    0  0.14065623526E+04  0.72329170368E+03  0.13242721885E+04  0.20628298482E+04  0.12699999809E+01 0. -1.
       -4    1    3    3    0  502 -0.14065623526E+04 -0.72329170368E+03 -0.22753515165E+03  0.15979181451E+04  0.12699999809E+01 0.  1.
</event>
<event>
 5   0  0.1072381E-07  0.3521960E+04  0.7818609E-02  0.8108605E-01
        1   -1    0    0  501    0  0.00000000000E+00  0.00000000000E+00  0.21910006672E+04  0.21910006672E+04  0.50400001928E-02 0. -1.
       -1   -1    0    0    0  501  0.00000000000E+00  0.00000000000E+00 -0.14153579774E+04  0.14153579774E+04  0.50400001928E-02 0.  1.
    10030    2    1    2    0    0  0.00000000000E+00  0.00000000000E+00  0.77564268983E+03  0.36063586446E+04  0.35219598367E+04 0.  0.
        1    1    3    3  502    0 -0.48722181301E+03 -0.50893733135E+03 -0.12647454891E+04  0.14477511715E+04  0.50400001928E-02 0.  1.
       -1    1    3    3    0  502  0.48722181301E+03  0.50893733135E+03  0.20403881789E+04  0.21586074731E+04  0.50400001928E-02 0. -1.
</event>
<event>
 5   0  0.1013863E-07  0.3523207E+04  0.7818609E-02  0.8108312E-01
        3   -1    0    0  501    0  0.00000000000E+00  0.00000000000E+00  0.18775718982E+04  0.18775719009E+04  0.10100000352E+00 0. -1.
       -3   -1    0    0    0  501  0.00000000000E+00  0.00000000000E+00 -0.16527979082E+04  0.16527979112E+04  0.10100000352E+00 0.  1.
    10030    2    1    2    0    0  0.00000000000E+00  0.00000000000E+00  0.22477399005E+03  0.35303698122E+04  0.35232070141E+04 0.  0.
        2    1    3    3  502    0  0.14395148293E+04 -0.81986558801E+03  0.71265780036E+03  0.18034033566E+04  0.25500000920E-02 0. -1.
       -2    1    3    3    0  502 -0.14395148293E+04  0.81986558801E+03 -0.48788381031E+03  0.17269664556E+04  0.25500000920E-02 0.  1.
</event>
<event>
 5   0  0.3119048E-07  0.3463830E+04  0.7818609E-02  0.8122416E-01
       -2   -1    0    0    0  501  0.00000000000E+00  0.00000000000E+00  0.23474378198E+04  0.23474378198E+04  0.25500000920E-02 0.  1.
        2   -1    0    0  501    0  0.00000000000E+00  0.00000000000E+00 -0.12777888510E+04  0.12777888510E+04  0.25500000920E-02 0. -1.
    10030    2    1    2    0    0  0.00000000000E+00  0.00000000000E+00  0.10696489688E+04  0.36252266709E+04  0.34638301775E+04 0.  0.
        3    1    3    3  502    0 -0.24410377704E+03 -0.83177721811E+03 -0.10344012049E+04  0.13496021108E+04  0.10100000352E+00 0. -1.
       -3    1    3    3    0  502  0.24410377704E+03  0.83177721811E+03  0.21040501737E+04  0.22756245601E+04  0.10100000352E+00 0.  1.
</event>
<event>
 5   0  0.2180451E-07  0.3544863E+04  0.7818609E-02  0.8103240E-01
        2   -1    0    0  501    0  0.00000000000E+00  0.00000000000E+00  0.22497354028E+04  0.22497354028E+04  0.25500000920E-02 0.  1.
       -2   -1    0    0    0  501  0.00000000000E+00  0.00000000000E+00 -0.13963924754E+04  0.13963924754E+04  0.25500000920E-02 0. -1.
    10030    2    1    2    0    0  0.00000000000E+00  0.00000000000E+00  0.85334292739E+03  0.36461278782E+04  0.35448630937E+04 0.  0.
        4    1    3    3  502    0 -0.25316638979E+03 -0.11172372607E+04  0.18177863086E+04  0.21486416626E+04  0.12699999809E+01 0.  1.
       -4    1    3    3    0  502  0.25316638979E+03  0.11172372607E+04 -0.96444338121E+03  0.14974862157E+04  0.12699999809E+01 0. -1.
</event>
<event>
 5   0  0.1098171E-07  0.3500002E+04  0.7818609E-02  0.8113790E-01
       -1   -1    0    0    0  501  0.00000000000E+00  0.00000000000E+00  0.11824370120E+04  0.11824370120E+04  0.50400001928E-02 0.  1.
        1   -1    0    0  501    0  0.00000000000E+00  0.00000000000E+00 -0.25899926125E+04  0.25899926126E+04  0.50400001928E-02 0. -1.
    10030    2    1    2    0    0  0.00000000000E+00  0.00000000000E+00 -0.14075556006E+04  0.37724296245E+04  0.35000017862E+04 0.  0.
        4    1    3    3  502    0 -0.15204280424E+04 -0.77749804300E+03 -0.29151855526E+03  0.17323941007E+04  0.12699999809E+01 0.  1.
       -4    1    3    3    0  502  0.15204280424E+04  0.77749804300E+03 -0.11160370453E+04  0.20400355238E+04  0.12699999809E+01 0. -1.
</event>
<event>
 5   0  0.1033796E-07  0.3503021E+04  0.7818609E-02  0.8113074E-01
        1   -1    0    0  501    0  0.00000000000E+00  0.00000000000E+00  0.18445373320E+04  0.18445373320E+04  0.50400001928E-02 0.  1.
       -1   -1    0    0    0  501  0.00000000000E+00  0.00000000000E+00 -0.16631751259E+04  0.16631751259E+04  0.50400001928E-02 0. -1.
    10030    2    1    2    0    0  0.00000000000E+00  0.00000000000E+00  0.18136220610E+03  0.35077124579E+04  0.35030207590E+04 0.  0.
        3    1    3    3  502    0 -0.15030074803E+04  0.60775572460E+03  0.75443396150E+03  0.17881748010E+04  0.10100000352E+00 0.  1.
       -3    1    3    3    0  502  0.15030074803E+04 -0.60775572460E+03 -0.57307175540E+03  0.17195376569E+04  0.10100000352E+00 0. -1.
</event>
<event>
 5   0  0.3190185E-07  0.3498354E+04  0.7818609E-02  0.8114180E-01
        2   -1    0    0  501    0  0.00000000000E+00  0.00000000000E+00  0.26235200977E+04  0.26235200977E+04  0.25500000920E-02 0.  1.
       -2   -1    0    0    0  501  0.00000000000E+00  0.00000000000E+00 -0.11662271081E+04  0.11662271081E+04  0.25500000920E-02 0. -1.
    10030    2    1    2    0    0  0.00000000000E+00  0.00000000000E+00  0.14572929896E+04  0.37897472059E+04  0.34983540454E+04 0.  0.
        1    1    3    3  502    0  0.26124033810E+02 -0.81349615615E+03 -0.94859329103E+03  0.12499150743E+04  0.50400001928E-02 0. -1.
       -1    1    3    3    0  502 -0.26124033810E+02  0.81349615615E+03  0.24058862806E+04  0.25398321316E+04  0.50400001928E-02 0.  1.
</event>
<event>
 5   0  0.1013863E-07  0.3534119E+04  0.7818609E-02  0.8105751E-01
       -1   -1    0    0    0  501  0.00000000000E+00  0.00000000000E+00  0.11644065010E+04  0.11644065010E+04  0.50400001928E-02 0. -1.
        1   -1    0    0  501    0  0.00000000000E+00  0.00000000000E+00 -0.26816235066E+04  0.26816235067E+04  0.50400001928E-02 0.  1.
    10030    2    1    2    0    0  0.00000000000E+00  0.00000000000E+00 -0.15172170056E+04  0.38460300077E+04  0.35341193214E+04 0.  0.
        2    1    3    3  502    0  0.78799583321E+03  0.12421688485E+04 -0.18240887602E+04  0.23433353764E+04  0.25500000920E-02 0.  1.
       -2    1    3    3    0  502 -0.78799583321E+03 -0.12421688485E+04  0.30687175453E+03  0.15026946313E+04  0.25500000920E-02 0. -1.
</event>
<event>
 5   0  0.3119048E-07  0.3495332E+04  0.7818609E-02  0.8114897E-01
       -2   -1    0    0    0  501  0.00000000000E+00  0.00000000000E+00  0.15792842020E+04  0.15792842020E+04  0.25500000920E-02 0. -1.
        2   -1    0    0  501    0  0.00000000000E+00  0.00000000000E+00 -0.19340010044E+04  0.19340010044E+04  0.25500000920E-02 0.  1.
    10030    2    1    2    0    0  0.00000000000E+00  0.00000000000E+00 -0.35471680242E+03  0.35132852064E+04  0.34953324493E+04 0.  0.
        3    1    3    3  502    0  0.41463550840E+03 -0.88676461587E+03  0.12778563819E+04  0.16097176869E+04  0.10100000352E+00 0. -1.
       -3    1    3    3    0  502 -0.41463550840E+03  0.88676461587E+03 -0.16325731843E+04  0.19035675194E+04  0.10100000352E+00 0.  1.
</event>
<event>
 5   0  0.1013863E-07  0.3505286E+04  0.7818609E-02  0.8112538E-01
       -1   -1    0    0    0  501  0.00000000000E+00  0.00000000000E+00  0.16254042002E+04  0.16254042002E+04  0.50400001928E-02 0. -1.
        1   -1    0    0  501    0  0.00000000000E+00  0.00000000000E+00 -0.18898422660E+04  0.18898422660E+04  0.50400001928E-02 0.  1.
    10030    2    1    2    0    0  0.00000000000E+00  0.00000000000E+00 -0.26443806578E+03  0.35152464662E+04  0.35052860408E+04 0.  0.
        5    1    3    3  502    0 -0.52548591489E+03  0.10599303775E+04  0.11645708805E+04  0.16600708652E+04  0.46999998093E+01 0. -1.
       -5    1    3    3    0  502  0.52548591489E+03 -0.10599303775E+04 -0.14290089463E+04  0.18551756010E+04  0.46999998093E+01 0.  1.
</event>
<event>
 5   0  0.1013863E-07  0.3494505E+04  0.7818609E-02  0.8115093E-01
        1   -1    0    0  501    0  0.00000000000E+00  0.00000000000E+00  0.16684392829E+04  0.16684392829E+04  0.50400001928E-02 0.  1.
       -1   -1    0    0    0  501  0.00000000000E+00  0.00000000000E+00 -0.18297889353E+04  0.18297889353E+04  0.50400001928E-02 0. -1.
    10030    2    1    2    0    0  0.00000000000E+00  0.00000000000E+00 -0.16134965239E+03  0.34982282182E+04  0.34945052520E+04 0.  0.
        2    1    3    3  502    0  0.70465627701E+03 -0.10364762110E+03  0.15165212784E+04  0.16754462349E+04  0.25500000920E-02 0.  1.
       -2    1    3    3    0  502 -0.70465627701E+03  0.10364762110E+03 -0.16778709308E+04  0.18227819833E+04  0.25500000920E-02 0. -1.
</event>
<event>
 5   0  0.3119048E-07  0.3521808E+04  0.7818609E-02  0.8108641E-01
       -2   -1    0    0    0  501  0.00000000000E+00  0.00000000000E+00  0.12528926802E+04  0.12528926802E+04  0.25500000920E-02 0. -1.
        2   -1    0    0  501    0  0.00000000000E+00  0.00000000000E+00 -0.24748984935E+04  0.24748984935E+04  0.25500000920E-02 0.  1.
    10030    2    1    2    0    0  0.00000000000E+00  0.00000000000E+00 -0.12220058132E+04  0.37277911737E+04  0.35218076079E+04 0.  0.
        3    1    3    3  502    0  0.19532903096E+03  0.12467980368E+04  0.68888047276E+03  0.14377813084E+04  0.10100000352E+00 0. -1.
       -3    1    3    3    0  502 -0.19532903096E+03 -0.12467980368E+04 -0.19108862860E+04  0.22900098653E+04  0.10100000352E+00 0.  1.
</event>
<event>
 5   0  0.1072381E-07  0.3493841E+04  0.7818609E-02  0.8115251E-01
       -1   -1    0    0    0  501  0.00000000000E+00  0.00000000000E+00  0.10329696242E+04  0.10329696242E+04  0.50400001928E-02 0.  1.
        1   -1    0    0  501    0  0.00000000000E+00  0.00000000000E+00 -0.29543282851E+04  0.29543282851E+04  0.50400001928E-02 0. -1.
    10030    2    1    2    0    0  0.00000000000E+00  0.00000000000E+00 -0.19213586609E+04  0.39872979093E+04  0.34938410830E+04 0.  0.
        1    1    3    3  502    0 -0.77501534991E+03  0.84347155800E+03  0.54455813743E+03  0.12683203960E+04  0.50400001928E-02 0.  1.
       -1    1    3    3    0  502  0.77501534991E+03 -0.84347155800E+03 -0.24659167983E+04  0.27189775133E+04  0.50400001928E-02 0. -1.
</event>
<event>
 5   0  0.1072381E-07  0.3679022E+04  0.7818609E-02  0.8072627E-01
        1   -1    0    0  501    0  0.00000000000E+00  0.00000000000E+00  0.19756647670E+04  0.19756647670E+04  0.50400001928E-02 0.  1.
       -1   -1    0    0    0  501  0.00000000000E+00  0.00000000000E+00 -0.17127403608E+04  0.17127403608E+04  0.50400001928E-02 0. -1.
    10030    2    1    2    0    0  0.00000000000E+00  0.00000000000E+00  0.26292440622E+03  0.36884051278E+04  0.36790220363E+04 0.  0.
        1    1    3    3  502    0  0.15967733696E+04  0.91122197399E+03  0.69741350191E+02  0.18398028524E+04  0.50400001928E-02 0.  1.
       -1    1    3    3    0  502 -0.15967733696E+04 -0.91122197399E+03  0.19318305603E+03  0.18486022755E+04  0.50400001928E-02 0. -1.
</event>
<event>
 5   0  0.3119048E-07  0.3515218E+04  0.7818609E-02  0.8110193E-01
       -2   -1    0    0    0  501  0.00000000000E+00  0.00000000000E+00  0.10748925297E+04  0.10748925297E+04  0.25500000920E-02 0. -1.
        2   -1    0    0  501    0  0.00000000000E+00  0.00000000000E+00 -0.28739516707E+04  0.28739516707E+04  0.25500000920E-02 0.  1.
    10030    2    1    2    0    0  0.00000000000E+00  0.00000000000E+00 -0.17990591410E+04  0.39488442004E+04  0.35152178775E+04 0.  0.
        3    1    3    3  502    0  0.17280006778E+04 -0.29793224606E+03 -0.76454336119E+03  0.19129235550E+04  0.10100000352E+00 0. -1.
       -3    1    3    3    0  502 -0.17280006778E+04  0.29793224606E+03 -0.10345157798E+04  0.20359206455E+04  0.10100000352E+00 0.  1.
</event>
<event>
 5   0  0.1013863E-07  0.3477273E+04  0.7818609E-02  0.8119197E-01
       -1   -1    0    0    0  501  0.00000000000E+00  0.00000000000E+00  0.13294214289E+04  0.13294214289E+04  0.50400001928E-02 0.  1.
        1   -1    0    0  501    0  0.00000000000E+00  0.00000000000E+00 -0.22738132769E+04  0.22738132769E+04  0.50400001928E-02 0. -1.
    10030    2    1    2    0    0  0.00000000000E+00  0.00000000000E+00 -0.94439184805E+03  0.36032347058E+04  0.34772725493E+04 0.  0.
        2    1    3    3  502    0  0.35869051754E+03 -0.83117337602E+03  0.10659423193E+04  0.13984781358E+04  0.25500000920E-02 0.  1.
       -2    1    3    3    0  502 -0.35869051754E+03  0.83117337602E+03 -0.20103341673E+04  0.22047565700E+04  0.25500000920E-02 0. -1.
</event>
<event>
 5   0  0.1072381E-07  0.3542977E+04  0.7818609E-02  0.8103680E-01
       -1   -1    0    0    0  501  0.00000000000E+00  0.00000000000E+00  0.16450657201E+04  0.16450657201E+04  0.50400001928E-02 0. -1.
        1   -1    0    0  501    0  0.00000000000E+00  0.00000000000E+00 -0.19076272861E+04  0.19076272861E+04  0.50400001928E-02 0.  1.
    10030    2    1    2    0    0  0.00000000000E+00  0.00000000000E+00 -0.26256156594E+03  0.35526930062E+04  0.35429774231E+04 0.  0.
        1    1    3    3  502    0 -0.12663619225E+04 -0.52452162818E+03  0.99401616262E+03  0.16931814991E+04  0.50400001928E-02 0.  1.
       -1    1    3    3    0  502  0.12663619225E+04  0.52452162818E+03 -0.12565777286E+04  0.18595115071E+04  0.50400001928E-02 0. -1.
</event>
<event>
 5   0  0.3119048E-07  0.3498484E+04  0.7818609E-02  0.8114149E-01
        2   -1    0    0  501    0  0.00000000000E+00  0.00000000000E+00  0.22030336290E+04  0.22030336290E+04  0.25500000920E-02 0.  1.
       -2   -1    0    0    0  501  0.00000000000E+00  0.00000000000E+00 -0.13889244839E+04  0.13889244839E+04  0.25500000920E-02 0. -1.
    10030    2    1    2    0    0  0.00000000000E+00  0.00000000000E+00  0.81410914515E+03  0.35919581129E+04  0.34984838694E+04 0.  0.
        3    1    3    3  502    0 -0.61576283177E+03  0.55979214639E+03  0.19867724206E+04  0.21540185175E+04  0.10100000352E+00 0.  1.
       -3    1    3    3    0  502  0.61576283177E+03 -0.55979214639E+03 -0.11726632755E+04  0.14379395954E+04  0.10100000352E+00 0. -1.
</event>
<event>
 5   0  0.1013863E-07  0.3484050E+04  0.7818609E-02  0.8117580E-01
       -1   -1    0    0    0  501  0.00000000000E+00  0.00000000000E+00  0.20541471899E+04  0.20541471899E+04  0.50400001928E-02 0.  1.
        1   -1    0    0  501    0  0.00000000000E+00  0.00000000000E+00 -0.14773287051E+04  0.14773287051E+04  0.50400001928E-02 0. -1.
    10030    2    1    2    0    0  0.00000000000E+00  0.00000000000E+00  0.57681848480E+03  0.35314758949E+04  0.34840497172E+04 0.  0.
        5    1    3    3  502    0 -0.46997140115E+03  0.14661899877E+04 -0.53757123303E+03  0.16308252876E+04  0.46999998093E+01 0. -1.
       -5    1    3    3    0  502  0.46997140115E+03 -0.14661899877E+04  0.11143897178E+04  0.19006506074E+04  0.46999998093E+01 0.  1.
</event>
<event>
 5   0  0.3190185E-07  0.3488398E+04  0.7818609E-02  0.8116545E-01
        2   -1    0    0  501    0  0.00000000000E+00  0.00000000000E+00  0.18815857341E+04  0.18815857341E+04  0.25500000920E-02 0. -1.
       -2   -1    0    0    0  501  0.00000000000E+00  0.00000000000E+00 -0.16168437708E+04  0.16168437708E+04  0.25500000920E-02 0.  1.
    10030    2    1    2    0    0  0.00000000000E+00  0.00000000000E+00  0.26474196337E+03  0.34984295049E+04  0.34883980125E+04 0.  0.
        1    1    3    3  502    0 -0.15070535329E+04 -0.59895457497E+03 -0.51156051702E+03  0.17004855472E+04  0.50400001928E-02 0. -1.
       -1    1    3    3    0  502  0.15070535329E+04  0.59895457497E+03  0.77630248039E+03  0.17979439576E+04  0.50400001928E-02 0.  1.
</event>
<event>
 5   0  0.1013863E-07  0.3495778E+04  0.7818609E-02  0.8114791E-01
       -1   -1    0    0    0  501  0.00000000000E+00  0.00000000000E+00  0.23663619208E+04  0.23663619208E+04  0.50400001928E-02 0.  1.
        1   -1    0    0  501    0  0.00000000000E+00  0.00000000000E+00 -0.12910603983E+04  0.12910603983E+04  0.50400001928E-02 0. -1.
    10030    2    1    2    0    0  0.00000000000E+00  0.00000000000E+00  0.10753015225E+04  0.36574223190E+04  0.34957781187E+04 0.  0.
        2    1    3    3  502    0 -0.16403460538E+04  0.49877884477E+03  0.18192821525E+03  0.17241268480E+04  0.25500000920E-02 0. -1.
       -2    1    3    3    0  502  0.16403460538E+04 -0.49877884477E+03  0.89337330727E+03  0.19332954711E+04  0.25500000920E-02 0.  1.
</event>
<event>
 5   0  0.1013863E-07  0.3498793E+04  0.7818609E-02  0.8114076E-01
        1   -1    0    0  501    0  0.00000000000E+00  0.00000000000E+00  0.27193422962E+04  0.27193422962E+04  0.50400001928E-02 0. -1.
       -1   -1    0    0    0  501  0.00000000000E+00  0.00000000000E+00 -0.11254146412E+04  0.11254146412E+04  0.50400001928E-02 0.  1.
    10030    2    1    2    0    0  0.00000000000E+00  0.00000000000E+00  0.15939276550E+04  0.38447569374E+04  0.34987927258E+04 0.  0.
        2    1    3    3  502    0 -0.11506545935E+04  0.79756450684E+03 -0.35569505991E+03  0.14445186436E+04  0.25500000920E-02 0.  1.
       -2    1    3    3    0  502  0.11506545935E+04 -0.79756450684E+03  0.19496227149E+04  0.24002382937E+04  0.25500000920E-02 0. -1.
</event>
<event>
 5   0  0.1098171E-07  0.3505459E+04  0.7818609E-02  0.8112497E-01
       -1   -1    0    0    0  501  0.00000000000E+00  0.00000000000E+00  0.13644016416E+04  0.13644016416E+04  0.50400001928E-02 0.  1.
        1   -1    0    0  501    0  0.00000000000E+00  0.00000000000E+00 -0.22515809131E+04  0.22515809132E+04  0.50400001928E-02 0. -1.
    10030    2    1    2    0    0  0.00000000000E+00  0.00000000000E+00 -0.88717927158E+03  0.36159825547E+04  0.35054589965E+04 0.  0.
        4    1    3    3  502    0  0.16270278476E+02 -0.17290561980E+04 -0.73926086623E+03  0.18805340463E+04  0.12699999809E+01 0.  1.
       -4    1    3    3    0  502 -0.16270278476E+02  0.17290561980E+04 -0.14791840535E+03  0.17354485085E+04  0.12699999809E+01 0. -1.
</event>
<event>
 5   0  0.1013863E-07  0.3495012E+04  0.7818609E-02  0.8114973E-01
        1   -1    0    0  501    0  0.00000000000E+00  0.00000000000E+00  0.23614610676E+04  0.23614610676E+04  0.50400001928E-02 0. -1.
       -1   -1    0    0    0  501  0.00000000000E+00  0.00000000000E+00 -0.12931726079E+04  0.12931726079E+04  0.50400001928E-02 0.  1.
    10030    2    1    2    0    0  0.00000000000E+00  0.00000000000E+00  0.10682884597E+04  0.36546336755E+04  0.34950117408E+04 0.  0.
        2    1    3    3  502    0 -0.15112365081E+04 -0.50096015341E+03 -0.21916013741E+03  0.16071179249E+04  0.25500000920E-02 0. -1.
       -2    1    3    3    0  502  0.15112365081E+04  0.50096015341E+03  0.12874485971E+04  0.20475157506E+04  0.25500000920E-02 0.  1.
</event>
<event>
 5   0  0.3219205E-07  0.3516537E+04  0.7818609E-02  0.8109882E-01
       -2   -1    0    0    0  501  0.00000000000E+00  0.00000000000E+00  0.11046356917E+04  0.11046356917E+04  0.25500000920E-02 0.  1.
        2   -1    0    0  501    0  0.00000000000E+00  0.00000000000E+00 -0.27986677445E+04  0.27986677445E+04  0.25500000920E-02 0. -1.
    10030    2    1    2    0    0  0.00000000000E+00  0.00000000000E+00 -0.16940320528E+04  0.39033034363E+04  0.35165370920E+04 0.  0.
        2    1    3    3  502    0 -0.61978359053E+03 -0.12156711988E+04  0.38377672751E+03  0.14174881796E+04  0.25500000920E-02 0.  1.
       -2    1    3    3    0  502  0.61978359053E+03  0.12156711988E+04 -0.20778087803E+04  0.24858152566E+04  0.25500000920E-02 0. -1.
</event>
<event>
 5   0  0.3190185E-07  0.3521024E+04  0.7818609E-02  0.8108826E-01
       -2   -1    0    0    0  501  0.00000000000E+00  0.00000000000E+00  0.14716173948E+04  0.14716173948E+04  0.25500000920E-02 0.  1.
        2   -1    0    0  501    0  0.00000000000E+00  0.00000000000E+00 -0.21061196087E+04  0.21061196087E+04  0.25500000920E-02 0. -1.
    10030    2    1    2    0    0  0.00000000000E+00  0.00000000000E+00 -0.63450221398E+03  0.35777370035E+04  0.35210238577E+04 0.  0.
        1    1    3    3  502    0  0.26460510882E+03 -0.17389301480E+04 -0.39266465290E+03  0.18022428951E+04  0.50400001928E-02 0. -1.
       -1    1    3    3    0  502 -0.26460510882E+03  0.17389301480E+04 -0.24183756108E+03  0.17754941084E+04  0.50400001928E-02 0.  1.
</event>
<event>
 5   0  0.3190185E-07  0.3500601E+04  0.7818609E-02  0.8113648E-01
       -2   -1    0    0    0  501  0.00000000000E+00  0.00000000000E+00  0.11315341728E+04  0.11315341728E+04  0.25500000920E-02 0.  1.
        2   -1    0    0  501    0  0.00000000000E+00  0.00000000000E+00 -0.27074316987E+04  0.27074316987E+04  0.25500000920E-02 0. -1.
    10030    2    1    2    0    0  0.00000000000E+00  0.00000000000E+00 -0.15758975259E+04  0.38389658716E+04  0.35006007986E+04 0.  0.
        1    1    3    3  502    0  0.12864873771E+04 -0.12351145715E+03  0.50650238606E+03  0.13881100527E+04  0.50400001928E-02 0.  1.
       -1    1    3    3    0  502 -0.12864873771E+04  0.12351145715E+03 -0.20823999120E+04  0.24508558188E+04  0.50400001928E-02 0. -1.
</event>
<event>
 5   0  0.3190185E-07  0.3533747E+04  0.7818609E-02  0.8105838E-01
        2   -1    0    0  501    0  0.00000000000E+00  0.00000000000E+00  0.20605399358E+04  0.20605399358E+04  0.25500000920E-02 0. -1.
       -2   -1    0    0    0  501  0.00000000000E+00  0.00000000000E+00 -0.15150605690E+04  0.15150605690E+04  0.25500000920E-02 0.  1.
    10030    2    1    2    0    0  0.00000000000E+00  0.00000000000E+00  0.54547936684E+03  0.35756005048E+04  0.35337474768E+04 0.  0.
        1    1    3    3  502    0  0.13836359204E+03 -0.11875079097E+04  0.15891182579E+04  0.19886217229E+04  0.50400001928E-02 0. -1.
       -1    1    3    3    0  502 -0.13836359204E+03  0.11875079097E+04 -0.10436388910E+04  0.15869787819E+04  0.50400001928E-02 0.  1.
</event>
<event>
 5   0  0.2180451E-07  0.3509567E+04  0.7818609E-02  0.8111526E-01
       -2   -1    0    0    0  501  0.00000000000E+00  0.00000000000E+00  0.21913804916E+04  0.21913804916E+04  0.25500000920E-02 0.  1.
        2   -1    0    0  501    0  0.00000000000E+00  0.00000000000E+00 -0.14051714782E+04  0.14051714782E+04  0.25500000920E-02 0. -1.
    10030    2    1    2    0    0  0.00000000000E+00  0.00000000000E+00  0.78620901347E+03  0.35965519698E+04  0.35095671327E+04 0.  0.
        4    1    3    3  502    0  0.12137756631E+04 -0.87869303486E+03 -0.54271613883E+03  0.15937048755E+04  0.12699999809E+01 0. -1.
       -4    1    3    3    0  502 -0.12137756631E+04  0.87869303486E+03  0.13289251523E+04  0.20028470943E+04  0.12699999809E+01 0.  1.
</event>
<event>
 5   0  0.1072381E-07  0.3499938E+04  0.7818609E-02  0.8113805E-01
       -1   -1    0    0    0  501  0.00000000000E+00  0.00000000000E+00  0.12742698631E+04  0.12742698632E+04  0.50400001928E-02 0. -1.
        1   -1    0    0  501    0  0.00000000000E+00  0.00000000000E+00 -0.24032525756E+04  0.24032525756E+04  0.50400001928E-02 0.  1.
    10030    2    1    2    0    0  0.00000000000E+00  0.00000000000E+00 -0.11289827124E+04  0.36775224387E+04  0.34999384741E+04 0.  0.
        1    1    3    3  502    0  0.26760343258E+03  0.14222426522E+04 -0.15982855157E+04  0.21561313384E+04  0.50400001928E-02 0.  1.
       -1    1    3    3    0  502 -0.26760343258E+03 -0.14222426522E+04  0.46930280327E+03  0.15213911003E+04  0.50400001928E-02 0. -1.
</event>
<event>
 5   0  0.1072381E-07  0.3538082E+04  0.7818609E-02  0.8104824E-01
        1   -1    0    0  501    0  0.00000000000E+00  0.00000000000E+00  0.22702868705E+04  0.22702868705E+04  0.50400001928E-02 0.  1.
       -1   -1    0    0    0  501  0.00000000000E+00  0.00000000000E+00 -0.13784628577E+04  0.13784628577E+04  0.50400001928E-02 0. -1.
    10030    2    1    2    0    0  0.00000000000E+00  0.00000000000E+00  0.89182401279E+03  0.36487497282E+04  0.35380820383E+04 0.  0.
        1    1    3    3  502    0  0.10361428547E+04 -0.11427134911E+04 -0.44727325128E+03  0.16060633547E+04  0.50400001928E-02 0. -1.
       -1    1    3    3    0  502 -0.10361428547E+04  0.11427134911E+04  0.13390972641E+04  0.20426863735E+04  0.50400001928E-02 0.  1.
</event>
<event>
 5   0  0.1013863E-07  0.3501873E+04  0.7818609E-02  0.8113346E-01
       -1   -1    0    0    0  501  0.00000000000E+00  0.00000000000E+00  0.14836249171E+04  0.14836249171E+04  0.50400001928E-02 0. -1.
        1   -1    0    0  501    0  0.00000000000E+00  0.00000000000E+00 -0.20664109438E+04  0.20664109438E+04  0.50400001928E-02 0.  1.
    10030    2    1    2    0    0  0.00000000000E+00  0.00000000000E+00 -0.58278602672E+03  0.35500358609E+04  0.35018730789E+04 0.  0.
        5    1    3    3  502    0 -0.88162760422E+03 -0.11853348881E+04 -0.12442514874E+04  0.19314424360E+04  0.46999998093E+01 0.  1.
       -5    1    3    3    0  502  0.88162760422E+03  0.11853348881E+04  0.66146546070E+03  0.16185934249E+04  0.46999998093E+01 0. -1.
</event>
<event>
 5   0  0.1098171E-07  0.3504572E+04  0.7818609E-02  0.8112707E-01
       -1   -1    0    0    0  501  0.00000000000E+00  0.00000000000E+00  0.16645317820E+04  0.16645317820E+04  0.50400001928E-02 0.  1.
        1   -1    0    0  501    0  0.00000000000E+00  0.00000000000E+00 -0.18446667798E+04  0.18446667798E+04  0.50400001928E-02 0. -1.
    10030    2    1    2    0    0  0.00000000000E+00  0.00000000000E+00 -0.18013499773E+03  0.35091985618E+04  0.35045721463E+04 0.  0.
        4    1    3    3  502    0 -0.77306383363E+03 -0.15184935578E+04 -0.49933006073E+03  0.17756076420E+04  0.12699999809E+01 0. -1.
       -4    1    3    3    0  502  0.77306383363E+03  0.15184935578E+04  0.31919506299E+03  0.17335909198E+04  0.12699999809E+01 0.  1.
</event>
<event>
 5   0  0.1098171E-07  0.3499961E+04  0.7818609E-02  0.8113799E-01
        1   -1    0    0  501    0  0.00000000000E+00  0.00000000000E+00  0.13671000415E+04  0.13671000415E+04  0.50400001928E-02 0. -1.
       -1   -1    0    0    0  501  0.00000000000E+00  0.00000000000E+00 -0.22400935895E+04  0.22400935895E+04  0.50400001928E-02 0.  1.
    10030    2    1    2    0    0  0.00000000000E+00  0.00000000000E+00 -0.87299354801E+03  0.36071936310E+04  0.34999611651E+04 0.  0.
        4    1    3    3  502    0 -0.56080944763E+03 -0.12343354980E+04  0.70390289845E+03  0.15276034373E+04  0.12699999809E+01 0. -1.
       -4    1    3    3    0  502  0.56080944763E+03  0.12343354980E+04 -0.15768964465E+04  0.20795901938E+04  0.12699999809E+01 0.  1.
</event>
<event>
 5   0  0.1072381E-07  0.3501177E+04  0.7818609E-02  0.8113511E-01
       -1   -1    0    0    0  501  0.00000000000E+00  0.00000000000E+00  0.19518186689E+04  0.19518186689E+04  0.50400001928E-02 0.  1.
        1   -1    0    0  501    0  0.00000000000E+00  0.00000000000E+00 -0.15701053421E+04  0.15701053422E+04  0.50400001928E-02 0. -1.
    10030    2    1    2    0    0  0.00000000000E+00  0.00000000000E+00  0.38171332678E+03  0.35219240111E+04  0.35011774699E+04 0.  0.
        1    1    3    3  502    0 -0.23103505017E+03  0.38742195812E+03  0.18923547321E+04  0.19453738459E+04  0.50400001928E-02 0.  1.
       -1    1    3    3    0  502  0.23103505017E+03 -0.38742195812E+03 -0.15106414053E+04  0.15765501652E+04  0.50400001928E-02 0. -1.
</event>
<event>
 5   0  0.2180451E-07  0.3471501E+04  0.7818609E-02  0.8120577E-01
       -2   -1    0    0    0  501  0.00000000000E+00  0.00000000000E+00  0.11880047917E+04  0.11880047917E+04  0.25500000920E-02 0.  1.
        2   -1    0    0  501    0  0.00000000000E+00  0.00000000000E+00 -0.25360421448E+04  0.25360421448E+04  0.25500000920E-02 0. -1.
    10030    2    1    2    0    0  0.00000000000E+00  0.00000000000E+00 -0.13480373530E+04  0.37240469365E+04  0.34715012430E+04 0.  0.
        4    1    3    3  502    0 -0.12680112416E+04  0.11080075047E+04 -0.22232226741E+03  0.16985175721E+04  0.12699999809E+01 0. -1.
       -4    1    3    3    0  502  0.12680112416E+04 -0.11080075047E+04 -0.11257150856E+04  0.20255293644E+04  0.12699999809E+01 0.  1.
</event>
<event>
 5   0  0.1013863E-07  0.3487991E+04  0.7818609E-02  0.8116642E-01
        1   -1    0    0  501    0  0.00000000000E+00  0.00000000000E+00  0.18669187909E+04  0.18669187909E+04  0.50400001928E-02 0.  1.
       -1   -1    0    0    0  501  0.00000000000E+00  0.00000000000E+00 -0.16291661793E+04  0.16291661793E+04  0.50400001928E-02 0. -1.
    10030    2    1    2    0    0  0.00000000000E+00  0.00000000000E+00  0.23775261162E+03  0.34960849703E+04  0.34879913726E+04 0.  0.
        2    1    3    3  502    0  0.42563396462E+01 -0.17423342281E+04  0.19504128089E+03  0.17532221137E+04  0.25500000920E-02 0.  1.
       -2    1    3    3    0  502 -0.42563396462E+01  0.17423342281E+04  0.42711330727E+02  0.17428628565E+04  0.25500000920E-02 0. -1.
</event>
<event>
 5   0  0.1033796E-07  0.3645054E+04  0.7818609E-02  0.8080249E-01
        1   -1    0    0  501    0  0.00000000000E+00  0.00000000000E+00  0.27088724696E+04  0.27088724696E+04  0.50400001928E-02 0. -1.
       -1   -1    0    0    0  501  0.00000000000E+00  0.00000000000E+00 -0.12261944646E+04  0.12261944646E+04  0.50400001928E-02 0.  1.
    10030    2    1    2    0    0  0.00000000000E+00  0.00000000000E+00  0.14826780050E+04  0.39350669342E+04  0.36450538693E+04 0.  0.
        3    1    3    3  502    0  0.16817247991E+04 -0.52662421317E+03  0.12431595961E+04  0.21566124253E+04  0.10100000352E+00 0. -1.
       -3    1    3    3    0  502 -0.16817247991E+04  0.52662421317E+03  0.23951840894E+03  0.17784545089E+04  0.10100000352E+00 0.  1.
</event>
<event>
 5   0  0.3119048E-07  0.3493256E+04  0.7818609E-02  0.8115390E-01
        2   -1    0    0  501    0  0.00000000000E+00  0.00000000000E+00  0.21182111459E+04  0.21182111459E+04  0.25500000920E-02 0.  1.
       -2   -1    0    0    0  501  0.00000000000E+00  0.00000000000E+00 -0.14402287694E+04  0.14402287694E+04  0.25500000920E-02 0. -1.
    10030    2    1    2    0    0  0.00000000000E+00  0.00000000000E+00  0.67798237653E+03  0.35584399153E+04  0.34932555773E+04 0.  0.
        3    1    3    3  502    0  0.89028852348E+03  0.30932326613E+03 -0.11589636037E+04  0.14938176539E+04  0.10100000352E+00 0. -1.
       -3    1    3    3    0  502 -0.89028852348E+03 -0.30932326613E+03  0.18369459803E+04  0.20646222615E+04  0.10100000352E+00 0.  1.
</event>
<event>
 5   0  0.1013863E-07  0.3528905E+04  0.7818609E-02  0.8106974E-01
        1   -1    0    0  501    0  0.00000000000E+00  0.00000000000E+00  0.11345265718E+04  0.11345265718E+04  0.50400001928E-02 0.  1.
       -1   -1    0    0    0  501  0.00000000000E+00  0.00000000000E+00 -0.27441331314E+04  0.27441331314E+04  0.50400001928E-02 0. -1.
    10030    2    1    2    0    0  0.00000000000E+00  0.00000000000E+00 -0.16096065596E+04  0.38786597032E+04  0.35289046199E+04 0.  0.
        2    1    3    3  502    0 -0.10997480353E+04 -0.13776604894E+04 -0.88921181531E+03  0.19743585839E+04  0.25500000920E-02 0.  1.
       -2    1    3    3    0  502  0.10997480353E+04  0.13776604894E+04 -0.72039474427E+03  0.19043011193E+04  0.25500000920E-02 0. -1.
</event>
<event>
 5   0  0.1033796E-07  0.3497213E+04  0.7818609E-02  0.8114451E-01
        1   -1    0    0  501    0  0.00000000000E+00  0.00000000000E+00  0.29756101841E+04  0.29756101841E+04  0.50400001928E-02 0. -1.
       -1   -1    0    0    0  501  0.00000000000E+00  0.00000000000E+00 -0.10275620597E+04  0.10275620597E+04  0.50400001928E-02 0.  1.
    10030    2    1    2    0    0  0.00000000000E+00  0.00000000000E+00  0.19480481244E+04  0.40031722438E+04  0.34972126784E+04 0.  0.
        3    1    3    3  502    0  0.11772036626E+04 -0.40015291963E+03  0.23814128160E+04  0.26864582321E+04  0.10100000352E+00 0. -1.
       -3    1    3    3    0  502 -0.11772036626E+04  0.40015291963E+03 -0.43336469160E+03  0.13167140116E+04  0.10100000352E+00 0.  1.
</event>
<event>
 5   0  0.1013863E-07  0.3504970E+04  0.7818609E-02  0.8112613E-01
        1   -1    0    0  501    0  0.00000000000E+00  0.00000000000E+00  0.19689268256E+04  0.19689268256E+04  0.50400001928E-02 0.  1.
       -1   -1    0    0    0  501  0.00000000000E+00  0.00000000000E+00 -0.15598364346E+04  0.15598364346E+04  0.50400001928E-02 0. -1.
    10030    2    1    2    0    0  0.00000000000E+00  0.00000000000E+00  0.40909039095E+03  0.35287632602E+04  0.35049700710E+04 0.  0.
        5    1    3    3  502    0 -0.13077376208E+04  0.65922207460E+03  0.11735916126E+04  0.18767234191E+04  0.46999998093E+01 0. -1.
       -5    1    3    3    0  502  0.13077376208E+04 -0.65922207460E+03 -0.76450122169E+03  0.16520398411E+04  0.46999998093E+01 0.  1.
</event>
<event>
 5   0  0.3219205E-07  0.3499089E+04  0.7818609E-02  0.8114006E-01
        2   -1    0    0  501    0  0.00000000000E+00  0.00000000000E+00  0.18440984609E+04  0.18440984609E+04  0.25500000920E-02 0. -1.
       -2   -1    0    0    0  501  0.00000000000E+00  0.00000000000E+00 -0.16598383540E+04  0.16598383540E+04  0.25500000920E-02 0.  1.
    10030    2    1    2    0    0  0.00000000000E+00  0.00000000000E+00  0.18426010690E+03  0.35039368150E+04  0.34990886551E+04 0.  0.
        2    1    3    3  502    0  0.99760863610E+03 -0.14324399808E+04 -0.25497864597E+02  0.17457827558E+04  0.25500000920E-02 0. -1.
       -2    1    3    3    0  502 -0.99760863610E+03  0.14324399808E+04  0.20975797150E+03  0.17581540592E+04  0.25500000920E-02 0.  1.
</event>
<event>
 5   0  0.3219205E-07  0.3488405E+04  0.7818609E-02  0.8116543E-01
       -2   -1    0    0    0  501  0.00000000000E+00  0.00000000000E+00  0.16294553084E+04  0.16294553084E+04  0.25500000920E-02 0.  1.
        2   -1    0    0  501    0  0.00000000000E+00  0.00000000000E+00 -0.18670302689E+04  0.18670302689E+04  0.25500000920E-02 0. -1.
    10030    2    1    2    0    0  0.00000000000E+00  0.00000000000E+00 -0.23757496047E+03  0.34964855773E+04  0.34884050124E+04 0.  0.
        2    1    3    3  502    0  0.91250707817E+03 -0.14520857444E+04  0.19978551881E+03  0.17265967770E+04  0.25500000920E-02 0.  1.
       -2    1    3    3    0  502 -0.91250707817E+03  0.14520857444E+04 -0.43736047928E+03  0.17698888003E+04  0.25500000920E-02 0. -1.
</event>
<event>
 5   0  0.3119048E-07  0.3497563E+04  0.7818609E-02  0.8114368E-01
       -2   -1    0    0    0  501  0.00000000000E+00  0.00000000000E+00  0.16204389836E+04  0.16204389836E+04  0.25500000920E-02 0.  1.
        2   -1    0    0  501    0  0.00000000000E+00  0.00000000000E+00 -0.18872886374E+04  0.18872886374E+04  0.25500000920E-02 0. -1.
    10030    2    1    2    0    0  0.00000000000E+00  0.00000000000E+00 -0.26684965383E+03  0.35077276210E+04  0.34975626263E+04 0.  0.
        3    1    3    3  502    0 -0.64590229931E+03 -0.15846796922E+04  0.22795080987E+03  0.17263722336E+04  0.10100000352E+00 0.  1.
       -3    1    3    3    0  502  0.64590229931E+03  0.15846796922E+04 -0.49480046370E+03  0.17813553874E+04  0.10100000352E+00 0. -1.
</event>
<event>
 5   0  0.2180451E-07  0.3479752E+04  0.7818609E-02  0.8118605E-01
       -2   -1    0    0    0  501  0.00000000000E+00  0.00000000000E+00  0.10504292149E+04  0.10504292149E+04  0.25500000920E-02 0.  1.
        2   -1    0    0  501    0  0.00000000000E+00  0.00000000000E+00 -0.28818392886E+04  0.28818392886E+04  0.25500000920E-02 0. -1.
    10030    2    1    2    0    0  0.00000000000E+00  0.00000000000E+00 -0.18314100737E+04  0.39322685035E+04  0.34797518196E+04 0.  0.
        4    1    3    3  502    0 -0.33938521222E+03 -0.16443595829E+04 -0.14311653739E+04  0.22062041384E+04  0.12699999809E+01 0. -1.
       -4    1    3    3    0  502  0.33938521222E+03  0.16443595829E+04 -0.40024469977E+03  0.17260643651E+04  0.12699999809E+01 0.  1.
</event>
<event>
 5   0  0.1072381E-07  0.3469172E+04  0.7818609E-02  0.8121135E-01
        1   -1    0    0  501    0  0.00000000000E+00  0.00000000000E+00  0.15834230386E+04  0.15834230386E+04  0.50400001928E-02 0. -1.
       -1   -1    0    0    0  501  0.00000000000E+00  0.00000000000E+00 -0.19001797785E+04  0.19001797785E+04  0.50400001928E-02 0.  1.
    10030    2    1    2    0    0  0.00000000000E+00  0.00000000000E+00 -0.31675673991E+03  0.34836028172E+04  0.34691719121E+04 0.  0.
        1    1    3    3  502    0  0.91949800466E+03  0.69672003155E+03  0.11423450201E+04  0.16235293431E+04  0.50400001928E-02 0. -1.
       -1    1    3    3    0  502 -0.91949800466E+03 -0.69672003155E+03 -0.14591017600E+04  0.18600734741E+04  0.50400001928E-02 0.  1.
</event>
<event>
 5   0  0.2180451E-07  0.3499211E+04  0.7818609E-02  0.8113977E-01
       -2   -1    0    0    0  501  0.00000000000E+00  0.00000000000E+00  0.13096354758E+04  0.13096354758E+04  0.25500000920E-02 0. -1.
        2   -1    0    0  501    0  0.00000000000E+00  0.00000000000E+00 -0.23373823333E+04  0.23373823333E+04  0.25500000920E-02 0.  1.
    10030    2    1    2    0    0  0.00000000000E+00  0.00000000000E+00 -0.10277468575E+04  0.36470178091E+04  0.34992106677E+04 0.  0.
        4    1    3    3  502    0 -0.10116116786E+04 -0.95502452186E+03  0.59192674932E+03  0.15118891874E+04  0.12699999809E+01 0. -1.
       -4    1    3    3    0  502  0.10116116786E+04  0.95502452186E+03 -0.16196736068E+04  0.21351286217E+04  0.12699999809E+01 0.  1.
</event>
<event>
 5   0  0.1013863E-07  0.3498530E+04  0.7818609E-02  0.8114138E-01
       -1   -1    0    0    0  501  0.00000000000E+00  0.00000000000E+00  0.16479473375E+04  0.16479473375E+04  0.50400001928E-02 0. -1.
        1   -1    0    0  501    0  0.00000000000E+00  0.00000000000E+00 -0.18568121353E+04  0.18568121353E+04  0.50400001928E-02 0.  1.
    10030    2    1    2    0    0  0.00000000000E+00  0.00000000000E+00 -0.20886479786E+03  0.35047594728E+04  0.34985303284E+04 0.  0.
        2    1    3    3  502    0 -0.14414011839E+04  0.77719307000E+03 -0.72055768397E+03  0.17890974867E+04  0.25500000920E-02 0.  1.
       -2    1    3    3    0  502  0.14414011839E+04 -0.77719307000E+03  0.51169288611E+03  0.17156619861E+04  0.25500000920E-02 0. -1.
</event>
<event>
 5   0  0.2180451E-07  0.3496774E+04  0.7818609E-02  0.8114555E-01
        2   -1    0    0  501    0  0.00000000000E+00  0.00000000000E+00  0.15656594404E+04  0.15656594404E+04  0.25500000920E-02 0.  1.
       -2   -1    0    0    0  501  0.00000000000E+00  0.00000000000E+00 -0.19524408887E+04  0.19524408887E+04  0.25500000920E-02 0. -1.
    10030    2    1    2    0    0  0.00000000000E+00  0.00000000000E+00 -0.38678144833E+03  0.35181003291E+04  0.34967742330E+04 0.  0.
        4    1    3    3  502    0  0.13175202776E+04 -0.54277509686E+02 -0.13484561843E+04  0.18860385531E+04  0.12699999809E+01 0. -1.
       -4    1    3    3    0  502 -0.13175202776E+04  0.54277509686E+02  0.96167473599E+03  0.16320617760E+04  0.12699999809E+01 0.  1.
</event>
<event>
 5   0  0.1033796E-07  0.3506752E+04  0.7818609E-02  0.8112192E-01
        1   -1    0    0  501    0  0.00000000000E+00  0.00000000000E+00  0.15070736207E+04  0.15070736207E+04  0.50400001928E-02 0.  1.
       -1   -1    0    0    0  501  0.00000000000E+00  0.00000000000E+00 -0.20399312714E+04  0.20399312714E+04  0.50400001928E-02 0. -1.
    10030    2    1    2    0    0  0.00000000000E+00  0.00000000000E+00 -0.53285765072E+03  0.35470048922E+04  0.35067515494E+04 0.  0.
        3    1    3    3  502    0  0.91856199951E+03  0.25546698107E+03  0.12219604672E+04  0.15499054548E+04  0.10100000352E+00 0.  1.
       -3    1    3    3    0  502 -0.91856199951E+03 -0.25546698107E+03 -0.17548181179E+04  0.19970994373E+04  0.10100000352E+00 0. -1.
</event>
<event>
 5   0  0.3190185E-07  0.3509714E+04  0.7818609E-02  0.8111492E-01
        2   -1    0    0  501    0  0.00000000000E+00  0.00000000000E+00  0.26589634586E+04  0.26589634586E+04  0.25500000920E-02 0.  1.
       -2   -1    0    0    0  501  0.00000000000E+00  0.00000000000E+00 -0.11581665234E+04  0.11581665234E+04  0.25500000920E-02 0. -1.
    10030    2    1    2    0    0  0.00000000000E+00  0.00000000000E+00  0.15007969353E+04  0.38171299820E+04  0.35097136434E+04 0.  0.
        1    1    3    3  502    0  0.93680476195E+03 -0.95123063261E+03  0.19890483826E+04  0.23955701506E+04  0.50400001928E-02 0. -1.
       -1    1    3    3    0  502 -0.93680476195E+03  0.95123063261E+03 -0.48825144730E+03  0.14215598314E+04  0.50400001928E-02 0.  1.
</event>
<event>
 5   0  0.1013863E-07  0.3502024E+04  0.7818609E-02  0.8113310E-01
        1   -1    0    0  501    0  0.00000000000E+00  0.00000000000E+00  0.91496872829E+03  0.91496872830E+03  0.50400001928E-02 0.  1.
       -1   -1    0    0    0  501  0.00000000000E+00  0.00000000000E+00 -0.33509812638E+04  0.33509812638E+04  0.50400001928E-02 0. -1.
    10030    2    1    2    0    0  0.00000000000E+00  0.00000000000E+00 -0.24360125356E+04  0.42659499921E+04  0.35020240236E+04 0.  0.
        5    1    3    3  502    0  0.10531616032E+04  0.31100304016E+03  0.44337945195E+03  0.11842633499E+04  0.46999998093E+01 0.  1.
       -5    1    3    3    0  502 -0.10531616032E+04 -0.31100304016E+03 -0.28793919875E+04  0.30816866423E+04  0.46999998093E+01 0. -1.
</event>
<event>
 5   0  0.2180451E-07  0.3504812E+04  0.7818609E-02  0.8112650E-01
        2   -1    0    0  501    0  0.00000000000E+00  0.00000000000E+00  0.27103871170E+04  0.27103871170E+04  0.25500000920E-02 0.  1.
       -2   -1    0    0    0  501  0.00000000000E+00  0.00000000000E+00 -0.11330217884E+04  0.11330217884E+04  0.25500000920E-02 0. -1.
    10030    2    1    2    0    0  0.00000000000E+00  0.00000000000E+00  0.15773653285E+04  0.38434089054E+04  0.35048124964E+04 0.  0.
        4    1    3    3  502    0 -0.16180989233E+04  0.38435535673E+03  0.13942579922E+04  0.21702373436E+04  0.12699999809E+01 0.  1.
       -4    1    3    3    0  502  0.16180989233E+04 -0.38435535673E+03  0.18310733633E+03  0.16731715618E+04  0.12699999809E+01 0. -1.
</event>
<event>
 5   0  0.3190185E-07  0.3509957E+04  0.7818609E-02  0.8111434E-01
        2   -1    0    0  501    0  0.00000000000E+00  0.00000000000E+00  0.21616692812E+04  0.21616692812E+04  0.25500000920E-02 0. -1.
       -2   -1    0    0    0  501  0.00000000000E+00  0.00000000000E+00 -0.14248017444E+04  0.14248017444E+04  0.25500000920E-02 0.  1.
    10030    2    1    2    0    0  0.00000000000E+00  0.00000000000E+00  0.73686753678E+03  0.35864710256E+04  0.35099573573E+04 0.  0.
        1    1    3    3  502    0 -0.12024221646E+04 -0.40731871221E+02  0.16739682863E+04  0.20614674314E+04  0.50400001928E-02 0. -1.
       -1    1    3    3    0  502  0.12024221646E+04  0.40731871221E+02 -0.93710074955E+03  0.15250035941E+04  0.50400001928E-02 0.  1.
</event>
<event>
 5   0  0.1013863E-07  0.3499737E+04  0.7818609E-02  0.8113852E-01
       -1   -1    0    0    0  501  0.00000000000E+00  0.00000000000E+00  0.13037328283E+04  0.13037328283E+04  0.50400001928E-02 0.  1.
        1   -1    0    0  501    0  0.00000000000E+00  0.00000000000E+00 -0.23486707186E+04  0.23486707186E+04  0.50400001928E-02 0. -1.
    10030    2    1    2    0    0  0.00000000000E+00  0.00000000000E+00 -0.10449378904E+04  0.36524035469E+04  0.34997366293E+04 0.  0.
        5    1    3    3  502    0 -0.21783861457E+03 -0.50997243406E+03 -0.22545336414E+04  0.23217384814E+04  0.46999998093E+01 0. -1.
       -5    1    3    3    0  502  0.21783861457E+03  0.50997243406E+03  0.12095957511E+04  0.13306650655E+04  0.46999998093E+01 0.  1.
</event>
<event>
 5   0  0.1098171E-07  0.3505652E+04  0.7818609E-02  0.8112452E-01
       -1   -1    0    0    0  501  0.00000000000E+00  0.00000000000E+00  0.14754244940E+04  0.14754244940E+04  0.50400001928E-02 0. -1.
        1   -1    0    0  501    0  0.00000000000E+00  0.00000000000E+00 -0.20823825743E+04  0.20823825743E+04  0.50400001928E-02 0.  1.
    10030    2    1    2    0    0  0.00000000000E+00  0.00000000000E+00 -0.60695808031E+03  0.35578070683E+04  0.35056515834E+04 0.  0.
        4    1    3    3  502    0  0.70760263562E+03  0.92510164797E+03  0.10259261320E+04  0.15521084338E+04  0.12699999809E+01 0. -1.
       -4    1    3    3    0  502 -0.70760263562E+03 -0.92510164797E+03 -0.16328842123E+04  0.20056986346E+04  0.12699999809E+01 0.  1.
</event>
<event>
 5   0  0.1013863E-07  0.3506543E+04  0.7818609E-02  0.8112241E-01
        1   -1    0    0  501    0  0.00000000000E+00  0.00000000000E+00  0.11405057166E+04  0.11405057166E+04  0.50400001928E-02 0. -1.
       -1   -1    0    0    0  501  0.00000000000E+00  0.00000000000E+00 -0.26952608765E+04  0.26952608765E+04  0.50400001928E-02 0.  1.
    10030    2    1    2    0    0  0.00000000000E+00  0.00000000000E+00 -0.15547551599E+04  0.38357665932E+04  0.35065427061E+04 0.  0.
        2    1    3    3  502    0  0.13406545570E+04 -0.79650167905E+03  0.99229762386E+02  0.15625671543E+04  0.25500000920E-02 0. -1.
       -2    1    3    3    0  502 -0.13406545570E+04  0.79650167905E+03 -0.16539849223E+04  0.22731994389E+04  0.25500000920E-02 0.  1.
</event>
<event>
 5   0  0.2180451E-07  0.3497667E+04  0.7818609E-02  0.8114343E-01
       -2   -1    0    0    0  501  0.00000000000E+00  0.00000000000E+00  0.13572406943E+04  0.13572406943E+04  0.25500000920E-02 0. -1.
        2   -1    0    0  501    0  0.00000000000E+00  0.00000000000E+00 -0.22534087246E+04  0.22534087246E+04  0.25500000920E-02 0.  1.
    10030    2    1    2    0    0  0.00000000000E+00  0.00000000000E+00 -0.89616803035E+03  0.36106494189E+04  0.34976666633E+04 0.  0.
        4    1    3    3  502    0  0.55369513770E+03  0.19866002894E+03  0.12520437277E+04  0.13833507226E+04  0.12699999809E+01 0. -1.
       -4    1    3    3    0  502 -0.55369513770E+03 -0.19866002894E+03 -0.21482117581E+04  0.22272986964E+04  0.12699999809E+01 0.  1.
</event>
<event>
 5   0  0.3190185E-07  0.3292161E+04  0.7818609E-02  0.8164893E-01
       -2   -1    0    0    0  501  0.00000000000E+00  0.00000000000E+00  0.15743426636E+04  0.15743426636E+04  0.25500000920E-02 0.  1.
        2   -1    0    0  501    0  0.00000000000E+00  0.00000000000E+00 -0.17210868768E+04  0.17210868768E+04  0.25500000920E-02 0. -1.
    10030    2    1    2    0    0  0.00000000000E+00  0.00000000000E+00 -0.14674421323E+03  0.32954295404E+04  0.32921606874E+04 0.  0.
        1    1    3    3  502    0  0.10792697826E+04  0.96436283495E+03  0.71147372625E+03  0.16127658864E+04  0.50400001928E-02 0.  1.
       -1    1    3    3    0  502 -0.10792697826E+04 -0.96436283495E+03 -0.85821793949E+03  0.16826636541E+04  0.50400001928E-02 0. -1.
</event>
<event>
 5   0  0.1098171E-07  0.3492797E+04  0.7818609E-02  0.8115499E-01
        1   -1    0    0  501    0  0.00000000000E+00  0.00000000000E+00  0.14582078582E+04  0.14582078582E+04  0.50400001928E-02 0. -1.
       -1   -1    0    0    0  501  0.00000000000E+00  0.00000000000E+00 -0.20915454552E+04  0.20915454552E+04  0.50400001928E-02 0.  1.
    10030    2    1    2    0    0  0.00000000000E+00  0.00000000000E+00 -0.63333759698E+03  0.35497533134E+04  0.34927971705E+04 0.  0.
        4    1    3    3  502    0  0.57698347807E+03 -0.25674631824E+03 -0.19714327187E+04  0.20701152584E+04  0.12699999809E+01 0.  1.
       -4    1    3    3    0  502 -0.57698347807E+03  0.25674631824E+03  0.13380951217E+04  0.14796380549E+04  0.12699999809E+01 0. -1.
</event>
<event>
 5   0  0.3119048E-07  0.3517108E+04  0.7818609E-02  0.8109748E-01
        2   -1    0    0  501    0  0.00000000000E+00  0.00000000000E+00  0.20655383563E+04  0.20655383563E+04  0.25500000920E-02 0.  1.
       -2   -1    0    0    0  501  0.00000000000E+00  0.00000000000E+00 -0.14971942420E+04  0.14971942420E+04  0.25500000920E-02 0. -1.
    10030    2    1    2    0    0  0.00000000000E+00  0.00000000000E+00  0.56834411422E+03  0.35627325983E+04  0.35171079789E+04 0.  0.
        3    1    3    3  502    0  0.45769498268E+03 -0.72309846252E+03  0.18403809193E+04  0.20296201669E+04  0.10100000352E+00 0.  1.
       -3    1    3    3    0  502 -0.45769498268E+03  0.72309846252E+03 -0.12720368051E+04  0.15331124314E+04  0.10100000352E+00 0. -1.
</event>
<event>
 5   0  0.1013863E-07  0.3510028E+04  0.7818609E-02  0.8111418E-01
       -1   -1    0    0    0  501  0.00000000000E+00  0.00000000000E+00  0.13436668550E+04  0.13436668551E+04  0.50400001928E-02 0. -1.
        1   -1    0    0  501    0  0.00000000000E+00  0.00000000000E+00 -0.22922901804E+04  0.22922901804E+04  0.50400001928E-02 0.  1.
    10030    2    1    2    0    0  0.00000000000E+00  0.00000000000E+00 -0.94862332531E+03  0.36359570354E+04  0.35100281124E+04 0.  0.
        2    1    3    3  502    0 -0.42416643588E+03 -0.34902522572E+03 -0.22009474233E+04  0.22684588014E+04  0.25500000920E-02 0.  1.
       -2    1    3    3    0  502  0.42416643588E+03  0.34902522572E+03  0.12523240980E+04  0.13674982340E+04  0.25500000920E-02 0. -1.
</event>
<event>
 5   0  0.1033796E-07  0.3505058E+04  0.7818609E-02  0.8112592E-01
        1   -1    0    0  501    0  0.00000000000E+00  0.00000000000E+00  0.18302319601E+04  0.18302319601E+04  0.50400001928E-02 0.  1.
       -1   -1    0    0    0  501  0.00000000000E+00  0.00000000000E+00 -0.16781253500E+04  0.16781253500E+04  0.50400001928E-02 0. -1.
    10030    2    1    2    0    0  0.00000000000E+00  0.00000000000E+00  0.15210661013E+03  0.35083573101E+04  0.35050584295E+04 0.  0.
        3    1    3    3  502    0 -0.13037482879E+04  0.11157191379E+04  0.43243594139E+03  0.17696298050E+04  0.10100000352E+00 0.  1.
       -3    1    3    3    0  502  0.13037482879E+04 -0.11157191379E+04 -0.28032933126E+03  0.17387275051E+04  0.10100000352E+00 0. -1.
</event>
<event>
 5   0  0.1013863E-07  0.3505122E+04  0.7818609E-02  0.8112577E-01
       -3   -1    0    0    0  501  0.00000000000E+00  0.00000000000E+00  0.27975434721E+04  0.27975434740E+04  0.10100000352E+00 0.  1.
        3   -1    0    0  501    0  0.00000000000E+00  0.00000000000E+00 -0.10979168611E+04  0.10979168658E+04  0.10100000352E+00 0. -1.
    10030    2    1    2    0    0  0.00000000000E+00  0.00000000000E+00  0.16996266110E+04  0.38954603397E+04  0.35051220580E+04 0.  0.
        2    1    3    3  502    0  0.17334197278E+04  0.13846098504E+03  0.10921686792E+04  0.20534721378E+04  0.25500000920E-02 0.  1.
       -2    1    3    3    0  502 -0.17334197278E+04 -0.13846098504E+03  0.60745793183E+03  0.18419882019E+04  0.25500000920E-02 0. -1.
</event>
<event>
 5   0  0.1013863E-07  0.3500323E+04  0.7818609E-02  0.8113713E-01
        1   -1    0    0  501    0  0.00000000000E+00  0.00000000000E+00  0.21905401749E+04  0.21905401749E+04  0.50400001928E-02 0.  1.
       -1   -1    0    0    0  501  0.00000000000E+00  0.00000000000E+00 -0.13983147445E+04  0.13983147445E+04  0.50400001928E-02 0. -1.
    10030    2    1    2    0    0  0.00000000000E+00  0.00000000000E+00  0.79222543034E+03  0.35888549194E+04  0.35003226280E+04 0.  0.
        2    1    3    3  502    0  0.12398225937E+04  0.46273086427E+03 -0.77818741406E+03  0.15352053830E+04  0.25500000920E-02 0. -1.
       -2    1    3    3    0  502 -0.12398225937E+04 -0.46273086427E+03  0.15704128444E+04  0.20536495364E+04  0.25500000920E-02 0.  1.
</event>
<event>
 5   0  0.1013863E-07  0.3430262E+04  0.7818609E-02  0.8130519E-01
       -3   -1    0    0    0  501  0.00000000000E+00  0.00000000000E+00  0.17001158246E+04  0.17001158276E+04  0.10100000352E+00 0. -1.
        3   -1    0    0  501    0  0.00000000000E+00  0.00000000000E+00 -0.17302788154E+04  0.17302788184E+04  0.10100000352E+00 0.  1.
    10030    2    1    2    0    0  0.00000000000E+00  0.00000000000E+00 -0.30162990770E+02  0.34303946460E+04  0.34302620339E+04 0.  0.
        3    1    3    3  502    0 -0.14055272245E+04  0.46683197988E+03 -0.88012101625E+03  0.17228034972E+04  0.10100000352E+00 0.  1.
       -3    1    3    3    0  502  0.14055272245E+04 -0.46683197988E+03  0.84995802548E+03  0.17075911489E+04  0.10100000352E+00 0. -1.
</event>
<event>
 5   0  0.2180451E-07  0.3496209E+04  0.7818609E-02  0.8114689E-01
        2   -1    0    0  501    0  0.00000000000E+00  0.00000000000E+00  0.17894901480E+04  0.17894901480E+04  0.25500000920E-02 0.  1.
       -2   -1    0    0    0  501  0.00000000000E+00  0.00000000000E+00 -0.17076756654E+04  0.17076756654E+04  0.25500000920E-02 0. -1.
    10030    2    1    2    0    0  0.00000000000E+00  0.00000000000E+00  0.81814482619E+02  0.34971658134E+04  0.34962086776E+04 0.  0.
        4    1    3    3  502    0 -0.29361872361E+03  0.16271303930E+04  0.60860282845E+03  0.17618638671E+04  0.12699999809E+01 0.  1.
       -4    1    3    3    0  502  0.29361872361E+03 -0.16271303930E+04 -0.52678834583E+03  0.17353019463E+04  0.12699999809E+01 0. -1.
</event>
<event>
 5   0  0.1072381E-07  0.3502251E+04  0.7818609E-02  0.8113257E-01
       -1   -1    0    0    0  501  0.00000000000E+00  0.00000000000E+00  0.11953566107E+04  0.11953566108E+04  0.50400001928E-02 0.  1.
        1   -1    0    0  501    0  0.00000000000E+00  0.00000000000E+00 -0.25652933361E+04  0.25652933362E+04  0.50400001928E-02 0. -1.
    10030    2    1    2    0    0  0.00000000000E+00  0.00000000000E+00 -0.13699367254E+04  0.37606499469E+04  0.35022509036E+04 0.  0.
        1    1    3    3  502    0  0.97481359603E+03  0.10605998493E+04  0.38413498095E+03  0.14908699712E+04  0.50400001928E-02 0.  1.
       -1    1    3    3    0  502 -0.97481359603E+03 -0.10605998493E+04 -0.17540717063E+04  0.22697799758E+04  0.50400001928E-02 0. -1.
</event>
<event>
 5   0  0.1033796E-07  0.3432875E+04  0.7818609E-02  0.8129885E-01
        1   -1    0    0  501    0  0.00000000000E+00  0.00000000000E+00  0.13367255661E+04  0.13367255661E+04  0.50400001928E-02 0.  1.
       -1   -1    0    0    0  501  0.00000000000E+00  0.00000000000E+00 -0.22040110327E+04  0.22040110327E+04  0.50400001928E-02 0. -1.
    10030    2    1    2    0    0  0.00000000000E+00  0.00000000000E+00 -0.86728546660E+03  0.35407365988E+04  0.34328751189E+04 0.  0.
        3    1    3    3  502    0  0.79127841153E+03 -0.58178413689E+03  0.10182670137E+04  0.14147303729E+04  0.10100000352E+00 0.  1.
       -3    1    3    3    0  502 -0.79127841153E+03  0.58178413689E+03 -0.18855524803E+04  0.21260062260E+04  0.10100000352E+00 0. -1.
</event>
<event>
 5   0  0.3219205E-07  0.3510660E+04  0.7818609E-02  0.8111268E-01
       -2   -1    0    0    0  501  0.00000000000E+00  0.00000000000E+00  0.14457614787E+04  0.14457614787E+04  0.25500000920E-02 0.  1.
        2   -1    0    0  501    0  0.00000000000E+00  0.00000000000E+00 -0.21311839525E+04  0.21311839525E+04  0.25500000920E-02 0. -1.
    10030    2    1    2    0    0  0.00000000000E+00  0.00000000000E+00 -0.68542247378E+03  0.35769454312E+04  0.35106601445E+04 0.  0.
        2    1    3    3  502    0 -0.10001335243E+04 -0.12871281462E+03  0.11212013684E+04  0.15079544302E+04  0.25500000920E-02 0.  1.
       -2    1    3    3    0  502  0.10001335243E+04  0.12871281462E+03 -0.18066238421E+04  0.20689910010E+04  0.25500000920E-02 0. -1.
</event>
<event>
 5   0  0.2180451E-07  0.3507445E+04  0.7818609E-02  0.8112028E-01
       -2   -1    0    0    0  501  0.00000000000E+00  0.00000000000E+00  0.12349673611E+04  0.12349673611E+04  0.25500000920E-02 0. -1.
        2   -1    0    0  501    0  0.00000000000E+00  0.00000000000E+00 -0.24903831803E+04  0.24903831803E+04  0.25500000920E-02 0.  1.
    10030    2    1    2    0    0  0.00000000000E+00  0.00000000000E+00 -0.12554158192E+04  0.37253505413E+04  0.35074446220E+04 0.  0.
        4    1    3    3  502    0 -0.69290455559E+03  0.10840313466E+04  0.63809564617E+03  0.14361087529E+04  0.12699999809E+01 0. -1.
       -4    1    3    3    0  502  0.69290455559E+03 -0.10840313466E+04 -0.18935114654E+04  0.22892417885E+04  0.12699999809E+01 0.  1.
</event>
<event>
 5   0  0.1013863E-07  0.3495441E+04  0.7818609E-02  0.8114871E-01
       -1   -1    0    0    0  501  0.00000000000E+00  0.00000000000E+00  0.11139300827E+04  0.11139300827E+04  0.50400001928E-02 0. -1.
        1   -1    0    0  501    0  0.00000000000E+00  0.00000000000E+00 -0.27421171016E+04  0.27421171016E+04  0.50400001928E-02 0.  1.
    10030    2    1    2    0    0  0.00000000000E+00  0.00000000000E+00 -0.16281870189E+04  0.38560471843E+04  0.34954408762E+04 0.  0.
        5    1    3    3  502    0  0.14052488533E+03 -0.13859407021E+04  0.35021615877E+03  0.14364025623E+04  0.46999998093E+01 0. -1.
       -5    1    3    3    0  502 -0.14052488533E+03  0.13859407021E+04 -0.19784031777E+04  0.24196446220E+04  0.46999998093E+01 0.  1.
</event>
<event>
 5   0  0.2180451E-07  0.3480893E+04  0.7818609E-02  0.8118333E-01
        2   -1    0    0  501    0  0.00000000000E+00  0.00000000000E+00  0.16707716060E+04  0.16707716060E+04  0.25500000920E-02 0. -1.
       -2   -1    0    0    0  501  0.00000000000E+00  0.00000000000E+00 -0.18130270464E+04  0.18130270464E+04  0.25500000920E-02 0.  1.
    10030    2    1    2    0    0  0.00000000000E+00  0.00000000000E+00 -0.14225544032E+03  0.34837986524E+04  0.34808930521E+04 0.  0.
        4    1    3    3  502    0 -0.62789502805E+03  0.68142580753E+03 -0.15456392891E+04  0.18021086877E+04  0.12699999809E+01 0.  1.
       -4    1    3    3    0  502  0.62789502805E+03 -0.68142580753E+03  0.14033838488E+04  0.16816899647E+04  0.12699999809E+01 0. -1.
</event>
<event>
 5   0  0.1013863E-07  0.3511838E+04  0.7818609E-02  0.8110990E-01
        1   -1    0    0  501    0  0.00000000000E+00  0.00000000000E+00  0.24378063649E+04  0.24378063649E+04  0.50400001928E-02 0. -1.
       -1   -1    0    0    0  501  0.00000000000E+00  0.00000000000E+00 -0.12647644286E+04  0.12647644286E+04  0.50400001928E-02 0.  1.
    10030    2    1    2    0    0  0.00000000000E+00  0.00000000000E+00  0.11730419363E+04  0.37025707935E+04  0.35118375670E+04 0.  0.
        2    1    3    3  502    0 -0.23427894457E+03 -0.14193753244E+03 -0.12420995791E+04  0.12719450662E+04  0.25500000920E-02 0.  1.
       -2    1    3    3    0  502  0.23427894457E+03  0.14193753244E+03  0.24151415154E+04  0.24306257273E+04  0.25500000920E-02 0. -1.
</event>
<event>
 5   0  0.3119048E-07  0.3500469E+04  0.7818609E-02  0.8113679E-01
        2   -1    0    0  501    0  0.00000000000E+00  0.00000000000E+00  0.18483563956E+04  0.18483563956E+04  0.25500000920E-02 0. -1.
       -2   -1    0    0    0  501  0.00000000000E+00  0.00000000000E+00 -0.16573218387E+04  0.16573218387E+04  0.25500000920E-02 0.  1.
    10030    2    1    2    0    0  0.00000000000E+00  0.00000000000E+00  0.19103455690E+03  0.35056782343E+04  0.35004693515E+04 0.  0.
        3    1    3    3  502    0  0.89979173796E+03 -0.28776741438E+03 -0.13800679432E+04  0.16724302062E+04  0.10100000352E+00 0.  1.
       -3    1    3    3    0  502 -0.89979173796E+03  0.28776741438E+03  0.15711025001E+04  0.18332480281E+04  0.10100000352E+00 0. -1.
</event>
<event>
 5   0  0.1013863E-07  0.3497539E+04  0.7818609E-02  0.8114373E-01
       -1   -1    0    0    0  501  0.00000000000E+00  0.00000000000E+00  0.11934902692E+04  0.11934902692E+04  0.50400001928E-02 0.  1.
        1   -1    0    0  501    0  0.00000000000E+00  0.00000000000E+00 -0.25623967831E+04  0.25623967831E+04  0.50400001928E-02 0. -1.
    10030    2    1    2    0    0  0.00000000000E+00  0.00000000000E+00 -0.13689065139E+04  0.37558870523E+04  0.34975394931E+04 0.  0.
        2    1    3    3  502    0  0.11782977141E+04  0.68454916891E+03  0.49249676358E+03  0.14489810661E+04  0.25500000920E-02 0.  1.
       -2    1    3    3    0  502 -0.11782977141E+04 -0.68454916891E+03 -0.18614032775E+04  0.23069059862E+04  0.25500000920E-02 0. -1.
</event>
<event>
 5   0  0.3190185E-07  0.3512285E+04  0.7818609E-02  0.8110885E-01
        2   -1    0    0  501    0  0.00000000000E+00  0.00000000000E+00  0.18793767217E+04  0.18793767217E+04  0.25500000920E-02 0. -1.
       -2   -1    0    0    0  501  0.00000000000E+00  0.00000000000E+00 -0.16409892088E+04  0.16409892088E+04  0.25500000920E-02 0.  1.
    10030    2    1    2    0    0  0.00000000000E+00  0.00000000000E+00  0.23838751289E+03  0.35203659305E+04  0.35122852501E+04 0.  0.
        1    1    3    3  502    0 -0.34188750512E+03 -0.11888433421E+04 -0.11301897784E+04  0.16755788532E+04  0.50400001928E-02 0.  1.
       -1    1    3    3    0  502  0.34188750512E+03  0.11888433421E+04  0.13685772913E+04  0.18447870773E+04  0.50400001928E-02 0. -1.
</event>
<event>
 5   0  0.3190112E-07  0.3477965E+04  0.7818609E-02  0.8119032E-01
       -2   -1    0    0    0  501  0.00000000000E+00  0.00000000000E+00  0.15732714646E+04  0.15732714646E+04  0.25500000920E-02 0. -1.
        2   -1    0    0  501    0  0.00000000000E+00  0.00000000000E+00 -0.19221471710E+04  0.19221471710E+04  0.25500000920E-02 0.  1.
    10030    2    1    2    0    0  0.00000000000E+00  0.00000000000E+00 -0.34887570638E+03  0.34954186356E+04  0.34779645167E+04 0.  0.
        5    1    3    3  502    0 -0.75750751378E+02 -0.60292504855E+03 -0.18119644137E+04  0.19111498939E+04  0.46999998093E+01 0.  1.
       -5    1    3    3    0  502  0.75750751378E+02  0.60292504855E+03  0.14630887073E+04  0.15842687417E+04  0.46999998093E+01 0. -1.
</event>
<event>
 5   0  0.3219205E-07  0.3285668E+04  0.7818609E-02  0.8166552E-01
       -2   -1    0    0    0  501  0.00000000000E+00  0.00000000000E+00  0.12636083981E+04  0.12636083981E+04  0.25500000920E-02 0. -1.
        2   -1    0    0  501    0  0.00000000000E+00  0.00000000000E+00 -0.21358700939E+04  0.21358700939E+04  0.25500000920E-02 0.  1.
    10030    2    1    2    0    0  0.00000000000E+00  0.00000000000E+00 -0.87226169580E+03  0.33994784920E+04  0.32856679004E+04 0.  0.
        2    1    3    3  502    0  0.10223609476E+04  0.49895473560E+02 -0.17656279976E+04  0.20408708169E+04  0.25500000920E-02 0.  1.
       -2    1    3    3    0  502 -0.10223609476E+04 -0.49895473560E+02  0.89336630184E+03  0.13586076750E+04  0.25500000920E-02 0. -1.
</event>
<event>
 5   0  0.1013863E-07  0.3486613E+04  0.7818609E-02  0.8116970E-01
       -1   -1    0    0    0  501  0.00000000000E+00  0.00000000000E+00  0.18093921834E+04  0.18093921834E+04  0.50400001928E-02 0. -1.
        1   -1    0    0  501    0  0.00000000000E+00  0.00000000000E+00 -0.16796342871E+04  0.16796342871E+04  0.50400001928E-02 0.  1.
    10030    2    1    2    0    0  0.00000000000E+00  0.00000000000E+00  0.12975789630E+03  0.34890264705E+04  0.34866127689E+04 0.  0.
        5    1    3    3  502    0  0.14052690264E+03 -0.93656081583E+03  0.15295181895E+04  0.17989835892E+04  0.46999998093E+01 0. -1.
       -5    1    3    3    0  502 -0.14052690264E+03  0.93656081583E+03 -0.13997602932E+04  0.16900428813E+04  0.46999998093E+01 0.  1.
</event>
<event>
 5   0  0.2180451E-07  0.3513507E+04  0.7818609E-02  0.8110596E-01
       -2   -1    0    0    0  501  0.00000000000E+00  0.00000000000E+00  0.18511175627E+04  0.18511175627E+04  0.25500000920E-02 0. -1.
        2   -1    0    0  501    0  0.00000000000E+00  0.00000000000E+00 -0.16671996162E+04  0.16671996162E+04  0.25500000920E-02 0.  1.
    10030    2    1    2    0    0  0.00000000000E+00  0.00000000000E+00  0.18391794650E+03  0.35183171790E+04  0.35135067896E+04 0.  0.
        4    1    3    3  502    0 -0.31921508857E+03 -0.52794316582E+03 -0.15551512608E+04  0.16730568777E+04  0.12699999809E+01 0.  1.
       -4    1    3    3    0  502  0.31921508857E+03  0.52794316582E+03  0.17390692073E+04  0.18452603013E+04  0.12699999809E+01 0. -1.
</event>
<event>
 5   0  0.3119048E-07  0.3552481E+04  0.7818609E-02  0.8101464E-01
        2   -1    0    0  501    0  0.00000000000E+00  0.00000000000E+00  0.15981339891E+04  0.15981339891E+04  0.25500000920E-02 0. -1.
       -2   -1    0    0    0  501  0.00000000000E+00  0.00000000000E+00 -0.19741965509E+04  0.19741965509E+04  0.25500000920E-02 0.  1.
    10030    2    1    2    0    0  0.00000000000E+00  0.00000000000E+00 -0.37606256183E+03  0.35723305400E+04  0.35524811663E+04 0.  0.
        3    1    3    3  502    0  0.10973956312E+04  0.10089056576E+04  0.78321359396E+03  0.16839214178E+04  0.10100000352E+00 0. -1.
       -3    1    3    3    0  502 -0.10973956312E+04 -0.10089056576E+04 -0.11592761558E+04  0.18884091222E+04  0.10100000352E+00 0.  1.
</event>
<event>
 5   0  0.1098171E-07  0.3504510E+04  0.7818609E-02  0.8112722E-01
        1   -1    0    0  501    0  0.00000000000E+00  0.00000000000E+00  0.15029644739E+04  0.15029644739E+04  0.50400001928E-02 0.  1.
       -1   -1    0    0    0  501  0.00000000000E+00  0.00000000000E+00 -0.20428942515E+04  0.20428942515E+04  0.50400001928E-02 0. -1.
    10030    2    1    2    0    0  0.00000000000E+00  0.00000000000E+00 -0.53992977767E+03  0.35458587254E+04  0.35045099423E+04 0.  0.
        4    1    3    3  502    0  0.11123079254E+04  0.13340922661E+04 -0.50369866533E+03  0.18085201281E+04  0.12699999809E+01 0.  1.
       -4    1    3    3    0  502 -0.11123079254E+04 -0.13340922661E+04 -0.36231112336E+02  0.17373385973E+04  0.12699999809E+01 0. -1.
</event>
<event>
 5   0  0.3190112E-07  0.3499503E+04  0.7818609E-02  0.8113908E-01
        2   -1    0    0  501    0  0.00000000000E+00  0.00000000000E+00  0.17985007008E+04  0.17985007008E+04  0.25500000920E-02 0.  1.
       -2   -1    0    0    0  501  0.00000000000E+00  0.00000000000E+00 -0.17023231966E+04  0.17023231966E+04  0.25500000920E-02 0. -1.
    10030    2    1    2    0    0  0.00000000000E+00  0.00000000000E+00  0.96177504168E+02  0.35008238974E+04  0.34995025144E+04 0.  0.
        5    1    3    3  502    0  0.88818278967E+03 -0.14554448778E+04 -0.34502134487E+03  0.17396121058E+04  0.46999998093E+01 0. -1.
       -5    1    3    3    0  502 -0.88818278967E+03  0.14554448778E+04  0.44119884904E+03  0.17612117915E+04  0.46999998093E+01 0.  1.
</event>
<event>
 5   0  0.3119048E-07  0.3534057E+04  0.7818609E-02  0.8105766E-01
       -2   -1    0    0    0  501  0.00000000000E+00  0.00000000000E+00  0.29497847338E+04  0.29497847338E+04  0.25500000920E-02 0. -1.
        2   -1    0    0  501    0  0.00000000000E+00  0.00000000000E+00 -0.10585147018E+04  0.10585147018E+04  0.25500000920E-02 0.  1.
    10030    2    1    2    0    0  0.00000000000E+00  0.00000000000E+00  0.18912700320E+04  0.40082994356E+04  0.35340574460E+04 0.  0.
        3    1    3    3  502    0  0.69671094928E+03  0.59618967901E+03 -0.76753635234E+03  0.11958094926E+04  0.10100000352E+00 0.  1.
       -3    1    3    3    0  502 -0.69671094928E+03 -0.59618967901E+03  0.26588063843E+04  0.28124899430E+04  0.10100000352E+00 0. -1.
</event>
<event>
 5   0  0.1033796E-07  0.3502237E+04  0.7818609E-02  0.8113260E-01
        1   -1    0    0  501    0  0.00000000000E+00  0.00000000000E+00  0.21235550652E+04  0.21235550652E+04  0.50400001928E-02 0.  1.
       -1   -1    0    0    0  501  0.00000000000E+00  0.00000000000E+00 -0.14440007665E+04  0.14440007665E+04  0.50400001928E-02 0. -1.
    10030    2    1    2    0    0  0.00000000000E+00  0.00000000000E+00  0.67955429867E+03  0.35675558317E+04  0.35022365094E+04 0.  0.
        3    1    3    3  502    0  0.99008177761E+03 -0.11649387153E+04  0.12095587529E+04  0.19494554428E+04  0.10100000352E+00 0.  1.
       -3    1    3    3    0  502 -0.99008177761E+03  0.11649387153E+04 -0.53000445423E+03  0.16181003889E+04  0.10100000352E+00 0. -1.
</event>
<event>
 5   0  0.2180451E-07  0.3504030E+04  0.7818609E-02  0.8112836E-01
       -2   -1    0    0    0  501  0.00000000000E+00  0.00000000000E+00  0.22905564194E+04  0.22905564194E+04  0.25500000920E-02 0. -1.
        2   -1    0    0  501    0  0.00000000000E+00  0.00000000000E+00 -0.13400919971E+04  0.13400919971E+04  0.25500000920E-02 0.  1.
    10030    2    1    2    0    0  0.00000000000E+00  0.00000000000E+00  0.95046442228E+03  0.36306484165E+04  0.35040298666E+04 0.  0.
        4    1    3    3  502    0 -0.27557027301E+03 -0.65513176623E+03  0.21344783398E+04  0.22496968690E+04  0.12699999809E+01 0. -1.
       -4    1    3    3    0  502  0.27557027301E+03  0.65513176623E+03 -0.11840139175E+04  0.13809515474E+04  0.12699999809E+01 0.  1.
</event>
<event>
 5   0  0.1098171E-07  0.3490674E+04  0.7818609E-02  0.8116004E-01
        1   -1    0    0  501    0  0.00000000000E+00  0.00000000000E+00  0.17725201385E+04  0.17725201385E+04  0.50400001928E-02 0. -1.
       -1   -1    0    0    0  501  0.00000000000E+00  0.00000000000E+00 -0.17185711514E+04  0.17185711514E+04  0.50400001928E-02 0.  1.
    10030    2    1    2    0    0  0.00000000000E+00  0.00000000000E+00  0.53948987075E+02  0.34910912899E+04  0.34906744192E+04 0.  0.
        4    1    3    3  502    0 -0.23471340495E+03  0.16344395859E+04 -0.53852845831E+03  0.17368067410E+04  0.12699999809E+01 0.  1.
       -4    1    3    3    0  502  0.23471340495E+03 -0.16344395859E+04  0.59247744538E+03  0.17542845489E+04  0.12699999809E+01 0. -1.
</event>
<event>
 5   0  0.2180451E-07  0.3499517E+04  0.7818609E-02  0.8113904E-01
       -2   -1    0    0    0  501  0.00000000000E+00  0.00000000000E+00  0.21322736518E+04  0.21322736518E+04  0.25500000920E-02 0.  1.
        2   -1    0    0  501    0  0.00000000000E+00  0.00000000000E+00 -0.14358640593E+04  0.14358640593E+04  0.25500000920E-02 0. -1.
    10030    2    1    2    0    0  0.00000000000E+00  0.00000000000E+00  0.69640959257E+03  0.35681377111E+04  0.34995171674E+04 0.  0.
        4    1    3    3  502    0 -0.12192223653E+04  0.75202562716E+03  0.13726997437E+04  0.19840241731E+04  0.12699999809E+01 0.  1.
       -4    1    3    3    0  502  0.12192223653E+04 -0.75202562716E+03 -0.67629015118E+03  0.15841135380E+04  0.12699999809E+01 0. -1.
</event>
<event>
 5   0  0.3190185E-07  0.3487800E+04  0.7818609E-02  0.8116687E-01
        2   -1    0    0  501    0  0.00000000000E+00  0.00000000000E+00  0.22494599369E+04  0.22494599369E+04  0.25500000920E-02 0. -1.
       -2   -1    0    0    0  501  0.00000000000E+00  0.00000000000E+00 -0.13519632339E+04  0.13519632339E+04  0.25500000920E-02 0.  1.
    10030    2    1    2    0    0  0.00000000000E+00  0.00000000000E+00  0.89749670302E+03  0.36014231708E+04  0.34877999546E+04 0.  0.
        1    1    3    3  502    0  0.14480237906E+04 -0.95939646781E+03  0.60862337079E+03  0.18405534190E+04  0.50400001928E-02 0. -1.
       -1    1    3    3    0  502 -0.14480237906E+04  0.95939646781E+03  0.28887333224E+03  0.17608697518E+04  0.50400001928E-02 0.  1.
</event>
<event>
 5   0  0.3119048E-07  0.3486370E+04  0.7818609E-02  0.8117028E-01
        2   -1    0    0  501    0  0.00000000000E+00  0.00000000000E+00  0.18918015846E+04  0.18918015846E+04  0.25500000920E-02 0. -1.
       -2   -1    0    0    0  501  0.00000000000E+00  0.00000000000E+00 -0.16062436350E+04  0.16062436350E+04  0.25500000920E-02 0.  1.
    10030    2    1    2    0    0  0.00000000000E+00  0.00000000000E+00  0.28555794964E+03  0.34980452196E+04  0.34863701777E+04 0.  0.
        3    1    3    3  502    0 -0.12565572069E+04 -0.11128518738E+04 -0.32924190348E+03  0.17104898563E+04  0.10100000352E+00 0.  1.
       -3    1    3    3    0  502  0.12565572069E+04  0.11128518738E+04  0.61479985312E+03  0.17875553633E+04  0.10100000352E+00 0. -1.
</event>
<event>
 5   0  0.3119048E-07  0.3509756E+04  0.7818609E-02  0.8111482E-01
        2   -1    0    0  501    0  0.00000000000E+00  0.00000000000E+00  0.21645544796E+04  0.21645544796E+04  0.25500000920E-02 0. -1.
       -2   -1    0    0    0  501  0.00000000000E+00  0.00000000000E+00 -0.14227393821E+04  0.14227393821E+04  0.25500000920E-02 0.  1.
    10030    2    1    2    0    0  0.00000000000E+00  0.00000000000E+00  0.74181509753E+03  0.35872938617E+04  0.35097560615E+04 0.  0.
        3    1    3    3  502    0 -0.96657075901E+03  0.14569196647E+04  0.52497907595E+03  0.18255073218E+04  0.10100000352E+00 0. -1.
       -3    1    3    3    0  502  0.96657075901E+03 -0.14569196647E+04  0.21683602159E+03  0.17617865399E+04  0.10100000352E+00 0.  1.
</event>
<event>
 5   0  0.1013863E-07  0.3510818E+04  0.7818609E-02  0.8111231E-01
        1   -1    0    0  501    0  0.00000000000E+00  0.00000000000E+00  0.17152075416E+04  0.17152075416E+04  0.50400001928E-02 0. -1.
       -1   -1    0    0    0  501  0.00000000000E+00  0.00000000000E+00 -0.17965530935E+04  0.17965530935E+04  0.50400001928E-02 0.  1.
    10030    2    1    2    0    0  0.00000000000E+00  0.00000000000E+00 -0.81345551818E+02  0.35117606351E+04  0.35108183746E+04 0.  0.
        2    1    3    3  502    0  0.73684104855E+02 -0.45113533025E+03  0.16546298757E+04  0.17166107477E+04  0.25500000920E-02 0. -1.
       -2    1    3    3    0  502 -0.73684104855E+02  0.45113533025E+03 -0.17359754275E+04  0.17951498874E+04  0.25500000920E-02 0.  1.
</event>
<event>
 5   0  0.1033796E-07  0.3497874E+04  0.7818609E-02  0.8114294E-01
        1   -1    0    0  501    0  0.00000000000E+00  0.00000000000E+00  0.15158336437E+04  0.15158336437E+04  0.50400001928E-02 0.  1.
       -1   -1    0    0    0  501  0.00000000000E+00  0.00000000000E+00 -0.20178864043E+04  0.20178864043E+04  0.50400001928E-02 0. -1.
    10030    2    1    2    0    0  0.00000000000E+00  0.00000000000E+00 -0.50205276054E+03  0.35337200480E+04  0.34978736974E+04 0.  0.
        3    1    3    3  502    0 -0.14388623442E+04  0.24001916757E+03 -0.12257173567E+04  0.19053391023E+04  0.10100000352E+00 0. -1.
       -3    1    3    3    0  502  0.14388623442E+04 -0.24001916757E+03  0.72366459614E+03  0.16283809457E+04  0.10100000352E+00 0.  1.
</event>
<event>
 5   0  0.1013863E-07  0.3523548E+04  0.7818609E-02  0.8108232E-01
       -1   -1    0    0    0  501  0.00000000000E+00  0.00000000000E+00  0.12583920136E+04  0.12583920137E+04  0.50400001928E-02 0. -1.
        1   -1    0    0  501    0  0.00000000000E+00  0.00000000000E+00 -0.24665195315E+04  0.24665195315E+04  0.50400001928E-02 0.  1.
    10030    2    1    2    0    0  0.00000000000E+00  0.00000000000E+00 -0.12081275179E+04  0.37249115452E+04  0.35235484841E+04 0.  0.
        5    1    3    3  502    0 -0.14136834301E+04  0.29644199778E+01 -0.17154860177E+04  0.22229313969E+04  0.46999998093E+01 0.  1.
       -5    1    3    3    0  502  0.14136834301E+04 -0.29644199778E+01  0.50735849984E+03  0.15019801483E+04  0.46999998093E+01 0. -1.
</event>
<event>
 5   0  0.1013863E-07  0.3504578E+04  0.7818609E-02  0.8112706E-01
        3   -1    0    0  501    0  0.00000000000E+00  0.00000000000E+00  0.18286513972E+04  0.18286514000E+04  0.10100000352E+00 0. -1.
       -3   -1    0    0    0  501  0.00000000000E+00  0.00000000000E+00 -0.16791152001E+04  0.16791152031E+04  0.10100000352E+00 0.  1.
    10030    2    1    2    0    0  0.00000000000E+00  0.00000000000E+00  0.14953619716E+03  0.35077666031E+04  0.35045777874E+04 0.  0.
        5    1    3    3  502    0  0.43916634416E+03  0.16270805061E+04 -0.40549786974E+03  0.17334095487E+04  0.46999998093E+01 0.  1.
       -5    1    3    3    0  502 -0.43916634416E+03 -0.16270805061E+04  0.55503406690E+03  0.17743570544E+04  0.46999998093E+01 0. -1.
</event>
<event>
 5   0  0.1013863E-07  0.3492522E+04  0.7818609E-02  0.8115564E-01
        1   -1    0    0  501    0  0.00000000000E+00  0.00000000000E+00  0.20536503656E+04  0.20536503656E+04  0.50400001928E-02 0. -1.
       -1   -1    0    0    0  501  0.00000000000E+00  0.00000000000E+00 -0.14848814735E+04  0.14848814736E+04  0.50400001928E-02 0.  1.
    10030    2    1    2    0    0  0.00000000000E+00  0.00000000000E+00  0.56876889203E+03  0.35385318391E+04  0.34925219432E+04 0.  0.
        2    1    3    3  502    0 -0.14393604735E+04 -0.89203153274E+03  0.71655807908E+03  0.18387317121E+04  0.25500000920E-02 0. -1.
       -2    1    3    3    0  502  0.14393604735E+04  0.89203153274E+03 -0.14778918705E+03  0.16998001271E+04  0.25500000920E-02 0.  1.
</event>
<event>
 5   0  0.1072381E-07  0.3460873E+04  0.7818609E-02  0.8123126E-01
        1   -1    0    0  501    0  0.00000000000E+00  0.00000000000E+00  0.22671803970E+04  0.22671803970E+04  0.50400001928E-02 0.  1.
       -1   -1    0    0    0  501  0.00000000000E+00  0.00000000000E+00 -0.13207643082E+04  0.13207643082E+04  0.50400001928E-02 0. -1.
    10030    2    1    2    0    0  0.00000000000E+00  0.00000000000E+00  0.94641608879E+03  0.35879447053E+04  0.34608732706E+04 0.  0.
        1    1    3    3  502    0 -0.25392122126E+03  0.91344300120E+03  0.19739629370E+04  0.21898364733E+04  0.50400001928E-02 0.  1.
       -1    1    3    3    0  502  0.25392122126E+03 -0.91344300120E+03 -0.10275468482E+04  0.13981082320E+04  0.50400001928E-02 0. -1.
</event>
<event>
 5   0  0.2180451E-07  0.3509036E+04  0.7818609E-02  0.8111652E-01
       -2   -1    0    0    0  501  0.00000000000E+00  0.00000000000E+00  0.17681612716E+04  0.17681612716E+04  0.25500000920E-02 0.  1.
        2   -1    0    0  501    0  0.00000000000E+00  0.00000000000E+00 -0.17409800133E+04  0.17409800133E+04  0.25500000920E-02 0. -1.
    10030    2    1    2    0    0  0.00000000000E+00  0.00000000000E+00  0.27181258245E+02  0.35091412849E+04  0.35090360124E+04 0.  0.
        4    1    3    3  502    0 -0.69665995729E+03 -0.43439078661E+03  0.15642181253E+04  0.17665815599E+04  0.12699999809E+01 0.  1.
       -4    1    3    3    0  502  0.69665995729E+03  0.43439078661E+03 -0.15370368670E+04  0.17425597250E+04  0.12699999809E+01 0. -1.
</event>
<event>
 5   0  0.1033796E-07  0.3501328E+04  0.7818609E-02  0.8113475E-01
       -1   -1    0    0    0  501  0.00000000000E+00  0.00000000000E+00  0.15384883026E+04  0.15384883026E+04  0.50400001928E-02 0.  1.
        1   -1    0    0  501    0  0.00000000000E+00  0.00000000000E+00 -0.19921010547E+04  0.19921010547E+04  0.50400001928E-02 0. -1.
    10030    2    1    2    0    0  0.00000000000E+00  0.00000000000E+00 -0.45361275204E+03  0.35305893573E+04  0.35013278454E+04 0.  0.
        3    1    3    3  502    0 -0.74439808180E+03  0.96894730025E+03  0.10374005176E+04  0.16028684347E+04  0.10100000352E+00 0.  1.
       -3    1    3    3    0  502  0.74439808180E+03 -0.96894730025E+03 -0.14910132697E+04  0.19277209226E+04  0.10100000352E+00 0. -1.
</event>
<event>
 5   0  0.3219205E-07  0.3269046E+04  0.7818609E-02  0.8170817E-01
       -2   -1    0    0    0  501  0.00000000000E+00  0.00000000000E+00  0.15063721393E+04  0.15063721393E+04  0.25500000920E-02 0. -1.
        2   -1    0    0  501    0  0.00000000000E+00  0.00000000000E+00 -0.17735761571E+04  0.17735761571E+04  0.25500000920E-02 0.  1.
    10030    2    1    2    0    0  0.00000000000E+00  0.00000000000E+00 -0.26720401781E+03  0.32799482963E+04  0.32690461666E+04 0.  0.
        2    1    3    3  502    0 -0.14189734095E+04  0.76151371132E+03 -0.41431540774E+03  0.16628427245E+04  0.25500000920E-02 0. -1.
       -2    1    3    3    0  502  0.14189734095E+04 -0.76151371132E+03  0.14711138993E+03  0.16171055718E+04  0.25500000920E-02 0.  1.
</event>
<event>
 5   0  0.1013863E-07  0.3466220E+04  0.7818609E-02  0.8121842E-01
        1   -1    0    0  501    0  0.00000000000E+00  0.00000000000E+00  0.21897043910E+04  0.21897043910E+04  0.50400001928E-02 0. -1.
       -1   -1    0    0    0  501  0.00000000000E+00  0.00000000000E+00 -0.13717240762E+04  0.13717240762E+04  0.50400001928E-02 0.  1.
    10030    2    1    2    0    0  0.00000000000E+00  0.00000000000E+00  0.81798031473E+03  0.35614284672E+04  0.34662199774E+04 0.  0.
        5    1    3    3  502    0  0.17109047934E+04 -0.27502799011E+03  0.37970218415E+03  0.17739874424E+04  0.46999998093E+01 0.  1.
       -5    1    3    3    0  502 -0.17109047934E+04  0.27502799011E+03  0.43827813058E+03  0.17874410248E+04  0.46999998093E+01 0. -1.
</event>
<event>
 5   0  0.2180451E-07  0.3351833E+04  0.7818609E-02  0.8149830E-01
        2   -1    0    0  501    0  0.00000000000E+00  0.00000000000E+00  0.17243382287E+04  0.17243382287E+04  0.25500000920E-02 0. -1.
       -2   -1    0    0    0  501  0.00000000000E+00  0.00000000000E+00 -0.16288545643E+04  0.16288545643E+04  0.25500000920E-02 0.  1.
    10030    2    1    2    0    0  0.00000000000E+00  0.00000000000E+00  0.95483664395E+02  0.33531927929E+04  0.33518330472E+04 0.  0.
        4    1    3    3  502    0 -0.10760645834E+04 -0.62235806022E+03  0.11722307559E+04  0.17086167215E+04  0.12699999809E+01 0. -1.
       -4    1    3    3    0  502  0.10760645834E+04  0.62235806022E+03 -0.10767470915E+04  0.16445760715E+04  0.12699999809E+01 0.  1.
</event>
<event>
 5   0  0.2180451E-07  0.3503408E+04  0.7818609E-02  0.8112983E-01
        2   -1    0    0  501    0  0.00000000000E+00  0.00000000000E+00  0.29218412001E+04  0.29218412001E+04  0.25500000920E-02 0.  1.
       -2   -1    0    0    0  501  0.00000000000E+00  0.00000000000E+00 -0.10501826595E+04  0.10501826595E+04  0.25500000920E-02 0. -1.
    10030    2    1    2    0    0  0.00000000000E+00  0.00000000000E+00  0.18716585406E+04  0.39720238597E+04  0.35034080335E+04 0.  0.
        4    1    3    3  502    0  0.16030100848E+04  0.62040829031E+03  0.13184922817E+04  0.21663266809E+04  0.12699999809E+01 0.  1.
       -4    1    3    3    0  502 -0.16030100848E+04 -0.62040829031E+03  0.55316625895E+03  0.18056971788E+04  0.12699999809E+01 0. -1.
</event>
<event>
 5   0  0.3190185E-07  0.3467798E+04  0.7818609E-02  0.8121464E-01
        2   -1    0    0  501    0  0.00000000000E+00  0.00000000000E+00  0.14675134723E+04  0.14675134723E+04  0.25500000920E-02 0.  1.
       -2   -1    0    0    0  501  0.00000000000E+00  0.00000000000E+00 -0.20486389615E+04  0.20486389615E+04  0.25500000920E-02 0. -1.
    10030    2    1    2    0    0  0.00000000000E+00  0.00000000000E+00 -0.58112548923E+03  0.35161524338E+04  0.34677977311E+04 0.  0.
        1    1    3    3  502    0  0.11406501476E+04  0.11881758789E+04  0.25880457126E+03  0.16672805657E+04  0.50400001928E-02 0.  1.
       -1    1    3    3    0  502 -0.11406501476E+04 -0.11881758789E+04 -0.83993006048E+03  0.18488718682E+04  0.50400001928E-02 0. -1.
</event>
<event>
 5   0  0.1013863E-07  0.3503505E+04  0.7818609E-02  0.8112960E-01
       -1   -1    0    0    0  501  0.00000000000E+00  0.00000000000E+00  0.17639466727E+04  0.17639466727E+04  0.50400001928E-02 0.  1.
        1   -1    0    0  501    0  0.00000000000E+00  0.00000000000E+00 -0.17396424465E+04  0.17396424465E+04  0.50400001928E-02 0. -1.
    10030    2    1    2    0    0  0.00000000000E+00  0.00000000000E+00  0.24304226198E+02  0.35035891192E+04  0.35035048196E+04 0.  0.
        2    1    3    3  502    0  0.43700090586E+03  0.39993929353E+03 -0.16364369992E+04  0.17403583776E+04  0.25500000920E-02 0. -1.
       -2    1    3    3    0  502 -0.43700090586E+03 -0.39993929353E+03  0.16607412254E+04  0.17632307416E+04  0.25500000920E-02 0.  1.
</event>
<event>
 5   0  0.2180451E-07  0.3513432E+04  0.7818609E-02  0.8110614E-01
        2   -1    0    0  501    0  0.00000000000E+00  0.00000000000E+00  0.20377957598E+04  0.20377957598E+04  0.25500000920E-02 0. -1.
       -2   -1    0    0    0  501  0.00000000000E+00  0.00000000000E+00 -0.15144063125E+04  0.15144063125E+04  0.25500000920E-02 0.  1.
    10030    2    1    2    0    0  0.00000000000E+00  0.00000000000E+00  0.52338944729E+03  0.35522020723E+04  0.35134318051E+04 0.  0.
        4    1    3    3  502    0 -0.15789564635E+04 -0.42087167337E+03 -0.39025633392E+03  0.16800411002E+04  0.12699999809E+01 0.  1.
       -4    1    3    3    0  502  0.15789564635E+04  0.42087167337E+03  0.91364578121E+03  0.18721609721E+04  0.12699999809E+01 0. -1.
</event>
<event>
 5   0  0.2180451E-07  0.3509010E+04  0.7818609E-02  0.8111658E-01
       -2   -1    0    0    0  501  0.00000000000E+00  0.00000000000E+00  0.11629417088E+04  0.11629417088E+04  0.25500000920E-02 0.  1.
        2   -1    0    0  501    0  0.00000000000E+00  0.00000000000E+00 -0.26469830272E+04  0.26469830272E+04  0.25500000920E-02 0. -1.
    10030    2    1    2    0    0  0.00000000000E+00  0.00000000000E+00 -0.14840413184E+04  0.38099247359E+04  0.35090095267E+04 0.  0.
        4    1    3    3  502    0  0.15689966650E+04  0.38759119038E+03 -0.59394636740E+00  0.16161619447E+04  0.12699999809E+01 0.  1.
       -4    1    3    3    0  502 -0.15689966650E+04 -0.38759119038E+03 -0.14834473720E+04  0.21937627912E+04  0.12699999809E+01 0. -1.
</event>
<event>
 5   0  0.3190112E-07  0.3491699E+04  0.7818609E-02  0.8115760E-01
        2   -1    0    0  501    0  0.00000000000E+00  0.00000000000E+00  0.19081163537E+04  0.19081163537E+04  0.25500000920E-02 0.  1.
       -2   -1    0    0    0  501  0.00000000000E+00  0.00000000000E+00 -0.15973816122E+04  0.15973816122E+04  0.25500000920E-02 0. -1.
    10030    2    1    2    0    0  0.00000000000E+00  0.00000000000E+00  0.31073474159E+03  0.35054979659E+04  0.34916987140E+04 0.  0.
        5    1    3    3  502    0  0.13083032428E+04  0.13897942500E+03 -0.99677210666E+03  0.16506209069E+04  0.46999998093E+01 0. -1.
       -5    1    3    3    0  502 -0.13083032428E+04 -0.13897942500E+03  0.13075068483E+04  0.18548770590E+04  0.46999998093E+01 0.  1.
</event>
<event>
 5   0  0.2180451E-07  0.3517291E+04  0.7818609E-02  0.8109704E-01
       -2   -1    0    0    0  501  0.00000000000E+00  0.00000000000E+00  0.13965748784E+04  0.13965748784E+04  0.25500000920E-02 0. -1.
        2   -1    0    0  501    0  0.00000000000E+00  0.00000000000E+00 -0.22145857361E+04  0.22145857362E+04  0.25500000920E-02 0.  1.
    10030    2    1    2    0    0  0.00000000000E+00  0.00000000000E+00 -0.81801085774E+03  0.36111606146E+04  0.35172914609E+04 0.  0.
        4    1    3    3  502    0 -0.59564468207E+03 -0.39847181453E+03  0.12398632855E+04  0.14320736552E+04  0.12699999809E+01 0. -1.
       -4    1    3    3    0  502  0.59564468207E+03  0.39847181453E+03 -0.20578741432E+04  0.21790869594E+04  0.12699999809E+01 0.  1.
</event>
<event>
 5   0  0.1033796E-07  0.3500780E+04  0.7818609E-02  0.8113605E-01
        1   -1    0    0  501    0  0.00000000000E+00  0.00000000000E+00  0.21848270463E+04  0.21848270463E+04  0.50400001928E-02 0.  1.
       -1   -1    0    0    0  501  0.00000000000E+00  0.00000000000E+00 -0.14023377911E+04  0.14023377911E+04  0.50400001928E-02 0. -1.
    10030    2    1    2    0    0  0.00000000000E+00  0.00000000000E+00  0.78248925520E+03  0.35871648374E+04  0.35007802182E+04 0.  0.
        3    1    3    3  502    0 -0.14147745766E+04  0.72528700413E+03 -0.35910720924E+03  0.16299037821E+04  0.10100000352E+00 0. -1.
       -3    1    3    3    0  502  0.14147745766E+04 -0.72528700413E+03  0.11415964644E+04  0.19572610553E+04  0.10100000352E+00 0.  1.
</event>
<event>
 5   0  0.1033796E-07  0.3508319E+04  0.7818609E-02  0.8111821E-01
       -1   -1    0    0    0  501  0.00000000000E+00  0.00000000000E+00  0.19902149940E+04  0.19902149940E+04  0.50400001928E-02 0. -1.
        1   -1    0    0  501    0  0.00000000000E+00  0.00000000000E+00 -0.15461021635E+04  0.15461021635E+04  0.50400001928E-02 0.  1.
    10030    2    1    2    0    0  0.00000000000E+00  0.00000000000E+00  0.44411283054E+03  0.35363171575E+04  0.35083190893E+04 0.  0.
        3    1    3    3  502    0  0.49721303848E+03  0.16358519119E+04  0.61741536723E+03  0.18178102292E+04  0.10100000352E+00 0.  1.
       -3    1    3    3    0  502 -0.49721303848E+03 -0.16358519119E+04 -0.17330253668E+03  0.17185069284E+04  0.10100000352E+00 0. -1.
</event>
<event>
 5   0  0.1033796E-07  0.3503652E+04  0.7818609E-02  0.8112925E-01
        1   -1    0    0  501    0  0.00000000000E+00  0.00000000000E+00  0.26321972046E+04  0.26321972046E+04  0.50400001928E-02 0.  1.
       -1   -1    0    0    0  501  0.00000000000E+00  0.00000000000E+00 -0.11659057186E+04  0.11659057186E+04  0.50400001928E-02 0. -1.
    10030    2    1    2    0    0  0.00000000000E+00  0.00000000000E+00  0.14662914860E+04  0.37981029232E+04  0.35036516798E+04 0.  0.
        3    1    3    3  502    0  0.80651000934E+03  0.51292049438E+03  0.23246378880E+04  0.25134611892E+04  0.10100000352E+00 0.  1.
       -3    1    3    3    0  502 -0.80651000934E+03 -0.51292049438E+03 -0.85834640202E+03  0.12846417340E+04  0.10100000352E+00 0. -1.
</event>
<event>
 5   0  0.3190112E-07  0.3522006E+04  0.7818609E-02  0.8108595E-01
        2   -1    0    0  501    0  0.00000000000E+00  0.00000000000E+00  0.16219988667E+04  0.16219988667E+04  0.25500000920E-02 0. -1.
       -2   -1    0    0    0  501  0.00000000000E+00  0.00000000000E+00 -0.19119194070E+04  0.19119194070E+04  0.25500000920E-02 0.  1.
    10030    2    1    2    0    0  0.00000000000E+00  0.00000000000E+00 -0.28992054033E+03  0.35339182737E+04  0.35220057418E+04 0.  0.
        5    1    3    3  502    0 -0.14107078555E+04 -0.92904905868E+03 -0.64451994420E+03  0.18079427136E+04  0.46999998093E+01 0.  1.
       -5    1    3    3    0  502  0.14107078555E+04  0.92904905868E+03  0.35459940386E+03  0.17259755602E+04  0.46999998093E+01 0. -1.
</event>
<event>
 5   0  0.3190185E-07  0.3487802E+04  0.7818609E-02  0.8116687E-01
       -2   -1    0    0    0  501  0.00000000000E+00  0.00000000000E+00  0.18658079027E+04  0.18658079027E+04  0.25500000920E-02 0.  1.
        2   -1    0    0  501    0  0.00000000000E+00  0.00000000000E+00 -0.16299589889E+04  0.16299589889E+04  0.25500000920E-02 0. -1.
    10030    2    1    2    0    0  0.00000000000E+00  0.00000000000E+00  0.23584891375E+03  0.34957668916E+04  0.34878018078E+04 0.  0.
        1    1    3    3  502    0 -0.16220514842E+04  0.20498590615E+03 -0.49019016487E+03  0.17068557751E+04  0.50400001928E-02 0. -1.
       -1    1    3    3    0  502  0.16220514842E+04 -0.20498590615E+03  0.72603907862E+03  0.17889111166E+04  0.50400001928E-02 0.  1.
</event>
<event>
 5   0  0.3190112E-07  0.3507354E+04  0.7818609E-02  0.8112049E-01
       -2   -1    0    0    0  501  0.00000000000E+00  0.00000000000E+00  0.18079025148E+04  0.18079025148E+04  0.25500000920E-02 0. -1.
        2   -1    0    0  501    0  0.00000000000E+00  0.00000000000E+00 -0.17010783677E+04  0.17010783677E+04  0.25500000920E-02 0.  1.
    10030    2    1    2    0    0  0.00000000000E+00  0.00000000000E+00  0.10682414712E+03  0.35089808824E+04  0.35073544781E+04 0.  0.
        5    1    3    3  502    0  0.68659639405E+03 -0.41209771506E+03 -0.15074788975E+04  0.17069721297E+04  0.46999998093E+01 0.  1.
       -5    1    3    3    0  502 -0.68659639405E+03  0.41209771506E+03  0.16143030446E+04  0.18020087528E+04  0.46999998093E+01 0. -1.
</event>
<event>
 5   0  0.3219205E-07  0.3501750E+04  0.7818609E-02  0.8113375E-01
        2   -1    0    0  501    0  0.00000000000E+00  0.00000000000E+00  0.15360837873E+04  0.15360837873E+04  0.25500000920E-02 0. -1.
       -2   -1    0    0    0  501  0.00000000000E+00  0.00000000000E+00 -0.19957006798E+04  0.19957006798E+04  0.25500000920E-02 0.  1.
    10030    2    1    2    0    0  0.00000000000E+00  0.00000000000E+00 -0.45961689253E+03  0.35317844671E+04  0.35017501102E+04 0.  0.
        2    1    3    3  502    0 -0.13458697185E+04  0.30934504689E+03  0.85576140322E+03  0.16246191051E+04  0.25500000920E-02 0. -1.
       -2    1    3    3    0  502  0.13458697185E+04 -0.30934504689E+03 -0.13153782958E+04  0.19071653621E+04  0.25500000920E-02 0.  1.
</event>
<event>
 5   0  0.1013863E-07  0.3521084E+04  0.7818609E-02  0.8108811E-01
        1   -1    0    0  501    0  0.00000000000E+00  0.00000000000E+00  0.10521405792E+04  0.10521405792E+04  0.50400001928E-02 0.  1.
       -1   -1    0    0    0  501  0.00000000000E+00  0.00000000000E+00 -0.29459063603E+04  0.29459063603E+04  0.50400001928E-02 0. -1.
    10030    2    1    2    0    0  0.00000000000E+00  0.00000000000E+00 -0.18937657811E+04  0.39980469395E+04  0.35210837105E+04 0.  0.
        2    1    3    3  502    0 -0.63677270241E+03  0.10307622960E+04  0.50346669693E+03  0.13120324311E+04  0.25500000920E-02 0.  1.
       -2    1    3    3    0  502  0.63677270241E+03 -0.10307622960E+04 -0.23972324780E+04  0.26860145084E+04  0.25500000920E-02 0. -1.
</event>
<event>
 5   0  0.2180451E-07  0.3456545E+04  0.7818609E-02  0.8124166E-01
        2   -1    0    0  501    0  0.00000000000E+00  0.00000000000E+00  0.20378258665E+04  0.20378258665E+04  0.25500000920E-02 0. -1.
       -2   -1    0    0    0  501  0.00000000000E+00  0.00000000000E+00 -0.14657417571E+04  0.14657417571E+04  0.25500000920E-02 0.  1.
    10030    2    1    2    0    0  0.00000000000E+00  0.00000000000E+00  0.57208410942E+03  0.35035676236E+04  0.34565453657E+04 0.  0.
        4    1    3    3  502    0  0.48197355478E+03 -0.12129973841E+03  0.19638282141E+04  0.20257430739E+04  0.12699999809E+01 0. -1.
       -4    1    3    3    0  502 -0.48197355478E+03  0.12129973841E+03 -0.13917441047E+04  0.14778245497E+04  0.12699999809E+01 0.  1.
</event>
<event>
 5   0  0.1013863E-07  0.3485493E+04  0.7818609E-02  0.8117236E-01
       -1   -1    0    0    0  501  0.00000000000E+00  0.00000000000E+00  0.12820153082E+04  0.12820153082E+04  0.50400001928E-02 0. -1.
        1   -1    0    0  501    0  0.00000000000E+00  0.00000000000E+00 -0.23690558152E+04  0.23690558152E+04  0.50400001928E-02 0.  1.
    10030    2    1    2    0    0  0.00000000000E+00  0.00000000000E+00 -0.10870405070E+04  0.36510711233E+04  0.34854932626E+04 0.  0.
        5    1    3    3  502    0  0.82569341261E+03 -0.15164197298E+04 -0.29597793954E+03  0.17518343070E+04  0.46999998093E+01 0. -1.
       -5    1    3    3    0  502 -0.82569341261E+03  0.15164197298E+04 -0.79106256746E+03  0.18992368163E+04  0.46999998093E+01 0.  1.
</event>
<event>
 5   0  0.3190112E-07  0.3506863E+04  0.7818609E-02  0.8112166E-01
       -2   -1    0    0    0  501  0.00000000000E+00  0.00000000000E+00  0.23252245817E+04  0.23252245817E+04  0.25500000920E-02 0. -1.
        2   -1    0    0  501    0  0.00000000000E+00  0.00000000000E+00 -0.13222469940E+04  0.13222469940E+04  0.25500000920E-02 0.  1.
    10030    2    1    2    0    0  0.00000000000E+00  0.00000000000E+00  0.10029775877E+04  0.36474715757E+04  0.35068625371E+04 0.  0.
        5    1    3    3  502    0 -0.11220346242E+04 -0.30396923274E+03  0.18668057130E+04  0.21991690823E+04  0.46999998093E+01 0. -1.
       -5    1    3    3    0  502  0.11220346242E+04  0.30396923274E+03 -0.86382812537E+03  0.14483024934E+04  0.46999998093E+01 0.  1.
</event>
<event>
 5   0  0.1072381E-07  0.3496148E+04  0.7818609E-02  0.8114703E-01
        1   -1    0    0  501    0  0.00000000000E+00  0.00000000000E+00  0.22515811975E+04  0.22515811975E+04  0.50400001928E-02 0.  1.
       -1   -1    0    0    0  501  0.00000000000E+00  0.00000000000E+00 -0.13571632153E+04  0.13571632153E+04  0.50400001928E-02 0. -1.
    10030    2    1    2    0    0  0.00000000000E+00  0.00000000000E+00  0.89441798219E+03  0.36087444127E+04  0.34961482677E+04 0.  0.
        1    1    3    3  502    0 -0.79794078846E+03 -0.32228875890E+03  0.20177851615E+04  0.21936354538E+04  0.50400001928E-02 0.  1.
       -1    1    3    3    0  502  0.79794078846E+03  0.32228875890E+03 -0.11233671793E+04  0.14151089589E+04  0.50400001928E-02 0. -1.
</event>
<event>
 5   0  0.1033796E-07  0.3618137E+04  0.7818609E-02  0.8086350E-01
       -1   -1    0    0    0  501  0.00000000000E+00  0.00000000000E+00  0.17480785143E+04  0.17480785143E+04  0.50400001928E-02 0.  1.
        1   -1    0    0  501    0  0.00000000000E+00  0.00000000000E+00 -0.18721861135E+04  0.18721861135E+04  0.50400001928E-02 0. -1.
    10030    2    1    2    0    0  0.00000000000E+00  0.00000000000E+00 -0.12410759925E+03  0.36202646278E+04  0.36181367137E+04 0.  0.
        3    1    3    3  502    0  0.97384480776E+03 -0.13386320120E+02  0.14633674597E+04  0.17578387968E+04  0.10100000352E+00 0.  1.
       -3    1    3    3    0  502 -0.97384480776E+03  0.13386320120E+02 -0.15874750590E+04  0.18624258311E+04  0.10100000352E+00 0. -1.
</event>
<event>
 5   0  0.1013863E-07  0.3507767E+04  0.7818609E-02  0.8111952E-01
       -1   -1    0    0    0  501  0.00000000000E+00  0.00000000000E+00  0.18225078845E+04  0.18225078845E+04  0.50400001928E-02 0.  1.
        1   -1    0    0  501    0  0.00000000000E+00  0.00000000000E+00 -0.16878433081E+04  0.16878433081E+04  0.50400001928E-02 0. -1.
    10030    2    1    2    0    0  0.00000000000E+00  0.00000000000E+00  0.13466457639E+03  0.35103511925E+04  0.35077672310E+04 0.  0.
        2    1    3    3  502    0  0.79618561371E+03 -0.25604787739E+03  0.16101020147E+04  0.18143595412E+04  0.25500000920E-02 0.  1.
       -2    1    3    3    0  502 -0.79618561371E+03  0.25604787739E+03 -0.14754374383E+04  0.16959916513E+04  0.25500000920E-02 0. -1.
</event>
<event>
 5   0  0.1033796E-07  0.3491878E+04  0.7818609E-02  0.8115718E-01
       -1   -1    0    0    0  501  0.00000000000E+00  0.00000000000E+00  0.11273941123E+04  0.11273941123E+04  0.50400001928E-02 0. -1.
        1   -1    0    0  501    0  0.00000000000E+00  0.00000000000E+00 -0.27038478869E+04  0.27038478869E+04  0.50400001928E-02 0.  1.
    10030    2    1    2    0    0  0.00000000000E+00  0.00000000000E+00 -0.15764537746E+04  0.38312419992E+04  0.34918775397E+04 0.  0.
        3    1    3    3  502    0 -0.14364259377E+04  0.90374796912E+03 -0.33821666565E+03  0.17304538103E+04  0.10100000352E+00 0.  1.
       -3    1    3    3    0  502  0.14364259377E+04 -0.90374796912E+03 -0.12382371090E+04  0.21007881889E+04  0.10100000352E+00 0. -1.
</event>
<event>
 5   0  0.1098171E-07  0.3447630E+04  0.7818609E-02  0.8126314E-01
        1   -1    0    0  501    0  0.00000000000E+00  0.00000000000E+00  0.22479029341E+04  0.22479029341E+04  0.50400001928E-02 0.  1.
       -1   -1    0    0    0  501  0.00000000000E+00  0.00000000000E+00 -0.13219159829E+04  0.13219159829E+04  0.50400001928E-02 0. -1.
    10030    2    1    2    0    0  0.00000000000E+00  0.00000000000E+00  0.92598695115E+03  0.35698189170E+04  0.34476303842E+04 0.  0.
        4    1    3    3  502    0 -0.11970965035E+04 -0.14898383650E+03  0.17380169925E+04  0.21156419597E+04  0.12699999809E+01 0.  1.
       -4    1    3    3    0  502  0.11970965035E+04  0.14898383650E+03 -0.81203004139E+03  0.14541769573E+04  0.12699999809E+01 0. -1.
</event>
<event>
 5   0  0.3190112E-07  0.3510938E+04  0.7818609E-02  0.8111203E-01
       -2   -1    0    0    0  501  0.00000000000E+00  0.00000000000E+00  0.27946190905E+04  0.27946190905E+04  0.25500000920E-02 0. -1.
        2   -1    0    0  501    0  0.00000000000E+00  0.00000000000E+00 -0.11027160130E+04  0.11027160130E+04  0.25500000920E-02 0.  1.
    10030    2    1    2    0    0  0.00000000000E+00  0.00000000000E+00  0.16919030775E+04  0.38973351036E+04  0.35109378926E+04 0.  0.
        5    1    3    3  502    0  0.16552943235E+04 -0.19182357892E+03  0.14588523970E+04  0.22147388084E+04  0.46999998093E+01 0. -1.
       -5    1    3    3    0  502 -0.16552943235E+04  0.19182357892E+03  0.23305068047E+03  0.16825962952E+04  0.46999998093E+01 0.  1.
</event>
<event>
 5   0  0.3219205E-07  0.3497868E+04  0.7818609E-02  0.8114295E-01
       -2   -1    0    0    0  501  0.00000000000E+00  0.00000000000E+00  0.11957396183E+04  0.11957396183E+04  0.25500000920E-02 0. -1.
        2   -1    0    0  501    0  0.00000000000E+00  0.00000000000E+00 -0.25580564943E+04  0.25580564943E+04  0.25500000920E-02 0.  1.
    10030    2    1    2    0    0  0.00000000000E+00  0.00000000000E+00 -0.13623168760E+04  0.37537961127E+04  0.34978676340E+04 0.  0.
        2    1    3    3  502    0  0.86647757168E+02  0.87677704739E+03  0.94018476188E+03  0.12884848509E+04  0.25500000920E-02 0. -1.
       -2    1    3    3    0  502 -0.86647757168E+02 -0.87677704739E+03 -0.23025016379E+04  0.24653112617E+04  0.25500000920E-02 0.  1.
</event>
<event>
 5   0  0.3190112E-07  0.3476984E+04  0.7818609E-02  0.8119266E-01
       -2   -1    0    0    0  501  0.00000000000E+00  0.00000000000E+00  0.26358502156E+04  0.26358502156E+04  0.25500000920E-02 0.  1.
        2   -1    0    0  501    0  0.00000000000E+00  0.00000000000E+00 -0.11466338881E+04  0.11466338881E+04  0.25500000920E-02 0. -1.
    10030    2    1    2    0    0  0.00000000000E+00  0.00000000000E+00  0.14892163275E+04  0.37824841036E+04  0.34769844297E+04 0.  0.
        5    1    3    3  502    0  0.64928474433E+03  0.11326881974E+04 -0.50420019928E+03  0.13995689203E+04  0.46999998093E+01 0. -1.
       -5    1    3    3    0  502 -0.64928474433E+03 -0.11326881974E+04  0.19934165268E+04  0.23829151833E+04  0.46999998093E+01 0.  1.
</event>
<event>
 5   0  0.1013863E-07  0.3505590E+04  0.7818609E-02  0.8112466E-01
        1   -1    0    0  501    0  0.00000000000E+00  0.00000000000E+00  0.18800121865E+04  0.18800121865E+04  0.50400001928E-02 0. -1.
       -1   -1    0    0    0  501  0.00000000000E+00  0.00000000000E+00 -0.16341862813E+04  0.16341862813E+04  0.50400001928E-02 0.  1.
    10030    2    1    2    0    0  0.00000000000E+00  0.00000000000E+00  0.24582590524E+03  0.35141984678E+04  0.35055898926E+04 0.  0.
        5    1    3    3  502    0 -0.91659698629E+03  0.17719813670E+02  0.16205038906E+04  0.18618590109E+04  0.46999998093E+01 0. -1.
       -5    1    3    3    0  502  0.91659698629E+03 -0.17719813670E+02 -0.13746779854E+04  0.16523394568E+04  0.46999998093E+01 0.  1.
</event>
<event>
 5   0  0.1013863E-07  0.3453784E+04  0.7818609E-02  0.8124831E-01
        1   -1    0    0  501    0  0.00000000000E+00  0.00000000000E+00  0.21742800762E+04  0.21742800762E+04  0.50400001928E-02 0.  1.
       -1   -1    0    0    0  501  0.00000000000E+00  0.00000000000E+00 -0.13715599768E+04  0.13715599768E+04  0.50400001928E-02 0. -1.
    10030    2    1    2    0    0  0.00000000000E+00  0.00000000000E+00  0.80272009944E+03  0.35458400530E+04  0.34537837401E+04 0.  0.
        5    1    3    3  502    0  0.17811653260E+03 -0.56724889792E+03 -0.12631609496E+04  0.13960997407E+04  0.46999998093E+01 0. -1.
       -5    1    3    3    0  502 -0.17811653260E+03  0.56724889792E+03  0.20658810490E+04  0.21497403123E+04  0.46999998093E+01 0.  1.
</event>
<event>
 5   0  0.3190185E-07  0.3495177E+04  0.7818609E-02  0.8114934E-01
       -2   -1    0    0    0  501  0.00000000000E+00  0.00000000000E+00  0.11015128719E+04  0.11015128719E+04  0.25500000920E-02 0. -1.
        2   -1    0    0  501    0  0.00000000000E+00  0.00000000000E+00 -0.27726106118E+04  0.27726106118E+04  0.25500000920E-02 0.  1.
    10030    2    1    2    0    0  0.00000000000E+00  0.00000000000E+00 -0.16710977399E+04  0.38741234837E+04  0.34951774077E+04 0.  0.
        1    1    3    3  502    0  0.14332706574E+04  0.82343499941E+03 -0.20681368340E+03  0.16658576996E+04  0.50400001928E-02 0. -1.
       -1    1    3    3    0  502 -0.14332706574E+04 -0.82343499941E+03 -0.14642840565E+04  0.22082657842E+04  0.50400001928E-02 0.  1.
</event>
<event>
 5   0  0.3190185E-07  0.3507897E+04  0.7818609E-02  0.8111921E-01
       -2   -1    0    0    0  501  0.00000000000E+00  0.00000000000E+00  0.13069763218E+04  0.13069763218E+04  0.25500000920E-02 0. -1.
        2   -1    0    0  501    0  0.00000000000E+00  0.00000000000E+00 -0.23537808666E+04  0.23537808666E+04  0.25500000920E-02 0.  1.
    10030    2    1    2    0    0  0.00000000000E+00  0.00000000000E+00 -0.10468045448E+04  0.36607571884E+04  0.35078972957E+04 0.  0.
        1    1    3    3  502    0 -0.24071266173E+03 -0.12996417300E+04 -0.17266071474E+04  0.21744386525E+04  0.50400001928E-02 0.  1.
       -1    1    3    3    0  502  0.24071266173E+03  0.12996417300E+04  0.67980260259E+03  0.14863185359E+04  0.50400001928E-02 0. -1.
</event>
<event>
 5   0  0.2180451E-07  0.3494764E+04  0.7818609E-02  0.8115032E-01
        2   -1    0    0  501    0  0.00000000000E+00  0.00000000000E+00  0.12104376750E+04  0.12104376750E+04  0.25500000920E-02 0.  1.
       -2   -1    0    0    0  501  0.00000000000E+00  0.00000000000E+00 -0.25225127784E+04  0.25225127784E+04  0.25500000920E-02 0. -1.
    10030    2    1    2    0    0  0.00000000000E+00  0.00000000000E+00 -0.13120751034E+04  0.37329504534E+04  0.34947643713E+04 0.  0.
        4    1    3    3  502    0 -0.45869178176E+03 -0.16586780984E+04 -0.33252282186E+03  0.17527647374E+04  0.12699999809E+01 0.  1.
       -4    1    3    3    0  502  0.45869178176E+03  0.16586780984E+04 -0.97955228152E+03  0.19801857160E+04  0.12699999809E+01 0. -1.
</event>
<event>
 5   0  0.3190185E-07  0.3503013E+04  0.7818609E-02  0.8113076E-01
       -2   -1    0    0    0  501  0.00000000000E+00  0.00000000000E+00  0.27522523917E+04  0.27522523917E+04  0.25500000920E-02 0.  1.
        2   -1    0    0  501    0  0.00000000000E+00  0.00000000000E+00 -0.11146419196E+04  0.11146419196E+04  0.25500000920E-02 0. -1.
    10030    2    1    2    0    0  0.00000000000E+00  0.00000000000E+00  0.16376104721E+04  0.38668943113E+04  0.35030134965E+04 0.  0.
        1    1    3    3  502    0 -0.23683528389E+03 -0.51716338527E+03 -0.10098444081E+04  0.11590231436E+04  0.50400001928E-02 0. -1.
       -1    1    3    3    0  502  0.23683528389E+03  0.51716338527E+03  0.26474548802E+04  0.27078711678E+04  0.50400001928E-02 0.  1.
</event>
<event>
 5   0  0.2180451E-07  0.3500014E+04  0.7818609E-02  0.8113787E-01
       -2   -1    0    0    0  501  0.00000000000E+00  0.00000000000E+00  0.18520319754E+04  0.18520319754E+04  0.25500000920E-02 0. -1.
        2   -1    0    0  501    0  0.00000000000E+00  0.00000000000E+00 -0.16536022609E+04  0.16536022609E+04  0.25500000920E-02 0.  1.
    10030    2    1    2    0    0  0.00000000000E+00  0.00000000000E+00  0.19842971458E+03  0.35056342363E+04  0.35000138639E+04 0.  0.
        4    1    3    3  502    0  0.15875118502E+04 -0.19131762506E+03 -0.61307149674E+03  0.17124995127E+04  0.12699999809E+01 0.  1.
       -4    1    3    3    0  502 -0.15875118502E+04  0.19131762506E+03  0.81150121132E+03  0.17931347236E+04  0.12699999809E+01 0. -1.
</event>
<event>
 5   0  0.3119048E-07  0.3496072E+04  0.7818609E-02  0.8114721E-01
        2   -1    0    0  501    0  0.00000000000E+00  0.00000000000E+00  0.25034098058E+04  0.25034098058E+04  0.25500000920E-02 0.  1.
       -2   -1    0    0    0  501  0.00000000000E+00  0.00000000000E+00 -0.12205871820E+04  0.12205871820E+04  0.25500000920E-02 0. -1.
    10030    2    1    2    0    0  0.00000000000E+00  0.00000000000E+00  0.12828226237E+04  0.37239969878E+04  0.34960720360E+04 0.  0.
        3    1    3    3  502    0  0.60659088667E+03  0.15431031237E+04  0.51683808216E+02  0.16588523082E+04  0.10100000352E+00 0.  1.
       -3    1    3    3    0  502 -0.60659088667E+03 -0.15431031237E+04  0.12311388155E+04  0.20651446796E+04  0.10100000352E+00 0. -1.
</event>
<event>
 5   0  0.3190112E-07  0.3507630E+04  0.7818609E-02  0.8111984E-01
        2   -1    0    0  501    0  0.00000000000E+00  0.00000000000E+00  0.18592152660E+04  0.18592152660E+04  0.25500000920E-02 0. -1.
       -2   -1    0    0    0  501  0.00000000000E+00  0.00000000000E+00 -0.16543897726E+04  0.16543897726E+04  0.25500000920E-02 0.  1.
    10030    2    1    2    0    0  0.00000000000E+00  0.00000000000E+00  0.20482549341E+03  0.35136050385E+04  0.35076298100E+04 0.  0.
        5    1    3    3  502    0 -0.11296613647E+04 -0.96343547229E+03 -0.83272021150E+03  0.17022889734E+04  0.46999998093E+01 0.  1.
       -5    1    3    3    0  502  0.11296613647E+04  0.96343547229E+03  0.10375457049E+04  0.18113160652E+04  0.46999998093E+01 0. -1.
</event>
<event>
 5   0  0.1033796E-07  0.3482086E+04  0.7818609E-02  0.8118048E-01
        1   -1    0    0  501    0  0.00000000000E+00  0.00000000000E+00  0.14421981134E+04  0.14421981134E+04  0.50400001928E-02 0.  1.
       -1   -1    0    0    0  501  0.00000000000E+00  0.00000000000E+00 -0.21018133402E+04  0.21018133402E+04  0.50400001928E-02 0. -1.
    10030    2    1    2    0    0  0.00000000000E+00  0.00000000000E+00 -0.65961522678E+03  0.35440114536E+04  0.34820862907E+04 0.  0.
        3    1    3    3  502    0 -0.17595963902E+03  0.38164658039E+03  0.13898000954E+04  0.14519504889E+04  0.10100000352E+00 0.  1.
       -3    1    3    3    0  502  0.17595963902E+03 -0.38164658039E+03 -0.20494153222E+04  0.20920609647E+04  0.10100000352E+00 0. -1.
</event>
<event>
 5   0  0.1072381E-07  0.3502166E+04  0.7818609E-02  0.8113277E-01
       -1   -1    0    0    0  501  0.00000000000E+00  0.00000000000E+00  0.19615821455E+04  0.19615821456E+04  0.50400001928E-02 0.  1.
        1   -1    0    0  501    0  0.00000000000E+00  0.00000000000E+00 -0.15631730522E+04  0.15631730522E+04  0.50400001928E-02 0. -1.
    10030    2    1    2    0    0  0.00000000000E+00  0.00000000000E+00  0.39840909336E+03  0.35247551977E+04  0.35021663865E+04 0.  0.
        1    1    3    3  502    0 -0.34475640346E+03 -0.10881907711E+04  0.15356534508E+04  0.19134386985E+04  0.50400001928E-02 0.  1.
       -1    1    3    3    0  502  0.34475640346E+03  0.10881907711E+04 -0.11372443575E+04  0.16113164992E+04  0.50400001928E-02 0. -1.
</event>
<event>
 5   0  0.1033796E-07  0.3490883E+04  0.7818609E-02  0.8115954E-01
       -1   -1    0    0    0  501  0.00000000000E+00  0.00000000000E+00  0.26820677153E+04  0.26820677153E+04  0.50400001928E-02 0. -1.
        1   -1    0    0  501    0  0.00000000000E+00  0.00000000000E+00 -0.11359018824E+04  0.11359018824E+04  0.50400001928E-02 0.  1.
    10030    2    1    2    0    0  0.00000000000E+00  0.00000000000E+00  0.15461658329E+04  0.38179695977E+04  0.34908828491E+04 0.  0.
        3    1    3    3  502    0 -0.38374648877E+03  0.16958801554E+04  0.94001026582E+03  0.19765854849E+04  0.10100000352E+00 0. -1.
       -3    1    3    3    0  502  0.38374648877E+03 -0.16958801554E+04  0.60615556709E+03  0.18413841128E+04  0.10100000352E+00 0.  1.
</event>
<event>
 5   0  0.1098171E-07  0.3499047E+04  0.7818609E-02  0.8114016E-01
        1   -1    0    0  501    0  0.00000000000E+00  0.00000000000E+00  0.96766658259E+03  0.96766658260E+03  0.50400001928E-02 0.  1.
       -1   -1    0    0    0  501  0.00000000000E+00  0.00000000000E+00 -0.31631063973E+04  0.31631063974E+04  0.50400001928E-02 0. -1.
    10030    2    1    2    0    0  0.00000000000E+00  0.00000000000E+00 -0.21954398148E+04  0.41307729800E+04  0.34990469319E+04 0.  0.
        4    1    3    3  502    0 -0.14238863113E+03  0.79750736008E+03  0.73289672305E+03  0.10924430105E+04  0.12699999809E+01 0.  1.
       -4    1    3    3    0  502  0.14238863113E+03 -0.79750736008E+03 -0.29283365378E+04  0.30383299694E+04  0.12699999809E+01 0. -1.
</event>
<event>
 5   0  0.1013863E-07  0.3485574E+04  0.7818609E-02  0.8117217E-01
        1   -1    0    0  501    0  0.00000000000E+00  0.00000000000E+00  0.23357692989E+04  0.23357692989E+04  0.50400001928E-02 0. -1.
       -1   -1    0    0    0  501  0.00000000000E+00  0.00000000000E+00 -0.13003449214E+04  0.13003449214E+04  0.50400001928E-02 0.  1.
    10030    2    1    2    0    0  0.00000000000E+00  0.00000000000E+00  0.10354243775E+04  0.36361142203E+04  0.34855735513E+04 0.  0.
        2    1    3    3  502    0  0.71017791723E+03  0.12656655709E+04 -0.48886783307E+03  0.15314221396E+04  0.25500000920E-02 0.  1.
       -2    1    3    3    0  502 -0.71017791723E+03 -0.12656655709E+04  0.15242922106E+04  0.21046920807E+04  0.25500000920E-02 0. -1.
</event>
<event>
 5   0  0.2180451E-07  0.3504183E+04  0.7818609E-02  0.8112799E-01
        2   -1    0    0  501    0  0.00000000000E+00  0.00000000000E+00  0.21861387887E+04  0.21861387887E+04  0.25500000920E-02 0.  1.
       -2   -1    0    0    0  501  0.00000000000E+00  0.00000000000E+00 -0.14042218881E+04  0.14042218881E+04  0.25500000920E-02 0. -1.
    10030    2    1    2    0    0  0.00000000000E+00  0.00000000000E+00  0.78191690061E+03  0.35903606767E+04  0.35041826079E+04 0.  0.
        4    1    3    3  502    0  0.14987558254E+04 -0.43910771638E+03  0.12046798710E+04  0.19723944370E+04  0.12699999809E+01 0.  1.
       -4    1    3    3    0  502 -0.14987558254E+04  0.43910771638E+03 -0.42276297041E+03  0.16179662397E+04  0.12699999809E+01 0. -1.
</event>
<event>
 5   0  0.3119048E-07  0.3503104E+04  0.7818609E-02  0.8113055E-01
       -2   -1    0    0    0  501  0.00000000000E+00  0.00000000000E+00  0.13510135074E+04  0.13510135074E+04  0.25500000920E-02 0.  1.
        2   -1    0    0  501    0  0.00000000000E+00  0.00000000000E+00 -0.22708391930E+04  0.22708391930E+04  0.25500000920E-02 0. -1.
    10030    2    1    2    0    0  0.00000000000E+00  0.00000000000E+00 -0.91982568556E+03  0.36218527004E+04  0.35031040081E+04 0.  0.
        3    1    3    3  502    0 -0.84252240946E+03  0.84581742008E+03  0.86520551964E+03  0.14743919831E+04  0.10100000352E+00 0.  1.
       -3    1    3    3    0  502  0.84252240946E+03 -0.84581742008E+03 -0.17850312052E+04  0.21474607173E+04  0.10100000352E+00 0. -1.
</event>
<event>
 5   0  0.1098171E-07  0.3503920E+04  0.7818609E-02  0.8112862E-01
       -1   -1    0    0    0  501  0.00000000000E+00  0.00000000000E+00  0.25332461721E+04  0.25332461721E+04  0.50400001928E-02 0.  1.
        1   -1    0    0  501    0  0.00000000000E+00  0.00000000000E+00 -0.12116327367E+04  0.12116327367E+04  0.50400001928E-02 0. -1.
    10030    2    1    2    0    0  0.00000000000E+00  0.00000000000E+00  0.13216134354E+04  0.37448789088E+04  0.35039200860E+04 0.  0.
        4    1    3    3  502    0  0.73939403237E+02  0.39439623434E+03 -0.11618576110E+04  0.12291989855E+04  0.12699999809E+01 0. -1.
       -4    1    3    3    0  502 -0.73939403237E+02 -0.39439623434E+03  0.24834710464E+04  0.25156799232E+04  0.12699999809E+01 0.  1.
</event>
<event>
 5   0  0.3190185E-07  0.3603076E+04  0.7818609E-02  0.8089788E-01
       -2   -1    0    0    0  501  0.00000000000E+00  0.00000000000E+00  0.13640441963E+04  0.13640441963E+04  0.25500000920E-02 0. -1.
        2   -1    0    0  501    0  0.00000000000E+00  0.00000000000E+00 -0.23793498930E+04  0.23793498930E+04  0.25500000920E-02 0.  1.
    10030    2    1    2    0    0  0.00000000000E+00  0.00000000000E+00 -0.10153056966E+04  0.37433940893E+04  0.36030755821E+04 0.  0.
        1    1    3    3  502    0 -0.15501979972E+03 -0.13750314274E+04 -0.17061800534E+04  0.21967687496E+04  0.50400001928E-02 0.  1.
       -1    1    3    3    0  502  0.15501979972E+03  0.13750314274E+04  0.69087435673E+03  0.15466253397E+04  0.50400001928E-02 0. -1.
</event>
<event>
 5   0  0.3190185E-07  0.3500044E+04  0.7818609E-02  0.8113780E-01
       -2   -1    0    0    0  501  0.00000000000E+00  0.00000000000E+00  0.15254463831E+04  0.15254463831E+04  0.25500000920E-02 0. -1.
        2   -1    0    0  501    0  0.00000000000E+00  0.00000000000E+00 -0.20076595637E+04  0.20076595637E+04  0.25500000920E-02 0.  1.
    10030    2    1    2    0    0  0.00000000000E+00  0.00000000000E+00 -0.48221318069E+03  0.35331059468E+04  0.35000440111E+04 0.  0.
        1    1    3    3  502    0 -0.93328427237E+03  0.51814420118E+02  0.12523527829E+04  0.15627193478E+04  0.50400001928E-02 0. -1.
       -1    1    3    3    0  502  0.93328427237E+03 -0.51814420118E+02 -0.17345659636E+04  0.19703865990E+04  0.50400001928E-02 0.  1.
</event>
<event>
 5   0  0.3219205E-07  0.3499350E+04  0.7818609E-02  0.8113944E-01
       -2   -1    0    0    0  501  0.00000000000E+00  0.00000000000E+00  0.19062824139E+04  0.19062824139E+04  0.25500000920E-02 0. -1.
        2   -1    0    0  501    0  0.00000000000E+00  0.00000000000E+00 -0.16059334483E+04  0.16059334483E+04  0.25500000920E-02 0.  1.
    10030    2    1    2    0    0  0.00000000000E+00  0.00000000000E+00  0.30034896556E+03  0.35122158621E+04  0.34993500484E+04 0.  0.
        2    1    3    3  502    0  0.70930895008E+03  0.94927602995E+03  0.14421985324E+04  0.18665960394E+04  0.25500000920E-02 0. -1.
       -2    1    3    3    0  502 -0.70930895008E+03 -0.94927602995E+03 -0.11418495668E+04  0.16456198227E+04  0.25500000920E-02 0.  1.
</event>
<event>
 5   0  0.3190112E-07  0.3500592E+04  0.7818609E-02  0.8113650E-01
       -2   -1    0    0    0  501  0.00000000000E+00  0.00000000000E+00  0.21676071069E+04  0.21676071069E+04  0.25500000920E-02 0. -1.
        2   -1    0    0  501    0  0.00000000000E+00  0.00000000000E+00 -0.14133266030E+04  0.14133266030E+04  0.25500000920E-02 0.  1.
    10030    2    1    2    0    0  0.00000000000E+00  0.00000000000E+00  0.75428050384E+03  0.35809337099E+04  0.35005924007E+04 0.  0.
        5    1    3    3  502    0 -0.17968872443E+03 -0.16218471143E+04 -0.27050845624E+03  0.16540474645E+04  0.46999998093E+01 0.  1.
       -5    1    3    3    0  502  0.17968872443E+03  0.16218471143E+04  0.10247889601E+04  0.19268862454E+04  0.46999998093E+01 0. -1.
</event>
<event>
 5   0  0.1098171E-07  0.3499516E+04  0.7818609E-02  0.8113905E-01
        1   -1    0    0  501    0  0.00000000000E+00  0.00000000000E+00  0.10092097824E+04  0.10092097825E+04  0.50400001928E-02 0.  1.
       -1   -1    0    0    0  501  0.00000000000E+00  0.00000000000E+00 -0.30337133217E+04  0.30337133217E+04  0.50400001928E-02 0. -1.
    10030    2    1    2    0    0  0.00000000000E+00  0.00000000000E+00 -0.20245035393E+04  0.40429231042E+04  0.34995160588E+04 0.  0.
        4    1    3    3  502    0 -0.11358517318E+04 -0.87648137201E+03  0.14491781160E+03  0.14420060808E+04  0.12699999809E+01 0.  1.
       -4    1    3    3    0  502  0.11358517318E+04  0.87648137201E+03 -0.21694213509E+04  0.26009170234E+04  0.12699999809E+01 0. -1.
</event>
<event>
 5   0  0.3119048E-07  0.3492313E+04  0.7818609E-02  0.8115614E-01
        2   -1    0    0  501    0  0.00000000000E+00  0.00000000000E+00  0.24319907806E+04  0.24319907806E+04  0.25500000920E-02 0. -1.
       -2   -1    0    0    0  501  0.00000000000E+00  0.00000000000E+00 -0.12537308194E+04  0.12537308194E+04  0.25500000920E-02 0.  1.
    10030    2    1    2    0    0  0.00000000000E+00  0.00000000000E+00  0.11782599612E+04  0.36857216000E+04  0.34923125829E+04 0.  0.
        3    1    3    3  502    0 -0.10658347356E+04  0.96361570888E+03 -0.45804175459E+03  0.15080985303E+04  0.10100000352E+00 0.  1.
       -3    1    3    3    0  502  0.10658347356E+04 -0.96361570888E+03  0.16363017158E+04  0.21776230697E+04  0.10100000352E+00 0. -1.
</event>
<event>
 5   0  0.3190112E-07  0.3488087E+04  0.7818609E-02  0.8116619E-01
        2   -1    0    0  501    0  0.00000000000E+00  0.00000000000E+00  0.15696985934E+04  0.15696985934E+04  0.25500000920E-02 0.  1.
       -2   -1    0    0    0  501  0.00000000000E+00  0.00000000000E+00 -0.19377529515E+04  0.19377529515E+04  0.25500000920E-02 0. -1.
    10030    2    1    2    0    0  0.00000000000E+00  0.00000000000E+00 -0.36805435816E+03  0.35074515449E+04  0.34880872021E+04 0.  0.
        5    1    3    3  502    0  0.58856712857E+03  0.35244443969E+03 -0.17963743652E+04  0.19229173924E+04  0.46999998093E+01 0. -1.
       -5    1    3    3    0  502 -0.58856712857E+03 -0.35244443969E+03  0.14283200071E+04  0.15845341525E+04  0.46999998093E+01 0.  1.
</event>
<event>
 5   0  0.1013863E-07  0.3494343E+04  0.7818609E-02  0.8115132E-01
        1   -1    0    0  501    0  0.00000000000E+00  0.00000000000E+00  0.16453803824E+04  0.16453803824E+04  0.50400001928E-02 0. -1.
       -1   -1    0    0    0  501  0.00000000000E+00  0.00000000000E+00 -0.18552595660E+04  0.18552595660E+04  0.50400001928E-02 0.  1.
    10030    2    1    2    0    0  0.00000000000E+00  0.00000000000E+00 -0.20987918355E+03  0.35006399484E+04  0.34943426816E+04 0.  0.
        5    1    3    3  502    0  0.94386112897E+03  0.48429769413E+03  0.12857867638E+04  0.16669396448E+04  0.46999998093E+01 0. -1.
       -5    1    3    3    0  502 -0.94386112897E+03 -0.48429769413E+03 -0.14956659474E+04  0.18337003036E+04  0.46999998093E+01 0.  1.
</event>
<event>
 5   0  0.1098171E-07  0.3489941E+04  0.7818609E-02  0.8116178E-01
       -1   -1    0    0    0  501  0.00000000000E+00  0.00000000000E+00  0.25351086769E+04  0.25351086769E+04  0.50400001928E-02 0.  1.
        1   -1    0    0  501    0  0.00000000000E+00  0.00000000000E+00 -0.12011015028E+04  0.12011015028E+04  0.50400001928E-02 0. -1.
    10030    2    1    2    0    0  0.00000000000E+00  0.00000000000E+00  0.13340071741E+04  0.37362101797E+04  0.34899414560E+04 0.  0.
        4    1    3    3  502    0 -0.16663485917E+04 -0.38836474278E+03  0.10337818578E+04  0.19990626166E+04  0.12699999809E+01 0.  1.
       -4    1    3    3    0  502  0.16663485917E+04  0.38836474278E+03  0.30022531626E+03  0.17371475631E+04  0.12699999809E+01 0. -1.
</event>
<event>
 5   0  0.1033796E-07  0.3483609E+04  0.7818609E-02  0.8117685E-01
        1   -1    0    0  501    0  0.00000000000E+00  0.00000000000E+00  0.18437281872E+04  0.18437281872E+04  0.50400001928E-02 0. -1.
       -1   -1    0    0    0  501  0.00000000000E+00  0.00000000000E+00 -0.16455152676E+04  0.16455152676E+04  0.50400001928E-02 0.  1.
    10030    2    1    2    0    0  0.00000000000E+00  0.00000000000E+00  0.19821291955E+03  0.34892434548E+04  0.34836089800E+04 0.  0.
        3    1    3    3  502    0 -0.25521502428E+02 -0.74377888392E+03 -0.14782500278E+04  0.16550170785E+04  0.10100000352E+00 0.  1.
       -3    1    3    3    0  502  0.25521502428E+02  0.74377888392E+03  0.16764629474E+04  0.18342263763E+04  0.10100000352E+00 0. -1.
</event>
<event>
 5   0  0.1013863E-07  0.3505735E+04  0.7818609E-02  0.8112432E-01
       -3   -1    0    0    0  501  0.00000000000E+00  0.00000000000E+00  0.16072254279E+04  0.16072254311E+04  0.10100000352E+00 0. -1.
        3   -1    0    0  501    0  0.00000000000E+00  0.00000000000E+00 -0.19117068649E+04  0.19117068676E+04  0.10100000352E+00 0.  1.
    10030    2    1    2    0    0  0.00000000000E+00  0.00000000000E+00 -0.30448143700E+03  0.35189322987E+04  0.35057346702E+04 0.  0.
        4    1    3    3  502    0 -0.11119104773E+03 -0.29314461672E+03  0.15788516537E+04  0.16096805189E+04  0.12699999809E+01 0. -1.
       -4    1    3    3    0  502  0.11119104773E+03  0.29314461672E+03 -0.18833330907E+04  0.19092517799E+04  0.12699999809E+01 0.  1.
</event>
<event>
 5   0  0.1013863E-07  0.3500139E+04  0.7818609E-02  0.8113757E-01
        1   -1    0    0  501    0  0.00000000000E+00  0.00000000000E+00  0.10398219667E+04  0.10398219667E+04  0.50400001928E-02 0.  1.
       -1   -1    0    0    0  501  0.00000000000E+00  0.00000000000E+00 -0.29454501782E+04  0.29454501782E+04  0.50400001928E-02 0. -1.
    10030    2    1    2    0    0  0.00000000000E+00  0.00000000000E+00 -0.19056282115E+04  0.39852721450E+04  0.35001393099E+04 0.  0.
        5    1    3    3  502    0  0.37842791864E+03 -0.14953343224E+04 -0.11491457881E+02  0.15425260351E+04  0.46999998093E+01 0.  1.
       -5    1    3    3    0  502 -0.37842791864E+03  0.14953343224E+04 -0.18941367537E+04  0.24427461098E+04  0.46999998093E+01 0. -1.
</event>
<event>
 5   0  0.1098171E-07  0.3510989E+04  0.7818609E-02  0.8111191E-01
        1   -1    0    0  501    0  0.00000000000E+00  0.00000000000E+00  0.92016245853E+03  0.92016245855E+03  0.50400001928E-02 0.  1.
       -1   -1    0    0    0  501  0.00000000000E+00  0.00000000000E+00 -0.33491479341E+04  0.33491479341E+04  0.50400001928E-02 0. -1.
    10030    2    1    2    0    0  0.00000000000E+00  0.00000000000E+00 -0.24289854755E+04  0.42693103926E+04  0.35109885770E+04 0.  0.
        4    1    3    3  502    0 -0.98848163452E+03  0.14008350961E+03  0.54134925634E+03  0.11356847986E+04  0.12699999809E+01 0.  1.
       -4    1    3    3    0  502  0.98848163452E+03 -0.14008350961E+03 -0.29703347319E+04  0.31336255940E+04  0.12699999809E+01 0. -1.
</event>
<event>
 5   0  0.1013863E-07  0.3499275E+04  0.7818609E-02  0.8113962E-01
       -1   -1    0    0    0  501  0.00000000000E+00  0.00000000000E+00  0.14588256461E+04  0.14588256461E+04  0.50400001928E-02 0.  1.
        1   -1    0    0  501    0  0.00000000000E+00  0.00000000000E+00 -0.20984219577E+04  0.20984219577E+04  0.50400001928E-02 0. -1.
    10030    2    1    2    0    0  0.00000000000E+00  0.00000000000E+00 -0.63959631163E+03  0.35572476039E+04  0.34992752211E+04 0.  0.
        5    1    3    3  502    0  0.12821317617E+04 -0.11890366876E+04 -0.25931814933E+03  0.17677494425E+04  0.46999998093E+01 0. -1.
       -5    1    3    3    0  502 -0.12821317617E+04  0.11890366876E+04 -0.38027816230E+03  0.17894981614E+04  0.46999998093E+01 0.  1.
</event>
<event>
 5   0  0.2180451E-07  0.3501701E+04  0.7818609E-02  0.8113387E-01
        2   -1    0    0  501    0  0.00000000000E+00  0.00000000000E+00  0.21535824422E+04  0.21535824422E+04  0.25500000920E-02 0.  1.
       -2   -1    0    0    0  501  0.00000000000E+00  0.00000000000E+00 -0.14234320133E+04  0.14234320133E+04  0.25500000920E-02 0. -1.
    10030    2    1    2    0    0  0.00000000000E+00  0.00000000000E+00  0.73015042891E+03  0.35770144554E+04  0.35017014101E+04 0.  0.
        4    1    3    3  502    0 -0.11637291887E+04  0.81451348060E+03  0.14107012202E+04  0.20019434008E+04  0.12699999809E+01 0.  1.
       -4    1    3    3    0  502  0.11637291887E+04 -0.81451348060E+03 -0.68055079125E+03  0.15750710546E+04  0.12699999809E+01 0. -1.
</event>
<event>
 5   0  0.1072381E-07  0.3501034E+04  0.7818609E-02  0.8113545E-01
        1   -1    0    0  501    0  0.00000000000E+00  0.00000000000E+00  0.19605055890E+04  0.19605055890E+04  0.50400001928E-02 0.  1.
       -1   -1    0    0    0  501  0.00000000000E+00  0.00000000000E+00 -0.15630204044E+04  0.15630204044E+04  0.50400001928E-02 0. -1.
    10030    2    1    2    0    0  0.00000000000E+00  0.00000000000E+00  0.39748518457E+03  0.35235259935E+04  0.35010342693E+04 0.  0.
        1    1    3    3  502    0  0.35155604387E+03  0.81014019826E+03 -0.13223875788E+04  0.15901659352E+04  0.50400001928E-02 0. -1.
       -1    1    3    3    0  502 -0.35155604387E+03 -0.81014019826E+03  0.17198727634E+04  0.19333600583E+04  0.50400001928E-02 0.  1.
</event>
<event>
 5   0  0.2180451E-07  0.3488528E+04  0.7818609E-02  0.8116514E-01
        2   -1    0    0  501    0  0.00000000000E+00  0.00000000000E+00  0.19743088414E+04  0.19743088414E+04  0.25500000920E-02 0.  1.
       -2   -1    0    0    0  501  0.00000000000E+00  0.00000000000E+00 -0.15410234459E+04  0.15410234459E+04  0.25500000920E-02 0. -1.
    10030    2    1    2    0    0  0.00000000000E+00  0.00000000000E+00  0.43328539557E+03  0.35153322873E+04  0.34885276058E+04 0.  0.
        4    1    3    3  502    0 -0.98665993981E+03 -0.77155945318E+03 -0.10066258292E+04  0.16068910976E+04  0.12699999809E+01 0.  1.
       -4    1    3    3    0  502  0.98665993981E+03  0.77155945318E+03  0.14399112248E+04  0.19084411897E+04  0.12699999809E+01 0. -1.
</event>
<event>
 5   0  0.3190112E-07  0.3520982E+04  0.7818609E-02  0.8108836E-01
        2   -1    0    0  501    0  0.00000000000E+00  0.00000000000E+00  0.23517584390E+04  0.23517584390E+04  0.25500000920E-02 0.  1.
       -2   -1    0    0    0  501  0.00000000000E+00  0.00000000000E+00 -0.13178767784E+04  0.13178767784E+04  0.25500000920E-02 0. -1.
    10030    2    1    2    0    0  0.00000000000E+00  0.00000000000E+00  0.10338816607E+04  0.36696352174E+04  0.35209815877E+04 0.  0.
        5    1    3    3  502    0 -0.12255855192E+04  0.12501122174E+04  0.32345448369E+03  0.17803048374E+04  0.46999998093E+01 0. -1.
       -5    1    3    3    0  502  0.12255855192E+04 -0.12501122174E+04  0.71042717696E+03  0.18893303800E+04  0.46999998093E+01 0.  1.
</event>
<event>
 5   0  0.3190112E-07  0.3496267E+04  0.7818609E-02  0.8114675E-01
        2   -1    0    0  501    0  0.00000000000E+00  0.00000000000E+00  0.21779211531E+04  0.21779211531E+04  0.25500000920E-02 0.  1.
       -2   -1    0    0    0  501  0.00000000000E+00  0.00000000000E+00 -0.14031596485E+04  0.14031596485E+04  0.25500000920E-02 0. -1.
    10030    2    1    2    0    0  0.00000000000E+00  0.00000000000E+00  0.77476150454E+03  0.35810808016E+04  0.34962671978E+04 0.  0.
        5    1    3    3  502    0  0.10661687163E+04 -0.12583313834E+04  0.98095183210E+03  0.19189586210E+04  0.46999998093E+01 0.  1.
       -5    1    3    3    0  502 -0.10661687163E+04  0.12583313834E+04 -0.20619032756E+03  0.16621221806E+04  0.46999998093E+01 0. -1.
</event>
<event>
 5   0  0.1072381E-07  0.3484999E+04  0.7818609E-02  0.8117354E-01
        1   -1    0    0  501    0  0.00000000000E+00  0.00000000000E+00  0.18064647201E+04  0.18064647201E+04  0.50400001928E-02 0. -1.
       -1   -1    0    0    0  501  0.00000000000E+00  0.00000000000E+00 -0.16807988937E+04  0.16807988937E+04  0.50400001928E-02 0.  1.
    10030    2    1    2    0    0  0.00000000000E+00  0.00000000000E+00  0.12566582638E+03  0.34872636138E+04  0.34849986531E+04 0.  0.
        1    1    3    3  502    0  0.54954668216E+03  0.14799298247E+04  0.80095048103E+03  0.17702303565E+04  0.50400001928E-02 0. -1.
       -1    1    3    3    0  502 -0.54954668216E+03 -0.14799298247E+04 -0.67528465465E+03  0.17170332573E+04  0.50400001928E-02 0.  1.
</event>
<event>
 5   0  0.3219205E-07  0.3514123E+04  0.7818609E-02  0.8110451E-01
        2   -1    0    0  501    0  0.00000000000E+00  0.00000000000E+00  0.25162752358E+04  0.25162752358E+04  0.25500000920E-02 0.  1.
       -2   -1    0    0    0  501  0.00000000000E+00  0.00000000000E+00 -0.12269189865E+04  0.12269189865E+04  0.25500000920E-02 0. -1.
    10030    2    1    2    0    0  0.00000000000E+00  0.00000000000E+00  0.12893562493E+04  0.37431942223E+04  0.35141234253E+04 0.  0.
        2    1    3    3  502    0  0.82486830466E+02 -0.61018757268E+03  0.23975910298E+04  0.24753940488E+04  0.25500000920E-02 0.  1.
       -2    1    3    3    0  502 -0.82486830466E+02  0.61018757268E+03 -0.11082347805E+04  0.12678001734E+04  0.25500000920E-02 0. -1.
</event>
<event>
 5   0  0.1033796E-07  0.3514783E+04  0.7818609E-02  0.8110296E-01
       -1   -1    0    0    0  501  0.00000000000E+00  0.00000000000E+00  0.19871484547E+04  0.19871484547E+04  0.50400001928E-02 0.  1.
        1   -1    0    0  501    0  0.00000000000E+00  0.00000000000E+00 -0.15541990869E+04  0.15541990870E+04  0.50400001928E-02 0. -1.
    10030    2    1    2    0    0  0.00000000000E+00  0.00000000000E+00  0.43294936779E+03  0.35413475417E+04  0.35147826755E+04 0.  0.
        3    1    3    3  502    0 -0.14751412804E+04  0.69174743976E+03 -0.44719025668E+03  0.16895370530E+04  0.10100000352E+00 0. -1.
       -3    1    3    3    0  502  0.14751412804E+04 -0.69174743976E+03  0.88013962448E+03  0.18518104887E+04  0.10100000352E+00 0.  1.
</event>
<event>
 5   0  0.1033796E-07  0.3510165E+04  0.7818609E-02  0.8111385E-01
        1   -1    0    0  501    0  0.00000000000E+00  0.00000000000E+00  0.91104249634E+03  0.91104249635E+03  0.50400001928E-02 0. -1.
       -1   -1    0    0    0  501  0.00000000000E+00  0.00000000000E+00 -0.33810873828E+04  0.33810873829E+04  0.50400001928E-02 0.  1.
    10030    2    1    2    0    0  0.00000000000E+00  0.00000000000E+00 -0.24700448865E+04  0.42921298792E+04  0.35101648335E+04 0.  0.
        3    1    3    3  502    0 -0.72509116486E+03 -0.12874978885E+04 -0.76994939986E+02  0.14796405784E+04  0.10100000352E+00 0. -1.
       -3    1    3    3    0  502  0.72509116486E+03  0.12874978885E+04 -0.23930499465E+04  0.28124893008E+04  0.10100000352E+00 0.  1.
</event>
<event>
 5   0  0.3219205E-07  0.3519566E+04  0.7818609E-02  0.8109169E-01
        2   -1    0    0  501    0  0.00000000000E+00  0.00000000000E+00  0.23769146036E+04  0.23769146036E+04  0.25500000920E-02 0. -1.
       -2   -1    0    0    0  501  0.00000000000E+00  0.00000000000E+00 -0.13028808218E+04  0.13028808218E+04  0.25500000920E-02 0.  1.
    10030    2    1    2    0    0  0.00000000000E+00  0.00000000000E+00  0.10740337818E+04  0.36797954255E+04  0.35195661393E+04 0.  0.
        2    1    3    3  502    0 -0.13094932991E+04  0.11755740168E+04  0.52712670161E+03  0.18370110312E+04  0.25500000920E-02 0. -1.
       -2    1    3    3    0  502  0.13094932991E+04 -0.11755740168E+04  0.54690708019E+03  0.18427843942E+04  0.25500000920E-02 0.  1.
</event>
<event>
 5   0  0.1033796E-07  0.3496877E+04  0.7818609E-02  0.8114531E-01
        1   -1    0    0  501    0  0.00000000000E+00  0.00000000000E+00  0.24363813847E+04  0.24363813847E+04  0.50400001928E-02 0. -1.
       -1   -1    0    0    0  501  0.00000000000E+00  0.00000000000E+00 -0.12547447257E+04  0.12547447257E+04  0.50400001928E-02 0.  1.
    10030    2    1    2    0    0  0.00000000000E+00  0.00000000000E+00  0.11816366590E+04  0.36911261104E+04  0.34968767163E+04 0.  0.
        3    1    3    3  502    0  0.14029685737E+04 -0.28898640806E+03  0.16491100282E+04  0.21843529609E+04  0.10100000352E+00 0. -1.
       -3    1    3    3    0  502 -0.14029685737E+04  0.28898640806E+03 -0.46747336918E+03  0.15067731494E+04  0.10100000352E+00 0.  1.
</event>
<event>
 5   0  0.3190185E-07  0.3504594E+04  0.7818609E-02  0.8112702E-01
       -2   -1    0    0    0  501  0.00000000000E+00  0.00000000000E+00  0.15322760244E+04  0.15322760244E+04  0.25500000920E-02 0. -1.
        2   -1    0    0  501    0  0.00000000000E+00  0.00000000000E+00 -0.20039106509E+04  0.20039106509E+04  0.25500000920E-02 0.  1.
    10030    2    1    2    0    0  0.00000000000E+00  0.00000000000E+00 -0.47163462647E+03  0.35361866754E+04  0.35045936971E+04 0.  0.
        1    1    3    3  502    0  0.75968975263E+03 -0.13580139699E+04  0.57718423647E+03  0.16596602380E+04  0.50400001928E-02 0. -1.
       -1    1    3    3    0  502 -0.75968975263E+03  0.13580139699E+04 -0.10488188629E+04  0.18765264373E+04  0.50400001928E-02 0.  1.
</event>
<event>
 5   0  0.3119048E-07  0.3513673E+04  0.7818609E-02  0.8110557E-01
       -2   -1    0    0    0  501  0.00000000000E+00  0.00000000000E+00  0.10182899305E+04  0.10182899305E+04  0.25500000920E-02 0.  1.
        2   -1    0    0  501    0  0.00000000000E+00  0.00000000000E+00 -0.30310375986E+04  0.30310375986E+04  0.25500000920E-02 0. -1.
    10030    2    1    2    0    0  0.00000000000E+00  0.00000000000E+00 -0.20127476681E+04  0.40493275291E+04  0.35136733290E+04 0.  0.
        3    1    3    3  502    0 -0.54353377561E+03  0.16273440937E+04 -0.14418671643E+04  0.22411288884E+04  0.10100000352E+00 0. -1.
       -3    1    3    3    0  502  0.54353377561E+03 -0.16273440937E+04 -0.57088050380E+03  0.18081986408E+04  0.10100000352E+00 0.  1.
</event>
<event>
 5   0  0.3219205E-07  0.3498699E+04  0.7818609E-02  0.8114098E-01
       -2   -1    0    0    0  501  0.00000000000E+00  0.00000000000E+00  0.26990725808E+04  0.26990725808E+04  0.25500000920E-02 0. -1.
        2   -1    0    0  501    0  0.00000000000E+00  0.00000000000E+00 -0.11338058085E+04  0.11338058085E+04  0.25500000920E-02 0.  1.
    10030    2    1    2    0    0  0.00000000000E+00  0.00000000000E+00  0.15652667723E+04  0.38328783893E+04  0.34986992838E+04 0.  0.
        2    1    3    3  502    0 -0.49651989917E+03  0.16712760580E+04  0.62567049016E+03  0.18523388553E+04  0.25500000920E-02 0. -1.
       -2    1    3    3    0  502  0.49651989917E+03 -0.16712760580E+04  0.93959628210E+03  0.19805395340E+04  0.25500000920E-02 0.  1.
</event>
<event>
 5   0  0.1098171E-07  0.3503358E+04  0.7818609E-02  0.8112995E-01
        1   -1    0    0  501    0  0.00000000000E+00  0.00000000000E+00  0.13740579580E+04  0.13740579580E+04  0.50400001928E-02 0.  1.
       -1   -1    0    0    0  501  0.00000000000E+00  0.00000000000E+00 -0.22330778911E+04  0.22330778912E+04  0.50400001928E-02 0. -1.
    10030    2    1    2    0    0  0.00000000000E+00  0.00000000000E+00 -0.85901993317E+03  0.36071358491E+04  0.35033575023E+04 0.  0.
        4    1    3    3  502    0 -0.12129808530E+04  0.12556393563E+04 -0.28236364317E+03  0.17685258219E+04  0.12699999809E+01 0.  1.
       -4    1    3    3    0  502  0.12129808530E+04 -0.12556393563E+04 -0.57665628999E+03  0.18386100273E+04  0.12699999809E+01 0. -1.
</event>
<event>
 5   0  0.2180451E-07  0.3477628E+04  0.7818609E-02  0.8119112E-01
        2   -1    0    0  501    0  0.00000000000E+00  0.00000000000E+00  0.21377880671E+04  0.21377880671E+04  0.25500000920E-02 0. -1.
       -2   -1    0    0    0  501  0.00000000000E+00  0.00000000000E+00 -0.14142999323E+04  0.14142999323E+04  0.25500000920E-02 0.  1.
    10030    2    1    2    0    0  0.00000000000E+00  0.00000000000E+00  0.72348813479E+03  0.35520879995E+04  0.34776276504E+04 0.  0.
        4    1    3    3  502    0 -0.20377043693E+03  0.50574144048E+03  0.20482097583E+04  0.21195427862E+04  0.12699999809E+01 0. -1.
       -4    1    3    3    0  502  0.20377043693E+03 -0.50574144048E+03 -0.13247216235E+04  0.14325452133E+04  0.12699999809E+01 0.  1.
</event>
<event>
 5   0  0.3219205E-07  0.3258485E+04  0.7818609E-02  0.8173540E-01
        2   -1    0    0  501    0  0.00000000000E+00  0.00000000000E+00  0.20507641973E+04  0.20507641973E+04  0.25500000920E-02 0. -1.
       -2   -1    0    0    0  501  0.00000000000E+00  0.00000000000E+00 -0.12943621139E+04  0.12943621139E+04  0.25500000920E-02 0.  1.
    10030    2    1    2    0    0  0.00000000000E+00  0.00000000000E+00  0.75640208339E+03  0.33451263112E+04  0.32584852196E+04 0.  0.
        2    1    3    3  502    0  0.40574484001E+03 -0.69823848129E+03 -0.10744376650E+04  0.13440915698E+04  0.25500000920E-02 0.  1.
       -2    1    3    3    0  502 -0.40574484001E+03  0.69823848129E+03  0.18308397484E+04  0.20010347414E+04  0.25500000920E-02 0. -1.
</event>
<event>
 5   0  0.2180451E-07  0.3517790E+04  0.7818609E-02  0.8109587E-01
        2   -1    0    0  501    0  0.00000000000E+00  0.00000000000E+00  0.22851710295E+04  0.22851710295E+04  0.25500000920E-02 0. -1.
       -2   -1    0    0    0  501  0.00000000000E+00  0.00000000000E+00 -0.13538207876E+04  0.13538207876E+04  0.25500000920E-02 0.  1.
    10030    2    1    2    0    0  0.00000000000E+00  0.00000000000E+00  0.93135024190E+03  0.36389918171E+04  0.35177902399E+04 0.  0.
        4    1    3    3  502    0 -0.73459693847E+03 -0.15000684226E+04  0.10359140149E+04  0.19654407632E+04  0.12699999809E+01 0. -1.
       -4    1    3    3    0  502  0.73459693847E+03  0.15000684226E+04 -0.10456377301E+03  0.16735510539E+04  0.12699999809E+01 0.  1.
</event>
<event>
 5   0  0.3119048E-07  0.3597701E+04  0.7818609E-02  0.8091019E-01
       -2   -1    0    0    0  501  0.00000000000E+00  0.00000000000E+00  0.32459674550E+04  0.32459674550E+04  0.25500000920E-02 0. -1.
        2   -1    0    0  501    0  0.00000000000E+00  0.00000000000E+00 -0.99688710398E+03  0.99688710398E+03  0.25500000920E-02 0.  1.
    10030    2    1    2    0    0  0.00000000000E+00  0.00000000000E+00  0.22490803510E+04  0.42428545590E+04  0.35977009858E+04 0.  0.
        3    1    3    3  502    0 -0.67371822912E+03  0.13010725857E+04 -0.10624513033E+03  0.14690044804E+04  0.10100000352E+00 0.  1.
       -3    1    3    3    0  502  0.67371822912E+03 -0.13010725857E+04  0.23553254814E+04  0.27738500786E+04  0.10100000352E+00 0. -1.
</event>
<event>
 5   0  0.3190112E-07  0.3433836E+04  0.7818609E-02  0.8129651E-01
       -2   -1    0    0    0  501  0.00000000000E+00  0.00000000000E+00  0.10746812902E+04  0.10746812902E+04  0.25500000920E-02 0. -1.
        2   -1    0    0  501    0  0.00000000000E+00  0.00000000000E+00 -0.27429600630E+04  0.27429600630E+04  0.25500000920E-02 0.  1.
    10030    2    1    2    0    0  0.00000000000E+00  0.00000000000E+00 -0.16682787728E+04  0.38176413532E+04  0.34338362568E+04 0.  0.
        5    1    3    3  502    0 -0.13981863321E+04 -0.98626931842E+03 -0.67638695272E+03  0.18398841234E+04  0.46999998093E+01 0.  1.
       -5    1    3    3    0  502  0.13981863321E+04  0.98626931842E+03 -0.99189182003E+03  0.19777572299E+04  0.46999998093E+01 0. -1.
</event>
<event>
 5   0  0.3190185E-07  0.3496958E+04  0.7818609E-02  0.8114511E-01
       -2   -1    0    0    0  501  0.00000000000E+00  0.00000000000E+00  0.13704050157E+04  0.13704050157E+04  0.25500000920E-02 0.  1.
        2   -1    0    0  501    0  0.00000000000E+00  0.00000000000E+00 -0.22308573165E+04  0.22308573165E+04  0.25500000920E-02 0. -1.
    10030    2    1    2    0    0  0.00000000000E+00  0.00000000000E+00 -0.86045230081E+03  0.36012623323E+04  0.34969575668E+04 0.  0.
        1    1    3    3  502    0 -0.26660942698E+03  0.90195060945E+03  0.10877066350E+04  0.14379503511E+04  0.50400001928E-02 0.  1.
       -1    1    3    3    0  502  0.26660942698E+03 -0.90195060945E+03 -0.19481589358E+04  0.21633119811E+04  0.50400001928E-02 0. -1.
</event>
<event>
 5   0  0.2180451E-07  0.3541302E+04  0.7818609E-02  0.8104071E-01
        2   -1    0    0  501    0  0.00000000000E+00  0.00000000000E+00  0.28425851370E+04  0.28425851370E+04  0.25500000920E-02 0. -1.
       -2   -1    0    0    0  501  0.00000000000E+00  0.00000000000E+00 -0.11029413679E+04  0.11029413679E+04  0.25500000920E-02 0.  1.
    10030    2    1    2    0    0  0.00000000000E+00  0.00000000000E+00  0.17396437691E+04  0.39455265049E+04  0.35413018733E+04 0.  0.
        4    1    3    3  502    0  0.11085449281E+04  0.10963568505E+04 -0.65219884024E+02  0.15604888489E+04  0.12699999809E+01 0.  1.
       -4    1    3    3    0  502 -0.11085449281E+04 -0.10963568505E+04  0.18048636531E+04  0.23850376560E+04  0.12699999809E+01 0. -1.
</event>
<event>
 5   0  0.1098171E-07  0.3504544E+04  0.7818609E-02  0.8112714E-01
        1   -1    0    0  501    0  0.00000000000E+00  0.00000000000E+00  0.14064187251E+04  0.14064187251E+04  0.50400001928E-02 0.  1.
       -1   -1    0    0    0  501  0.00000000000E+00  0.00000000000E+00 -0.21831742487E+04  0.21831742487E+04  0.50400001928E-02 0. -1.
    10030    2    1    2    0    0  0.00000000000E+00  0.00000000000E+00 -0.77675552359E+03  0.35895929739E+04  0.35045439896E+04 0.  0.
        4    1    3    3  502    0  0.52974413113E+03  0.85190563969E+03  0.10831800158E+04  0.14763646646E+04  0.12699999809E+01 0.  1.
       -4    1    3    3    0  502 -0.52974413113E+03 -0.85190563969E+03 -0.18599355394E+04  0.21132283093E+04  0.12699999809E+01 0. -1.
</event>
<event>
 5   0  0.3190112E-07  0.3497130E+04  0.7818609E-02  0.8114470E-01
        2   -1    0    0  501    0  0.00000000000E+00  0.00000000000E+00  0.11298316008E+04  0.11298316008E+04  0.25500000920E-02 0.  1.
       -2   -1    0    0    0  501  0.00000000000E+00  0.00000000000E+00 -0.27061372295E+04  0.27061372295E+04  0.25500000920E-02 0. -1.
    10030    2    1    2    0    0  0.00000000000E+00  0.00000000000E+00 -0.15763056287E+04  0.38359688303E+04  0.34971298849E+04 0.  0.
        5    1    3    3  502    0 -0.29538282425E+03  0.15073715031E+04  0.12828427078E+03  0.15413950841E+04  0.46999998093E+01 0.  1.
       -5    1    3    3    0  502  0.29538282425E+03 -0.15073715031E+04 -0.17045898995E+04  0.22945737462E+04  0.46999998093E+01 0. -1.
</event>
<event>
 5   0  0.1033796E-07  0.3522208E+04  0.7818609E-02  0.8108547E-01
       -1   -1    0    0    0  501  0.00000000000E+00  0.00000000000E+00  0.15067097894E+04  0.15067097894E+04  0.50400001928E-02 0. -1.
        1   -1    0    0  501    0  0.00000000000E+00  0.00000000000E+00 -0.20584498714E+04  0.20584498714E+04  0.50400001928E-02 0.  1.
    10030    2    1    2    0    0  0.00000000000E+00  0.00000000000E+00 -0.55174008204E+03  0.35651596608E+04  0.35222075874E+04 0.  0.
        3    1    3    3  502    0 -0.16604531562E+04  0.19713616671E+03  0.28360832356E+03  0.16959955907E+04  0.10100000352E+00 0.  1.
       -3    1    3    3    0  502  0.16604531562E+04 -0.19713616671E+03 -0.83534840560E+03  0.18691640701E+04  0.10100000352E+00 0. -1.
</event>
<event>
 5   0  0.1013863E-07  0.3461359E+04  0.7818609E-02  0.8123009E-01
        1   -1    0    0  501    0  0.00000000000E+00  0.00000000000E+00  0.16866461610E+04  0.16866461610E+04  0.50400001928E-02 0. -1.
       -1   -1    0    0    0  501  0.00000000000E+00  0.00000000000E+00 -0.17758621394E+04  0.17758621394E+04  0.50400001928E-02 0.  1.
    10030    2    1    2    0    0  0.00000000000E+00  0.00000000000E+00 -0.89215978388E+02  0.34625083004E+04  0.34613587273E+04 0.  0.
        5    1    3    3  502    0  0.89466159955E+03 -0.59258435483E+03  0.13136549426E+04  0.16962567593E+04  0.46999998093E+01 0. -1.
       -5    1    3    3    0  502 -0.89466159955E+03  0.59258435483E+03 -0.14028709210E+04  0.17662515411E+04  0.46999998093E+01 0.  1.
</event>
<event>
 5   0  0.1072381E-07  0.3548773E+04  0.7818609E-02  0.8102328E-01
       -1   -1    0    0    0  501  0.00000000000E+00  0.00000000000E+00  0.13195762652E+04  0.13195762652E+04  0.50400001928E-02 0. -1.
        1   -1    0    0  501    0  0.00000000000E+00  0.00000000000E+00 -0.23859538737E+04  0.23859538737E+04  0.50400001928E-02 0.  1.
    10030    2    1    2    0    0  0.00000000000E+00  0.00000000000E+00 -0.10663776085E+04  0.37055301389E+04  0.35487733664E+04 0.  0.
        1    1    3    3  502    0  0.73852602970E+03 -0.12232216654E+04  0.56530613181E+03  0.15366401537E+04  0.50400001928E-02 0. -1.
       -1    1    3    3    0  502 -0.73852602970E+03  0.12232216654E+04 -0.16316837403E+04  0.21688899852E+04  0.50400001928E-02 0.  1.
</event>
<event>
 5   0  0.2180451E-07  0.3503522E+04  0.7818609E-02  0.8112956E-01
       -2   -1    0    0    0  501  0.00000000000E+00  0.00000000000E+00  0.12983237386E+04  0.12983237386E+04  0.25500000920E-02 0. -1.
        2   -1    0    0  501    0  0.00000000000E+00  0.00000000000E+00 -0.23635609208E+04  0.23635609208E+04  0.25500000920E-02 0.  1.
    10030    2    1    2    0    0  0.00000000000E+00  0.00000000000E+00 -0.10652371821E+04  0.36618846594E+04  0.35035223710E+04 0.  0.
        4    1    3    3  502    0 -0.19631529760E+03  0.10389556694E+04  0.92718585022E+03  0.14062872370E+04  0.12699999809E+01 0. -1.
       -4    1    3    3    0  502  0.19631529760E+03 -0.10389556694E+04 -0.19924230324E+04  0.22555974224E+04  0.12699999809E+01 0.  1.
</event>
<event>
 5   0  0.1072381E-07  0.3376159E+04  0.7818609E-02  0.8143783E-01
        1   -1    0    0  501    0  0.00000000000E+00  0.00000000000E+00  0.13339326138E+04  0.13339326138E+04  0.50400001928E-02 0. -1.
       -1   -1    0    0    0  501  0.00000000000E+00  0.00000000000E+00 -0.21362494061E+04  0.21362494061E+04  0.50400001928E-02 0.  1.
    10030    2    1    2    0    0  0.00000000000E+00  0.00000000000E+00 -0.80231679235E+03  0.34701820199E+04  0.33761592107E+04 0.  0.
        1    1    3    3  502    0  0.15329382467E+04 -0.47509785534E+02  0.32378923036E+03  0.15674808814E+04  0.50400001928E-02 0. -1.
       -1    1    3    3    0  502 -0.15329382467E+04  0.47509785534E+02 -0.11261060227E+04  0.19027011385E+04  0.50400001928E-02 0.  1.
</event>
<event>
 5   0  0.3119048E-07  0.3503709E+04  0.7818609E-02  0.8112912E-01
        2   -1    0    0  501    0  0.00000000000E+00  0.00000000000E+00  0.18473306276E+04  0.18473306276E+04  0.25500000920E-02 0. -1.
       -2   -1    0    0    0  501  0.00000000000E+00  0.00000000000E+00 -0.16613127043E+04  0.16613127043E+04  0.25500000920E-02 0.  1.
    10030    2    1    2    0    0  0.00000000000E+00  0.00000000000E+00  0.18601792332E+03  0.35086433319E+04  0.35037088010E+04 0.  0.
        3    1    3    3  502    0 -0.28497893804E+03  0.11935233128E+04  0.13450830053E+04  0.18207029397E+04  0.10100000352E+00 0. -1.
       -3    1    3    3    0  502  0.28497893804E+03 -0.11935233128E+04 -0.11590650820E+04  0.16879403922E+04  0.10100000352E+00 0.  1.
</event>
<event>
 5   0  0.3190112E-07  0.3488614E+04  0.7818609E-02  0.8116494E-01
       -2   -1    0    0    0  501  0.00000000000E+00  0.00000000000E+00  0.15755804553E+04  0.15755804553E+04  0.25500000920E-02 0. -1.
        2   -1    0    0  501    0  0.00000000000E+00  0.00000000000E+00 -0.19311018147E+04  0.19311018147E+04  0.25500000920E-02 0.  1.
    10030    2    1    2    0    0  0.00000000000E+00  0.00000000000E+00 -0.35552135942E+03  0.35066822700E+04  0.34886136366E+04 0.  0.
        5    1    3    3  502    0 -0.41914937142E+03 -0.13562579248E+04  0.84112748885E+03  0.16500422106E+04  0.46999998093E+01 0. -1.
       -5    1    3    3    0  502  0.41914937142E+03  0.13562579248E+04 -0.11966488483E+04  0.18566400594E+04  0.46999998093E+01 0.  1.
</event>
<event>
 5   0  0.3190112E-07  0.3480165E+04  0.7818609E-02  0.8118507E-01
        2   -1    0    0  501    0  0.00000000000E+00  0.00000000000E+00  0.15579740014E+04  0.15579740014E+04  0.25500000920E-02 0.  1.
       -2   -1    0    0    0  501  0.00000000000E+00  0.00000000000E+00 -0.19434775543E+04  0.19434775543E+04  0.25500000920E-02 0. -1.
    10030    2    1    2    0    0  0.00000000000E+00  0.00000000000E+00 -0.38550355292E+03  0.35014515556E+04  0.34801652270E+04 0.  0.
        5    1    3    3  502    0 -0.39643992342E+03 -0.12583493104E+04 -0.13342652101E+04  0.18764043649E+04  0.46999998093E+01 0. -1.
       -5    1    3    3    0  502  0.39643992342E+03  0.12583493104E+04  0.94876165717E+03  0.16250471907E+04  0.46999998093E+01 0.  1.
</event>
<event>
 5   0  0.3219205E-07  0.3500755E+04  0.7818609E-02  0.8113611E-01
        2   -1    0    0  501    0  0.00000000000E+00  0.00000000000E+00  0.12974121397E+04  0.12974121397E+04  0.25500000920E-02 0. -1.
       -2   -1    0    0    0  501  0.00000000000E+00  0.00000000000E+00 -0.23614861912E+04  0.23614861912E+04  0.25500000920E-02 0.  1.
    10030    2    1    2    0    0  0.00000000000E+00  0.00000000000E+00 -0.10640740515E+04  0.36588983309E+04  0.35007546914E+04 0.  0.
        2    1    3    3  502    0 -0.10901250554E+04  0.84280775655E+03  0.59613312897E+03  0.15013568058E+04  0.25500000920E-02 0. -1.
       -2    1    3    3    0  502  0.10901250554E+04 -0.84280775655E+03 -0.16602071804E+04  0.21575415252E+04  0.25500000920E-02 0.  1.
</event>
<event>
 5   0  0.1098171E-07  0.3531646E+04  0.7818609E-02  0.8106331E-01
       -1   -1    0    0    0  501  0.00000000000E+00  0.00000000000E+00  0.20588381809E+04  0.20588381809E+04  0.50400001928E-02 0.  1.
        1   -1    0    0  501    0  0.00000000000E+00  0.00000000000E+00 -0.15145102660E+04  0.15145102660E+04  0.50400001928E-02 0. -1.
    10030    2    1    2    0    0  0.00000000000E+00  0.00000000000E+00  0.54432791491E+03  0.35733484469E+04  0.35316463928E+04 0.  0.
        4    1    3    3  502    0  0.11112271104E+04 -0.10839392712E+04  0.11237553699E+04  0.19163970828E+04  0.12699999809E+01 0.  1.
       -4    1    3    3    0  502 -0.11112271104E+04  0.10839392712E+04 -0.57942745501E+03  0.16569513641E+04  0.12699999809E+01 0. -1.
</event>
<event>
 5   0  0.2180451E-07  0.3493927E+04  0.7818609E-02  0.8115231E-01
        2   -1    0    0  501    0  0.00000000000E+00  0.00000000000E+00  0.16235693122E+04  0.16235693122E+04  0.25500000920E-02 0. -1.
       -2   -1    0    0    0  501  0.00000000000E+00  0.00000000000E+00 -0.18797353944E+04  0.18797353944E+04  0.25500000920E-02 0.  1.
    10030    2    1    2    0    0  0.00000000000E+00  0.00000000000E+00 -0.25616608213E+03  0.35033047066E+04  0.34939265598E+04 0.  0.
        4    1    3    3  502    0 -0.74851294089E+03  0.10272175006E+03  0.14512815545E+04  0.16361672115E+04  0.12699999809E+01 0. -1.
       -4    1    3    3    0  502  0.74851294089E+03 -0.10272175006E+03 -0.17074476367E+04  0.18671374951E+04  0.12699999809E+01 0.  1.
</event>
<event>
 5   0  0.3119048E-07  0.3499589E+04  0.7818609E-02  0.8113887E-01
       -2   -1    0    0    0  501  0.00000000000E+00  0.00000000000E+00  0.13663038392E+04  0.13663038392E+04  0.25500000920E-02 0. -1.
        2   -1    0    0  501    0  0.00000000000E+00  0.00000000000E+00 -0.22409219578E+04  0.22409219578E+04  0.25500000920E-02 0.  1.
    10030    2    1    2    0    0  0.00000000000E+00  0.00000000000E+00 -0.87461811866E+03  0.36072257970E+04  0.34995887040E+04 0.  0.
        3    1    3    3  502    0 -0.10305057112E+04 -0.66172580379E+03 -0.17255315804E+04  0.21159589564E+04  0.10100000352E+00 0.  1.
       -3    1    3    3    0  502  0.10305057112E+04  0.66172580379E+03  0.85091346173E+03  0.14912668406E+04  0.10100000352E+00 0. -1.
</event>
<event>
 5   0  0.2180451E-07  0.3497932E+04  0.7818609E-02  0.8114280E-01
       -2   -1    0    0    0  501  0.00000000000E+00  0.00000000000E+00  0.13200144231E+04  0.13200144231E+04  0.25500000920E-02 0.  1.
        2   -1    0    0  501    0  0.00000000000E+00  0.00000000000E+00 -0.23173101138E+04  0.23173101138E+04  0.25500000920E-02 0. -1.
    10030    2    1    2    0    0  0.00000000000E+00  0.00000000000E+00 -0.99729569063E+03  0.36373245369E+04  0.34979324025E+04 0.  0.
        4    1    3    3  502    0 -0.20996000890E+03 -0.10559579573E+04 -0.19318879494E+04  0.22116335761E+04  0.12699999809E+01 0. -1.
       -4    1    3    3    0  502  0.20996000890E+03  0.10559579573E+04  0.93459225874E+03  0.14256909609E+04  0.12699999809E+01 0.  1.
</event>
<event>
 5   0  0.3119048E-07  0.3507155E+04  0.7818609E-02  0.8112096E-01
        2   -1    0    0  501    0  0.00000000000E+00  0.00000000000E+00  0.21841281642E+04  0.21841281642E+04  0.25500000920E-02 0.  1.
       -2   -1    0    0    0  501  0.00000000000E+00  0.00000000000E+00 -0.14078996484E+04  0.14078996484E+04  0.25500000920E-02 0. -1.
    10030    2    1    2    0    0  0.00000000000E+00  0.00000000000E+00  0.77622851578E+03  0.35920278126E+04  0.35071545586E+04 0.  0.
        3    1    3    3  502    0  0.15549403051E+04  0.65853100842E+03  0.87234626645E+03  0.19006552713E+04  0.10100000352E+00 0.  1.
       -3    1    3    3    0  502 -0.15549403051E+04 -0.65853100842E+03 -0.96117750671E+02  0.16913725413E+04  0.10100000352E+00 0. -1.
</event>
<event>
 5   0  0.3119048E-07  0.3495411E+04  0.7818609E-02  0.8114878E-01
       -2   -1    0    0    0  501  0.00000000000E+00  0.00000000000E+00  0.16553902018E+04  0.16553902018E+04  0.25500000920E-02 0.  1.
        2   -1    0    0  501    0  0.00000000000E+00  0.00000000000E+00 -0.18451685987E+04  0.18451685987E+04  0.25500000920E-02 0. -1.
    10030    2    1    2    0    0  0.00000000000E+00  0.00000000000E+00 -0.18977839695E+03  0.35005588005E+04  0.34954107163E+04 0.  0.
        3    1    3    3  502    0  0.32212361116E+03 -0.14520818334E+04  0.82415991716E+03  0.17004543072E+04  0.10100000352E+00 0.  1.
       -3    1    3    3    0  502 -0.32212361116E+03  0.14520818334E+04 -0.10139383141E+04  0.18001044933E+04  0.10100000352E+00 0. -1.
</event>
<event>
 5   0  0.1098171E-07  0.3518404E+04  0.7818609E-02  0.8109442E-01
       -1   -1    0    0    0  501  0.00000000000E+00  0.00000000000E+00  0.16038364396E+04  0.16038364396E+04  0.50400001928E-02 0. -1.
        1   -1    0    0  501    0  0.00000000000E+00  0.00000000000E+00 -0.19296183137E+04  0.19296183137E+04  0.50400001928E-02 0.  1.
    10030    2    1    2    0    0  0.00000000000E+00  0.00000000000E+00 -0.32578187419E+03  0.35334547533E+04  0.35184042781E+04 0.  0.
        4    1    3    3  502    0  0.20060240262E+03 -0.16593913377E+04  0.38806278657E+03  0.17159298572E+04  0.12699999809E+01 0. -1.
       -4    1    3    3    0  502 -0.20060240262E+03  0.16593913377E+04 -0.71384466075E+03  0.18175248961E+04  0.12699999809E+01 0.  1.
</event>
<event>
 5   0  0.1033796E-07  0.3475818E+04  0.7818609E-02  0.8119545E-01
        1   -1    0    0  501    0  0.00000000000E+00  0.00000000000E+00  0.17664718651E+04  0.17664718651E+04  0.50400001928E-02 0.  1.
       -1   -1    0    0    0  501  0.00000000000E+00  0.00000000000E+00 -0.17098075947E+04  0.17098075947E+04  0.50400001928E-02 0. -1.
    10030    2    1    2    0    0  0.00000000000E+00  0.00000000000E+00  0.56664270473E+02  0.34762794598E+04  0.34758176078E+04 0.  0.
        3    1    3    3  502    0 -0.13223095023E+04 -0.10527704668E+04  0.43273586673E+03  0.17447316172E+04  0.10100000352E+00 0. -1.
       -3    1    3    3    0  502  0.13223095023E+04  0.10527704668E+04 -0.37607159626E+03  0.17315478426E+04  0.10100000352E+00 0.  1.
</event>
<event>
 5   0  0.1013863E-07  0.3463902E+04  0.7818609E-02  0.8122398E-01
       -1   -1    0    0    0  501  0.00000000000E+00  0.00000000000E+00  0.14290410732E+04  0.14290410732E+04  0.50400001928E-02 0. -1.
        1   -1    0    0  501    0  0.00000000000E+00  0.00000000000E+00 -0.20990680578E+04  0.20990680578E+04  0.50400001928E-02 0.  1.
    10030    2    1    2    0    0  0.00000000000E+00  0.00000000000E+00 -0.67002698463E+03  0.35281091310E+04  0.34639021176E+04 0.  0.
        5    1    3    3  502    0  0.24514575539E+03 -0.10462918080E+04  0.10484004533E+04  0.15013289411E+04  0.46999998093E+01 0. -1.
       -5    1    3    3    0  502 -0.24514575539E+03  0.10462918080E+04 -0.17184274379E+04  0.20267801899E+04  0.46999998093E+01 0.  1.
</event>
<event>
 5   0  0.3190185E-07  0.3492340E+04  0.7818609E-02  0.8115608E-01
       -2   -1    0    0    0  501  0.00000000000E+00  0.00000000000E+00  0.22483582258E+04  0.22483582258E+04  0.25500000920E-02 0.  1.
        2   -1    0    0  501    0  0.00000000000E+00  0.00000000000E+00 -0.13561491949E+04  0.13561491949E+04  0.25500000920E-02 0. -1.
    10030    2    1    2    0    0  0.00000000000E+00  0.00000000000E+00  0.89220903091E+03  0.36045074207E+04  0.34923397302E+04 0.  0.
        1    1    3    3  502    0  0.10677457913E+04  0.45726443548E+02  0.18713761319E+04  0.21550453846E+04  0.50400001928E-02 0.  1.
       -1    1    3    3    0  502 -0.10677457913E+04 -0.45726443548E+02 -0.97916710104E+03  0.14494620361E+04  0.50400001928E-02 0. -1.
</event>
<event>
 5   0  0.3190112E-07  0.3502765E+04  0.7818609E-02  0.8113135E-01
        2   -1    0    0  501    0  0.00000000000E+00  0.00000000000E+00  0.20569860367E+04  0.20569860367E+04  0.25500000920E-02 0. -1.
       -2   -1    0    0    0  501  0.00000000000E+00  0.00000000000E+00 -0.14911816450E+04  0.14911816450E+04  0.25500000920E-02 0.  1.
    10030    2    1    2    0    0  0.00000000000E+00  0.00000000000E+00  0.56580439166E+03  0.35481676817E+04  0.35027645208E+04 0.  0.
        5    1    3    3  502    0 -0.72399129475E+03  0.11563453428E+04  0.13953263496E+04  0.19514752519E+04  0.46999998093E+01 0. -1.
       -5    1    3    3    0  502  0.72399129475E+03 -0.11563453428E+04 -0.82952195794E+03  0.15966924298E+04  0.46999998093E+01 0.  1.
</event>
<event>
 5   0  0.1013863E-07  0.3514109E+04  0.7818609E-02  0.8110454E-01
        1   -1    0    0  501    0  0.00000000000E+00  0.00000000000E+00  0.10066319290E+04  0.10066319290E+04  0.50400001928E-02 0. -1.
       -1   -1    0    0    0  501  0.00000000000E+00  0.00000000000E+00 -0.30669010654E+04  0.30669010654E+04  0.50400001928E-02 0.  1.
    10030    2    1    2    0    0  0.00000000000E+00  0.00000000000E+00 -0.20602691364E+04  0.40735329945E+04  0.35141090112E+04 0.  0.
        5    1    3    3  502    0  0.89255924080E+03  0.10116681962E+04  0.27470974284E+03  0.13768159174E+04  0.46999998093E+01 0. -1.
       -5    1    3    3    0  502 -0.89255924080E+03 -0.10116681962E+04 -0.23349788792E+04  0.26967170771E+04  0.46999998093E+01 0.  1.
</event>
<event>
 5   0  0.1072381E-07  0.3464377E+04  0.7818609E-02  0.8122284E-01
       -1   -1    0    0    0  501  0.00000000000E+00  0.00000000000E+00  0.24661893359E+04  0.24661893359E+04  0.50400001928E-02 0. -1.
        1   -1    0    0  501    0  0.00000000000E+00  0.00000000000E+00 -0.12166447776E+04  0.12166447776E+04  0.50400001928E-02 0.  1.
    10030    2    1    2    0    0  0.00000000000E+00  0.00000000000E+00  0.12495445583E+04  0.36828341135E+04  0.34643766400E+04 0.  0.
        1    1    3    3  502    0 -0.32551275879E+03  0.16429334607E+04  0.15499258777E+03  0.16820260446E+04  0.50400001928E-02 0.  1.
       -1    1    3    3    0  502  0.32551275879E+03 -0.16429334607E+04  0.10945519706E+04  0.20008080689E+04  0.50400001928E-02 0. -1.
</event>
<event>
 5   0  0.2180451E-07  0.3491502E+04  0.7818609E-02  0.8115807E-01
       -2   -1    0    0    0  501  0.00000000000E+00  0.00000000000E+00  0.17753431543E+04  0.17753431543E+04  0.25500000920E-02 0. -1.
        2   -1    0    0  501    0  0.00000000000E+00  0.00000000000E+00 -0.17166525878E+04  0.17166525878E+04  0.25500000920E-02 0.  1.
    10030    2    1    2    0    0  0.00000000000E+00  0.00000000000E+00  0.58690566426E+02  0.34919957421E+04  0.34915024961E+04 0.  0.
        4    1    3    3  502    0  0.26177245347E+03 -0.35392734395E+03  0.17189200264E+04  0.17743948412E+04  0.12699999809E+01 0. -1.
       -4    1    3    3    0  502 -0.26177245347E+03  0.35392734395E+03 -0.16602294600E+04  0.17176009009E+04  0.12699999809E+01 0.  1.
</event>
<event>
 5   0  0.1098171E-07  0.3486144E+04  0.7818609E-02  0.8117081E-01
       -1   -1    0    0    0  501  0.00000000000E+00  0.00000000000E+00  0.19889008189E+04  0.19889008189E+04  0.50400001928E-02 0.  1.
        1   -1    0    0  501    0  0.00000000000E+00  0.00000000000E+00 -0.15276277448E+04  0.15276277448E+04  0.50400001928E-02 0. -1.
    10030    2    1    2    0    0  0.00000000000E+00  0.00000000000E+00  0.46127307411E+03  0.35165285637E+04  0.34861440433E+04 0.  0.
        4    1    3    3  502    0 -0.11714610116E+04 -0.10280105935E+04  0.10179337411E+04  0.18615363000E+04  0.12699999809E+01 0.  1.
       -4    1    3    3    0  502  0.11714610116E+04  0.10280105935E+04 -0.55666066694E+03  0.16549922637E+04  0.12699999809E+01 0. -1.
</event>
<event>
 5   0  0.2180451E-07  0.3512898E+04  0.7818609E-02  0.8110740E-01
        2   -1    0    0  501    0  0.00000000000E+00  0.00000000000E+00  0.17104888355E+04  0.17104888355E+04  0.25500000920E-02 0.  1.
       -2   -1    0    0    0  501  0.00000000000E+00  0.00000000000E+00 -0.18036444947E+04  0.18036444947E+04  0.25500000920E-02 0. -1.
    10030    2    1    2    0    0  0.00000000000E+00  0.00000000000E+00 -0.93155659239E+02  0.35141333302E+04  0.35128983882E+04 0.  0.
        4    1    3    3  502    0  0.14064117292E+04 -0.46987896753E+03  0.89520518312E+03  0.17321010735E+04  0.12699999809E+01 0.  1.
       -4    1    3    3    0  502 -0.14064117292E+04  0.46987896753E+03 -0.98836084236E+03  0.17820322567E+04  0.12699999809E+01 0. -1.
</event>
<event>
 5   0  0.3190185E-07  0.3498255E+04  0.7818609E-02  0.8114204E-01
        2   -1    0    0  501    0  0.00000000000E+00  0.00000000000E+00  0.19833768374E+04  0.19833768374E+04  0.25500000920E-02 0. -1.
       -2   -1    0    0    0  501  0.00000000000E+00  0.00000000000E+00 -0.15425446640E+04  0.15425446640E+04  0.25500000920E-02 0.  1.
    10030    2    1    2    0    0  0.00000000000E+00  0.00000000000E+00  0.44083217339E+03  0.35259215013E+04  0.34982551977E+04 0.  0.
        1    1    3    3  502    0  0.47815465116E+03 -0.51398399558E+03  0.18351586263E+04  0.19648456942E+04  0.50400001928E-02 0. -1.
       -1    1    3    3    0  502 -0.47815465116E+03  0.51398399558E+03 -0.13943264530E+04  0.15610758071E+04  0.50400001928E-02 0.  1.
</event>
<event>
 5   0  0.3190112E-07  0.3499569E+04  0.7818609E-02  0.8113892E-01
       -2   -1    0    0    0  501  0.00000000000E+00  0.00000000000E+00  0.15984801694E+04  0.15984801694E+04  0.25500000920E-02 0. -1.
        2   -1    0    0  501    0  0.00000000000E+00  0.00000000000E+00 -0.19154107381E+04  0.19154107381E+04  0.25500000920E-02 0.  1.
    10030    2    1    2    0    0  0.00000000000E+00  0.00000000000E+00 -0.31693056870E+03  0.35138909074E+04  0.34995691626E+04 0.  0.
        5    1    3    3  502    0 -0.48474915563E+03  0.12513443901E+04 -0.12859495218E+04  0.18586373474E+04  0.46999998093E+01 0.  1.
       -5    1    3    3    0  502  0.48474915563E+03 -0.12513443901E+04  0.96901895308E+03  0.16552535600E+04  0.46999998093E+01 0. -1.
</event>
<event>
 5   0  0.1072381E-07  0.3513586E+04  0.7818609E-02  0.8110578E-01
        1   -1    0    0  501    0  0.00000000000E+00  0.00000000000E+00  0.18399278298E+04  0.18399278298E+04  0.50400001928E-02 0.  1.
       -1   -1    0    0    0  501  0.00000000000E+00  0.00000000000E+00 -0.16774148172E+04  0.16774148172E+04  0.50400001928E-02 0. -1.
    10030    2    1    2    0    0  0.00000000000E+00  0.00000000000E+00  0.16251301260E+03  0.35173426471E+04  0.35135863185E+04 0.  0.
        1    1    3    3  502    0 -0.42113711763E+02  0.21386582308E+03  0.18263384602E+04  0.18392999554E+04  0.50400001928E-02 0.  1.
       -1    1    3    3    0  502  0.42113711763E+02 -0.21386582308E+03 -0.16638254476E+04  0.16780426916E+04  0.50400001928E-02 0. -1.
</event>
<event>
 5   0  0.1013863E-07  0.3510655E+04  0.7818609E-02  0.8111269E-01
       -1   -1    0    0    0  501  0.00000000000E+00  0.00000000000E+00  0.34597721786E+04  0.34597721786E+04  0.50400001928E-02 0. -1.
        1   -1    0    0  501    0  0.00000000000E+00  0.00000000000E+00 -0.89057166495E+03  0.89057166497E+03  0.50400001928E-02 0.  1.
    10030    2    1    2    0    0  0.00000000000E+00  0.00000000000E+00  0.25692005136E+04  0.43503438436E+04  0.35106552491E+04 0.  0.
        5    1    3    3  502    0 -0.12048812350E+03 -0.10427350790E+03  0.34507835821E+04  0.34544637461E+04  0.46999998093E+01 0. -1.
       -5    1    3    3    0  502  0.12048812350E+03  0.10427350790E+03 -0.88158306850E+03  0.89588009746E+03  0.46999998093E+01 0.  1.
</event>
<event>
 5   0  0.2180451E-07  0.3489171E+04  0.7818609E-02  0.8116361E-01
        2   -1    0    0  501    0  0.00000000000E+00  0.00000000000E+00  0.13071441485E+04  0.13071441485E+04  0.25500000920E-02 0.  1.
       -2   -1    0    0    0  501  0.00000000000E+00  0.00000000000E+00 -0.23284184374E+04  0.23284184374E+04  0.25500000920E-02 0. -1.
    10030    2    1    2    0    0  0.00000000000E+00  0.00000000000E+00 -0.10212742889E+04  0.36355625859E+04  0.34891709822E+04 0.  0.
        4    1    3    3  502    0  0.48564833685E+03 -0.93957272377E+03  0.93499021936E+03  0.14116867689E+04  0.12699999809E+01 0.  1.
       -4    1    3    3    0  502 -0.48564833685E+03  0.93957272377E+03 -0.19562645082E+04  0.22238758170E+04  0.12699999809E+01 0. -1.
</event>
<event>
 5   0  0.1013863E-07  0.3508839E+04  0.7818609E-02  0.8111699E-01
       -1   -1    0    0    0  501  0.00000000000E+00  0.00000000000E+00  0.18204057673E+04  0.18204057673E+04  0.50400001928E-02 0. -1.
        1   -1    0    0  501    0  0.00000000000E+00  0.00000000000E+00 -0.16908247290E+04  0.16908247290E+04  0.50400001928E-02 0.  1.
    10030    2    1    2    0    0  0.00000000000E+00  0.00000000000E+00  0.12958103830E+03  0.35112304962E+04  0.35088386044E+04 0.  0.
        2    1    3    3  502    0 -0.12304286014E+03  0.18391292556E+03  0.18063859407E+04  0.18198883692E+04  0.25500000920E-02 0. -1.
       -2    1    3    3    0  502  0.12304286014E+03 -0.18391292556E+03 -0.16768049024E+04  0.16913421270E+04  0.25500000920E-02 0.  1.
</event>
<event>
 5   0  0.2180451E-07  0.3495631E+04  0.7818609E-02  0.8114826E-01
        2   -1    0    0  501    0  0.00000000000E+00  0.00000000000E+00  0.14161359871E+04  0.14161359871E+04  0.25500000920E-02 0. -1.
       -2   -1    0    0    0  501  0.00000000000E+00  0.00000000000E+00 -0.21571790526E+04  0.21571790526E+04  0.25500000920E-02 0.  1.
    10030    2    1    2    0    0  0.00000000000E+00  0.00000000000E+00 -0.74104306550E+03  0.35733150397E+04  0.34956309227E+04 0.  0.
        4    1    3    3  502    0  0.74367453997E+03 -0.53364717686E+03  0.11515362564E+04  0.14710093451E+04  0.12699999809E+01 0. -1.
       -4    1    3    3    0  502 -0.74367453997E+03  0.53364717686E+03 -0.18925793219E+04  0.21023056945E+04  0.12699999809E+01 0.  1.
</event>
<event>
 5   0  0.3190112E-07  0.3522892E+04  0.7818609E-02  0.8108386E-01
        2   -1    0    0  501    0  0.00000000000E+00  0.00000000000E+00  0.11984954579E+04  0.11984954579E+04  0.25500000920E-02 0.  1.
       -2   -1    0    0    0  501  0.00000000000E+00  0.00000000000E+00 -0.25888219558E+04  0.25888219558E+04  0.25500000920E-02 0. -1.
    10030    2    1    2    0    0  0.00000000000E+00  0.00000000000E+00 -0.13903264979E+04  0.37873174137E+04  0.35228916278E+04 0.  0.
        5    1    3    3  502    0  0.15894409551E+04  0.16863618066E+03  0.10060473398E+03  0.16015318023E+04  0.46999998093E+01 0.  1.
       -5    1    3    3    0  502 -0.15894409551E+04 -0.16863618066E+03 -0.14909312318E+04  0.21857856115E+04  0.46999998093E+01 0. -1.
</event>
<event>
 5   0  0.2180451E-07  0.3514051E+04  0.7818609E-02  0.8110468E-01
        2   -1    0    0  501    0  0.00000000000E+00  0.00000000000E+00  0.20412525261E+04  0.20412525261E+04  0.25500000920E-02 0.  1.
       -2   -1    0    0    0  501  0.00000000000E+00  0.00000000000E+00 -0.15123743511E+04  0.15123743511E+04  0.25500000920E-02 0. -1.
    10030    2    1    2    0    0  0.00000000000E+00  0.00000000000E+00  0.52887817497E+03  0.35536268772E+04  0.35140506340E+04 0.  0.
        4    1    3    3  502    0 -0.98157030472E+02 -0.46371581955E+03 -0.14464987121E+04  0.15221784721E+04  0.12699999809E+01 0. -1.
       -4    1    3    3    0  502  0.98157030472E+02  0.46371581955E+03  0.19753768870E+04  0.20314484051E+04  0.12699999809E+01 0.  1.
</event>
<event>
 5   0  0.1072381E-07  0.3500377E+04  0.7818609E-02  0.8113701E-01
        1   -1    0    0  501    0  0.00000000000E+00  0.00000000000E+00  0.20553411521E+04  0.20553411521E+04  0.50400001928E-02 0.  1.
       -1   -1    0    0    0  501  0.00000000000E+00  0.00000000000E+00 -0.14903414440E+04  0.14903414440E+04  0.50400001928E-02 0. -1.
    10030    2    1    2    0    0  0.00000000000E+00  0.00000000000E+00  0.56499970813E+03  0.35456825961E+04  0.35003771800E+04 0.  0.
        1    1    3    3  502    0  0.14740493778E+04 -0.30007216436E+03  0.11886707833E+04  0.19172384054E+04  0.50400001928E-02 0. -1.
       -1    1    3    3    0  502 -0.14740493778E+04  0.30007216436E+03 -0.62367107518E+03  0.16284441907E+04  0.50400001928E-02 0.  1.
</event>
<event>
 5   0  0.1098171E-07  0.3489615E+04  0.7818609E-02  0.8116256E-01
        1   -1    0    0  501    0  0.00000000000E+00  0.00000000000E+00  0.17285928423E+04  0.17285928423E+04  0.50400001928E-02 0. -1.
       -1   -1    0    0    0  501  0.00000000000E+00  0.00000000000E+00 -0.17611739309E+04  0.17611739309E+04  0.50400001928E-02 0.  1.
    10030    2    1    2    0    0  0.00000000000E+00  0.00000000000E+00 -0.32581088658E+02  0.34897667732E+04  0.34896146784E+04 0.  0.
        4    1    3    3  502    0 -0.88514241403E+03  0.11898931085E+04 -0.93558483775E+03  0.17534660830E+04  0.12699999809E+01 0.  1.
       -4    1    3    3    0  502  0.88514241403E+03 -0.11898931085E+04  0.90300374909E+03  0.17363006902E+04  0.12699999809E+01 0. -1.
</event>
<event>
 5   0  0.1033796E-07  0.3501505E+04  0.7818609E-02  0.8113433E-01
       -1   -1    0    0    0  501  0.00000000000E+00  0.00000000000E+00  0.25909070180E+04  0.25909070180E+04  0.50400001928E-02 0. -1.
        1   -1    0    0  501    0  0.00000000000E+00  0.00000000000E+00 -0.11830354072E+04  0.11830354072E+04  0.50400001928E-02 0.  1.
    10030    2    1    2    0    0  0.00000000000E+00  0.00000000000E+00  0.14078716109E+04  0.37739424252E+04  0.35015052415E+04 0.  0.
        3    1    3    3  502    0 -0.13425858624E+04  0.11181383895E+04  0.58408849531E+03  0.18422620977E+04  0.10100000352E+00 0. -1.
       -3    1    3    3    0  502  0.13425858624E+04 -0.11181383895E+04  0.82378311555E+03  0.19316803275E+04  0.10100000352E+00 0.  1.
</event>
<event>
 5   0  0.3190185E-07  0.3537561E+04  0.7818609E-02  0.8104946E-01
        2   -1    0    0  501    0  0.00000000000E+00  0.00000000000E+00  0.17834779342E+04  0.17834779342E+04  0.25500000920E-02 0. -1.
       -2   -1    0    0    0  501  0.00000000000E+00  0.00000000000E+00 -0.17542037954E+04  0.17542037954E+04  0.25500000920E-02 0.  1.
    10030    2    1    2    0    0  0.00000000000E+00  0.00000000000E+00  0.29274138824E+02  0.35376817296E+04  0.35375606065E+04 0.  0.
        1    1    3    3  502    0  0.10808615616E+04  0.59762093560E+03  0.12808444171E+04  0.17793186671E+04  0.50400001928E-02 0. -1.
       -1    1    3    3    0  502 -0.10808615616E+04 -0.59762093560E+03 -0.12515702783E+04  0.17583630625E+04  0.50400001928E-02 0.  1.
</event>
<event>
 5   0  0.3219205E-07  0.3503795E+04  0.7818609E-02  0.8112891E-01
        2   -1    0    0  501    0  0.00000000000E+00  0.00000000000E+00  0.18341665101E+04  0.18341665101E+04  0.25500000920E-02 0.  1.
       -2   -1    0    0    0  501  0.00000000000E+00  0.00000000000E+00 -0.16733181230E+04  0.16733181230E+04  0.25500000920E-02 0. -1.
    10030    2    1    2    0    0  0.00000000000E+00  0.00000000000E+00  0.16084838710E+03  0.35074846330E+04  0.35037945498E+04 0.  0.
        2    1    3    3  502    0  0.16702814669E+03  0.44291694633E+03 -0.16080858202E+04  0.16763095860E+04  0.25500000920E-02 0. -1.
       -2    1    3    3    0  502 -0.16702814669E+03 -0.44291694633E+03  0.17689342073E+04  0.18311750470E+04  0.25500000920E-02 0.  1.
</event>
<event>
 5   0  0.1013863E-07  0.3391648E+04  0.7818609E-02  0.8139959E-01
       -1   -1    0    0    0  501  0.00000000000E+00  0.00000000000E+00  0.13623512321E+04  0.13623512321E+04  0.50400001928E-02 0.  1.
        1   -1    0    0  501    0  0.00000000000E+00  0.00000000000E+00 -0.21109238224E+04  0.21109238224E+04  0.50400001928E-02 0. -1.
    10030    2    1    2    0    0  0.00000000000E+00  0.00000000000E+00 -0.74857259026E+03  0.34732750545E+04  0.33916483723E+04 0.  0.
        2    1    3    3  502    0  0.13764165744E+04 -0.73632630995E+03 -0.10528963442E+04  0.18828939781E+04  0.25500000920E-02 0. -1.
       -2    1    3    3    0  502 -0.13764165744E+04  0.73632630995E+03  0.30432375390E+03  0.15903810765E+04  0.25500000920E-02 0.  1.
</event>
<event>
 5   0  0.2180451E-07  0.3554293E+04  0.7818609E-02  0.8101042E-01
       -2   -1    0    0    0  501  0.00000000000E+00  0.00000000000E+00  0.22548669057E+04  0.22548669057E+04  0.25500000920E-02 0. -1.
        2   -1    0    0  501    0  0.00000000000E+00  0.00000000000E+00 -0.14006366580E+04  0.14006366580E+04  0.25500000920E-02 0.  1.
    10030    2    1    2    0    0  0.00000000000E+00  0.00000000000E+00  0.85423024769E+03  0.36555035637E+04  0.35542927549E+04 0.  0.
        4    1    3    3  502    0  0.14153521465E+04  0.66626823720E+03 -0.44017258894E+03  0.16250811005E+04  0.12699999809E+01 0.  1.
       -4    1    3    3    0  502 -0.14153521465E+04 -0.66626823720E+03  0.12944028366E+04  0.20304224631E+04  0.12699999809E+01 0. -1.
</event>
<event>
 5   0  0.3190112E-07  0.3511994E+04  0.7818609E-02  0.8110953E-01
        2   -1    0    0  501    0  0.00000000000E+00  0.00000000000E+00  0.17187331036E+04  0.17187331036E+04  0.25500000920E-02 0.  1.
       -2   -1    0    0    0  501  0.00000000000E+00  0.00000000000E+00 -0.17940685981E+04  0.17940685981E+04  0.25500000920E-02 0. -1.
    10030    2    1    2    0    0  0.00000000000E+00  0.00000000000E+00 -0.75335494545E+02  0.35128017017E+04  0.35119937868E+04 0.  0.
        5    1    3    3  502    0  0.13546079026E+04  0.28475666636E+03  0.10430686986E+04  0.17332233926E+04  0.46999998093E+01 0.  1.
       -5    1    3    3    0  502 -0.13546079026E+04 -0.28475666636E+03 -0.11184041932E+04  0.17795783090E+04  0.46999998093E+01 0. -1.
</event>
<event>
 5   0  0.1013863E-07  0.3501396E+04  0.7818609E-02  0.8113459E-01
        1   -1    0    0  501    0  0.00000000000E+00  0.00000000000E+00  0.16128397589E+04  0.16128397589E+04  0.50400001928E-02 0. -1.
       -1   -1    0    0    0  501  0.00000000000E+00  0.00000000000E+00 -0.19003401379E+04  0.19003401379E+04  0.50400001928E-02 0.  1.
    10030    2    1    2    0    0  0.00000000000E+00  0.00000000000E+00 -0.28750037903E+03  0.35131798968E+04  0.35013963670E+04 0.  0.
        2    1    3    3  502    0  0.14311273504E+04  0.93266468877E+03 -0.52838768073E+03  0.17880666811E+04  0.25500000920E-02 0.  1.
       -2    1    3    3    0  502 -0.14311273504E+04 -0.93266468877E+03  0.24088730170E+03  0.17251132157E+04  0.25500000920E-02 0. -1.
</event>
<event>
 5   0  0.2180451E-07  0.3525677E+04  0.7818609E-02  0.8107732E-01
        2   -1    0    0  501    0  0.00000000000E+00  0.00000000000E+00  0.17932764706E+04  0.17932764706E+04  0.25500000920E-02 0. -1.
       -2   -1    0    0    0  501  0.00000000000E+00  0.00000000000E+00 -0.17329167991E+04  0.17329167991E+04  0.25500000920E-02 0.  1.
    10030    2    1    2    0    0  0.00000000000E+00  0.00000000000E+00  0.60359671505E+02  0.35261932697E+04  0.35256766281E+04 0.  0.
        4    1    3    3  502    0 -0.11011124026E+04  0.91678607087E+03 -0.99693320529E+03  0.17455150104E+04  0.12699999809E+01 0.  1.
       -4    1    3    3    0  502  0.11011124026E+04 -0.91678607087E+03  0.10572928768E+04  0.17806782593E+04  0.12699999809E+01 0. -1.
</event>
<event>
 5   0  0.1098171E-07  0.3505930E+04  0.7818609E-02  0.8112386E-01
        1   -1    0    0  501    0  0.00000000000E+00  0.00000000000E+00  0.12119721321E+04  0.12119721321E+04  0.50400001928E-02 0. -1.
       -1   -1    0    0    0  501  0.00000000000E+00  0.00000000000E+00 -0.25354428685E+04  0.25354428685E+04  0.50400001928E-02 0.  1.
    10030    2    1    2    0    0  0.00000000000E+00  0.00000000000E+00 -0.13234707364E+04  0.37474150007E+04  0.35059298905E+04 0.  0.
        4    1    3    3  502    0  0.56595928280E+03 -0.71714524560E+03 -0.22608717587E+04  0.24384728695E+04  0.12699999809E+01 0.  1.
       -4    1    3    3    0  502 -0.56595928280E+03  0.71714524560E+03  0.93740102236E+03  0.13089421311E+04  0.12699999809E+01 0. -1.
</event>
<event>
 5   0  0.3190185E-07  0.3482912E+04  0.7818609E-02  0.8117852E-01
       -2   -1    0    0    0  501  0.00000000000E+00  0.00000000000E+00  0.12689142795E+04  0.12689142795E+04  0.25500000920E-02 0. -1.
        2   -1    0    0  501    0  0.00000000000E+00  0.00000000000E+00 -0.23899712603E+04  0.23899712603E+04  0.25500000920E-02 0.  1.
    10030    2    1    2    0    0  0.00000000000E+00  0.00000000000E+00 -0.11210569808E+04  0.36588855398E+04  0.34829118047E+04 0.  0.
        1    1    3    3  502    0 -0.81246618508E+03  0.87141946358E+03  0.77376032088E+03  0.14206259950E+04  0.50400001928E-02 0. -1.
       -1    1    3    3    0  502  0.81246618508E+03 -0.87141946358E+03 -0.18948173017E+04  0.22382595449E+04  0.50400001928E-02 0.  1.
</event>
<event>
 5   0  0.1013863E-07  0.3410786E+04  0.7818609E-02  0.8135264E-01
       -1   -1    0    0    0  501  0.00000000000E+00  0.00000000000E+00  0.22284029335E+04  0.22284029335E+04  0.50400001928E-02 0.  1.
        1   -1    0    0  501    0  0.00000000000E+00  0.00000000000E+00 -0.13051346554E+04  0.13051346554E+04  0.50400001928E-02 0. -1.
    10030    2    1    2    0    0  0.00000000000E+00  0.00000000000E+00  0.92326827812E+03  0.35335375890E+04  0.34107863579E+04 0.  0.
        2    1    3    3  502    0 -0.71948806800E+03 -0.14325709773E+03  0.20565797688E+04  0.21835077334E+04  0.25500000920E-02 0.  1.
       -2    1    3    3    0  502  0.71948806800E+03  0.14325709773E+03 -0.11333114907E+04  0.13500298556E+04  0.25500000920E-02 0. -1.
</event>
<event>
 5   0  0.3219205E-07  0.3502774E+04  0.7818609E-02  0.8113133E-01
       -2   -1    0    0    0  501  0.00000000000E+00  0.00000000000E+00  0.12673634741E+04  0.12673634741E+04  0.25500000920E-02 0.  1.
        2   -1    0    0  501    0  0.00000000000E+00  0.00000000000E+00 -0.24202657580E+04  0.24202657580E+04  0.25500000920E-02 0. -1.
    10030    2    1    2    0    0  0.00000000000E+00  0.00000000000E+00 -0.11529022839E+04  0.36876292321E+04  0.35027739975E+04 0.  0.
        2    1    3    3  502    0 -0.13493585741E+04  0.96094589061E+03  0.22031038955E+02  0.16567048418E+04  0.25500000920E-02 0.  1.
       -2    1    3    3    0  502  0.13493585741E+04 -0.96094589061E+03 -0.11749333228E+04  0.20309243903E+04  0.25500000920E-02 0. -1.
</event>
<event>
 5   0  0.3219205E-07  0.3521658E+04  0.7818609E-02  0.8108676E-01
        2   -1    0    0  501    0  0.00000000000E+00  0.00000000000E+00  0.15284030076E+04  0.15284030076E+04  0.25500000920E-02 0. -1.
       -2   -1    0    0    0  501  0.00000000000E+00  0.00000000000E+00 -0.20285998770E+04  0.20285998770E+04  0.25500000920E-02 0.  1.
    10030    2    1    2    0    0  0.00000000000E+00  0.00000000000E+00 -0.50019686941E+03  0.35570028846E+04  0.35216576512E+04 0.  0.
        2    1    3    3  502    0  0.15958987234E+04 -0.60904870112E+03 -0.68180498981E+03  0.18392093681E+04  0.25500000920E-02 0.  1.
       -2    1    3    3    0  502 -0.15958987234E+04  0.60904870112E+03  0.18160812040E+03  0.17177935164E+04  0.25500000920E-02 0. -1.
</event>
<event>
 5   0  0.1098171E-07  0.3504075E+04  0.7818609E-02  0.8112825E-01
        1   -1    0    0  501    0  0.00000000000E+00  0.00000000000E+00  0.22949803316E+04  0.22949803316E+04  0.50400001928E-02 0.  1.
       -1   -1    0    0    0  501  0.00000000000E+00  0.00000000000E+00 -0.13375428471E+04  0.13375428471E+04  0.50400001928E-02 0. -1.
    10030    2    1    2    0    0  0.00000000000E+00  0.00000000000E+00  0.95743748446E+03  0.36325231787E+04  0.35040745008E+04 0.  0.
        4    1    3    3  502    0  0.12214366539E+03 -0.40506695258E+03  0.22412290336E+04  0.22808129044E+04  0.12699999809E+01 0.  1.
       -4    1    3    3    0  502 -0.12214366539E+03  0.40506695258E+03 -0.12837915492E+04  0.13517102743E+04  0.12699999809E+01 0. -1.
</event>
<event>
 5   0  0.1013863E-07  0.3471248E+04  0.7818609E-02  0.8120638E-01
       -1   -1    0    0    0  501  0.00000000000E+00  0.00000000000E+00  0.17208742853E+04  0.17208742853E+04  0.50400001928E-02 0.  1.
        1   -1    0    0  501    0  0.00000000000E+00  0.00000000000E+00 -0.17505004877E+04  0.17505004877E+04  0.50400001928E-02 0. -1.
    10030    2    1    2    0    0  0.00000000000E+00  0.00000000000E+00 -0.29626202464E+02  0.34713747730E+04  0.34712483493E+04 0.  0.
        5    1    3    3  502    0  0.81116570438E+03  0.52144654991E+03  0.14283170289E+04  0.17233710945E+04  0.46999998093E+01 0.  1.
       -5    1    3    3    0  502 -0.81116570438E+03 -0.52144654991E+03 -0.14579432313E+04  0.17480036785E+04  0.46999998093E+01 0. -1.
</event>
<event>
 5   0  0.3190112E-07  0.3499028E+04  0.7818609E-02  0.8114020E-01
       -2   -1    0    0    0  501  0.00000000000E+00  0.00000000000E+00  0.12882785055E+04  0.12882785055E+04  0.25500000920E-02 0.  1.
        2   -1    0    0  501    0  0.00000000000E+00  0.00000000000E+00 -0.23758835583E+04  0.23758835583E+04  0.25500000920E-02 0. -1.
    10030    2    1    2    0    0  0.00000000000E+00  0.00000000000E+00 -0.10876050529E+04  0.36641620638E+04  0.34990282764E+04 0.  0.
        5    1    3    3  502    0 -0.19735614982E+03 -0.13838533586E+04 -0.16454876700E+04  0.21590857626E+04  0.46999998093E+01 0. -1.
       -5    1    3    3    0  502  0.19735614982E+03  0.13838533586E+04  0.55788261708E+03  0.15050763012E+04  0.46999998093E+01 0.  1.
</event>
<event>
 5   0  0.3119048E-07  0.3528763E+04  0.7818609E-02  0.8107007E-01
        2   -1    0    0  501    0  0.00000000000E+00  0.00000000000E+00  0.21158634926E+04  0.21158634926E+04  0.25500000920E-02 0. -1.
       -2   -1    0    0    0  501  0.00000000000E+00  0.00000000000E+00 -0.14712864306E+04  0.14712864306E+04  0.25500000920E-02 0.  1.
    10030    2    1    2    0    0  0.00000000000E+00  0.00000000000E+00  0.64457706203E+03  0.35871499232E+04  0.35287625285E+04 0.  0.
        3    1    3    3  502    0 -0.13707755509E+04 -0.26281673580E+03  0.14194724429E+04  0.19907285787E+04  0.10100000352E+00 0. -1.
       -3    1    3    3    0  502  0.13707755509E+04  0.26281673580E+03 -0.77489538090E+03  0.15964213445E+04  0.10100000352E+00 0.  1.
</event>
<event>
 5   0  0.3190112E-07  0.3521365E+04  0.7818609E-02  0.8108745E-01
        2   -1    0    0  501    0  0.00000000000E+00  0.00000000000E+00  0.24097616931E+04  0.24097616931E+04  0.25500000920E-02 0. -1.
       -2   -1    0    0    0  501  0.00000000000E+00  0.00000000000E+00 -0.12864357640E+04  0.12864357640E+04  0.25500000920E-02 0.  1.
    10030    2    1    2    0    0  0.00000000000E+00  0.00000000000E+00  0.11233259291E+04  0.36961974571E+04  0.35213654310E+04 0.  0.
        5    1    3    3  502    0  0.12384519117E+04 -0.11848572481E+04  0.13875512686E+03  0.17195711417E+04  0.46999998093E+01 0. -1.
       -5    1    3    3    0  502 -0.12384519117E+04  0.11848572481E+04  0.98457080219E+03  0.19766263154E+04  0.46999998093E+01 0.  1.
</event>
<event>
 5   0  0.1072381E-07  0.3499139E+04  0.7818609E-02  0.8113994E-01
       -1   -1    0    0    0  501  0.00000000000E+00  0.00000000000E+00  0.15567268001E+04  0.15567268001E+04  0.50400001928E-02 0.  1.
        1   -1    0    0  501    0  0.00000000000E+00  0.00000000000E+00 -0.19663014151E+04  0.19663014151E+04  0.50400001928E-02 0. -1.
    10030    2    1    2    0    0  0.00000000000E+00  0.00000000000E+00 -0.40957461498E+03  0.35230282152E+04  0.34991393856E+04 0.  0.
        1    1    3    3  502    0  0.34371875366E+03  0.13795991685E+04  0.82176047865E+03  0.16421713466E+04  0.50400001928E-02 0.  1.
       -1    1    3    3    0  502 -0.34371875366E+03 -0.13795991685E+04 -0.12313350936E+04  0.18808568686E+04  0.50400001928E-02 0. -1.
</event>
<event>
 5   0  0.3190185E-07  0.3495859E+04  0.7818609E-02  0.8114772E-01
       -2   -1    0    0    0  501  0.00000000000E+00  0.00000000000E+00  0.13243045346E+04  0.13243045346E+04  0.25500000920E-02 0.  1.
        2   -1    0    0  501    0  0.00000000000E+00  0.00000000000E+00 -0.23070657822E+04  0.23070657822E+04  0.25500000920E-02 0. -1.
    10030    2    1    2    0    0  0.00000000000E+00  0.00000000000E+00 -0.98276124766E+03  0.36313703168E+04  0.34958590801E+04 0.  0.
        1    1    3    3  502    0 -0.14750767583E+04  0.10202440011E+03 -0.14597160577E+04  0.20777467098E+04  0.50400001928E-02 0. -1.
       -1    1    3    3    0  502  0.14750767583E+04 -0.10202440011E+03  0.47695481002E+03  0.15536236069E+04  0.50400001928E-02 0.  1.
</event>
<event>
 5   0  0.1013863E-07  0.3498757E+04  0.7818609E-02  0.8114085E-01
        1   -1    0    0  501    0  0.00000000000E+00  0.00000000000E+00  0.15883448942E+04  0.15883448942E+04  0.50400001928E-02 0. -1.
       -1   -1    0    0    0  501  0.00000000000E+00  0.00000000000E+00 -0.19267387033E+04  0.19267387033E+04  0.50400001928E-02 0.  1.
    10030    2    1    2    0    0  0.00000000000E+00  0.00000000000E+00 -0.33839380910E+03  0.35150835976E+04  0.34987572548E+04 0.  0.
        5    1    3    3  502    0  0.75499203385E+03  0.69962241090E+03 -0.15903005315E+04  0.18943501153E+04  0.46999998093E+01 0.  1.
       -5    1    3    3    0  502 -0.75499203385E+03 -0.69962241090E+03  0.12519067224E+04  0.16207334822E+04  0.46999998093E+01 0. -1.
</event>
<event>
 5   0  0.1013863E-07  0.3515737E+04  0.7818609E-02  0.8110071E-01
        1   -1    0    0  501    0  0.00000000000E+00  0.00000000000E+00  0.26553327758E+04  0.26553327758E+04  0.50400001928E-02 0.  1.
       -1   -1    0    0    0  501  0.00000000000E+00  0.00000000000E+00 -0.11637344382E+04  0.11637344382E+04  0.50400001928E-02 0. -1.
    10030    2    1    2    0    0  0.00000000000E+00  0.00000000000E+00  0.14915983376E+04  0.38190672140E+04  0.35157373031E+04 0.  0.
        5    1    3    3  502    0  0.63233901209E+03  0.16394385259E+04  0.69182526663E+03  0.18884532284E+04  0.46999998093E+01 0. -1.
       -5    1    3    3    0  502 -0.63233901209E+03 -0.16394385259E+04  0.79977307101E+03  0.19306139856E+04  0.46999998093E+01 0.  1.
</event>
<event>
 5   0  0.3219205E-07  0.3501099E+04  0.7818609E-02  0.8113530E-01
        2   -1    0    0  501    0  0.00000000000E+00  0.00000000000E+00  0.28741317656E+04  0.28741317656E+04  0.25500000920E-02 0. -1.
       -2   -1    0    0    0  501  0.00000000000E+00  0.00000000000E+00 -0.10662083971E+04  0.10662083971E+04  0.25500000920E-02 0.  1.
    10030    2    1    2    0    0  0.00000000000E+00  0.00000000000E+00  0.18079233686E+04  0.39403401627E+04  0.35010989262E+04 0.  0.
        2    1    3    3  502    0 -0.15597876655E+04 -0.12599286420E+03  0.17870065126E+04  0.23753324061E+04  0.25500000920E-02 0. -1.
       -2    1    3    3    0  502  0.15597876655E+04  0.12599286420E+03  0.20916855921E+02  0.15650077566E+04  0.25500000920E-02 0.  1.
</event>
<event>
 5   0  0.3219205E-07  0.3499044E+04  0.7818609E-02  0.8114017E-01
       -2   -1    0    0    0  501  0.00000000000E+00  0.00000000000E+00  0.17001788955E+04  0.17001788955E+04  0.25500000920E-02 0. -1.
        2   -1    0    0  501    0  0.00000000000E+00  0.00000000000E+00 -0.18002971965E+04  0.18002971965E+04  0.25500000920E-02 0.  1.
    10030    2    1    2    0    0  0.00000000000E+00  0.00000000000E+00 -0.10011830108E+03  0.35004760920E+04  0.34990440404E+04 0.  0.
        2    1    3    3  502    0 -0.26981609195E+03 -0.15635829897E+04  0.68728714506E+03  0.17291489551E+04  0.25500000920E-02 0. -1.
       -2    1    3    3    0  502  0.26981609195E+03  0.15635829897E+04 -0.78740544614E+03  0.17713271369E+04  0.25500000920E-02 0.  1.
</event>
<event>
 5   0  0.1072381E-07  0.3503897E+04  0.7818609E-02  0.8112867E-01
        1   -1    0    0  501    0  0.00000000000E+00  0.00000000000E+00  0.14478748893E+04  0.14478748894E+04  0.50400001928E-02 0.  1.
       -1   -1    0    0    0  501  0.00000000000E+00  0.00000000000E+00 -0.21198822027E+04  0.21198822027E+04  0.50400001928E-02 0. -1.
    10030    2    1    2    0    0  0.00000000000E+00  0.00000000000E+00 -0.67200731336E+03  0.35677570921E+04  0.35038973785E+04 0.  0.
        1    1    3    3  502    0  0.16717082619E+04  0.20655384169E+03  0.15449273408E+03  0.16914907648E+04  0.50400001928E-02 0.  1.
       -1    1    3    3    0  502 -0.16717082619E+04 -0.20655384169E+03 -0.82650004744E+03  0.18762663273E+04  0.50400001928E-02 0. -1.
</event>
<event>
 5   0  0.3190112E-07  0.3505710E+04  0.7818609E-02  0.8112438E-01
        2   -1    0    0  501    0  0.00000000000E+00  0.00000000000E+00  0.15880575668E+04  0.15880575669E+04  0.25500000920E-02 0.  1.
       -2   -1    0    0    0  501  0.00000000000E+00  0.00000000000E+00 -0.19347537788E+04  0.19347537788E+04  0.25500000920E-02 0. -1.
    10030    2    1    2    0    0  0.00000000000E+00  0.00000000000E+00 -0.34669621198E+03  0.35228113457E+04  0.35057098445E+04 0.  0.
        5    1    3    3  502    0 -0.47303794497E+03 -0.58688465463E+03  0.14168632218E+04  0.16049055968E+04  0.46999998093E+01 0.  1.
       -5    1    3    3    0  502  0.47303794497E+03  0.58688465463E+03 -0.17635594338E+04  0.19179057489E+04  0.46999998093E+01 0. -1.
</event>
<event>
 5   0  0.1098171E-07  0.3514313E+04  0.7818609E-02  0.8110406E-01
       -1   -1    0    0    0  501  0.00000000000E+00  0.00000000000E+00  0.11206256836E+04  0.11206256836E+04  0.50400001928E-02 0. -1.
        1   -1    0    0  501    0  0.00000000000E+00  0.00000000000E+00 -0.27552463395E+04  0.27552463395E+04  0.50400001928E-02 0.  1.
    10030    2    1    2    0    0  0.00000000000E+00  0.00000000000E+00 -0.16346206559E+04  0.38758720231E+04  0.35143134822E+04 0.  0.
        4    1    3    3  502    0 -0.13969053607E+04 -0.10618969581E+04 -0.91975648280E+03  0.19811419275E+04  0.12699999809E+01 0.  1.
       -4    1    3    3    0  502  0.13969053607E+04  0.10618969581E+04 -0.71486417315E+03  0.18947300956E+04  0.12699999809E+01 0. -1.
</event>
<event>
 5   0  0.3219205E-07  0.3504934E+04  0.7818609E-02  0.8112622E-01
       -2   -1    0    0    0  501  0.00000000000E+00  0.00000000000E+00  0.12848495662E+04  0.12848495662E+04  0.25500000920E-02 0. -1.
        2   -1    0    0  501    0  0.00000000000E+00  0.00000000000E+00 -0.23902730410E+04  0.23902730410E+04  0.25500000920E-02 0.  1.
    10030    2    1    2    0    0  0.00000000000E+00  0.00000000000E+00 -0.11054234747E+04  0.36751226072E+04  0.35049343959E+04 0.  0.
        2    1    3    3  502    0 -0.99306588953E+02  0.17393468167E+04 -0.75152908064E+03  0.18973626713E+04  0.25500000920E-02 0. -1.
       -2    1    3    3    0  502  0.99306588953E+02 -0.17393468167E+04 -0.35389439411E+03  0.17777599359E+04  0.25500000920E-02 0.  1.
</event>
<event>
 5   0  0.1033796E-07  0.3532676E+04  0.7818609E-02  0.8106090E-01
        1   -1    0    0  501    0  0.00000000000E+00  0.00000000000E+00  0.18274078754E+04  0.18274078754E+04  0.50400001928E-02 0. -1.
       -1   -1    0    0    0  501  0.00000000000E+00  0.00000000000E+00 -0.17073087572E+04  0.17073087573E+04  0.50400001928E-02 0.  1.
    10030    2    1    2    0    0  0.00000000000E+00  0.00000000000E+00  0.12009911811E+03  0.35347166326E+04  0.35326757387E+04 0.  0.
        3    1    3    3  502    0 -0.75833673255E+03  0.78635275750E+03 -0.13287451780E+04  0.17201712175E+04  0.10100000352E+00 0.  1.
       -3    1    3    3    0  502  0.75833673255E+03 -0.78635275750E+03  0.14488442961E+04  0.18145454152E+04  0.10100000352E+00 0. -1.
</event>
<event>
 5   0  0.1013863E-07  0.3506070E+04  0.7818609E-02  0.8112353E-01
       -1   -1    0    0    0  501  0.00000000000E+00  0.00000000000E+00  0.15520560526E+04  0.15520560526E+04  0.50400001928E-02 0.  1.
        1   -1    0    0  501    0  0.00000000000E+00  0.00000000000E+00 -0.19800387632E+04  0.19800387632E+04  0.50400001928E-02 0. -1.
    10030    2    1    2    0    0  0.00000000000E+00  0.00000000000E+00 -0.42798271056E+03  0.35320948158E+04  0.35060696780E+04 0.  0.
        5    1    3    3  502    0  0.17127201505E+03 -0.17445411696E+04 -0.19511565164E+03  0.17637602454E+04  0.46999998093E+01 0. -1.
       -5    1    3    3    0  502 -0.17127201505E+03  0.17445411696E+04 -0.23286705892E+03  0.17683345704E+04  0.46999998093E+01 0.  1.
</event>
<event>
 5   0  0.3190112E-07  0.3474477E+04  0.7818609E-02  0.8119865E-01
       -2   -1    0    0    0  501  0.00000000000E+00  0.00000000000E+00  0.15221528733E+04  0.15221528733E+04  0.25500000920E-02 0. -1.
        2   -1    0    0  501    0  0.00000000000E+00  0.00000000000E+00 -0.19827161025E+04  0.19827161026E+04  0.25500000920E-02 0.  1.
    10030    2    1    2    0    0  0.00000000000E+00  0.00000000000E+00 -0.46056322924E+03  0.35048689759E+04  0.34744766584E+04 0.  0.
        5    1    3    3  502    0 -0.12712899474E+04 -0.21166079041E+03 -0.14053732986E+04  0.19068493960E+04  0.46999998093E+01 0.  1.
       -5    1    3    3    0  502  0.12712899474E+04  0.21166079041E+03  0.94481006932E+03  0.15980195799E+04  0.46999998093E+01 0. -1.
</event>
<event>
 5   0  0.1013863E-07  0.3516195E+04  0.7818609E-02  0.8109963E-01
        1   -1    0    0  501    0  0.00000000000E+00  0.00000000000E+00  0.19275519717E+04  0.19275519717E+04  0.50400001928E-02 0. -1.
       -1   -1    0    0    0  501  0.00000000000E+00  0.00000000000E+00 -0.16035401307E+04  0.16035401307E+04  0.50400001928E-02 0.  1.
    10030    2    1    2    0    0  0.00000000000E+00  0.00000000000E+00  0.32401184106E+03  0.35310921024E+04  0.35161950689E+04 0.  0.
        5    1    3    3  502    0  0.17196904856E+03 -0.14485805127E+04  0.11474512615E+04  0.18559701891E+04  0.46999998093E+01 0. -1.
       -5    1    3    3    0  502 -0.17196904856E+03  0.14485805127E+04 -0.82343942044E+03  0.16751219133E+04  0.46999998093E+01 0.  1.
</event>
<event>
 5   0  0.3219205E-07  0.3508496E+04  0.7818609E-02  0.8111779E-01
        2   -1    0    0  501    0  0.00000000000E+00  0.00000000000E+00  0.17919253205E+04  0.17919253205E+04  0.25500000920E-02 0.  1.
       -2   -1    0    0    0  501  0.00000000000E+00  0.00000000000E+00 -0.17173629839E+04  0.17173629839E+04  0.25500000920E-02 0. -1.
    10030    2    1    2    0    0  0.00000000000E+00  0.00000000000E+00  0.74562336592E+02  0.35092883043E+04  0.35084960968E+04 0.  0.
        2    1    3    3  502    0  0.78178733709E+03  0.62757183652E+03  0.14771715565E+04  0.17852377035E+04  0.25500000920E-02 0.  1.
       -2    1    3    3    0  502 -0.78178733709E+03 -0.62757183652E+03 -0.14026092200E+04  0.17240506009E+04  0.25500000920E-02 0. -1.
</event>
<event>
 5   0  0.3219205E-07  0.3498450E+04  0.7818609E-02  0.8114157E-01
       -2   -1    0    0    0  501  0.00000000000E+00  0.00000000000E+00  0.14932512163E+04  0.14932512163E+04  0.25500000920E-02 0.  1.
        2   -1    0    0  501    0  0.00000000000E+00  0.00000000000E+00 -0.20490775602E+04  0.20490775602E+04  0.25500000920E-02 0. -1.
    10030    2    1    2    0    0  0.00000000000E+00  0.00000000000E+00 -0.55582634389E+03  0.35423287764E+04  0.34984496903E+04 0.  0.
        2    1    3    3  502    0 -0.85476609518E+03  0.92090445783E+03  0.95435449410E+03  0.15778094303E+04  0.25500000920E-02 0.  1.
       -2    1    3    3    0  502  0.85476609518E+03 -0.92090445783E+03 -0.15101808380E+04  0.19645193461E+04  0.25500000920E-02 0. -1.
</event>
<event>
 5   0  0.1013863E-07  0.3497325E+04  0.7818609E-02  0.8114424E-01
        1   -1    0    0  501    0  0.00000000000E+00  0.00000000000E+00  0.23509768756E+04  0.23509768756E+04  0.50400001928E-02 0.  1.
       -1   -1    0    0    0  501  0.00000000000E+00  0.00000000000E+00 -0.13006596405E+04  0.13006596405E+04  0.50400001928E-02 0. -1.
    10030    2    1    2    0    0  0.00000000000E+00  0.00000000000E+00  0.10503172351E+04  0.36516365161E+04  0.34973251138E+04 0.  0.
        2    1    3    3  502    0  0.47643082076E+03  0.12098796827E+04 -0.69562826172E+03  0.14746843229E+04  0.25500000920E-02 0. -1.
       -2    1    3    3    0  502 -0.47643082076E+03 -0.12098796827E+04  0.17459454968E+04  0.21769521932E+04  0.25500000920E-02 0.  1.
</event>
<event>
 5   0  0.2180451E-07  0.3519182E+04  0.7818609E-02  0.8109259E-01
       -2   -1    0    0    0  501  0.00000000000E+00  0.00000000000E+00  0.21375101562E+04  0.21375101562E+04  0.25500000920E-02 0.  1.
        2   -1    0    0  501    0  0.00000000000E+00  0.00000000000E+00 -0.14484892492E+04  0.14484892492E+04  0.25500000920E-02 0. -1.
    10030    2    1    2    0    0  0.00000000000E+00  0.00000000000E+00  0.68902090693E+03  0.35859994054E+04  0.35191819966E+04 0.  0.
        4    1    3    3  502    0 -0.26526306413E+02 -0.11869212245E+04 -0.97886770340E+03  0.15387232473E+04  0.12699999809E+01 0. -1.
       -4    1    3    3    0  502  0.26526306413E+02  0.11869212245E+04  0.16678886103E+04  0.20472761581E+04  0.12699999809E+01 0.  1.
</event>
<event>
 5   0  0.1013863E-07  0.3490227E+04  0.7818609E-02  0.8116110E-01
        1   -1    0    0  501    0  0.00000000000E+00  0.00000000000E+00  0.19122817680E+04  0.19122817680E+04  0.50400001928E-02 0. -1.
       -1   -1    0    0    0  501  0.00000000000E+00  0.00000000000E+00 -0.15925585615E+04  0.15925585615E+04  0.50400001928E-02 0.  1.
    10030    2    1    2    0    0  0.00000000000E+00  0.00000000000E+00  0.31972320652E+03  0.35048403295E+04  0.34902267558E+04 0.  0.
        5    1    3    3  502    0 -0.65047457414E+03  0.99219337418E+03 -0.11252756173E+04  0.16351856678E+04  0.46999998093E+01 0.  1.
       -5    1    3    3    0  502  0.65047457414E+03 -0.99219337418E+03  0.14449988238E+04  0.18696546617E+04  0.46999998093E+01 0. -1.
</event>
<event>
 5   0  0.1013863E-07  0.3486320E+04  0.7818609E-02  0.8117040E-01
       -1   -1    0    0    0  501  0.00000000000E+00  0.00000000000E+00  0.21495971541E+04  0.21495971541E+04  0.50400001928E-02 0. -1.
        1   -1    0    0  501    0  0.00000000000E+00  0.00000000000E+00 -0.14135700611E+04  0.14135700611E+04  0.50400001928E-02 0.  1.
    10030    2    1    2    0    0  0.00000000000E+00  0.00000000000E+00  0.73602709307E+03  0.35631672152E+04  0.34863196529E+04 0.  0.
        5    1    3    3  502    0 -0.53025325172E+03  0.15942394508E+04  0.84281383401E+03  0.18796609232E+04  0.46999998093E+01 0. -1.
       -5    1    3    3    0  502  0.53025325172E+03 -0.15942394508E+04 -0.10678674094E+03  0.16835062920E+04  0.46999998093E+01 0.  1.
</event>
<event>
 5   0  0.1033796E-07  0.3497784E+04  0.7818609E-02  0.8114315E-01
       -1   -1    0    0    0  501  0.00000000000E+00  0.00000000000E+00  0.14568247129E+04  0.14568247129E+04  0.50400001928E-02 0. -1.
        1   -1    0    0  501    0  0.00000000000E+00  0.00000000000E+00 -0.20995131330E+04  0.20995131330E+04  0.50400001928E-02 0.  1.
    10030    2    1    2    0    0  0.00000000000E+00  0.00000000000E+00 -0.64268842009E+03  0.35563378460E+04  0.34977836510E+04 0.  0.
        3    1    3    3  502    0  0.10209272487E+04  0.72050826333E+03 -0.15654281608E+04  0.20029952425E+04  0.10100000352E+00 0.  1.
       -3    1    3    3    0  502 -0.10209272487E+04 -0.72050826333E+03  0.92273974068E+03  0.15533426035E+04  0.10100000352E+00 0. -1.
</event>
<event>
 5   0  0.3219205E-07  0.3488307E+04  0.7818609E-02  0.8116567E-01
       -2   -1    0    0    0  501  0.00000000000E+00  0.00000000000E+00  0.23680373761E+04  0.23680373761E+04  0.25500000920E-02 0. -1.
        2   -1    0    0  501    0  0.00000000000E+00  0.00000000000E+00 -0.12846384417E+04  0.12846384417E+04  0.25500000920E-02 0.  1.
    10030    2    1    2    0    0  0.00000000000E+00  0.00000000000E+00  0.10833989344E+04  0.36526758178E+04  0.34883072369E+04 0.  0.
        2    1    3    3  502    0  0.14468715653E+04 -0.28427846499E+03 -0.43376464493E+03  0.15370111708E+04  0.25500000920E-02 0.  1.
       -2    1    3    3    0  502 -0.14468715653E+04  0.28427846499E+03  0.15171635794E+04  0.21156646470E+04  0.25500000920E-02 0. -1.
</event>
<event>
 5   0  0.1098171E-07  0.3313284E+04  0.7818609E-02  0.8159523E-01
        1   -1    0    0  501    0  0.00000000000E+00  0.00000000000E+00  0.99640211309E+03  0.99640211311E+03  0.50400001928E-02 0.  1.
       -1   -1    0    0    0  501  0.00000000000E+00  0.00000000000E+00 -0.27543732604E+04  0.27543732604E+04  0.50400001928E-02 0. -1.
    10030    2    1    2    0    0  0.00000000000E+00  0.00000000000E+00 -0.17579711473E+04  0.37507753735E+04  0.33132843747E+04 0.  0.
        4    1    3    3  502    0 -0.13424084483E+04  0.69819709484E+03 -0.16425239332E+04  0.22332546002E+04  0.12699999809E+01 0. -1.
       -4    1    3    3    0  502  0.13424084483E+04 -0.69819709484E+03 -0.11544721404E+03  0.15175207733E+04  0.12699999809E+01 0.  1.
</event>
<event>
 5   0  0.3219205E-07  0.3490841E+04  0.7818609E-02  0.8115964E-01
        2   -1    0    0  501    0  0.00000000000E+00  0.00000000000E+00  0.17437916493E+04  0.17437916493E+04  0.25500000920E-02 0. -1.
       -2   -1    0    0    0  501  0.00000000000E+00  0.00000000000E+00 -0.17470506277E+04  0.17470506278E+04  0.25500000920E-02 0.  1.
    10030    2    1    2    0    0  0.00000000000E+00  0.00000000000E+00 -0.32589784796E+01  0.34908422770E+04  0.34908407558E+04 0.  0.
        2    1    3    3  502    0 -0.14279165552E+04  0.43672749318E+03  0.90214947468E+03  0.17445773891E+04  0.25500000920E-02 0. -1.
       -2    1    3    3    0  502  0.14279165552E+04 -0.43672749318E+03 -0.90540845316E+03  0.17462648879E+04  0.25500000920E-02 0.  1.
</event>
<event>
 5   0  0.3219205E-07  0.3504626E+04  0.7818609E-02  0.8112694E-01
       -2   -1    0    0    0  501  0.00000000000E+00  0.00000000000E+00  0.11002303454E+04  0.11002303454E+04  0.25500000920E-02 0.  1.
        2   -1    0    0  501    0  0.00000000000E+00  0.00000000000E+00 -0.27908710834E+04  0.27908710834E+04  0.25500000920E-02 0. -1.
    10030    2    1    2    0    0  0.00000000000E+00  0.00000000000E+00 -0.16906407380E+04  0.38911014288E+04  0.35046261177E+04 0.  0.
        2    1    3    3  502    0  0.15421046817E+04 -0.36143286116E+03 -0.13072223251E+02  0.15839480564E+04  0.25500000920E-02 0.  1.
       -2    1    3    3    0  502 -0.15421046817E+04  0.36143286116E+03 -0.16775685147E+04  0.23071533724E+04  0.25500000920E-02 0. -1.
</event>
<event>
 5   0  0.1033796E-07  0.3480470E+04  0.7818609E-02  0.8118434E-01
       -1   -1    0    0    0  501  0.00000000000E+00  0.00000000000E+00  0.19261762856E+04  0.19261762856E+04  0.50400001928E-02 0.  1.
        1   -1    0    0  501    0  0.00000000000E+00  0.00000000000E+00 -0.15722430565E+04  0.15722430565E+04  0.50400001928E-02 0. -1.
    10030    2    1    2    0    0  0.00000000000E+00  0.00000000000E+00  0.35393322913E+03  0.34984193422E+04  0.34804696756E+04 0.  0.
        3    1    3    3  502    0 -0.67230070242E+03 -0.10648319438E+04 -0.10302946095E+04  0.16270716934E+04  0.10100000352E+00 0. -1.
       -3    1    3    3    0  502  0.67230070242E+03  0.10648319438E+04  0.13842278386E+04  0.18713476487E+04  0.10100000352E+00 0.  1.
</event>
<event>
 5   0  0.1072381E-07  0.3514001E+04  0.7818609E-02  0.8110480E-01
        1   -1    0    0  501    0  0.00000000000E+00  0.00000000000E+00  0.12159693481E+04  0.12159693481E+04  0.50400001928E-02 0.  1.
       -1   -1    0    0    0  501  0.00000000000E+00  0.00000000000E+00 -0.25387576449E+04  0.25387576449E+04  0.50400001928E-02 0. -1.
    10030    2    1    2    0    0  0.00000000000E+00  0.00000000000E+00 -0.13227882969E+04  0.37547269930E+04  0.35140014106E+04 0.  0.
        1    1    3    3  502    0 -0.13326456588E+04 -0.58593722701E+03 -0.17125467880E+04  0.22476840052E+04  0.50400001928E-02 0.  1.
       -1    1    3    3    0  502  0.13326456588E+04  0.58593722701E+03  0.38975849117E+03  0.15070429879E+04  0.50400001928E-02 0. -1.
</event>
<event>
 5   0  0.1033796E-07  0.3527900E+04  0.7818609E-02  0.8107210E-01
        1   -1    0    0  501    0  0.00000000000E+00  0.00000000000E+00  0.22323714717E+04  0.22323714717E+04  0.50400001928E-02 0.  1.
       -1   -1    0    0    0  501  0.00000000000E+00  0.00000000000E+00 -0.13938181126E+04  0.13938181126E+04  0.50400001928E-02 0. -1.
    10030    2    1    2    0    0  0.00000000000E+00  0.00000000000E+00  0.83855335908E+03  0.36261895843E+04  0.35279001071E+04 0.  0.
        3    1    3    3  502    0  0.82839076325E+03  0.37649136151E+03 -0.11339641657E+04  0.14539091241E+04  0.10100000352E+00 0. -1.
       -3    1    3    3    0  502 -0.82839076325E+03 -0.37649136151E+03  0.19725175248E+04  0.21722804602E+04  0.10100000352E+00 0.  1.
</event>
<event>
 5   0  0.1013863E-07  0.3466556E+04  0.7818609E-02  0.8121762E-01
        1   -1    0    0  501    0  0.00000000000E+00  0.00000000000E+00  0.16608020634E+04  0.16608020634E+04  0.50400001928E-02 0.  1.
       -1   -1    0    0    0  501  0.00000000000E+00  0.00000000000E+00 -0.18089167825E+04  0.18089167825E+04  0.50400001928E-02 0. -1.
    10030    2    1    2    0    0  0.00000000000E+00  0.00000000000E+00 -0.14811471909E+03  0.34697188459E+04  0.34665560574E+04 0.  0.
        5    1    3    3  502    0 -0.30048492204E+03 -0.80135935072E+03 -0.15826692757E+04  0.17992587706E+04  0.46999998093E+01 0. -1.
       -5    1    3    3    0  502  0.30048492204E+03  0.80135935072E+03  0.14345545566E+04  0.16704600753E+04  0.46999998093E+01 0.  1.
</event>
<event>
 5   0  0.1098171E-07  0.3506217E+04  0.7818609E-02  0.8112318E-01
        1   -1    0    0  501    0  0.00000000000E+00  0.00000000000E+00  0.26542474056E+04  0.26542474056E+04  0.50400001928E-02 0.  1.
       -1   -1    0    0    0  501  0.00000000000E+00  0.00000000000E+00 -0.11579137651E+04  0.11579137651E+04  0.50400001928E-02 0. -1.
    10030    2    1    2    0    0  0.00000000000E+00  0.00000000000E+00  0.14963336405E+04  0.38121611708E+04  0.35062171108E+04 0.  0.
        4    1    3    3  502    0  0.15433096889E+04 -0.79614926842E+03  0.48693173767E+03  0.18035416778E+04  0.12699999809E+01 0. -1.
       -4    1    3    3    0  502 -0.15433096889E+04  0.79614926842E+03  0.10094019028E+04  0.20086194930E+04  0.12699999809E+01 0.  1.
</event>
<event>
 5   0  0.1013863E-07  0.3502527E+04  0.7818609E-02  0.8113191E-01
       -1   -1    0    0    0  501  0.00000000000E+00  0.00000000000E+00  0.21742724130E+04  0.21742724130E+04  0.50400001928E-02 0. -1.
        1   -1    0    0  501    0  0.00000000000E+00  0.00000000000E+00 -0.14105519529E+04  0.14105519529E+04  0.50400001928E-02 0.  1.
    10030    2    1    2    0    0  0.00000000000E+00  0.00000000000E+00  0.76372046010E+03  0.35848243658E+04  0.35025272008E+04 0.  0.
        2    1    3    3  502    0  0.10764279183E+03  0.10384816588E+04 -0.10571966354E+04  0.14858317039E+04  0.25500000920E-02 0.  1.
       -2    1    3    3    0  502 -0.10764279183E+03 -0.10384816588E+04  0.18209170955E+04  0.20989926620E+04  0.25500000920E-02 0. -1.
</event>
<event>
 5   0  0.2180451E-07  0.3511101E+04  0.7818609E-02  0.8111164E-01
       -2   -1    0    0    0  501  0.00000000000E+00  0.00000000000E+00  0.19557952150E+04  0.19557952150E+04  0.25500000920E-02 0.  1.
        2   -1    0    0  501    0  0.00000000000E+00  0.00000000000E+00 -0.15758081460E+04  0.15758081460E+04  0.25500000920E-02 0. -1.
    10030    2    1    2    0    0  0.00000000000E+00  0.00000000000E+00  0.37998706905E+03  0.35316033610E+04  0.35111012698E+04 0.  0.
        4    1    3    3  502    0 -0.59074480935E+03 -0.11735888563E+04 -0.98113603718E+03  0.16397925996E+04  0.12699999809E+01 0. -1.
       -4    1    3    3    0  502  0.59074480935E+03  0.11735888563E+04  0.13611231062E+04  0.18918107613E+04  0.12699999809E+01 0.  1.
</event>
<event>
 5   0  0.3119048E-07  0.3496822E+04  0.7818609E-02  0.8114544E-01
       -2   -1    0    0    0  501  0.00000000000E+00  0.00000000000E+00  0.15421686316E+04  0.15421686316E+04  0.25500000920E-02 0. -1.
        2   -1    0    0  501    0  0.00000000000E+00  0.00000000000E+00 -0.19822347497E+04  0.19822347497E+04  0.25500000920E-02 0.  1.
    10030    2    1    2    0    0  0.00000000000E+00  0.00000000000E+00 -0.44006611804E+03  0.35244033813E+04  0.34968215576E+04 0.  0.
        3    1    3    3  502    0 -0.44853209799E+03  0.16885765041E+04 -0.28740782927E+03  0.17706142787E+04  0.10100000352E+00 0.  1.
       -3    1    3    3    0  502  0.44853209799E+03 -0.16885765041E+04 -0.15265828878E+03  0.17537891026E+04  0.10100000352E+00 0. -1.
</event>
<event>
 5   0  0.1013863E-07  0.3511007E+04  0.7818609E-02  0.8111186E-01
        1   -1    0    0  501    0  0.00000000000E+00  0.00000000000E+00  0.25046174534E+04  0.25046174534E+04  0.50400001928E-02 0. -1.
       -1   -1    0    0    0  501  0.00000000000E+00  0.00000000000E+00 -0.12304446948E+04  0.12304446948E+04  0.50400001928E-02 0.  1.
    10030    2    1    2    0    0  0.00000000000E+00  0.00000000000E+00  0.12741727586E+04  0.37350621482E+04  0.35110074099E+04 0.  0.
        5    1    3    3  502    0 -0.41102822016E+03 -0.16366072292E+04  0.12210352280E+03  0.16918506969E+04  0.46999998093E+01 0.  1.
       -5    1    3    3    0  502  0.41102822016E+03  0.16366072292E+04  0.11520692358E+04  0.20432114512E+04  0.46999998093E+01 0. -1.
</event>
<event>
 5   0  0.3219205E-07  0.3502002E+04  0.7818609E-02  0.8113316E-01
        2   -1    0    0  501    0  0.00000000000E+00  0.00000000000E+00  0.14987467484E+04  0.14987467484E+04  0.25500000920E-02 0. -1.
       -2   -1    0    0    0  501  0.00000000000E+00  0.00000000000E+00 -0.20457118678E+04  0.20457118678E+04  0.25500000920E-02 0.  1.
    10030    2    1    2    0    0  0.00000000000E+00  0.00000000000E+00 -0.54696511933E+03  0.35444586162E+04  0.35020017191E+04 0.  0.
        2    1    3    3  502    0 -0.16002505477E+04  0.70838656901E+03 -0.33241791420E+03  0.17813239504E+04  0.25500000920E-02 0.  1.
       -2    1    3    3    0  502  0.16002505477E+04 -0.70838656901E+03 -0.21454720513E+03  0.17631346658E+04  0.25500000920E-02 0. -1.
</event>
<event>
 5   0  0.2180451E-07  0.3487867E+04  0.7818609E-02  0.8116671E-01
        2   -1    0    0  501    0  0.00000000000E+00  0.00000000000E+00  0.27109312728E+04  0.27109312728E+04  0.25500000920E-02 0. -1.
       -2   -1    0    0    0  501  0.00000000000E+00  0.00000000000E+00 -0.11218666364E+04  0.11218666364E+04  0.25500000920E-02 0.  1.
    10030    2    1    2    0    0  0.00000000000E+00  0.00000000000E+00  0.15890646364E+04  0.38327979092E+04  0.34878665964E+04 0.  0.
        4    1    3    3  502    0  0.57990030027E+03 -0.15765165361E+04  0.13095060378E+04  0.21299052615E+04  0.12699999809E+01 0. -1.
       -4    1    3    3    0  502 -0.57990030027E+03  0.15765165361E+04  0.27955859863E+03  0.17028926478E+04  0.12699999809E+01 0.  1.
</event>
<event>
 5   0  0.1098171E-07  0.3472273E+04  0.7818609E-02  0.8120392E-01
       -1   -1    0    0    0  501  0.00000000000E+00  0.00000000000E+00  0.14203676353E+04  0.14203676353E+04  0.50400001928E-02 0. -1.
        1   -1    0    0  501    0  0.00000000000E+00  0.00000000000E+00 -0.21221058211E+04  0.21221058211E+04  0.50400001928E-02 0.  1.
    10030    2    1    2    0    0  0.00000000000E+00  0.00000000000E+00 -0.70173818576E+03  0.35424734564E+04  0.34722732767E+04 0.  0.
        4    1    3    3  502    0  0.53210651067E+03 -0.63233896393E+03  0.12068190339E+04  0.14626700576E+04  0.12699999809E+01 0. -1.
       -4    1    3    3    0  502 -0.53210651067E+03  0.63233896393E+03 -0.19085572196E+04  0.20798033988E+04  0.12699999809E+01 0.  1.
</event>
<event>
 5   0  0.3119048E-07  0.3497271E+04  0.7818609E-02  0.8114437E-01
        2   -1    0    0  501    0  0.00000000000E+00  0.00000000000E+00  0.96355362923E+03  0.96355362923E+03  0.25500000920E-02 0.  1.
       -2   -1    0    0    0  501  0.00000000000E+00  0.00000000000E+00 -0.31733849648E+04  0.31733849648E+04  0.25500000920E-02 0. -1.
    10030    2    1    2    0    0  0.00000000000E+00  0.00000000000E+00 -0.22098313356E+04  0.41369385940E+04  0.34972712790E+04 0.  0.
        3    1    3    3  502    0  0.92630978117E+03  0.14750117382E+04 -0.12882359417E+04  0.21663936139E+04  0.10100000352E+00 0.  1.
       -3    1    3    3    0  502 -0.92630978117E+03 -0.14750117382E+04 -0.92159539384E+03  0.19705449801E+04  0.10100000352E+00 0. -1.
</event>
<event>
 5   0  0.3190185E-07  0.3512787E+04  0.7818609E-02  0.8110766E-01
        2   -1    0    0  501    0  0.00000000000E+00  0.00000000000E+00  0.23770662153E+04  0.23770662153E+04  0.25500000920E-02 0. -1.
       -2   -1    0    0    0  501  0.00000000000E+00  0.00000000000E+00 -0.12977839912E+04  0.12977839912E+04  0.25500000920E-02 0.  1.
    10030    2    1    2    0    0  0.00000000000E+00  0.00000000000E+00  0.10792822242E+04  0.36748502065E+04  0.35127872012E+04 0.  0.
        1    1    3    3  502    0  0.17140551130E+04  0.38319583389E+03  0.52947137799E+03  0.18344383113E+04  0.50400001928E-02 0.  1.
       -1    1    3    3    0  502 -0.17140551130E+04 -0.38319583389E+03  0.54981084618E+03  0.18404118953E+04  0.50400001928E-02 0. -1.
</event>
<event>
 5   0  0.1098171E-07  0.3488192E+04  0.7818609E-02  0.8116594E-01
        1   -1    0    0  501    0  0.00000000000E+00  0.00000000000E+00  0.18086247588E+04  0.18086247588E+04  0.50400001928E-02 0. -1.
       -1   -1    0    0    0  501  0.00000000000E+00  0.00000000000E+00 -0.16818694820E+04  0.16818694820E+04  0.50400001928E-02 0.  1.
    10030    2    1    2    0    0  0.00000000000E+00  0.00000000000E+00  0.12675527685E+03  0.34904942408E+04  0.34881919593E+04 0.  0.
        4    1    3    3  502    0 -0.52553738316E+03 -0.15533368845E+04 -0.53100443751E+03  0.17236624795E+04  0.12699999809E+01 0.  1.
       -4    1    3    3    0  502  0.52553738316E+03  0.15533368845E+04  0.65775971435E+03  0.17668317612E+04  0.12699999809E+01 0. -1.
</event>
<event>
 5   0  0.1013863E-07  0.3494968E+04  0.7818609E-02  0.8114984E-01
       -3   -1    0    0    0  501  0.00000000000E+00  0.00000000000E+00  0.19320853531E+04  0.19320853557E+04  0.10100000352E+00 0.  1.
        3   -1    0    0  501    0  0.00000000000E+00  0.00000000000E+00 -0.15805201238E+04  0.15805201270E+04  0.10100000352E+00 0. -1.
    10030    2    1    2    0    0  0.00000000000E+00  0.00000000000E+00  0.35156522925E+03  0.35126054827E+04  0.34949676918E+04 0.  0.
        3    1    3    3  502    0  0.76104055832E+03  0.15506376914E+04 -0.90203312110E+02  0.17296810773E+04  0.10100000352E+00 0.  1.
       -3    1    3    3    0  502 -0.76104055832E+03 -0.15506376914E+04  0.44176854136E+03  0.17829244055E+04  0.10100000352E+00 0. -1.
</event>
<event>
 5   0  0.1072381E-07  0.3468356E+04  0.7818609E-02  0.8121330E-01
        1   -1    0    0  501    0  0.00000000000E+00  0.00000000000E+00  0.19240276516E+04  0.19240276516E+04  0.50400001928E-02 0.  1.
       -1   -1    0    0    0  501  0.00000000000E+00  0.00000000000E+00 -0.15630615847E+04  0.15630615847E+04  0.50400001928E-02 0. -1.
    10030    2    1    2    0    0  0.00000000000E+00  0.00000000000E+00  0.36096606684E+03  0.34870892363E+04  0.34683562159E+04 0.  0.
        1    1    3    3  502    0 -0.54817748556E+03  0.70471174542E+03 -0.13142399259E+04  0.15888183605E+04  0.50400001928E-02 0. -1.
       -1    1    3    3    0  502  0.54817748556E+03 -0.70471174542E+03  0.16752059927E+04  0.18982708758E+04  0.50400001928E-02 0.  1.
</event>
<event>
 5   0  0.2180451E-07  0.3486405E+04  0.7818609E-02  0.8117019E-01
        2   -1    0    0  501    0  0.00000000000E+00  0.00000000000E+00  0.19350603077E+04  0.19350603077E+04  0.25500000920E-02 0.  1.
       -2   -1    0    0    0  501  0.00000000000E+00  0.00000000000E+00 -0.15703670433E+04  0.15703670433E+04  0.25500000920E-02 0. -1.
    10030    2    1    2    0    0  0.00000000000E+00  0.00000000000E+00  0.36469326439E+03  0.35054273510E+04  0.34864049874E+04 0.  0.
        4    1    3    3  502    0 -0.53148615241E+03  0.16349544009E+04  0.47236435162E+03  0.17828861761E+04  0.12699999809E+01 0. -1.
       -4    1    3    3    0  502  0.53148615241E+03 -0.16349544009E+04 -0.10767108723E+03  0.17225411749E+04  0.12699999809E+01 0.  1.
</event>
<event>
 5   0  0.3119048E-07  0.3499998E+04  0.7818609E-02  0.8113790E-01
       -2   -1    0    0    0  501  0.00000000000E+00  0.00000000000E+00  0.16228181536E+04  0.16228181536E+04  0.25500000920E-02 0. -1.
        2   -1    0    0  501    0  0.00000000000E+00  0.00000000000E+00 -0.18871469469E+04  0.18871469469E+04  0.25500000920E-02 0.  1.
    10030    2    1    2    0    0  0.00000000000E+00  0.00000000000E+00 -0.26432879330E+03  0.35099651005E+04  0.34999978994E+04 0.  0.
        3    1    3    3  502    0  0.24701212948E+03 -0.17067889636E+04 -0.43025278826E+03  0.17774310198E+04  0.10100000352E+00 0.  1.
       -3    1    3    3    0  502 -0.24701212948E+03  0.17067889636E+04  0.16592399496E+03  0.17325340806E+04  0.10100000352E+00 0. -1.
</event>
<event>
 5   0  0.3219205E-07  0.3513540E+04  0.7818609E-02  0.8110589E-01
       -2   -1    0    0    0  501  0.00000000000E+00  0.00000000000E+00  0.16350831005E+04  0.16350831005E+04  0.25500000920E-02 0.  1.
        2   -1    0    0  501    0  0.00000000000E+00  0.00000000000E+00 -0.18875130652E+04  0.18875130652E+04  0.25500000920E-02 0. -1.
    10030    2    1    2    0    0  0.00000000000E+00  0.00000000000E+00 -0.25242996475E+03  0.35225961657E+04  0.35135399328E+04 0.  0.
        2    1    3    3  502    0  0.97777566958E+03 -0.62967484235E+03  0.11938811876E+04  0.16666997202E+04  0.25500000920E-02 0.  1.
       -2    1    3    3    0  502 -0.97777566958E+03  0.62967484235E+03 -0.14463111523E+04  0.18558964455E+04  0.25500000920E-02 0. -1.
</event>
<event>
 5   0  0.3219205E-07  0.3499790E+04  0.7818609E-02  0.8113840E-01
        2   -1    0    0  501    0  0.00000000000E+00  0.00000000000E+00  0.10124768429E+04  0.10124768429E+04  0.25500000920E-02 0.  1.
       -2   -1    0    0    0  501  0.00000000000E+00  0.00000000000E+00 -0.30243979283E+04  0.30243979283E+04  0.25500000920E-02 0. -1.
    10030    2    1    2    0    0  0.00000000000E+00  0.00000000000E+00 -0.20119210854E+04  0.40368747712E+04  0.34997902029E+04 0.  0.
        2    1    3    3  502    0  0.38427564828E+03 -0.38752774794E+03  0.91180211696E+03  0.10626516973E+04  0.25500000920E-02 0.  1.
       -2    1    3    3    0  502 -0.38427564828E+03  0.38752774794E+03 -0.29237232023E+04  0.29742230739E+04  0.25500000920E-02 0. -1.
</event>
<event>
 5   0  0.2180451E-07  0.3491171E+04  0.7818609E-02  0.8115885E-01
       -2   -1    0    0    0  501  0.00000000000E+00  0.00000000000E+00  0.15402367375E+04  0.15402367375E+04  0.25500000920E-02 0. -1.
        2   -1    0    0  501    0  0.00000000000E+00  0.00000000000E+00 -0.19783122187E+04  0.19783122187E+04  0.25500000920E-02 0.  1.
    10030    2    1    2    0    0  0.00000000000E+00  0.00000000000E+00 -0.43807548123E+03  0.35185489561E+04  0.34911712404E+04 0.  0.
        4    1    3    3  502    0 -0.10091006028E+04 -0.20521868012E+03 -0.16395833550E+04  0.19361389217E+04  0.12699999809E+01 0.  1.
       -4    1    3    3    0  502  0.10091006028E+04  0.20521868012E+03  0.12015078738E+04  0.15824100344E+04  0.12699999809E+01 0. -1.
</event>
<event>
 5   0  0.3190112E-07  0.3501010E+04  0.7818609E-02  0.8113551E-01
        2   -1    0    0  501    0  0.00000000000E+00  0.00000000000E+00  0.15574221524E+04  0.15574221524E+04  0.25500000920E-02 0.  1.
       -2   -1    0    0    0  501  0.00000000000E+00  0.00000000000E+00 -0.19675255601E+04  0.19675255601E+04  0.25500000920E-02 0. -1.
    10030    2    1    2    0    0  0.00000000000E+00  0.00000000000E+00 -0.41010340773E+03  0.35249477125E+04  0.35010100787E+04 0.  0.
        5    1    3    3  502    0  0.16542134308E+04  0.29096394359E+03  0.29143623199E+03  0.17047109017E+04  0.46999998093E+01 0.  1.
       -5    1    3    3    0  502 -0.16542134308E+04 -0.29096394359E+03 -0.70153963973E+03  0.18202368108E+04  0.46999998093E+01 0. -1.
</event>
<event>
 5   0  0.3190112E-07  0.3497607E+04  0.7818609E-02  0.8114357E-01
        2   -1    0    0  501    0  0.00000000000E+00  0.00000000000E+00  0.19774959843E+04  0.19774959843E+04  0.25500000920E-02 0.  1.
       -2   -1    0    0    0  501  0.00000000000E+00  0.00000000000E+00 -0.15465584679E+04  0.15465584679E+04  0.25500000920E-02 0. -1.
    10030    2    1    2    0    0  0.00000000000E+00  0.00000000000E+00  0.43093751633E+03  0.35240544522E+04  0.34976067016E+04 0.  0.
        5    1    3    3  502    0  0.15709182334E+03 -0.83669314334E+03  0.17546186648E+04  0.19502415250E+04  0.46999998093E+01 0.  1.
       -5    1    3    3    0  502 -0.15709182334E+03  0.83669314334E+03 -0.13236811484E+04  0.15738129272E+04  0.46999998093E+01 0. -1.
</event>
<event>
 5   0  0.3119048E-07  0.3498638E+04  0.7818609E-02  0.8114113E-01
        2   -1    0    0  501    0  0.00000000000E+00  0.00000000000E+00  0.23560633618E+04  0.23560633618E+04  0.25500000920E-02 0.  1.
       -2   -1    0    0    0  501  0.00000000000E+00  0.00000000000E+00 -0.12988263612E+04  0.12988263612E+04  0.25500000920E-02 0. -1.
    10030    2    1    2    0    0  0.00000000000E+00  0.00000000000E+00  0.10572370006E+04  0.36548897230E+04  0.34986381367E+04 0.  0.
        3    1    3    3  502    0 -0.22503698563E+03 -0.15428991750E+03  0.23336973036E+04  0.23495936114E+04  0.10100000352E+00 0.  1.
       -3    1    3    3    0  502  0.22503698563E+03  0.15428991750E+03 -0.12764603030E+04  0.13052961116E+04  0.10100000352E+00 0. -1.
</event>
<event>
 5   0  0.1098171E-07  0.3484921E+04  0.7818609E-02  0.8117373E-01
        1   -1    0    0  501    0  0.00000000000E+00  0.00000000000E+00  0.18598079394E+04  0.18598079395E+04  0.50400001928E-02 0.  1.
       -1   -1    0    0    0  501  0.00000000000E+00  0.00000000000E+00 -0.16325169595E+04  0.16325169595E+04  0.50400001928E-02 0. -1.
    10030    2    1    2    0    0  0.00000000000E+00  0.00000000000E+00  0.22729097993E+03  0.34923248990E+04  0.34849206606E+04 0.  0.
        4    1    3    3  502    0  0.11377020166E+04 -0.11641041541E+04 -0.50949720499E+03  0.17056064537E+04  0.12699999809E+01 0.  1.
       -4    1    3    3    0  502 -0.11377020166E+04  0.11641041541E+04  0.73678818492E+03  0.17867184452E+04  0.12699999809E+01 0. -1.
</event>
<event>
 5   0  0.1072381E-07  0.3499709E+04  0.7818609E-02  0.8113859E-01
       -1   -1    0    0    0  501  0.00000000000E+00  0.00000000000E+00  0.14502155848E+04  0.14502155848E+04  0.50400001928E-02 0.  1.
        1   -1    0    0  501    0  0.00000000000E+00  0.00000000000E+00 -0.21114042444E+04  0.21114042444E+04  0.50400001928E-02 0. -1.
    10030    2    1    2    0    0  0.00000000000E+00  0.00000000000E+00 -0.66118865963E+03  0.35616198292E+04  0.34997093257E+04 0.  0.
        1    1    3    3  502    0  0.37193311746E+03  0.88762834608E+03 -0.18178756845E+04  0.20569128151E+04  0.50400001928E-02 0. -1.
       -1    1    3    3    0  502 -0.37193311746E+03 -0.88762834608E+03  0.11566870249E+04  0.15047070141E+04  0.50400001928E-02 0.  1.
</event>
<event>
 5   0  0.3219205E-07  0.3500555E+04  0.7818609E-02  0.8113659E-01
       -2   -1    0    0    0  501  0.00000000000E+00  0.00000000000E+00  0.15380515189E+04  0.15380515189E+04  0.25500000920E-02 0. -1.
        2   -1    0    0  501    0  0.00000000000E+00  0.00000000000E+00 -0.19917867203E+04  0.19917867203E+04  0.25500000920E-02 0.  1.
    10030    2    1    2    0    0  0.00000000000E+00  0.00000000000E+00 -0.45373520140E+03  0.35298382392E+04  0.35005545792E+04 0.  0.
        2    1    3    3  502    0 -0.16972840450E+04 -0.29730158408E+03 -0.53653468671E+03  0.18047245860E+04  0.25500000920E-02 0.  1.
       -2    1    3    3    0  502  0.16972840450E+04  0.29730158408E+03  0.82799485306E+02  0.17251136531E+04  0.25500000920E-02 0. -1.
</event>
<event>
 5   0  0.2180451E-07  0.3504133E+04  0.7818609E-02  0.8112811E-01
       -2   -1    0    0    0  501  0.00000000000E+00  0.00000000000E+00  0.19654237923E+04  0.19654237923E+04  0.25500000920E-02 0. -1.
        2   -1    0    0  501    0  0.00000000000E+00  0.00000000000E+00 -0.15618703356E+04  0.15618703356E+04  0.25500000920E-02 0.  1.
    10030    2    1    2    0    0  0.00000000000E+00  0.00000000000E+00  0.40355345672E+03  0.35272941279E+04  0.35041330558E+04 0.  0.
        4    1    3    3  502    0  0.58424025535E+03  0.83904858934E+03  0.16339938252E+04  0.19275052905E+04  0.12699999809E+01 0. -1.
       -4    1    3    3    0  502 -0.58424025535E+03 -0.83904858934E+03 -0.12304403684E+04  0.15997888375E+04  0.12699999809E+01 0.  1.
</event>
<event>
 5   0  0.1013863E-07  0.3467320E+04  0.7818609E-02  0.8121579E-01
        1   -1    0    0  501    0  0.00000000000E+00  0.00000000000E+00  0.13266379736E+04  0.13266379736E+04  0.50400001928E-02 0. -1.
       -1   -1    0    0    0  501  0.00000000000E+00  0.00000000000E+00 -0.22655598032E+04  0.22655598032E+04  0.50400001928E-02 0.  1.
    10030    2    1    2    0    0  0.00000000000E+00  0.00000000000E+00 -0.93892182958E+03  0.35921977769E+04  0.34673203870E+04 0.  0.
        5    1    3    3  502    0  0.55803169012E+03 -0.14411004711E+04  0.34457680484E+03  0.15833272560E+04  0.46999998093E+01 0. -1.
       -5    1    3    3    0  502 -0.55803169012E+03  0.14411004711E+04 -0.12834986344E+04  0.20088705209E+04  0.46999998093E+01 0.  1.
</event>
<event>
 5   0  0.1013863E-07  0.3494410E+04  0.7818609E-02  0.8115116E-01
        1   -1    0    0  501    0  0.00000000000E+00  0.00000000000E+00  0.25693777880E+04  0.25693777880E+04  0.50400001928E-02 0.  1.
       -1   -1    0    0    0  501  0.00000000000E+00  0.00000000000E+00 -0.11881182756E+04  0.11881182757E+04  0.50400001928E-02 0. -1.
    10030    2    1    2    0    0  0.00000000000E+00  0.00000000000E+00  0.13812595123E+04  0.37574960636E+04  0.34944096537E+04 0.  0.
        5    1    3    3  502    0 -0.54266434587E+03 -0.93777747013E+03 -0.78325661959E+03  0.13369458470E+04  0.46999998093E+01 0. -1.
       -5    1    3    3    0  502  0.54266434587E+03  0.93777747013E+03  0.21645161319E+04  0.24205502166E+04  0.46999998093E+01 0.  1.
</event>
<event>
 5   0  0.2180451E-07  0.3496402E+04  0.7818609E-02  0.8114643E-01
       -2   -1    0    0    0  501  0.00000000000E+00  0.00000000000E+00  0.17107045602E+04  0.17107045602E+04  0.25500000920E-02 0. -1.
        2   -1    0    0  501    0  0.00000000000E+00  0.00000000000E+00 -0.17865192875E+04  0.17865192875E+04  0.25500000920E-02 0.  1.
    10030    2    1    2    0    0  0.00000000000E+00  0.00000000000E+00 -0.75814727229E+02  0.34972238477E+04  0.34964019746E+04 0.  0.
        4    1    3    3  502    0 -0.17301282495E+04  0.25036826889E+03 -0.24598248114E+02  0.17483234016E+04  0.12699999809E+01 0.  1.
       -4    1    3    3    0  502  0.17301282495E+04 -0.25036826889E+03 -0.51216479115E+02  0.17489004461E+04  0.12699999809E+01 0. -1.
</event>
<event>
 5   0  0.1013863E-07  0.3515819E+04  0.7818609E-02  0.8110051E-01
        1   -1    0    0  501    0  0.00000000000E+00  0.00000000000E+00  0.20450430272E+04  0.20450430272E+04  0.50400001928E-02 0.  1.
       -1   -1    0    0    0  501  0.00000000000E+00  0.00000000000E+00 -0.15110910911E+04  0.15110910911E+04  0.50400001928E-02 0. -1.
    10030    2    1    2    0    0  0.00000000000E+00  0.00000000000E+00  0.53395193606E+03  0.35561341183E+04  0.35158192782E+04 0.  0.
        5    1    3    3  502    0 -0.37318948360E+03  0.48211170937E+03 -0.14007243981E+04  0.15276626003E+04  0.46999998093E+01 0. -1.
       -5    1    3    3    0  502  0.37318948360E+03 -0.48211170937E+03  0.19346763342E+04  0.20284715179E+04  0.46999998093E+01 0.  1.
</event>
<event>
 5   0  0.1013863E-07  0.3482267E+04  0.7818609E-02  0.8118005E-01
       -1   -1    0    0    0  501  0.00000000000E+00  0.00000000000E+00  0.11381291921E+04  0.11381291921E+04  0.50400001928E-02 0. -1.
        1   -1    0    0  501    0  0.00000000000E+00  0.00000000000E+00 -0.26636212130E+04  0.26636212130E+04  0.50400001928E-02 0.  1.
    10030    2    1    2    0    0  0.00000000000E+00  0.00000000000E+00 -0.15254920209E+04  0.38017504052E+04  0.34822665374E+04 0.  0.
        2    1    3    3  502    0 -0.14164441416E+04  0.68530510177E+03  0.51017118461E+02  0.15743442556E+04  0.25500000920E-02 0. -1.
       -2    1    3    3    0  502  0.14164441416E+04 -0.68530510177E+03 -0.15765091394E+04  0.22274061496E+04  0.25500000920E-02 0.  1.
</event>
<event>
 5   0  0.1098171E-07  0.3634125E+04  0.7818609E-02  0.8082719E-01
        1   -1    0    0  501    0  0.00000000000E+00  0.00000000000E+00  0.20059040439E+04  0.20059040439E+04  0.50400001928E-02 0. -1.
       -1   -1    0    0    0  501  0.00000000000E+00  0.00000000000E+00 -0.16459987698E+04  0.16459987698E+04  0.50400001928E-02 0.  1.
    10030    2    1    2    0    0  0.00000000000E+00  0.00000000000E+00  0.35990527409E+03  0.36519028136E+04  0.36341247026E+04 0.  0.
        4    1    3    3  502    0  0.69254740801E+03 -0.94340085576E+03  0.15767477673E+04  0.19636094881E+04  0.12699999809E+01 0. -1.
       -4    1    3    3    0  502 -0.69254740801E+03  0.94340085576E+03 -0.12168424932E+04  0.16882933256E+04  0.12699999809E+01 0.  1.
</event>
<event>
 5   0  0.1072381E-07  0.3503338E+04  0.7818609E-02  0.8112999E-01
        1   -1    0    0  501    0  0.00000000000E+00  0.00000000000E+00  0.21775496417E+04  0.21775496417E+04  0.50400001928E-02 0.  1.
       -1   -1    0    0    0  501  0.00000000000E+00  0.00000000000E+00 -0.14090815397E+04  0.14090815397E+04  0.50400001928E-02 0. -1.
    10030    2    1    2    0    0  0.00000000000E+00  0.00000000000E+00  0.76846810204E+03  0.35866311814E+04  0.35033384090E+04 0.  0.
        1    1    3    3  502    0 -0.11367763323E+04 -0.79644045064E+03  0.14781738102E+04  0.20277020575E+04  0.50400001928E-02 0.  1.
       -1    1    3    3    0  502  0.11367763323E+04  0.79644045064E+03 -0.70970570812E+03  0.15589291239E+04  0.50400001928E-02 0. -1.
</event>
<event>
 5   0  0.1072381E-07  0.3504466E+04  0.7818609E-02  0.8112732E-01
       -1   -1    0    0    0  501  0.00000000000E+00  0.00000000000E+00  0.22379988567E+04  0.22379988568E+04  0.50400001928E-02 0. -1.
        1   -1    0    0  501    0  0.00000000000E+00  0.00000000000E+00 -0.13719042478E+04  0.13719042478E+04  0.50400001928E-02 0.  1.
    10030    2    1    2    0    0  0.00000000000E+00  0.00000000000E+00  0.86609460898E+03  0.36099031045E+04  0.35044658013E+04 0.  0.
        1    1    3    3  502    0 -0.14218859097E+04  0.33703167862E+03 -0.56298314120E+03  0.15659820912E+04  0.50400001928E-02 0.  1.
       -1    1    3    3    0  502  0.14218859097E+04 -0.33703167862E+03  0.14290777502E+04  0.20439210133E+04  0.50400001928E-02 0. -1.
</event>
<event>
 5   0  0.3190112E-07  0.3473851E+04  0.7818609E-02  0.8120015E-01
       -2   -1    0    0    0  501  0.00000000000E+00  0.00000000000E+00  0.11755577574E+04  0.11755577574E+04  0.25500000920E-02 0.  1.
        2   -1    0    0  501    0  0.00000000000E+00  0.00000000000E+00 -0.25663645861E+04  0.25663645861E+04  0.25500000920E-02 0. -1.
    10030    2    1    2    0    0  0.00000000000E+00  0.00000000000E+00 -0.13908068287E+04  0.37419223435E+04  0.34738507725E+04 0.  0.
        5    1    3    3  502    0  0.11195182584E+04 -0.22585640741E+03 -0.21050360122E+04  0.23948968559E+04  0.46999998093E+01 0. -1.
       -5    1    3    3    0  502 -0.11195182584E+04  0.22585640741E+03  0.71422918348E+03  0.13470254876E+04  0.46999998093E+01 0.  1.
</event>
<event>
 5   0  0.1013863E-07  0.3464303E+04  0.7818609E-02  0.8122302E-01
       -1   -1    0    0    0  501  0.00000000000E+00  0.00000000000E+00  0.15716147265E+04  0.15716147265E+04  0.50400001928E-02 0.  1.
        1   -1    0    0  501    0  0.00000000000E+00  0.00000000000E+00 -0.19090872400E+04  0.19090872400E+04  0.50400001928E-02 0. -1.
    10030    2    1    2    0    0  0.00000000000E+00  0.00000000000E+00 -0.33747251347E+03  0.34807019665E+04  0.34643034627E+04 0.  0.
        5    1    3    3  502    0 -0.15899786338E+04 -0.39793529209E+03  0.39422213502E+03  0.16857691818E+04  0.46999998093E+01 0. -1.
       -5    1    3    3    0  502  0.15899786338E+04  0.39793529209E+03 -0.73169464849E+03  0.17949327846E+04  0.46999998093E+01 0.  1.
</event>
<event>
 5   0  0.3190185E-07  0.3501149E+04  0.7818609E-02  0.8113518E-01
        2   -1    0    0  501    0  0.00000000000E+00  0.00000000000E+00  0.20738066610E+04  0.20738066610E+04  0.25500000920E-02 0.  1.
       -2   -1    0    0    0  501  0.00000000000E+00  0.00000000000E+00 -0.14777223269E+04  0.14777223269E+04  0.25500000920E-02 0. -1.
    10030    2    1    2    0    0  0.00000000000E+00  0.00000000000E+00  0.59608433415E+03  0.35515289879E+04  0.35011486141E+04 0.  0.
        1    1    3    3  502    0 -0.58311225368E+03 -0.15131178787E+04  0.96705102658E+03  0.18880501326E+04  0.50400001928E-02 0.  1.
       -1    1    3    3    0  502  0.58311225368E+03  0.15131178787E+04 -0.37096669243E+03  0.16634788553E+04  0.50400001928E-02 0. -1.
</event>
<event>
 5   0  0.1033796E-07  0.3501918E+04  0.7818609E-02  0.8113335E-01
        1   -1    0    0  501    0  0.00000000000E+00  0.00000000000E+00  0.35728265914E+04  0.35728265914E+04  0.50400001928E-02 0.  1.
       -1   -1    0    0    0  501  0.00000000000E+00  0.00000000000E+00 -0.85810433775E+03  0.85810433776E+03  0.50400001928E-02 0. -1.
    10030    2    1    2    0    0  0.00000000000E+00  0.00000000000E+00  0.27147222536E+04  0.44309309291E+04  0.35019183292E+04 0.  0.
        3    1    3    3  502    0 -0.13300407857E+04  0.97256633579E+03  0.60777699128E+03  0.17562137258E+04  0.10100000352E+00 0.  1.
       -3    1    3    3    0  502  0.13300407857E+04 -0.97256633579E+03  0.21069452624E+04  0.26747172034E+04  0.10100000352E+00 0. -1.
</event>
<event>
 5   0  0.3190112E-07  0.3499635E+04  0.7818609E-02  0.8113876E-01
       -2   -1    0    0    0  501  0.00000000000E+00  0.00000000000E+00  0.16100520607E+04  0.16100520607E+04  0.25500000920E-02 0. -1.
        2   -1    0    0  501    0  0.00000000000E+00  0.00000000000E+00 -0.19017157071E+04  0.19017157071E+04  0.25500000920E-02 0.  1.
    10030    2    1    2    0    0  0.00000000000E+00  0.00000000000E+00 -0.29166364642E+03  0.35117677678E+04  0.34996350056E+04 0.  0.
        5    1    3    3  502    0 -0.11951422976E+04  0.38482113788E+03  0.10771579182E+04  0.16543106390E+04  0.46999998093E+01 0. -1.
       -5    1    3    3    0  502  0.11951422976E+04 -0.38482113788E+03 -0.13688215646E+04  0.18574571288E+04  0.46999998093E+01 0.  1.
</event>
<event>
 5   0  0.3119048E-07  0.3499299E+04  0.7818609E-02  0.8113956E-01
        2   -1    0    0  501    0  0.00000000000E+00  0.00000000000E+00  0.21385784203E+04  0.21385784203E+04  0.25500000920E-02 0. -1.
       -2   -1    0    0    0  501  0.00000000000E+00  0.00000000000E+00 -0.14314522532E+04  0.14314522532E+04  0.25500000920E-02 0.  1.
    10030    2    1    2    0    0  0.00000000000E+00  0.00000000000E+00  0.70712616716E+03  0.35700306735E+04  0.34992987288E+04 0.  0.
        3    1    3    3  502    0 -0.75871089370E+03 -0.41113807685E+03 -0.11992389590E+04  0.14774474033E+04  0.10100000352E+00 0.  1.
       -3    1    3    3    0  502  0.75871089370E+03  0.41113807685E+03  0.19063651261E+04  0.20925832702E+04  0.10100000352E+00 0. -1.
</event>
<event>
 5   0  0.3190185E-07  0.3499599E+04  0.7818609E-02  0.8113885E-01
       -2   -1    0    0    0  501  0.00000000000E+00  0.00000000000E+00  0.16003911675E+04  0.16003911675E+04  0.25500000920E-02 0. -1.
        2   -1    0    0  501    0  0.00000000000E+00  0.00000000000E+00 -0.19131563373E+04  0.19131563374E+04  0.25500000920E-02 0.  1.
    10030    2    1    2    0    0  0.00000000000E+00  0.00000000000E+00 -0.31276516980E+03  0.35135475049E+04  0.34995991224E+04 0.  0.
        1    1    3    3  502    0 -0.14249084690E+04 -0.10031590457E+04  0.26985892841E+01  0.17426128366E+04  0.50400001928E-02 0. -1.
       -1    1    3    3    0  502  0.14249084690E+04  0.10031590457E+04 -0.31546375909E+03  0.17709346683E+04  0.50400001928E-02 0.  1.
</event>
<event>
 5   0  0.1072381E-07  0.3510886E+04  0.7818609E-02  0.8111215E-01
       -1   -1    0    0    0  501  0.00000000000E+00  0.00000000000E+00  0.19755392843E+04  0.19755392844E+04  0.50400001928E-02 0.  1.
        1   -1    0    0  501    0  0.00000000000E+00  0.00000000000E+00 -0.15598677522E+04  0.15598677522E+04  0.50400001928E-02 0. -1.
    10030    2    1    2    0    0  0.00000000000E+00  0.00000000000E+00  0.41567153215E+03  0.35354070366E+04  0.35108859411E+04 0.  0.
        1    1    3    3  502    0 -0.16221534402E+04  0.62387973612E+03 -0.40814564025E+02  0.17384687335E+04  0.50400001928E-02 0.  1.
       -1    1    3    3    0  502  0.16221534402E+04 -0.62387973612E+03  0.45648609617E+03  0.17969383030E+04  0.50400001928E-02 0. -1.
</event>
<event>
 5   0  0.2180451E-07  0.3499352E+04  0.7818609E-02  0.8113943E-01
       -2   -1    0    0    0  501  0.00000000000E+00  0.00000000000E+00  0.14360215299E+04  0.14360215299E+04  0.25500000920E-02 0. -1.
        2   -1    0    0  501    0  0.00000000000E+00  0.00000000000E+00 -0.21318387765E+04  0.21318387765E+04  0.25500000920E-02 0.  1.
    10030    2    1    2    0    0  0.00000000000E+00  0.00000000000E+00 -0.69581724661E+03  0.35678603063E+04  0.34993521579E+04 0.  0.
        4    1    3    3  502    0 -0.79162100788E+02 -0.17474535785E+04 -0.38745089513E+03  0.17916418325E+04  0.12699999809E+01 0. -1.
       -4    1    3    3    0  502  0.79162100788E+02  0.17474535785E+04 -0.30836635148E+03  0.17762184738E+04  0.12699999809E+01 0.  1.
</event>
<event>
 5   0  0.3190185E-07  0.3504505E+04  0.7818609E-02  0.8112723E-01
       -2   -1    0    0    0  501  0.00000000000E+00  0.00000000000E+00  0.25871251713E+04  0.25871251713E+04  0.25500000920E-02 0.  1.
        2   -1    0    0  501    0  0.00000000000E+00  0.00000000000E+00 -0.11867958533E+04  0.11867958533E+04  0.25500000920E-02 0. -1.
    10030    2    1    2    0    0  0.00000000000E+00  0.00000000000E+00  0.14003293180E+04  0.37739210247E+04  0.35045053434E+04 0.  0.
        1    1    3    3  502    0 -0.11461165475E+04 -0.46753132929E+03 -0.63543227261E+03  0.13913816361E+04  0.50400001928E-02 0. -1.
       -1    1    3    3    0  502  0.11461165475E+04  0.46753132929E+03  0.20357615906E+04  0.23825393886E+04  0.50400001928E-02 0.  1.
</event>
<event>
 5   0  0.3119048E-07  0.3484568E+04  0.7818609E-02  0.8117457E-01
        2   -1    0    0  501    0  0.00000000000E+00  0.00000000000E+00  0.17842901739E+04  0.17842901739E+04  0.25500000920E-02 0.  1.
       -2   -1    0    0    0  501  0.00000000000E+00  0.00000000000E+00 -0.17012669923E+04  0.17012669923E+04  0.25500000920E-02 0. -1.
    10030    2    1    2    0    0  0.00000000000E+00  0.00000000000E+00  0.83023181555E+02  0.34855571662E+04  0.34845682531E+04 0.  0.
        3    1    3    3  502    0 -0.12263287251E+04 -0.10658521371E+04 -0.58765900432E+03  0.17277922432E+04  0.10100000352E+00 0. -1.
       -3    1    3    3    0  502  0.12263287251E+04  0.10658521371E+04  0.67068218588E+03  0.17577649230E+04  0.10100000352E+00 0.  1.
</event>
<event>
 5   0  0.1013863E-07  0.3479575E+04  0.7818609E-02  0.8118648E-01
       -1   -1    0    0    0  501  0.00000000000E+00  0.00000000000E+00  0.98669614875E+03  0.98669614876E+03  0.50400001928E-02 0. -1.
        1   -1    0    0  501    0  0.00000000000E+00  0.00000000000E+00 -0.30676720041E+04  0.30676720041E+04  0.50400001928E-02 0.  1.
    10030    2    1    2    0    0  0.00000000000E+00  0.00000000000E+00 -0.20809758553E+04  0.40543681528E+04  0.34795747741E+04 0.  0.
        5    1    3    3  502    0 -0.10101723360E+04  0.72771121860E+03 -0.24564829168E+04  0.27539684415E+04  0.46999998093E+01 0.  1.
       -5    1    3    3    0  502  0.10101723360E+04 -0.72771121860E+03  0.37550706151E+03  0.13003997113E+04  0.46999998093E+01 0. -1.
</event>
<event>
 5   0  0.3190112E-07  0.3502612E+04  0.7818609E-02  0.8113171E-01
       -2   -1    0    0    0  501  0.00000000000E+00  0.00000000000E+00  0.20901804033E+04  0.20901804033E+04  0.25500000920E-02 0. -1.
        2   -1    0    0  501    0  0.00000000000E+00  0.00000000000E+00 -0.14673720225E+04  0.14673720225E+04  0.25500000920E-02 0.  1.
    10030    2    1    2    0    0  0.00000000000E+00  0.00000000000E+00  0.62280838071E+03  0.35575524258E+04  0.35026117374E+04 0.  0.
        5    1    3    3  502    0 -0.15019826807E+04  0.13034092778E+03 -0.59370189629E+03  0.16203224254E+04  0.46999998093E+01 0. -1.
       -5    1    3    3    0  502  0.15019826807E+04 -0.13034092778E+03  0.12165102770E+04  0.19372300004E+04  0.46999998093E+01 0.  1.
</event>
<event>
 5   0  0.1072381E-07  0.3570569E+04  0.7818609E-02  0.8097267E-01
        1   -1    0    0  501    0  0.00000000000E+00  0.00000000000E+00  0.18354157367E+04  0.18354157367E+04  0.50400001928E-02 0. -1.
       -1   -1    0    0    0  501  0.00000000000E+00  0.00000000000E+00 -0.17365228659E+04  0.17365228659E+04  0.50400001928E-02 0.  1.
    10030    2    1    2    0    0  0.00000000000E+00  0.00000000000E+00  0.98892870776E+02  0.35719386026E+04  0.35705693637E+04 0.  0.
        1    1    3    3  502    0 -0.31457848802E+03  0.17247890528E+04 -0.28740883229E+03  0.17766431095E+04  0.50400001928E-02 0. -1.
       -1    1    3    3    0  502  0.31457848802E+03 -0.17247890528E+04  0.38630170307E+03  0.17952954931E+04  0.50400001928E-02 0.  1.
</event>
<event>
 5   0  0.3219205E-07  0.3504055E+04  0.7818609E-02  0.8112830E-01
        2   -1    0    0  501    0  0.00000000000E+00  0.00000000000E+00  0.21456992143E+04  0.21456992143E+04  0.25500000920E-02 0.  1.
       -2   -1    0    0    0  501  0.00000000000E+00  0.00000000000E+00 -0.14305827058E+04  0.14305827058E+04  0.25500000920E-02 0. -1.
    10030    2    1    2    0    0  0.00000000000E+00  0.00000000000E+00  0.71511650843E+03  0.35762819201E+04  0.35040549013E+04 0.  0.
        2    1    3    3  502    0 -0.12195615660E+04  0.12028485686E+04 -0.18028632157E+02  0.17130382727E+04  0.25500000920E-02 0. -1.
       -2    1    3    3    0  502  0.12195615660E+04 -0.12028485686E+04  0.73314514058E+03  0.18632436474E+04  0.25500000920E-02 0.  1.
</event>
<event>
 5   0  0.2180451E-07  0.3501470E+04  0.7818609E-02  0.8113442E-01
       -2   -1    0    0    0  501  0.00000000000E+00  0.00000000000E+00  0.12190367613E+04  0.12190367613E+04  0.25500000920E-02 0.  1.
        2   -1    0    0  501    0  0.00000000000E+00  0.00000000000E+00 -0.25143404960E+04  0.25143404960E+04  0.25500000920E-02 0. -1.
    10030    2    1    2    0    0  0.00000000000E+00  0.00000000000E+00 -0.12953037347E+04  0.37333772573E+04  0.35014702598E+04 0.  0.
        4    1    3    3  502    0 -0.11458387147E+04 -0.11148470270E+04  0.11322325530E+03  0.16027012735E+04  0.12699999809E+01 0. -1.
       -4    1    3    3    0  502  0.11458387147E+04  0.11148470270E+04 -0.14085269900E+04  0.21306759838E+04  0.12699999809E+01 0.  1.
</event>
<event>
 5   0  0.1013863E-07  0.3483949E+04  0.7818609E-02  0.8117604E-01
       -1   -1    0    0    0  501  0.00000000000E+00  0.00000000000E+00  0.18394918895E+04  0.18394918895E+04  0.50400001928E-02 0.  1.
        1   -1    0    0  501    0  0.00000000000E+00  0.00000000000E+00 -0.16496269609E+04  0.16496269609E+04  0.50400001928E-02 0. -1.
    10030    2    1    2    0    0  0.00000000000E+00  0.00000000000E+00  0.18986492867E+03  0.34891188504E+04  0.34839491473E+04 0.  0.
        2    1    3    3  502    0 -0.12630434114E+04 -0.52680166226E+03  0.11743428872E+04  0.18032969437E+04  0.25500000920E-02 0.  1.
       -2    1    3    3    0  502  0.12630434114E+04  0.52680166226E+03 -0.98447795849E+03  0.16858219067E+04  0.25500000920E-02 0. -1.
</event>
<event>
 5   0  0.1033796E-07  0.3505641E+04  0.7818609E-02  0.8112454E-01
        1   -1    0    0  501    0  0.00000000000E+00  0.00000000000E+00  0.11930374832E+04  0.11930374832E+04  0.50400001928E-02 0.  1.
       -1   -1    0    0    0  501  0.00000000000E+00  0.00000000000E+00 -0.25752578383E+04  0.25752578384E+04  0.50400001928E-02 0. -1.
    10030    2    1    2    0    0  0.00000000000E+00  0.00000000000E+00 -0.13822203552E+04  0.37682953215E+04  0.35056406719E+04 0.  0.
        3    1    3    3  502    0 -0.11494057994E+04 -0.12182208226E+04 -0.12467358624E+04  0.20879525821E+04  0.10100000352E+00 0. -1.
       -3    1    3    3    0  502  0.11494057994E+04  0.12182208226E+04 -0.13548449275E+03  0.16803427395E+04  0.10100000352E+00 0.  1.
</event>
<event>
 5   0  0.3190112E-07  0.3514818E+04  0.7818609E-02  0.8110287E-01
       -2   -1    0    0    0  501  0.00000000000E+00  0.00000000000E+00  0.13328667757E+04  0.13328667757E+04  0.25500000920E-02 0. -1.
        2   -1    0    0  501    0  0.00000000000E+00  0.00000000000E+00 -0.23171750259E+04  0.23171750259E+04  0.25500000920E-02 0.  1.
    10030    2    1    2    0    0  0.00000000000E+00  0.00000000000E+00 -0.98430825018E+03  0.36500418015E+04  0.35148175517E+04 0.  0.
        5    1    3    3  502    0  0.13761359925E+04 -0.99623079373E+03 -0.95916376275E+03  0.19509595788E+04  0.46999998093E+01 0.  1.
       -5    1    3    3    0  502 -0.13761359925E+04  0.99623079373E+03 -0.25144487430E+02  0.16990822227E+04  0.46999998093E+01 0. -1.
</event>
<event>
 5   0  0.1013863E-07  0.3495885E+04  0.7818609E-02  0.8114766E-01
       -1   -1    0    0    0  501  0.00000000000E+00  0.00000000000E+00  0.13233654751E+04  0.13233654751E+04  0.50400001928E-02 0. -1.
        1   -1    0    0  501    0  0.00000000000E+00  0.00000000000E+00 -0.23087376050E+04  0.23087376050E+04  0.50400001928E-02 0.  1.
    10030    2    1    2    0    0  0.00000000000E+00  0.00000000000E+00 -0.98537212987E+03  0.36321030801E+04  0.34958853743E+04 0.  0.
        5    1    3    3  502    0  0.47463707890E+03 -0.41274560436E+03  0.12017008677E+04  0.13563724990E+04  0.46999998093E+01 0. -1.
       -5    1    3    3    0  502 -0.47463707890E+03  0.41274560436E+03 -0.21870729976E+04  0.22757305810E+04  0.46999998093E+01 0.  1.
</event>
<event>
 5   0  0.3219205E-07  0.3504431E+04  0.7818609E-02  0.8112741E-01
       -2   -1    0    0    0  501  0.00000000000E+00  0.00000000000E+00  0.21845487082E+04  0.21845487082E+04  0.25500000920E-02 0. -1.
        2   -1    0    0  501    0  0.00000000000E+00  0.00000000000E+00 -0.14054428469E+04  0.14054428469E+04  0.25500000920E-02 0.  1.
    10030    2    1    2    0    0  0.00000000000E+00  0.00000000000E+00  0.77910586130E+03  0.35899915551E+04  0.35044305419E+04 0.  0.
        2    1    3    3  502    0  0.16850572277E+04  0.41472553346E+03  0.63805168225E+03  0.18489253846E+04  0.25500000920E-02 0.  1.
       -2    1    3    3    0  502 -0.16850572277E+04 -0.41472553346E+03  0.14105417905E+03  0.17410661705E+04  0.25500000920E-02 0. -1.
</event>
<event>
 5   0  0.3119048E-07  0.3508120E+04  0.7818609E-02  0.8111868E-01
        2   -1    0    0  501    0  0.00000000000E+00  0.00000000000E+00  0.22520507904E+04  0.22520507904E+04  0.25500000920E-02 0. -1.
       -2   -1    0    0    0  501  0.00000000000E+00  0.00000000000E+00 -0.13661888837E+04  0.13661888837E+04  0.25500000920E-02 0.  1.
    10030    2    1    2    0    0  0.00000000000E+00  0.00000000000E+00  0.88586190667E+03  0.36182396742E+04  0.35081201550E+04 0.  0.
        3    1    3    3  502    0 -0.13052422131E+04 -0.86139161815E+03  0.12622687927E+04  0.20097201969E+04  0.10100000352E+00 0. -1.
       -3    1    3    3    0  502  0.13052422131E+04  0.86139161815E+03 -0.37640688599E+03  0.16085194773E+04  0.10100000352E+00 0.  1.
</event>
<event>
 5   0  0.3219205E-07  0.3500296E+04  0.7818609E-02  0.8113720E-01
       -2   -1    0    0    0  501  0.00000000000E+00  0.00000000000E+00  0.21208924221E+04  0.21208924221E+04  0.25500000920E-02 0.  1.
        2   -1    0    0  501    0  0.00000000000E+00  0.00000000000E+00 -0.14442117130E+04  0.14442117130E+04  0.25500000920E-02 0. -1.
    10030    2    1    2    0    0  0.00000000000E+00  0.00000000000E+00  0.67668070919E+03  0.35651041351E+04  0.35002958035E+04 0.  0.
        2    1    3    3  502    0  0.84479985647E+03 -0.15080557764E+04  0.61745559715E+03  0.18355300152E+04  0.25500000920E-02 0. -1.
       -2    1    3    3    0  502 -0.84479985647E+03  0.15080557764E+04  0.59225112033E+02  0.17295741199E+04  0.25500000920E-02 0.  1.
</event>
<event>
 5   0  0.1072381E-07  0.3481718E+04  0.7818609E-02  0.8118136E-01
       -1   -1    0    0    0  501  0.00000000000E+00  0.00000000000E+00  0.13449000774E+04  0.13449000774E+04  0.50400001928E-02 0.  1.
        1   -1    0    0  501    0  0.00000000000E+00  0.00000000000E+00 -0.22533942531E+04  0.22533942531E+04  0.50400001928E-02 0. -1.
    10030    2    1    2    0    0  0.00000000000E+00  0.00000000000E+00 -0.90849417566E+03  0.35982943305E+04  0.34817180273E+04 0.  0.
        1    1    3    3  502    0 -0.48378235052E+03 -0.69753375195E+03 -0.20250014361E+04  0.21957298363E+04  0.50400001928E-02 0. -1.
       -1    1    3    3    0  502  0.48378235052E+03  0.69753375195E+03  0.11165072604E+04  0.14025644942E+04  0.50400001928E-02 0.  1.
</event>
<event>
 5   0  0.1033796E-07  0.3437669E+04  0.7818609E-02  0.8128723E-01
        1   -1    0    0  501    0  0.00000000000E+00  0.00000000000E+00  0.12782387229E+04  0.12782387229E+04  0.50400001928E-02 0. -1.
       -1   -1    0    0    0  501  0.00000000000E+00  0.00000000000E+00 -0.23112992105E+04  0.23112992105E+04  0.50400001928E-02 0.  1.
    10030    2    1    2    0    0  0.00000000000E+00  0.00000000000E+00 -0.10330604877E+04  0.35895379334E+04  0.34376690656E+04 0.  0.
        3    1    3    3  502    0 -0.17090030539E+04  0.17372527959E+03 -0.45457757752E+03  0.17769391366E+04  0.10100000352E+00 0. -1.
       -3    1    3    3    0  502  0.17090030539E+04 -0.17372527959E+03 -0.57848291013E+03  0.18125987969E+04  0.10100000352E+00 0.  1.
</event>
<event>
 5   0  0.3119048E-07  0.3423011E+04  0.7818609E-02  0.8132282E-01
        2   -1    0    0  501    0  0.00000000000E+00  0.00000000000E+00  0.11264410021E+04  0.11264410021E+04  0.25500000920E-02 0. -1.
       -2   -1    0    0    0  501  0.00000000000E+00  0.00000000000E+00 -0.26004479531E+04  0.26004479531E+04  0.25500000920E-02 0.  1.
    10030    2    1    2    0    0  0.00000000000E+00  0.00000000000E+00 -0.14740069510E+04  0.37268889552E+04  0.34230110711E+04 0.  0.
        3    1    3    3  502    0 -0.77104923567E+03  0.11404568520E+04 -0.18441824482E+04  0.23013404067E+04  0.10100000352E+00 0.  1.
       -3    1    3    3    0  502  0.77104923567E+03 -0.11404568520E+04  0.37017549719E+03  0.14255485485E+04  0.10100000352E+00 0. -1.
</event>
<event>
 5   0  0.1033796E-07  0.3511228E+04  0.7818609E-02  0.8111134E-01
        1   -1    0    0  501    0  0.00000000000E+00  0.00000000000E+00  0.21925235885E+04  0.21925235885E+04  0.50400001928E-02 0. -1.
       -1   -1    0    0    0  501  0.00000000000E+00  0.00000000000E+00 -0.14057683785E+04  0.14057683785E+04  0.50400001928E-02 0.  1.
    10030    2    1    2    0    0  0.00000000000E+00  0.00000000000E+00  0.78675521001E+03  0.35982919670E+04  0.35112278934E+04 0.  0.
        3    1    3    3  502    0 -0.12458530975E+03 -0.14281047856E+04 -0.64524965321E+03  0.15720534034E+04  0.10100000352E+00 0.  1.
       -3    1    3    3    0  502  0.12458530975E+03  0.14281047856E+04  0.14320048632E+04  0.20262385636E+04  0.10100000352E+00 0. -1.
</event>
<event>
 5   0  0.1013863E-07  0.3513293E+04  0.7818609E-02  0.8110647E-01
        1   -1    0    0  501    0  0.00000000000E+00  0.00000000000E+00  0.24987193202E+04  0.24987193202E+04  0.50400001928E-02 0. -1.
       -1   -1    0    0    0  501  0.00000000000E+00  0.00000000000E+00 -0.12349552014E+04  0.12349552014E+04  0.50400001928E-02 0.  1.
    10030    2    1    2    0    0  0.00000000000E+00  0.00000000000E+00  0.12637641188E+04  0.37336745216E+04  0.35132927127E+04 0.  0.
        2    1    3    3  502    0  0.11957395903E+04 -0.56293691305E+03  0.18616724777E+04  0.22830934168E+04  0.25500000920E-02 0. -1.
       -2    1    3    3    0  502 -0.11957395903E+04  0.56293691305E+03 -0.59790835888E+03  0.14505811047E+04  0.25500000920E-02 0.  1.
</event>
<event>
 5   0  0.3190112E-07  0.3528071E+04  0.7818609E-02  0.8107170E-01
        2   -1    0    0  501    0  0.00000000000E+00  0.00000000000E+00  0.18058648495E+04  0.18058648495E+04  0.25500000920E-02 0. -1.
       -2   -1    0    0    0  501  0.00000000000E+00  0.00000000000E+00 -0.17231748702E+04  0.17231748702E+04  0.25500000920E-02 0.  1.
    10030    2    1    2    0    0  0.00000000000E+00  0.00000000000E+00  0.82689979307E+02  0.35290397198E+04  0.35280708200E+04 0.  0.
        5    1    3    3  502    0  0.95566905696E+03 -0.89978208792E+02  0.15217512378E+04  0.17992076990E+04  0.46999998093E+01 0. -1.
       -5    1    3    3    0  502 -0.95566905696E+03  0.89978208792E+02 -0.14390612585E+04  0.17298320208E+04  0.46999998093E+01 0.  1.
</event>
<event>
 5   0  0.1072381E-07  0.3498937E+04  0.7818609E-02  0.8114042E-01
        1   -1    0    0  501    0  0.00000000000E+00  0.00000000000E+00  0.21363746368E+04  0.21363746368E+04  0.50400001928E-02 0.  1.
       -1   -1    0    0    0  501  0.00000000000E+00  0.00000000000E+00 -0.14326323122E+04  0.14326323122E+04  0.50400001928E-02 0. -1.
    10030    2    1    2    0    0  0.00000000000E+00  0.00000000000E+00  0.70374232465E+03  0.35690069490E+04  0.34989366016E+04 0.  0.
        1    1    3    3  502    0 -0.47082260471E+03  0.96806241569E+03 -0.10548113561E+04  0.15071316342E+04  0.50400001928E-02 0. -1.
       -1    1    3    3    0  502  0.47082260471E+03 -0.96806241569E+03  0.17585536807E+04  0.20618753148E+04  0.50400001928E-02 0.  1.
</event>
<event>
 5   0  0.3119048E-07  0.3560415E+04  0.7818609E-02  0.8099620E-01
        2   -1    0    0  501    0  0.00000000000E+00  0.00000000000E+00  0.16914271201E+04  0.16914271201E+04  0.25500000920E-02 0. -1.
       -2   -1    0    0    0  501  0.00000000000E+00  0.00000000000E+00 -0.18736478359E+04  0.18736478359E+04  0.25500000920E-02 0.  1.
    10030    2    1    2    0    0  0.00000000000E+00  0.00000000000E+00 -0.18222071580E+03  0.35650749561E+04  0.35604150113E+04 0.  0.
        3    1    3    3  502    0  0.48568024551E+03 -0.22241719781E+03  0.16092830361E+04  0.16956257286E+04  0.10100000352E+00 0. -1.
       -3    1    3    3    0  502 -0.48568024551E+03  0.22241719781E+03 -0.17915037519E+04  0.18694492275E+04  0.10100000352E+00 0.  1.
</event>
<event>
 5   0  0.2180451E-07  0.3516597E+04  0.7818609E-02  0.8109868E-01
        2   -1    0    0  501    0  0.00000000000E+00  0.00000000000E+00  0.27187866753E+04  0.27187866753E+04  0.25500000920E-02 0.  1.
       -2   -1    0    0    0  501  0.00000000000E+00  0.00000000000E+00 -0.11371297726E+04  0.11371297726E+04  0.25500000920E-02 0. -1.
    10030    2    1    2    0    0  0.00000000000E+00  0.00000000000E+00  0.15816569027E+04  0.38559164479E+04  0.35165968059E+04 0.  0.
        4    1    3    3  502    0 -0.32754395290E+03 -0.96958207076E+03 -0.77689943674E+03  0.12848925172E+04  0.12699999809E+01 0. -1.
       -4    1    3    3    0  502  0.32754395290E+03  0.96958207076E+03  0.23585563395E+04  0.25710239307E+04  0.12699999809E+01 0.  1.
</event>
<event>
 5   0  0.3119048E-07  0.3490973E+04  0.7818609E-02  0.8115932E-01
        2   -1    0    0  501    0  0.00000000000E+00  0.00000000000E+00  0.28720501637E+04  0.28720501637E+04  0.25500000920E-02 0. -1.
       -2   -1    0    0    0  501  0.00000000000E+00  0.00000000000E+00 -0.10608183764E+04  0.10608183764E+04  0.25500000920E-02 0.  1.
    10030    2    1    2    0    0  0.00000000000E+00  0.00000000000E+00  0.18112317873E+04  0.39328685401E+04  0.34909732693E+04 0.  0.
        3    1    3    3  502    0  0.68031073316E+03 -0.15227688841E+02  0.27164611684E+04  0.28003956624E+04  0.10100000352E+00 0. -1.
       -3    1    3    3    0  502 -0.68031073316E+03  0.15227688841E+02 -0.90522938114E+03  0.11324728777E+04  0.10100000352E+00 0.  1.
</event>
<event>
 5   0  0.3190112E-07  0.3496097E+04  0.7818609E-02  0.8114716E-01
        2   -1    0    0  501    0  0.00000000000E+00  0.00000000000E+00  0.15270652880E+04  0.15270652880E+04  0.25500000920E-02 0.  1.
       -2   -1    0    0    0  501  0.00000000000E+00  0.00000000000E+00 -0.20010099967E+04  0.20010099967E+04  0.25500000920E-02 0. -1.
    10030    2    1    2    0    0  0.00000000000E+00  0.00000000000E+00 -0.47394470865E+03  0.35280752847E+04  0.34960966273E+04 0.  0.
        5    1    3    3  502    0  0.68588522496E+02 -0.15060533677E+04 -0.11297963773E+04  0.18839753385E+04  0.46999998093E+01 0. -1.
       -5    1    3    3    0  502 -0.68588522496E+02  0.15060533677E+04  0.65585166870E+03  0.16440999462E+04  0.46999998093E+01 0.  1.
</event>
<event>
 5   0  0.2180451E-07  0.3487730E+04  0.7818609E-02  0.8116704E-01
        2   -1    0    0  501    0  0.00000000000E+00  0.00000000000E+00  0.24333601519E+04  0.24333601519E+04  0.25500000920E-02 0. -1.
       -2   -1    0    0    0  501  0.00000000000E+00  0.00000000000E+00 -0.12497387843E+04  0.12497387843E+04  0.25500000920E-02 0.  1.
    10030    2    1    2    0    0  0.00000000000E+00  0.00000000000E+00  0.11836213676E+04  0.36830989362E+04  0.34877296673E+04 0.  0.
        4    1    3    3  502    0 -0.74991687015E+03  0.36402521242E+03 -0.10257128631E+04  0.13217330131E+04  0.12699999809E+01 0.  1.
       -4    1    3    3    0  502  0.74991687015E+03 -0.36402521242E+03  0.22093342306E+04  0.23613659231E+04  0.12699999809E+01 0. -1.
</event>
<event>
 5   0  0.1033796E-07  0.3527795E+04  0.7818609E-02  0.8107234E-01
        1   -1    0    0  501    0  0.00000000000E+00  0.00000000000E+00  0.21072753920E+04  0.21072753920E+04  0.50400001928E-02 0. -1.
       -1   -1    0    0    0  501  0.00000000000E+00  0.00000000000E+00 -0.14764726237E+04  0.14764726237E+04  0.50400001928E-02 0.  1.
    10030    2    1    2    0    0  0.00000000000E+00  0.00000000000E+00  0.63080276833E+03  0.35837480157E+04  0.35277950206E+04 0.  0.
        3    1    3    3  502    0  0.13749821999E+04 -0.98279538702E+03  0.82825667488E+03  0.18821455715E+04  0.10100000352E+00 0. -1.
       -3    1    3    3    0  502 -0.13749821999E+04  0.98279538702E+03 -0.19745390655E+03  0.17016024442E+04  0.10100000352E+00 0.  1.
</event>
<event>
 5   0  0.3190112E-07  0.3496762E+04  0.7818609E-02  0.8114558E-01
       -2   -1    0    0    0  501  0.00000000000E+00  0.00000000000E+00  0.24144231560E+04  0.24144231560E+04  0.25500000920E-02 0. -1.
        2   -1    0    0  501    0  0.00000000000E+00  0.00000000000E+00 -0.12660731298E+04  0.12660731298E+04  0.25500000920E-02 0.  1.
    10030    2    1    2    0    0  0.00000000000E+00  0.00000000000E+00  0.11483500262E+04  0.36804962858E+04  0.34967620918E+04 0.  0.
        5    1    3    3  502    0  0.96159687093E+02  0.54495380643E+03 -0.11714600382E+04  0.12955933188E+04  0.46999998093E+01 0.  1.
       -5    1    3    3    0  502 -0.96159687093E+02 -0.54495380643E+03  0.23198100645E+04  0.23849029669E+04  0.46999998093E+01 0. -1.
</event>
<event>
 5   0  0.1013863E-07  0.3513803E+04  0.7818609E-02  0.8110527E-01
       -3   -1    0    0    0  501  0.00000000000E+00  0.00000000000E+00  0.15536821642E+04  0.15536821675E+04  0.10100000352E+00 0.  1.
        3   -1    0    0  501    0  0.00000000000E+00  0.00000000000E+00 -0.19867017814E+04  0.19867017839E+04  0.10100000352E+00 0. -1.
    10030    2    1    2    0    0  0.00000000000E+00  0.00000000000E+00 -0.43301961716E+03  0.35403839514E+04  0.35138031440E+04 0.  0.
        1    1    3    3  502    0  0.14057876691E+04 -0.31141795699E+03  0.79782463870E+03  0.16461300886E+04  0.50400001928E-02 0.  1.
       -1    1    3    3    0  502 -0.14057876691E+04  0.31141795699E+03 -0.12308442559E+04  0.18942538628E+04  0.50400001928E-02 0. -1.
</event>
<event>
 5   0  0.1013863E-07  0.3497057E+04  0.7818609E-02  0.8114488E-01
        3   -1    0    0  501    0  0.00000000000E+00  0.00000000000E+00  0.19438785221E+04  0.19438785247E+04  0.10100000352E+00 0.  1.
       -3   -1    0    0    0  501  0.00000000000E+00  0.00000000000E+00 -0.15728102529E+04  0.15728102561E+04  0.10100000352E+00 0. -1.
    10030    2    1    2    0    0  0.00000000000E+00  0.00000000000E+00  0.37106826917E+03  0.35166887808E+04  0.34970570943E+04 0.  0.
        3    1    3    3  502    0  0.18525716156E+02  0.13882750590E+04 -0.88330664128E+03  0.16455641811E+04  0.10100000352E+00 0. -1.
       -3    1    3    3    0  502 -0.18525716156E+02 -0.13882750590E+04  0.12543749104E+04  0.18711245997E+04  0.10100000352E+00 0.  1.
</event>
<event>
 5   0  0.1013863E-07  0.3494654E+04  0.7818609E-02  0.8115058E-01
        1   -1    0    0  501    0  0.00000000000E+00  0.00000000000E+00  0.24924369112E+04  0.24924369112E+04  0.50400001928E-02 0.  1.
       -1   -1    0    0    0  501  0.00000000000E+00  0.00000000000E+00 -0.12249666379E+04  0.12249666379E+04  0.50400001928E-02 0. -1.
    10030    2    1    2    0    0  0.00000000000E+00  0.00000000000E+00  0.12674702733E+04  0.37174035491E+04  0.34946542394E+04 0.  0.
        5    1    3    3  502    0  0.47663845167E+03  0.80974017332E+03  0.22008182854E+04  0.23930078515E+04  0.46999998093E+01 0.  1.
       -5    1    3    3    0  502 -0.47663845167E+03 -0.80974017332E+03 -0.93334801217E+03  0.13243956976E+04  0.46999998093E+01 0. -1.
</event>
<event>
 5   0  0.3190112E-07  0.3488419E+04  0.7818609E-02  0.8116540E-01
       -2   -1    0    0    0  501  0.00000000000E+00  0.00000000000E+00  0.34189047322E+04  0.34189047322E+04  0.25500000920E-02 0. -1.
        2   -1    0    0  501    0  0.00000000000E+00  0.00000000000E+00 -0.88983660301E+03  0.88983660301E+03  0.25500000920E-02 0.  1.
    10030    2    1    2    0    0  0.00000000000E+00  0.00000000000E+00  0.25290681292E+04  0.43087413352E+04  0.34884188813E+04 0.  0.
        5    1    3    3  502    0 -0.30806094133E+03 -0.13418680267E+04  0.25872085501E+04  0.29307305431E+04  0.46999998093E+01 0. -1.
       -5    1    3    3    0  502  0.30806094133E+03  0.13418680267E+04 -0.58140420907E+02  0.13780107921E+04  0.46999998093E+01 0.  1.
</event>
<event>
 5   0  0.1033796E-07  0.3489723E+04  0.7818609E-02  0.8116230E-01
        1   -1    0    0  501    0  0.00000000000E+00  0.00000000000E+00  0.14742731841E+04  0.14742731841E+04  0.50400001928E-02 0. -1.
       -1   -1    0    0    0  501  0.00000000000E+00  0.00000000000E+00 -0.20651140175E+04  0.20651140175E+04  0.50400001928E-02 0.  1.
    10030    2    1    2    0    0  0.00000000000E+00  0.00000000000E+00 -0.59084083339E+03  0.35393872016E+04  0.34897233231E+04 0.  0.
        3    1    3    3  502    0 -0.71275698550E+02  0.11544875783E+04  0.10295480675E+04  0.15485125209E+04  0.10100000352E+00 0. -1.
       -3    1    3    3    0  502  0.71275698550E+02 -0.11544875783E+04 -0.16203889009E+04  0.19908746807E+04  0.10100000352E+00 0.  1.
</event>
<event>
 5   0  0.1033796E-07  0.3501604E+04  0.7818609E-02  0.8113410E-01
        1   -1    0    0  501    0  0.00000000000E+00  0.00000000000E+00  0.20547540387E+04  0.20547540387E+04  0.50400001928E-02 0.  1.
       -1   -1    0    0    0  501  0.00000000000E+00  0.00000000000E+00 -0.14918126399E+04  0.14918126399E+04  0.50400001928E-02 0. -1.
    10030    2    1    2    0    0  0.00000000000E+00  0.00000000000E+00  0.56294139878E+03  0.35465666786E+04  0.35016042306E+04 0.  0.
        3    1    3    3  502    0 -0.11847948160E+04 -0.53604169957E+03 -0.90585688825E+03  0.15848205488E+04  0.10100000352E+00 0. -1.
       -3    1    3    3    0  502  0.11847948160E+04  0.53604169957E+03  0.14687982870E+04  0.19617461298E+04  0.10100000352E+00 0.  1.
</event>
<event>
 5   0  0.3190112E-07  0.3503206E+04  0.7818609E-02  0.8113031E-01
       -2   -1    0    0    0  501  0.00000000000E+00  0.00000000000E+00  0.13749545604E+04  0.13749545604E+04  0.25500000920E-02 0.  1.
        2   -1    0    0  501    0  0.00000000000E+00  0.00000000000E+00 -0.22314289709E+04  0.22314289709E+04  0.25500000920E-02 0. -1.
    10030    2    1    2    0    0  0.00000000000E+00  0.00000000000E+00 -0.85647441053E+03  0.36063835314E+04  0.35032062114E+04 0.  0.
        5    1    3    3  502    0  0.24364296473E+03  0.15670592800E+04 -0.11938166074E+04  0.19850080261E+04  0.46999998093E+01 0. -1.
       -5    1    3    3    0  502 -0.24364296473E+03 -0.15670592800E+04  0.33734219689E+03  0.16213755053E+04  0.46999998093E+01 0.  1.
</event>
<event>
 5   0  0.1072381E-07  0.3498532E+04  0.7818609E-02  0.8114138E-01
        1   -1    0    0  501    0  0.00000000000E+00  0.00000000000E+00  0.10559337853E+04  0.10559337853E+04  0.50400001928E-02 0.  1.
       -1   -1    0    0    0  501  0.00000000000E+00  0.00000000000E+00 -0.28978438806E+04  0.28978438806E+04  0.50400001928E-02 0. -1.
    10030    2    1    2    0    0  0.00000000000E+00  0.00000000000E+00 -0.18419100953E+04  0.39537776659E+04  0.34985318396E+04 0.  0.
        1    1    3    3  502    0 -0.59082217862E+03 -0.12096222888E+04 -0.21832970504E+04  0.25649645102E+04  0.50400001928E-02 0. -1.
       -1    1    3    3    0  502  0.59082217862E+03  0.12096222888E+04  0.34138695505E+03  0.13888131557E+04  0.50400001928E-02 0.  1.
</event>
<event>
 5   0  0.1013863E-07  0.3500722E+04  0.7818609E-02  0.8113619E-01
        1   -1    0    0  501    0  0.00000000000E+00  0.00000000000E+00  0.24713493585E+04  0.24713493585E+04  0.50400001928E-02 0.  1.
       -1   -1    0    0    0  501  0.00000000000E+00  0.00000000000E+00 -0.12397130447E+04  0.12397130447E+04  0.50400001928E-02 0. -1.
    10030    2    1    2    0    0  0.00000000000E+00  0.00000000000E+00  0.12316363138E+04  0.37110624032E+04  0.35007222328E+04 0.  0.
        5    1    3    3  502    0  0.22962865670E+03 -0.15908010057E+04  0.13505454738E+04  0.20993742702E+04  0.46999998093E+01 0.  1.
       -5    1    3    3    0  502 -0.22962865670E+03  0.15908010057E+04 -0.11890915994E+03  0.16116881330E+04  0.46999998093E+01 0. -1.
</event>
<event>
 5   0  0.1098171E-07  0.3579102E+04  0.7818609E-02  0.8095295E-01
        1   -1    0    0  501    0  0.00000000000E+00  0.00000000000E+00  0.16235641847E+04  0.16235641847E+04  0.50400001928E-02 0. -1.
       -1   -1    0    0    0  501  0.00000000000E+00  0.00000000000E+00 -0.19725078167E+04  0.19725078167E+04  0.50400001928E-02 0.  1.
    10030    2    1    2    0    0  0.00000000000E+00  0.00000000000E+00 -0.34894363206E+03  0.35960720014E+04  0.35791021473E+04 0.  0.
        4    1    3    3  502    0  0.13881417618E+04  0.95342413626E+03  0.43382112956E+03  0.17390105002E+04  0.12699999809E+01 0. -1.
       -4    1    3    3    0  502 -0.13881417618E+04 -0.95342413626E+03 -0.78276476162E+03  0.18570615012E+04  0.12699999809E+01 0.  1.
</event>
<event>
 5   0  0.1013863E-07  0.3506040E+04  0.7818609E-02  0.8112360E-01
       -1   -1    0    0    0  501  0.00000000000E+00  0.00000000000E+00  0.15375499297E+04  0.15375499297E+04  0.50400001928E-02 0.  1.
        1   -1    0    0  501    0  0.00000000000E+00  0.00000000000E+00 -0.19986857382E+04  0.19986857382E+04  0.50400001928E-02 0. -1.
    10030    2    1    2    0    0  0.00000000000E+00  0.00000000000E+00 -0.46113580849E+03  0.35362356680E+04  0.35060399977E+04 0.  0.
        2    1    3    3  502    0  0.58277314221E+03  0.80221968821E+03  0.12275307028E+04  0.15779773730E+04  0.25500000920E-02 0.  1.
       -2    1    3    3    0  502 -0.58277314221E+03 -0.80221968821E+03 -0.16886665113E+04  0.19582582950E+04  0.25500000920E-02 0. -1.
</event>
<event>
 5   0  0.3219205E-07  0.3504418E+04  0.7818609E-02  0.8112744E-01
       -2   -1    0    0    0  501  0.00000000000E+00  0.00000000000E+00  0.12023550299E+04  0.12023550299E+04  0.25500000920E-02 0. -1.
        2   -1    0    0  501    0  0.00000000000E+00  0.00000000000E+00 -0.25535195122E+04  0.25535195122E+04  0.25500000920E-02 0.  1.
    10030    2    1    2    0    0  0.00000000000E+00  0.00000000000E+00 -0.13511644824E+04  0.37558745421E+04  0.35044183708E+04 0.  0.
        2    1    3    3  502    0 -0.28094943344E+03 -0.24064059969E+03 -0.25111926722E+04  0.25382925598E+04  0.25500000920E-02 0.  1.
       -2    1    3    3    0  502  0.28094943344E+03  0.24064059969E+03  0.11600281898E+04  0.12175819823E+04  0.25500000920E-02 0. -1.
</event>
<event>
 5   0  0.3119048E-07  0.3529957E+04  0.7818609E-02  0.8106727E-01
        2   -1    0    0  501    0  0.00000000000E+00  0.00000000000E+00  0.12333132334E+04  0.12333132335E+04  0.25500000920E-02 0. -1.
       -2   -1    0    0    0  501  0.00000000000E+00  0.00000000000E+00 -0.25258378109E+04  0.25258378109E+04  0.25500000920E-02 0.  1.
    10030    2    1    2    0    0  0.00000000000E+00  0.00000000000E+00 -0.12925245775E+04  0.37591510444E+04  0.35299570523E+04 0.  0.
        3    1    3    3  502    0  0.11898734746E+04  0.12935336374E+04 -0.81837601667E+03  0.19387541029E+04  0.10100000352E+00 0.  1.
       -3    1    3    3    0  502 -0.11898734746E+04 -0.12935336374E+04 -0.47414856081E+03  0.18203969415E+04  0.10100000352E+00 0. -1.
</event>
<event>
 5   0  0.2180451E-07  0.3507837E+04  0.7818609E-02  0.8111935E-01
       -2   -1    0    0    0  501  0.00000000000E+00  0.00000000000E+00  0.14377823804E+04  0.14377823804E+04  0.25500000920E-02 0. -1.
        2   -1    0    0  501    0  0.00000000000E+00  0.00000000000E+00 -0.21395656346E+04  0.21395656346E+04  0.25500000920E-02 0.  1.
    10030    2    1    2    0    0  0.00000000000E+00  0.00000000000E+00 -0.70178325421E+03  0.35773480150E+04  0.35078368098E+04 0.  0.
        4    1    3    3  502    0 -0.34141424074E+02  0.15730391741E+04  0.43945606700E+03  0.16336282098E+04  0.12699999809E+01 0. -1.
       -4    1    3    3    0  502  0.34141424074E+02 -0.15730391741E+04 -0.11412393212E+04  0.19437198052E+04  0.12699999809E+01 0.  1.
</event>
<event>
 5   0  0.1033796E-07  0.3395787E+04  0.7818609E-02  0.8138941E-01
        1   -1    0    0  501    0  0.00000000000E+00  0.00000000000E+00  0.18326098382E+04  0.18326098382E+04  0.50400001928E-02 0.  1.
       -1   -1    0    0    0  501  0.00000000000E+00  0.00000000000E+00 -0.15730798007E+04  0.15730798007E+04  0.50400001928E-02 0. -1.
    10030    2    1    2    0    0  0.00000000000E+00  0.00000000000E+00  0.25953003748E+03  0.34056896390E+04  0.33957865181E+04 0.  0.
        3    1    3    3  502    0  0.15333500233E+04 -0.71148869579E+03 -0.30271798916E+02  0.16906492392E+04  0.10100000352E+00 0. -1.
       -3    1    3    3    0  502 -0.15333500233E+04  0.71148869579E+03  0.28980183639E+03  0.17150403997E+04  0.10100000352E+00 0.  1.
</event>
<event>
 5   0  0.2180451E-07  0.3485627E+04  0.7818609E-02  0.8117205E-01
       -2   -1    0    0    0  501  0.00000000000E+00  0.00000000000E+00  0.18655879787E+04  0.18655879787E+04  0.25500000920E-02 0.  1.
        2   -1    0    0  501    0  0.00000000000E+00  0.00000000000E+00 -0.16281185800E+04  0.16281185800E+04  0.25500000920E-02 0. -1.
    10030    2    1    2    0    0  0.00000000000E+00  0.00000000000E+00  0.23746939869E+03  0.34937065587E+04  0.34856267447E+04 0.  0.
        4    1    3    3  502    0 -0.11923002964E+04  0.10803022240E+04 -0.55271660992E+03  0.17012143180E+04  0.12699999809E+01 0. -1.
       -4    1    3    3    0  502  0.11923002964E+04 -0.10803022240E+04  0.79018600861E+03  0.17924922407E+04  0.12699999809E+01 0.  1.
</event>
<event>
 5   0  0.3119048E-07  0.3484762E+04  0.7818609E-02  0.8117411E-01
        2   -1    0    0  501    0  0.00000000000E+00  0.00000000000E+00  0.28332721144E+04  0.28332721144E+04  0.25500000920E-02 0.  1.
       -2   -1    0    0    0  501  0.00000000000E+00  0.00000000000E+00 -0.10715145474E+04  0.10715145474E+04  0.25500000920E-02 0. -1.
    10030    2    1    2    0    0  0.00000000000E+00  0.00000000000E+00  0.17617575669E+04  0.39047866618E+04  0.34847624237E+04 0.  0.
        3    1    3    3  502    0 -0.97536092635E+03 -0.84071431211E+03 -0.43438045533E+03  0.13589760415E+04  0.10100000352E+00 0. -1.
       -3    1    3    3    0  502  0.97536092635E+03  0.84071431211E+03  0.21961380223E+04  0.25458106203E+04  0.10100000352E+00 0.  1.
</event>
<event>
 5   0  0.1098171E-07  0.3464146E+04  0.7818609E-02  0.8122340E-01
        1   -1    0    0  501    0  0.00000000000E+00  0.00000000000E+00  0.13274580867E+04  0.13274580867E+04  0.50400001928E-02 0.  1.
       -1   -1    0    0    0  501  0.00000000000E+00  0.00000000000E+00 -0.22600162736E+04  0.22600162736E+04  0.50400001928E-02 0. -1.
    10030    2    1    2    0    0  0.00000000000E+00  0.00000000000E+00 -0.93255818696E+03  0.35874743603E+04  0.34641460006E+04 0.  0.
        4    1    3    3  502    0  0.11933500032E+02 -0.87418250796E+03 -0.20147500107E+04  0.21962597033E+04  0.12699999809E+01 0. -1.
       -4    1    3    3    0  502 -0.11933500032E+02  0.87418250796E+03  0.10821918237E+04  0.13912146570E+04  0.12699999809E+01 0.  1.
</event>
<event>
 5   0  0.1013863E-07  0.3524383E+04  0.7818609E-02  0.8108036E-01
       -1   -1    0    0    0  501  0.00000000000E+00  0.00000000000E+00  0.17628095017E+04  0.17628095017E+04  0.50400001928E-02 0. -1.
        1   -1    0    0  501    0  0.00000000000E+00  0.00000000000E+00 -0.17615740716E+04  0.17615740716E+04  0.50400001928E-02 0.  1.
    10030    2    1    2    0    0  0.00000000000E+00  0.00000000000E+00  0.12354300670E+01  0.35243835734E+04  0.35243833568E+04 0.  0.
        2    1    3    3  502    0  0.10217524613E+03 -0.12283192920E+04  0.12600269584E+04  0.17626332574E+04  0.25500000920E-02 0. -1.
       -2    1    3    3    0  502 -0.10217524613E+03  0.12283192920E+04 -0.12587915283E+04  0.17617503160E+04  0.25500000920E-02 0.  1.
</event>
<event>
 5   0  0.3190112E-07  0.3461069E+04  0.7818609E-02  0.8123078E-01
       -2   -1    0    0    0  501  0.00000000000E+00  0.00000000000E+00  0.13834230081E+04  0.13834230081E+04  0.25500000920E-02 0. -1.
        2   -1    0    0  501    0  0.00000000000E+00  0.00000000000E+00 -0.21647394683E+04  0.21647394683E+04  0.25500000920E-02 0.  1.
    10030    2    1    2    0    0  0.00000000000E+00  0.00000000000E+00 -0.78131646017E+03  0.35481624763E+04  0.34610694225E+04 0.  0.
        5    1    3    3  502    0 -0.94973565733E+03 -0.35524558362E+03 -0.18282765304E+04  0.20906492784E+04  0.46999998093E+01 0.  1.
       -5    1    3    3    0  502  0.94973565733E+03  0.35524558362E+03  0.10469600703E+04  0.14575131980E+04  0.46999998093E+01 0. -1.
</event>
<event>
 5   0  0.1033796E-07  0.3503502E+04  0.7818609E-02  0.8112961E-01
        1   -1    0    0  501    0  0.00000000000E+00  0.00000000000E+00  0.18138655399E+04  0.18138655399E+04  0.50400001928E-02 0. -1.
       -1   -1    0    0    0  501  0.00000000000E+00  0.00000000000E+00 -0.16917630728E+04  0.16917630728E+04  0.50400001928E-02 0.  1.
    10030    2    1    2    0    0  0.00000000000E+00  0.00000000000E+00  0.12210246707E+03  0.35056286128E+04  0.35035015282E+04 0.  0.
        3    1    3    3  502    0  0.54068247175E+03  0.12160105233E+04  0.12008703947E+04  0.17925146703E+04  0.10100000352E+00 0. -1.
       -3    1    3    3    0  502 -0.54068247175E+03 -0.12160105233E+04 -0.10787679276E+04  0.17131139425E+04  0.10100000352E+00 0.  1.
</event>
<event>
 5   0  0.1013863E-07  0.3493897E+04  0.7818609E-02  0.8115238E-01
        1   -1    0    0  501    0  0.00000000000E+00  0.00000000000E+00  0.10570729359E+04  0.10570729360E+04  0.50400001928E-02 0. -1.
       -1   -1    0    0    0  501  0.00000000000E+00  0.00000000000E+00 -0.28870559212E+04  0.28870559212E+04  0.50400001928E-02 0.  1.
    10030    2    1    2    0    0  0.00000000000E+00  0.00000000000E+00 -0.18299829853E+04  0.39441288572E+04  0.34938967809E+04 0.  0.
        2    1    3    3  502    0  0.10360463905E+04  0.22239272787E+03  0.65285906661E+03  0.12446186603E+04  0.25500000920E-02 0. -1.
       -2    1    3    3    0  502 -0.10360463905E+04 -0.22239272787E+03 -0.24828420519E+04  0.26995101969E+04  0.25500000920E-02 0.  1.
</event>
<event>
 5   0  0.3219205E-07  0.3494728E+04  0.7818609E-02  0.8115041E-01
       -2   -1    0    0    0  501  0.00000000000E+00  0.00000000000E+00  0.31614699622E+04  0.31614699622E+04  0.25500000920E-02 0.  1.
        2   -1    0    0  501    0  0.00000000000E+00  0.00000000000E+00 -0.96577864402E+03  0.96577864402E+03  0.25500000920E-02 0. -1.
    10030    2    1    2    0    0  0.00000000000E+00  0.00000000000E+00  0.21956913182E+04  0.41272486062E+04  0.34947275563E+04 0.  0.
        2    1    3    3  502    0 -0.59646635457E+03  0.98968534999E+03  0.26458165838E+04  0.28871429821E+04  0.25500000920E-02 0.  1.
       -2    1    3    3    0  502  0.59646635457E+03 -0.98968534999E+03 -0.45012526563E+03  0.12401056241E+04  0.25500000920E-02 0. -1.
</event>
<event>
 5   0  0.3219205E-07  0.3414685E+04  0.7818609E-02  0.8134311E-01
        2   -1    0    0  501    0  0.00000000000E+00  0.00000000000E+00  0.25311365016E+04  0.25311365016E+04  0.25500000920E-02 0.  1.
       -2   -1    0    0    0  501  0.00000000000E+00  0.00000000000E+00 -0.11516641507E+04  0.11516641507E+04  0.25500000920E-02 0. -1.
    10030    2    1    2    0    0  0.00000000000E+00  0.00000000000E+00  0.13794723509E+04  0.36828006523E+04  0.34146854434E+04 0.  0.
        2    1    3    3  502    0  0.16846217973E+04  0.27678257812E+03  0.71286715694E+03  0.18500645338E+04  0.25500000920E-02 0.  1.
       -2    1    3    3    0  502 -0.16846217973E+04 -0.27678257812E+03  0.66660519393E+03  0.18327361185E+04  0.25500000920E-02 0. -1.
</event>
<event>
 5   0  0.3119048E-07  0.3514476E+04  0.7818609E-02  0.8110368E-01
        2   -1    0    0  501    0  0.00000000000E+00  0.00000000000E+00  0.23770421003E+04  0.23770421003E+04  0.25500000920E-02 0. -1.
       -2   -1    0    0    0  501  0.00000000000E+00  0.00000000000E+00 -0.12990452921E+04  0.12990452921E+04  0.25500000920E-02 0.  1.
    10030    2    1    2    0    0  0.00000000000E+00  0.00000000000E+00  0.10779968082E+04  0.36760873923E+04  0.35144759777E+04 0.  0.
        3    1    3    3  502    0  0.12757208560E+04  0.11646455044E+04  0.20164207502E+03  0.17391154044E+04  0.10100000352E+00 0.  1.
       -3    1    3    3    0  502 -0.12757208560E+04 -0.11646455044E+04  0.87635473317E+03  0.19369719879E+04  0.10100000352E+00 0. -1.
</event>
<event>
 5   0  0.1013863E-07  0.3497803E+04  0.7818609E-02  0.8114311E-01
       -3   -1    0    0    0  501  0.00000000000E+00  0.00000000000E+00  0.15457461748E+04  0.15457461781E+04  0.10100000352E+00 0.  1.
        3   -1    0    0  501    0  0.00000000000E+00  0.00000000000E+00 -0.19787576939E+04  0.19787576965E+04  0.10100000352E+00 0. -1.
    10030    2    1    2    0    0  0.00000000000E+00  0.00000000000E+00 -0.43301151911E+03  0.35245038746E+04  0.34978033945E+04 0.  0.
        3    1    3    3  502    0  0.38737956691E+03 -0.13912898974E+04  0.77738391487E+03  0.16401451974E+04  0.10100000352E+00 0.  1.
       -3    1    3    3    0  502 -0.38737956691E+03  0.13912898974E+04 -0.12103954340E+04  0.18843586772E+04  0.10100000352E+00 0. -1.
</event>
<event>
 5   0  0.1098171E-07  0.3505718E+04  0.7818609E-02  0.8112436E-01
       -1   -1    0    0    0  501  0.00000000000E+00  0.00000000000E+00  0.14005025524E+04  0.14005025524E+04  0.50400001928E-02 0.  1.
        1   -1    0    0  501    0  0.00000000000E+00  0.00000000000E+00 -0.21938659274E+04  0.21938659275E+04  0.50400001928E-02 0. -1.
    10030    2    1    2    0    0  0.00000000000E+00  0.00000000000E+00 -0.79336337509E+03  0.35943684798E+04  0.35057180896E+04 0.  0.
        4    1    3    3  502    0 -0.97526943208E+03 -0.14161562241E+04 -0.47685701652E+02  0.17201524512E+04  0.12699999809E+01 0.  1.
       -4    1    3    3    0  502  0.97526943208E+03  0.14161562241E+04 -0.74567767344E+03  0.18742160286E+04  0.12699999809E+01 0. -1.
</event>
<event>
 5   0  0.1013863E-07  0.3492707E+04  0.7818609E-02  0.8115520E-01
        1   -1    0    0  501    0  0.00000000000E+00  0.00000000000E+00  0.21491420223E+04  0.21491420223E+04  0.50400001928E-02 0. -1.
       -1   -1    0    0    0  501  0.00000000000E+00  0.00000000000E+00 -0.14190548235E+04  0.14190548236E+04  0.50400001928E-02 0.  1.
    10030    2    1    2    0    0  0.00000000000E+00  0.00000000000E+00  0.73008719876E+03  0.35681968459E+04  0.34927068891E+04 0.  0.
        2    1    3    3  502    0  0.15338117214E+03  0.34483350994E+03 -0.13768942884E+04  0.14276812722E+04  0.25500000920E-02 0.  1.
       -2    1    3    3    0  502 -0.15338117214E+03 -0.34483350994E+03  0.21069814872E+04  0.21405155736E+04  0.25500000920E-02 0. -1.
</event>
<event>
 5   0  0.1013863E-07  0.3504845E+04  0.7818609E-02  0.8112643E-01
       -1   -1    0    0    0  501  0.00000000000E+00  0.00000000000E+00  0.22028578764E+04  0.22028578764E+04  0.50400001928E-02 0.  1.
        1   -1    0    0  501    0  0.00000000000E+00  0.00000000000E+00 -0.13940912405E+04  0.13940912405E+04  0.50400001928E-02 0. -1.
    10030    2    1    2    0    0  0.00000000000E+00  0.00000000000E+00  0.80876663592E+03  0.35969491169E+04  0.35048451433E+04 0.  0.
        2    1    3    3  502    0 -0.14864769422E+03  0.78190107793E+03 -0.11979007116E+04  0.14382042788E+04  0.25500000920E-02 0. -1.
       -2    1    3    3    0  502  0.14864769422E+03 -0.78190107793E+03  0.20066673475E+04  0.21587448381E+04  0.25500000920E-02 0.  1.
</event>
<event>
 5   0  0.3190185E-07  0.3503519E+04  0.7818609E-02  0.8112957E-01
       -2   -1    0    0    0  501  0.00000000000E+00  0.00000000000E+00  0.13946342572E+04  0.13946342572E+04  0.25500000920E-02 0.  1.
        2   -1    0    0  501    0  0.00000000000E+00  0.00000000000E+00 -0.22003335542E+04  0.22003335543E+04  0.25500000920E-02 0. -1.
    10030    2    1    2    0    0  0.00000000000E+00  0.00000000000E+00 -0.80569929707E+03  0.35949678114E+04  0.35035185468E+04 0.  0.
        1    1    3    3  502    0 -0.23862930562E+03  0.17132837935E+04 -0.68642397305E+03  0.18610381977E+04  0.50400001928E-02 0. -1.
       -1    1    3    3    0  502  0.23862930562E+03 -0.17132837935E+04 -0.11927532402E+03  0.17339296137E+04  0.50400001928E-02 0.  1.
</event>
<event>
 5   0  0.3219205E-07  0.3514976E+04  0.7818609E-02  0.8110250E-01
       -2   -1    0    0    0  501  0.00000000000E+00  0.00000000000E+00  0.23694280559E+04  0.23694280559E+04  0.25500000920E-02 0. -1.
        2   -1    0    0  501    0  0.00000000000E+00  0.00000000000E+00 -0.13035907138E+04  0.13035907138E+04  0.25500000920E-02 0.  1.
    10030    2    1    2    0    0  0.00000000000E+00  0.00000000000E+00  0.10658373421E+04  0.36730187697E+04  0.35149761937E+04 0.  0.
        2    1    3    3  502    0 -0.13404018937E+04 -0.66669648353E+03  0.14949672343E+04  0.21156768348E+04  0.25500000920E-02 0. -1.
       -2    1    3    3    0  502  0.13404018937E+04  0.66669648353E+03 -0.42912989213E+03  0.15573419349E+04  0.25500000920E-02 0.  1.
</event>
<event>
 5   0  0.3219205E-07  0.3504310E+04  0.7818609E-02  0.8112769E-01
        2   -1    0    0  501    0  0.00000000000E+00  0.00000000000E+00  0.16603910487E+04  0.16603910487E+04  0.25500000920E-02 0. -1.
       -2   -1    0    0    0  501  0.00000000000E+00  0.00000000000E+00 -0.18489902972E+04  0.18489902972E+04  0.25500000920E-02 0.  1.
    10030    2    1    2    0    0  0.00000000000E+00  0.00000000000E+00 -0.18859924845E+03  0.35093813459E+04  0.35043098827E+04 0.  0.
        2    1    3    3  502    0 -0.85822913068E+03 -0.19051009083E+03  0.14235440605E+04  0.16731195497E+04  0.25500000920E-02 0. -1.
       -2    1    3    3    0  502  0.85822913068E+03  0.19051009083E+03 -0.16121433089E+04  0.18362617962E+04  0.25500000920E-02 0.  1.
</event>
<event>
 5   0  0.1013863E-07  0.3497917E+04  0.7818609E-02  0.8114284E-01
       -1   -1    0    0    0  501  0.00000000000E+00  0.00000000000E+00  0.17410180051E+04  0.17410180051E+04  0.50400001928E-02 0.  1.
        1   -1    0    0  501    0  0.00000000000E+00  0.00000000000E+00 -0.17569351001E+04  0.17569351001E+04  0.50400001928E-02 0. -1.
    10030    2    1    2    0    0  0.00000000000E+00  0.00000000000E+00 -0.15917094999E+02  0.34979531052E+04  0.34979168905E+04 0.  0.
        2    1    3    3  502    0 -0.38646302878E+03  0.16187242161E+04 -0.54576880366E+03  0.17514238058E+04  0.25500000920E-02 0. -1.
       -2    1    3    3    0  502  0.38646302878E+03 -0.16187242161E+04  0.52985170866E+03  0.17465292994E+04  0.25500000920E-02 0.  1.
</event>
<event>
 5   0  0.1013863E-07  0.3503976E+04  0.7818609E-02  0.8112848E-01
        1   -1    0    0  501    0  0.00000000000E+00  0.00000000000E+00  0.13465942651E+04  0.13465942651E+04  0.50400001928E-02 0. -1.
       -1   -1    0    0    0  501  0.00000000000E+00  0.00000000000E+00 -0.22794257838E+04  0.22794257838E+04  0.50400001928E-02 0.  1.
    10030    2    1    2    0    0  0.00000000000E+00  0.00000000000E+00 -0.93283151868E+03  0.36260200490E+04  0.35039758494E+04 0.  0.
        5    1    3    3  502    0  0.78895621100E+03  0.15583336218E+04 -0.32534437987E+03  0.17767179391E+04  0.46999998093E+01 0. -1.
       -5    1    3    3    0  502 -0.78895621100E+03 -0.15583336218E+04 -0.60748713881E+03  0.18493021098E+04  0.46999998093E+01 0.  1.
</event>
<event>
 5   0  0.2180451E-07  0.3580710E+04  0.7818609E-02  0.8094925E-01
        2   -1    0    0  501    0  0.00000000000E+00  0.00000000000E+00  0.17540957840E+04  0.17540957840E+04  0.25500000920E-02 0. -1.
       -2   -1    0    0    0  501  0.00000000000E+00  0.00000000000E+00 -0.18273638624E+04  0.18273638624E+04  0.25500000920E-02 0.  1.
    10030    2    1    2    0    0  0.00000000000E+00  0.00000000000E+00 -0.73268078398E+02  0.35814596463E+04  0.35807101233E+04 0.  0.
        4    1    3    3  502    0  0.11232362323E+03  0.82246426314E+03  0.15499847311E+04  0.17582714068E+04  0.12699999809E+01 0. -1.
       -4    1    3    3    0  502 -0.11232362323E+03 -0.82246426314E+03 -0.16232528095E+04  0.18231882395E+04  0.12699999809E+01 0.  1.
</event>
<event>
 5   0  0.3119048E-07  0.3503490E+04  0.7818609E-02  0.8112963E-01
       -2   -1    0    0    0  501  0.00000000000E+00  0.00000000000E+00  0.14328075972E+04  0.14328075972E+04  0.25500000920E-02 0. -1.
        2   -1    0    0  501    0  0.00000000000E+00  0.00000000000E+00 -0.21416768051E+04  0.21416768051E+04  0.25500000920E-02 0.  1.
    10030    2    1    2    0    0  0.00000000000E+00  0.00000000000E+00 -0.70886920788E+03  0.35744844023E+04  0.35034901439E+04 0.  0.
        3    1    3    3  502    0  0.11028773801E+04  0.12914588689E+04  0.83692718608E+02  0.17003555531E+04  0.10100000352E+00 0.  1.
       -3    1    3    3    0  502 -0.11028773801E+04 -0.12914588689E+04 -0.79256192649E+03  0.18741288492E+04  0.10100000352E+00 0. -1.
</event>
<event>
 5   0  0.3190112E-07  0.3505320E+04  0.7818609E-02  0.8112530E-01
        2   -1    0    0  501    0  0.00000000000E+00  0.00000000000E+00  0.99652938175E+03  0.99652938175E+03  0.25500000920E-02 0.  1.
       -2   -1    0    0    0  501  0.00000000000E+00  0.00000000000E+00 -0.30825151297E+04  0.30825151297E+04  0.25500000920E-02 0. -1.
    10030    2    1    2    0    0  0.00000000000E+00  0.00000000000E+00 -0.20859857480E+04  0.40790445115E+04  0.35053198978E+04 0.  0.
        5    1    3    3  502    0 -0.13844079304E+04 -0.44868553496E+02  0.20663989976E+03  0.14004715788E+04  0.46999998093E+01 0.  1.
       -5    1    3    3    0  502  0.13844079304E+04  0.44868553496E+02 -0.22926256477E+04  0.26785729326E+04  0.46999998093E+01 0. -1.
</event>
<event>
 5   0  0.3119048E-07  0.3526390E+04  0.7818609E-02  0.8107564E-01
        2   -1    0    0  501    0  0.00000000000E+00  0.00000000000E+00  0.90151247547E+03  0.90151247547E+03  0.25500000920E-02 0.  1.
       -2   -1    0    0    0  501  0.00000000000E+00  0.00000000000E+00 -0.34484898171E+04  0.34484898171E+04  0.25500000920E-02 0. -1.
    10030    2    1    2    0    0  0.00000000000E+00  0.00000000000E+00 -0.25469773416E+04  0.43500022925E+04  0.35263899907E+04 0.  0.
        3    1    3    3  502    0  0.31911780349E+03 -0.15002873973E+04 -0.20082033731E+03  0.15469412611E+04  0.10100000352E+00 0. -1.
       -3    1    3    3    0  502 -0.31911780349E+03  0.15002873973E+04 -0.23461570043E+04  0.28030610315E+04  0.10100000352E+00 0.  1.
</event>
<event>
 5   0  0.3219205E-07  0.3456057E+04  0.7818609E-02  0.8124284E-01
        2   -1    0    0  501    0  0.00000000000E+00  0.00000000000E+00  0.23581426486E+04  0.23581426486E+04  0.25500000920E-02 0. -1.
       -2   -1    0    0    0  501  0.00000000000E+00  0.00000000000E+00 -0.12662855813E+04  0.12662855813E+04  0.25500000920E-02 0.  1.
    10030    2    1    2    0    0  0.00000000000E+00  0.00000000000E+00  0.10918570673E+04  0.36244282299E+04  0.34560567325E+04 0.  0.
        2    1    3    3  502    0 -0.34479215939E+03 -0.16904224534E+04  0.64906783884E+03  0.18432847755E+04  0.25500000920E-02 0.  1.
       -2    1    3    3    0  502  0.34479215939E+03  0.16904224534E+04  0.44278922843E+03  0.17811434544E+04  0.25500000920E-02 0. -1.
</event>
<event>
 5   0  0.3119048E-07  0.3498547E+04  0.7818609E-02  0.8114134E-01
        2   -1    0    0  501    0  0.00000000000E+00  0.00000000000E+00  0.24013804271E+04  0.24013804271E+04  0.25500000920E-02 0.  1.
       -2   -1    0    0    0  501  0.00000000000E+00  0.00000000000E+00 -0.12742496334E+04  0.12742496334E+04  0.25500000920E-02 0. -1.
    10030    2    1    2    0    0  0.00000000000E+00  0.00000000000E+00  0.11271307937E+04  0.36756300605E+04  0.34985472007E+04 0.  0.
        3    1    3    3  502    0  0.89713585326E+02  0.16692524064E+04  0.11049192385E+04  0.20038210143E+04  0.10100000352E+00 0. -1.
       -3    1    3    3    0  502 -0.89713585326E+02 -0.16692524064E+04  0.22211555157E+02  0.16718090462E+04  0.10100000352E+00 0.  1.
</event>
<event>
 5   0  0.1033796E-07  0.3498175E+04  0.7818609E-02  0.8114223E-01
       -1   -1    0    0    0  501  0.00000000000E+00  0.00000000000E+00  0.12471711619E+04  0.12471711619E+04  0.50400001928E-02 0.  1.
        1   -1    0    0  501    0  0.00000000000E+00  0.00000000000E+00 -0.24529972001E+04  0.24529972001E+04  0.50400001928E-02 0. -1.
    10030    2    1    2    0    0  0.00000000000E+00  0.00000000000E+00 -0.12058260382E+04  0.37001683620E+04  0.34981751632E+04 0.  0.
        3    1    3    3  502    0  0.13045270552E+04  0.10295120951E+04 -0.25864957655E+02  0.16620333926E+04  0.10100000352E+00 0.  1.
       -3    1    3    3    0  502 -0.13045270552E+04 -0.10295120951E+04 -0.11799610806E+04  0.20381349694E+04  0.10100000352E+00 0. -1.
</event>
<event>
 5   0  0.1013863E-07  0.3500626E+04  0.7818609E-02  0.8113642E-01
       -1   -1    0    0    0  501  0.00000000000E+00  0.00000000000E+00  0.14289096767E+04  0.14289096767E+04  0.50400001928E-02 0.  1.
        1   -1    0    0  501    0  0.00000000000E+00  0.00000000000E+00 -0.21440087423E+04  0.21440087423E+04  0.50400001928E-02 0. -1.
    10030    2    1    2    0    0  0.00000000000E+00  0.00000000000E+00 -0.71509906559E+03  0.35729184189E+04  0.35006255662E+04 0.  0.
        5    1    3    3  502    0  0.12448137365E+04 -0.81176319797E+03  0.58623685349E+03  0.15975657941E+04  0.46999998093E+01 0.  1.
       -5    1    3    3    0  502 -0.12448137365E+04  0.81176319797E+03 -0.13013359191E+04  0.19753526248E+04  0.46999998093E+01 0. -1.
</event>
<event>
 5   0  0.2180451E-07  0.3505136E+04  0.7818609E-02  0.8112574E-01
       -2   -1    0    0    0  501  0.00000000000E+00  0.00000000000E+00  0.13529374821E+04  0.13529374822E+04  0.25500000920E-02 0. -1.
        2   -1    0    0  501    0  0.00000000000E+00  0.00000000000E+00 -0.22702412900E+04  0.22702412900E+04  0.25500000920E-02 0.  1.
    10030    2    1    2    0    0  0.00000000000E+00  0.00000000000E+00 -0.91730380780E+03  0.36231787721E+04  0.35051359658E+04 0.  0.
        4    1    3    3  502    0  0.14855945757E+04  0.83755201011E+03 -0.41312141119E+02  0.17059287555E+04  0.12699999809E+01 0.  1.
       -4    1    3    3    0  502 -0.14855945757E+04 -0.83755201011E+03 -0.87599166668E+03  0.19172500166E+04  0.12699999809E+01 0. -1.
</event>
<event>
 5   0  0.1013863E-07  0.3505383E+04  0.7818609E-02  0.8112515E-01
       -1   -1    0    0    0  501  0.00000000000E+00  0.00000000000E+00  0.15250731637E+04  0.15250731637E+04  0.50400001928E-02 0.  1.
        1   -1    0    0  501    0  0.00000000000E+00  0.00000000000E+00 -0.20142817374E+04  0.20142817374E+04  0.50400001928E-02 0. -1.
    10030    2    1    2    0    0  0.00000000000E+00  0.00000000000E+00 -0.48920857371E+03  0.35393549011E+04  0.35053827305E+04 0.  0.
        2    1    3    3  502    0  0.80516765795E+03  0.75424289718E+03 -0.16196949293E+04  0.19597420670E+04  0.25500000920E-02 0. -1.
       -2    1    3    3    0  502 -0.80516765795E+03 -0.75424289718E+03  0.11304863555E+04  0.15796128340E+04  0.25500000920E-02 0.  1.
</event>
<event>
 5   0  0.3219205E-07  0.3499008E+04  0.7818609E-02  0.8114025E-01
        2   -1    0    0  501    0  0.00000000000E+00  0.00000000000E+00  0.18668348695E+04  0.18668348695E+04  0.25500000920E-02 0.  1.
       -2   -1    0    0    0  501  0.00000000000E+00  0.00000000000E+00 -0.16395473381E+04  0.16395473381E+04  0.25500000920E-02 0. -1.
    10030    2    1    2    0    0  0.00000000000E+00  0.00000000000E+00  0.22728753138E+03  0.35063822075E+04  0.34990079399E+04 0.  0.
        2    1    3    3  502    0  0.45546583411E+03 -0.13276069853E+04  0.11602464770E+04  0.18210330367E+04  0.25500000920E-02 0.  1.
       -2    1    3    3    0  502 -0.45546583411E+03  0.13276069853E+04 -0.93295894562E+03  0.16853491708E+04  0.25500000920E-02 0. -1.
</event>
<event>
 5   0  0.1072381E-07  0.3497098E+04  0.7818609E-02  0.8114478E-01
        1   -1    0    0  501    0  0.00000000000E+00  0.00000000000E+00  0.16601733789E+04  0.16601733789E+04  0.50400001928E-02 0. -1.
       -1   -1    0    0    0  501  0.00000000000E+00  0.00000000000E+00 -0.18416287550E+04  0.18416287550E+04  0.50400001928E-02 0.  1.
    10030    2    1    2    0    0  0.00000000000E+00  0.00000000000E+00 -0.18145537610E+03  0.35018021338E+04  0.34970976725E+04 0.  0.
        1    1    3    3  502    0 -0.16974576119E+04 -0.58144992444E+02 -0.50683435107E+03  0.17724627623E+04  0.50400001928E-02 0.  1.
       -1    1    3    3    0  502  0.16974576119E+04  0.58144992444E+02  0.32537897497E+03  0.17293393715E+04  0.50400001928E-02 0. -1.
</event>
<event>
 5   0  0.2180451E-07  0.3502217E+04  0.7818609E-02  0.8113265E-01
       -2   -1    0    0    0  501  0.00000000000E+00  0.00000000000E+00  0.11333684619E+04  0.11333684619E+04  0.25500000920E-02 0. -1.
        2   -1    0    0  501    0  0.00000000000E+00  0.00000000000E+00 -0.27055471792E+04  0.27055471792E+04  0.25500000920E-02 0.  1.
    10030    2    1    2    0    0  0.00000000000E+00  0.00000000000E+00 -0.15721787172E+04  0.38389156411E+04  0.35022174948E+04 0.  0.
        4    1    3    3  502    0 -0.16815047430E+03  0.23980167166E+03  0.11063299173E+04  0.11444417515E+04  0.12699999809E+01 0. -1.
       -4    1    3    3    0  502  0.16815047430E+03 -0.23980167166E+03 -0.26785086345E+04  0.26944738896E+04  0.12699999809E+01 0.  1.
</event>
<event>
 5   0  0.1013863E-07  0.3467949E+04  0.7818609E-02  0.8121428E-01
       -1   -1    0    0    0  501  0.00000000000E+00  0.00000000000E+00  0.17372034541E+04  0.17372034541E+04  0.50400001928E-02 0.  1.
        1   -1    0    0  501    0  0.00000000000E+00  0.00000000000E+00 -0.17307517370E+04  0.17307517370E+04  0.50400001928E-02 0. -1.
    10030    2    1    2    0    0  0.00000000000E+00  0.00000000000E+00  0.64517171333E+01  0.34679551910E+04  0.34679491897E+04 0.  0.
        2    1    3    3  502    0 -0.15304524669E+04 -0.75173131269E+03  0.31831873254E+03  0.17345637882E+04  0.25500000920E-02 0. -1.
       -2    1    3    3    0  502  0.15304524669E+04  0.75173131269E+03 -0.31186701541E+03  0.17333914028E+04  0.25500000920E-02 0.  1.
</event>
<event>
 5   0  0.3190112E-07  0.3497139E+04  0.7818609E-02  0.8114468E-01
        2   -1    0    0  501    0  0.00000000000E+00  0.00000000000E+00  0.22818833886E+04  0.22818833886E+04  0.25500000920E-02 0.  1.
       -2   -1    0    0    0  501  0.00000000000E+00  0.00000000000E+00 -0.13398996328E+04  0.13398996328E+04  0.25500000920E-02 0. -1.
    10030    2    1    2    0    0  0.00000000000E+00  0.00000000000E+00  0.94198375576E+03  0.36217830214E+04  0.34971386673E+04 0.  0.
        5    1    3    3  502    0 -0.12621152442E+03 -0.93024277952E+03  0.19987624655E+04  0.22082469203E+04  0.46999998093E+01 0.  1.
       -5    1    3    3    0  502  0.12621152442E+03  0.93024277952E+03 -0.10567787097E+04  0.14135361011E+04  0.46999998093E+01 0. -1.
</event>
<event>
 5   0  0.1013863E-07  0.3485830E+04  0.7818609E-02  0.8117156E-01
        1   -1    0    0  501    0  0.00000000000E+00  0.00000000000E+00  0.18685772819E+04  0.18685772819E+04  0.50400001928E-02 0.  1.
       -1   -1    0    0    0  501  0.00000000000E+00  0.00000000000E+00 -0.16257038355E+04  0.16257038355E+04  0.50400001928E-02 0. -1.
    10030    2    1    2    0    0  0.00000000000E+00  0.00000000000E+00  0.24287344636E+03  0.34942811175E+04  0.34858303196E+04 0.  0.
        2    1    3    3  502    0  0.50118075750E+03 -0.14958871508E+03 -0.15451805680E+04  0.16313006845E+04  0.25500000920E-02 0. -1.
       -2    1    3    3    0  502 -0.50118075750E+03  0.14958871508E+03  0.17880540144E+04  0.18629804330E+04  0.25500000920E-02 0.  1.
</event>
<event>
 5   0  0.1033796E-07  0.3506342E+04  0.7818609E-02  0.8112289E-01
       -1   -1    0    0    0  501  0.00000000000E+00  0.00000000000E+00  0.11848921928E+04  0.11848921929E+04  0.50400001928E-02 0.  1.
        1   -1    0    0  501    0  0.00000000000E+00  0.00000000000E+00 -0.25939988562E+04  0.25939988562E+04  0.50400001928E-02 0. -1.
    10030    2    1    2    0    0  0.00000000000E+00  0.00000000000E+00 -0.14091066634E+04  0.37788910491E+04  0.35063422497E+04 0.  0.
        3    1    3    3  502    0 -0.10258719489E+04  0.13102874915E+04 -0.12991073362E+04  0.21111481348E+04  0.10100000352E+00 0.  1.
       -3    1    3    3    0  502  0.10258719489E+04 -0.13102874915E+04 -0.10999932718E+03  0.16677429143E+04  0.10100000352E+00 0. -1.
</event>
<event>
 5   0  0.2180451E-07  0.3503421E+04  0.7818609E-02  0.8112980E-01
       -2   -1    0    0    0  501  0.00000000000E+00  0.00000000000E+00  0.23614176087E+04  0.23614176087E+04  0.25500000920E-02 0.  1.
        2   -1    0    0  501    0  0.00000000000E+00  0.00000000000E+00 -0.12994268733E+04  0.12994268733E+04  0.25500000920E-02 0. -1.
    10030    2    1    2    0    0  0.00000000000E+00  0.00000000000E+00  0.10619907353E+04  0.36608444820E+04  0.35034208996E+04 0.  0.
        4    1    3    3  502    0  0.29471852335E+03 -0.13653832066E+04 -0.57355380013E+03  0.15099986369E+04  0.12699999809E+01 0. -1.
       -4    1    3    3    0  502 -0.29471852335E+03  0.13653832066E+04  0.16355445355E+04  0.21508458451E+04  0.12699999809E+01 0.  1.
</event>
<event>
 5   0  0.1033796E-07  0.3502494E+04  0.7818609E-02  0.8113199E-01
        1   -1    0    0  501    0  0.00000000000E+00  0.00000000000E+00  0.24738737745E+04  0.24738737745E+04  0.50400001928E-02 0.  1.
       -1   -1    0    0    0  501  0.00000000000E+00  0.00000000000E+00 -0.12397020600E+04  0.12397020600E+04  0.50400001928E-02 0. -1.
    10030    2    1    2    0    0  0.00000000000E+00  0.00000000000E+00  0.12341717146E+04  0.37135758345E+04  0.35024942052E+04 0.  0.
        3    1    3    3  502    0 -0.48684652802E+03  0.14181645051E+04 -0.34223895081E+03  0.15379654141E+04  0.10100000352E+00 0.  1.
       -3    1    3    3    0  502  0.48684652802E+03 -0.14181645051E+04  0.15764106654E+04  0.21756104204E+04  0.10100000352E+00 0. -1.
</event>
<event>
 5   0  0.3190185E-07  0.3496660E+04  0.7818609E-02  0.8114582E-01
        2   -1    0    0  501    0  0.00000000000E+00  0.00000000000E+00  0.10587880777E+04  0.10587880777E+04  0.25500000920E-02 0.  1.
       -2   -1    0    0    0  501  0.00000000000E+00  0.00000000000E+00 -0.28869402160E+04  0.28869402160E+04  0.25500000920E-02 0. -1.
    10030    2    1    2    0    0  0.00000000000E+00  0.00000000000E+00 -0.18281521383E+04  0.39457282938E+04  0.34966600531E+04 0.  0.
        1    1    3    3  502    0 -0.15738137701E+04  0.39429300396E+02 -0.17721364525E+04  0.23704244470E+04  0.50400001928E-02 0. -1.
       -1    1    3    3    0  502  0.15738137701E+04 -0.39429300396E+02 -0.56015685820E+02  0.15753038468E+04  0.50400001928E-02 0.  1.
</event>
<event>
 5   0  0.1033796E-07  0.3518389E+04  0.7818609E-02  0.8109446E-01
       -1   -1    0    0    0  501  0.00000000000E+00  0.00000000000E+00  0.18990272292E+04  0.18990272292E+04  0.50400001928E-02 0. -1.
        1   -1    0    0  501    0  0.00000000000E+00  0.00000000000E+00 -0.16296584792E+04  0.16296584792E+04  0.50400001928E-02 0.  1.
    10030    2    1    2    0    0  0.00000000000E+00  0.00000000000E+00  0.26936875004E+03  0.35286857084E+04  0.35183893055E+04 0.  0.
        3    1    3    3  502    0 -0.13360756226E+04 -0.60512140330E+03 -0.83949533513E+03  0.16899770442E+04  0.10100000352E+00 0.  1.
       -3    1    3    3    0  502  0.13360756226E+04  0.60512140330E+03  0.11088640852E+04  0.18387086642E+04  0.10100000352E+00 0. -1.
</event>
<event>
 5   0  0.1033796E-07  0.3501120E+04  0.7818609E-02  0.8113525E-01
       -1   -1    0    0    0  501  0.00000000000E+00  0.00000000000E+00  0.12319580264E+04  0.12319580264E+04  0.50400001928E-02 0. -1.
        1   -1    0    0  501    0  0.00000000000E+00  0.00000000000E+00 -0.24874711035E+04  0.24874711035E+04  0.50400001928E-02 0.  1.
    10030    2    1    2    0    0  0.00000000000E+00  0.00000000000E+00 -0.12555130771E+04  0.37194291299E+04  0.35011198159E+04 0.  0.
        3    1    3    3  502    0 -0.49789919912E+03 -0.16135465960E+04 -0.13743233827E+03  0.16942030243E+04  0.10100000352E+00 0.  1.
       -3    1    3    3    0  502  0.49789919912E+03  0.16135465960E+04 -0.11180807388E+04  0.20252261055E+04  0.10100000352E+00 0. -1.
</event>
<event>
 5   0  0.2180451E-07  0.3538289E+04  0.7818609E-02  0.8104775E-01
       -2   -1    0    0    0  501  0.00000000000E+00  0.00000000000E+00  0.27781324962E+04  0.27781324962E+04  0.25500000920E-02 0. -1.
        2   -1    0    0  501    0  0.00000000000E+00  0.00000000000E+00 -0.11266103760E+04  0.11266103760E+04  0.25500000920E-02 0.  1.
    10030    2    1    2    0    0  0.00000000000E+00  0.00000000000E+00  0.16515221203E+04  0.39047428722E+04  0.35382893585E+04 0.  0.
        4    1    3    3  502    0  0.60056684165E+03  0.95452697009E+02 -0.10076501944E+04  0.11769249236E+04  0.12699999809E+01 0.  1.
       -4    1    3    3    0  502 -0.60056684165E+03 -0.95452697009E+02  0.26591723147E+04  0.27278179486E+04  0.12699999809E+01 0. -1.
</event>
<event>
 5   0  0.3219205E-07  0.3502374E+04  0.7818609E-02  0.8113228E-01
        2   -1    0    0  501    0  0.00000000000E+00  0.00000000000E+00  0.27731266917E+04  0.27731266917E+04  0.25500000920E-02 0. -1.
       -2   -1    0    0    0  501  0.00000000000E+00  0.00000000000E+00 -0.11058478008E+04  0.11058478008E+04  0.25500000920E-02 0.  1.
    10030    2    1    2    0    0  0.00000000000E+00  0.00000000000E+00  0.16672788909E+04  0.38789744925E+04  0.35023740825E+04 0.  0.
        2    1    3    3  502    0  0.27178625338E+03 -0.34562193662E+03  0.27109988878E+04  0.27464226295E+04  0.25500000920E-02 0. -1.
       -2    1    3    3    0  502 -0.27178625338E+03  0.34562193662E+03 -0.10437199968E+04  0.11325518630E+04  0.25500000920E-02 0.  1.
</event>
<event>
 5   0  0.1098171E-07  0.3493679E+04  0.7818609E-02  0.8115290E-01
       -1   -1    0    0    0  501  0.00000000000E+00  0.00000000000E+00  0.12733789184E+04  0.12733789184E+04  0.50400001928E-02 0.  1.
        1   -1    0    0  501    0  0.00000000000E+00  0.00000000000E+00 -0.23963395952E+04  0.23963395952E+04  0.50400001928E-02 0. -1.
    10030    2    1    2    0    0  0.00000000000E+00  0.00000000000E+00 -0.11229606768E+04  0.36697185137E+04  0.34936790476E+04 0.  0.
        4    1    3    3  502    0  0.16419780807E+03 -0.15610729486E+04 -0.13666128654E+04  0.20812356925E+04  0.12699999809E+01 0. -1.
       -4    1    3    3    0  502 -0.16419780807E+03  0.15610729486E+04  0.24365218855E+03  0.15884828211E+04  0.12699999809E+01 0.  1.
</event>
<event>
 5   0  0.1013863E-07  0.3516402E+04  0.7818609E-02  0.8109914E-01
        3   -1    0    0  501    0  0.00000000000E+00  0.00000000000E+00  0.16181115309E+04  0.16181115341E+04  0.10100000352E+00 0. -1.
       -3   -1    0    0    0  501  0.00000000000E+00  0.00000000000E+00 -0.19104192767E+04  0.19104192793E+04  0.10100000352E+00 0.  1.
    10030    2    1    2    0    0  0.00000000000E+00  0.00000000000E+00 -0.29230774575E+03  0.35285308134E+04  0.35164024063E+04 0.  0.
        4    1    3    3  502    0  0.59271269452E+03 -0.14974451228E+04  0.56170078646E+03  0.17056258735E+04  0.12699999809E+01 0. -1.
       -4    1    3    3    0  502 -0.59271269452E+03  0.14974451228E+04 -0.85400853221E+03  0.18229049399E+04  0.12699999809E+01 0.  1.
</event>
<event>
 5   0  0.3119048E-07  0.3496216E+04  0.7818609E-02  0.8114687E-01
        2   -1    0    0  501    0  0.00000000000E+00  0.00000000000E+00  0.26305268193E+04  0.26305268193E+04  0.25500000920E-02 0. -1.
       -2   -1    0    0    0  501  0.00000000000E+00  0.00000000000E+00 -0.11616994702E+04  0.11616994702E+04  0.25500000920E-02 0.  1.
    10030    2    1    2    0    0  0.00000000000E+00  0.00000000000E+00  0.14688273491E+04  0.37922262895E+04  0.34962160187E+04 0.  0.
        3    1    3    3  502    0 -0.45028226847E+03  0.95431778302E+03  0.22461146231E+04  0.24816340307E+04  0.10100000352E+00 0. -1.
       -3    1    3    3    0  502  0.45028226847E+03 -0.95431778302E+03 -0.77728727400E+03  0.13105922588E+04  0.10100000352E+00 0.  1.
</event>
<event>
 5   0  0.1098171E-07  0.3483775E+04  0.7818609E-02  0.8117646E-01
        1   -1    0    0  501    0  0.00000000000E+00  0.00000000000E+00  0.18761164301E+04  0.18761164301E+04  0.50400001928E-02 0. -1.
       -1   -1    0    0    0  501  0.00000000000E+00  0.00000000000E+00 -0.16172623699E+04  0.16172623700E+04  0.50400001928E-02 0.  1.
    10030    2    1    2    0    0  0.00000000000E+00  0.00000000000E+00  0.25885406017E+03  0.34933788001E+04  0.34837752534E+04 0.  0.
        4    1    3    3  502    0  0.12426389639E+04 -0.10052541159E+04 -0.56492924596E+03  0.16952386552E+04  0.12699999809E+01 0. -1.
       -4    1    3    3    0  502 -0.12426389639E+04  0.10052541159E+04  0.82378330612E+03  0.17981401449E+04  0.12699999809E+01 0.  1.
</event>
<event>
 5   0  0.2180451E-07  0.3514753E+04  0.7818609E-02  0.8110302E-01
       -2   -1    0    0    0  501  0.00000000000E+00  0.00000000000E+00  0.30483326379E+04  0.30483326379E+04  0.25500000920E-02 0. -1.
        2   -1    0    0  501    0  0.00000000000E+00  0.00000000000E+00 -0.10131351038E+04  0.10131351038E+04  0.25500000920E-02 0.  1.
    10030    2    1    2    0    0  0.00000000000E+00  0.00000000000E+00  0.20351975341E+04  0.40614677417E+04  0.35147533646E+04 0.  0.
        4    1    3    3  502    0  0.16452812151E+04 -0.47745917147E+02  0.17291213139E+04  0.23872771268E+04  0.12699999809E+01 0. -1.
       -4    1    3    3    0  502 -0.16452812151E+04  0.47745917147E+02  0.30607622024E+03  0.16741906149E+04  0.12699999809E+01 0.  1.
</event>
<event>
 5   0  0.1013863E-07  0.3494321E+04  0.7818609E-02  0.8115137E-01
       -1   -1    0    0    0  501  0.00000000000E+00  0.00000000000E+00  0.17755571675E+04  0.17755571675E+04  0.50400001928E-02 0. -1.
        1   -1    0    0  501    0  0.00000000000E+00  0.00000000000E+00 -0.17192181034E+04  0.17192181034E+04  0.50400001928E-02 0.  1.
    10030    2    1    2    0    0  0.00000000000E+00  0.00000000000E+00  0.56339064128E+02  0.34947752709E+04  0.34943211220E+04 0.  0.
        2    1    3    3  502    0  0.14810785306E+04  0.91140040274E+03 -0.14015480182E+03  0.17446740889E+04  0.25500000920E-02 0. -1.
       -2    1    3    3    0  502 -0.14810785306E+04 -0.91140040274E+03  0.19649386595E+03  0.17501011820E+04  0.25500000920E-02 0.  1.
</event>
<event>
 5   0  0.1013863E-07  0.3462969E+04  0.7818609E-02  0.8122622E-01
       -1   -1    0    0    0  501  0.00000000000E+00  0.00000000000E+00  0.11748928835E+04  0.11748928835E+04  0.50400001928E-02 0.  1.
        1   -1    0    0  501    0  0.00000000000E+00  0.00000000000E+00 -0.25517549798E+04  0.25517549798E+04  0.50400001928E-02 0. -1.
    10030    2    1    2    0    0  0.00000000000E+00  0.00000000000E+00 -0.13768620963E+04  0.37266478634E+04  0.34629691112E+04 0.  0.
        2    1    3    3  502    0 -0.39170340373E+03 -0.31929281213E+03 -0.24706278971E+04  0.25217814462E+04  0.25500000920E-02 0. -1.
       -2    1    3    3    0  502  0.39170340373E+03  0.31929281213E+03  0.10937658008E+04  0.12048664172E+04  0.25500000920E-02 0.  1.
</event>
<event>
 5   0  0.3219205E-07  0.3497511E+04  0.7818609E-02  0.8114380E-01
       -2   -1    0    0    0  501  0.00000000000E+00  0.00000000000E+00  0.17173693235E+04  0.17173693235E+04  0.25500000920E-02 0.  1.
        2   -1    0    0  501    0  0.00000000000E+00  0.00000000000E+00 -0.17807155454E+04  0.17807155454E+04  0.25500000920E-02 0. -1.
    10030    2    1    2    0    0  0.00000000000E+00  0.00000000000E+00 -0.63346221904E+02  0.34980848688E+04  0.34975112588E+04 0.  0.
        2    1    3    3  502    0 -0.35733048973E+03  0.16514459724E+04  0.41916391719E+03  0.17408783036E+04  0.25500000920E-02 0.  1.
       -2    1    3    3    0  502  0.35733048973E+03 -0.16514459724E+04 -0.48251013910E+03  0.17572065652E+04  0.25500000920E-02 0. -1.
</event>
<event>
 5   0  0.1013863E-07  0.3514988E+04  0.7818609E-02  0.8110247E-01
        1   -1    0    0  501    0  0.00000000000E+00  0.00000000000E+00  0.27091437761E+04  0.27091437761E+04  0.50400001928E-02 0.  1.
       -1   -1    0    0    0  501  0.00000000000E+00  0.00000000000E+00 -0.11401332123E+04  0.11401332124E+04  0.50400001928E-02 0. -1.
    10030    2    1    2    0    0  0.00000000000E+00  0.00000000000E+00  0.15690105638E+04  0.38492769885E+04  0.35149877930E+04 0.  0.
        5    1    3    3  502    0  0.13756031250E+04  0.19189564646E+03 -0.39478225581E+03  0.14439470267E+04  0.46999998093E+01 0. -1.
       -5    1    3    3    0  502 -0.13756031250E+04 -0.19189564646E+03  0.19637928196E+04  0.24053299617E+04  0.46999998093E+01 0.  1.
</event>
<event>
 5   0  0.1098171E-07  0.3506672E+04  0.7818609E-02  0.8112211E-01
        1   -1    0    0  501    0  0.00000000000E+00  0.00000000000E+00  0.15745502763E+04  0.15745502763E+04  0.50400001928E-02 0. -1.
       -1   -1    0    0    0  501  0.00000000000E+00  0.00000000000E+00 -0.19524227357E+04  0.19524227358E+04  0.50400001928E-02 0.  1.
    10030    2    1    2    0    0  0.00000000000E+00  0.00000000000E+00 -0.37787245943E+03  0.35269730121E+04  0.35066723589E+04 0.  0.
        4    1    3    3  502    0  0.13326639287E+03 -0.10071153151E+04  0.12483730497E+04  0.16094962173E+04  0.12699999809E+01 0. -1.
       -4    1    3    3    0  502 -0.13326639287E+03  0.10071153151E+04 -0.16262455092E+04  0.19174767947E+04  0.12699999809E+01 0.  1.
</event>
<event>
 5   0  0.1013863E-07  0.3503165E+04  0.7818609E-02  0.8113040E-01
        1   -1    0    0  501    0  0.00000000000E+00  0.00000000000E+00  0.23102635026E+04  0.23102635026E+04  0.50400001928E-02 0. -1.
       -1   -1    0    0    0  501  0.00000000000E+00  0.00000000000E+00 -0.13280050163E+04  0.13280050163E+04  0.50400001928E-02 0.  1.
    10030    2    1    2    0    0  0.00000000000E+00  0.00000000000E+00  0.98225848634E+03  0.36382685189E+04  0.35031651519E+04 0.  0.
        5    1    3    3  502    0 -0.16081189585E+04  0.69405169387E+03  0.47421967553E+03  0.18145690202E+04  0.46999998093E+01 0.  1.
       -5    1    3    3    0  502  0.16081189585E+04 -0.69405169387E+03  0.50803881081E+03  0.18236994987E+04  0.46999998093E+01 0. -1.
</event>
<event>
 5   0  0.3219205E-07  0.3514901E+04  0.7818609E-02  0.8110268E-01
        2   -1    0    0  501    0  0.00000000000E+00  0.00000000000E+00  0.17149715984E+04  0.17149715984E+04  0.25500000920E-02 0.  1.
       -2   -1    0    0    0  501  0.00000000000E+00  0.00000000000E+00 -0.18009814916E+04  0.18009814916E+04  0.25500000920E-02 0. -1.
    10030    2    1    2    0    0  0.00000000000E+00  0.00000000000E+00 -0.86009893244E+02  0.35159530900E+04  0.35149009132E+04 0.  0.
        2    1    3    3  502    0  0.98376266647E+03 -0.16526250992E+03 -0.14903421571E+04  0.17933823982E+04  0.25500000920E-02 0. -1.
       -2    1    3    3    0  502 -0.98376266647E+03  0.16526250992E+03  0.14043322638E+04  0.17225706918E+04  0.25500000920E-02 0.  1.
</event>
<event>
 5   0  0.3219205E-07  0.3500796E+04  0.7818609E-02  0.8113601E-01
       -2   -1    0    0    0  501  0.00000000000E+00  0.00000000000E+00  0.17940057600E+04  0.17940057600E+04  0.25500000920E-02 0.  1.
        2   -1    0    0  501    0  0.00000000000E+00  0.00000000000E+00 -0.17078506908E+04  0.17078506908E+04  0.25500000920E-02 0. -1.
    10030    2    1    2    0    0  0.00000000000E+00  0.00000000000E+00  0.86155069195E+02  0.35018564508E+04  0.35007964674E+04 0.  0.
        2    1    3    3  502    0 -0.13005853890E+04 -0.17376802430E+03  0.12019516420E+04  0.17794396393E+04  0.25500000920E-02 0.  1.
       -2    1    3    3    0  502  0.13005853890E+04  0.17376802430E+03 -0.11157965728E+04  0.17224168114E+04  0.25500000920E-02 0. -1.
</event>
<event>
 5   0  0.1098171E-07  0.3498822E+04  0.7818609E-02  0.8114069E-01
       -1   -1    0    0    0  501  0.00000000000E+00  0.00000000000E+00  0.24778682688E+04  0.24778682688E+04  0.50400001928E-02 0.  1.
        1   -1    0    0  501    0  0.00000000000E+00  0.00000000000E+00 -0.12351093921E+04  0.12351093921E+04  0.50400001928E-02 0. -1.
    10030    2    1    2    0    0  0.00000000000E+00  0.00000000000E+00  0.12427588767E+04  0.37129776609E+04  0.34988217280E+04 0.  0.
        4    1    3    3  502    0 -0.16276981031E+04  0.58383837963E+03  0.90248618993E+03  0.19505771721E+04  0.12699999809E+01 0.  1.
       -4    1    3    3    0  502  0.16276981031E+04 -0.58383837963E+03  0.34027268681E+03  0.17624004887E+04  0.12699999809E+01 0. -1.
</event>
<event>
 5   0  0.3119048E-07  0.3520470E+04  0.7818609E-02  0.8108956E-01
        2   -1    0    0  501    0  0.00000000000E+00  0.00000000000E+00  0.17498345295E+04  0.17498345295E+04  0.25500000920E-02 0. -1.
       -2   -1    0    0    0  501  0.00000000000E+00  0.00000000000E+00 -0.17706971788E+04  0.17706971788E+04  0.25500000920E-02 0.  1.
    10030    2    1    2    0    0  0.00000000000E+00  0.00000000000E+00 -0.20862649323E+02  0.35205317083E+04  0.35204698917E+04 0.  0.
        3    1    3    3  502    0 -0.53477762545E+03 -0.12672669883E+04 -0.11088468635E+04  0.17667750579E+04  0.10100000352E+00 0.  1.
       -3    1    3    3    0  502  0.53477762545E+03  0.12672669883E+04  0.10879842142E+04  0.17537566504E+04  0.10100000352E+00 0. -1.
</event>
<event>
 5   0  0.3190185E-07  0.3469443E+04  0.7818609E-02  0.8121070E-01
        2   -1    0    0  501    0  0.00000000000E+00  0.00000000000E+00  0.27664267851E+04  0.27664267851E+04  0.25500000920E-02 0.  1.
       -2   -1    0    0    0  501  0.00000000000E+00  0.00000000000E+00 -0.10877781657E+04  0.10877781657E+04  0.25500000920E-02 0. -1.
    10030    2    1    2    0    0  0.00000000000E+00  0.00000000000E+00  0.16786486194E+04  0.38542049507E+04  0.34694429834E+04 0.  0.
        1    1    3    3  502    0  0.16560826739E+04 -0.51496112800E+02  0.14101119107E+04  0.21757015589E+04  0.50400001928E-02 0.  1.
       -1    1    3    3    0  502 -0.16560826739E+04  0.51496112800E+02  0.26853670873E+03  0.16785033919E+04  0.50400001928E-02 0. -1.
</event>
<event>
 5   0  0.2180451E-07  0.3504710E+04  0.7818609E-02  0.8112675E-01
        2   -1    0    0  501    0  0.00000000000E+00  0.00000000000E+00  0.18302360446E+04  0.18302360446E+04  0.25500000920E-02 0.  1.
       -2   -1    0    0    0  501  0.00000000000E+00  0.00000000000E+00 -0.16777881540E+04  0.16777881540E+04  0.25500000920E-02 0. -1.
    10030    2    1    2    0    0  0.00000000000E+00  0.00000000000E+00  0.15244789056E+03  0.35080241986E+04  0.35047101762E+04 0.  0.
        4    1    3    3  502    0  0.11031438472E+04 -0.10512038868E+04  0.94236917081E+03  0.17916520941E+04  0.12699999809E+01 0.  1.
       -4    1    3    3    0  502 -0.11031438472E+04  0.10512038868E+04 -0.78992128025E+03  0.17163721045E+04  0.12699999809E+01 0. -1.
</event>
<event>
 5   0  0.1013863E-07  0.3496177E+04  0.7818609E-02  0.8114697E-01
        1   -1    0    0  501    0  0.00000000000E+00  0.00000000000E+00  0.95186601781E+03  0.95186601782E+03  0.50400001928E-02 0. -1.
       -1   -1    0    0    0  501  0.00000000000E+00  0.00000000000E+00 -0.32103396717E+04  0.32103396717E+04  0.50400001928E-02 0.  1.
    10030    2    1    2    0    0  0.00000000000E+00  0.00000000000E+00 -0.22584736539E+04  0.41622056895E+04  0.34961769058E+04 0.  0.
        2    1    3    3  502    0 -0.14409180041E+04 -0.98939942364E+03 -0.11597593390E+04  0.20976648060E+04  0.25500000920E-02 0.  1.
       -2    1    3    3    0  502  0.14409180041E+04  0.98939942364E+03 -0.10987143149E+04  0.20645408835E+04  0.25500000920E-02 0. -1.
</event>
<event>
 5   0  0.1098171E-07  0.3519930E+04  0.7818609E-02  0.8109083E-01
        1   -1    0    0  501    0  0.00000000000E+00  0.00000000000E+00  0.23604609917E+04  0.23604609917E+04  0.50400001928E-02 0.  1.
       -1   -1    0    0    0  501  0.00000000000E+00  0.00000000000E+00 -0.13122335385E+04  0.13122335385E+04  0.50400001928E-02 0. -1.
    10030    2    1    2    0    0  0.00000000000E+00  0.00000000000E+00  0.10482274532E+04  0.36726945302E+04  0.35199295900E+04 0.  0.
        4    1    3    3  502    0  0.63126855531E+03 -0.11700562163E+04 -0.67916803551E+03  0.14929174028E+04  0.12699999809E+01 0. -1.
       -4    1    3    3    0  502 -0.63126855531E+03  0.11700562163E+04  0.17273954887E+04  0.21797771274E+04  0.12699999809E+01 0.  1.
</event>
<event>
 5   0  0.3119048E-07  0.3504385E+04  0.7818609E-02  0.8112751E-01
        2   -1    0    0  501    0  0.00000000000E+00  0.00000000000E+00  0.15836560546E+04  0.15836560546E+04  0.25500000920E-02 0. -1.
       -2   -1    0    0    0  501  0.00000000000E+00  0.00000000000E+00 -0.19386654716E+04  0.19386654717E+04  0.25500000920E-02 0.  1.
    10030    2    1    2    0    0  0.00000000000E+00  0.00000000000E+00 -0.35500941705E+03  0.35223215263E+04  0.35043854309E+04 0.  0.
        3    1    3    3  502    0 -0.44772371883E+03 -0.93591680759E+02  0.15225906416E+04  0.15898107445E+04  0.10100000352E+00 0. -1.
       -3    1    3    3    0  502  0.44772371883E+03  0.93591680759E+02 -0.18776000587E+04  0.19325107818E+04  0.10100000352E+00 0.  1.
</event>
<event>
 5   0  0.1098171E-07  0.3516445E+04  0.7818609E-02  0.8109904E-01
       -1   -1    0    0    0  501  0.00000000000E+00  0.00000000000E+00  0.17810085000E+04  0.17810085000E+04  0.50400001928E-02 0. -1.
        1   -1    0    0  501    0  0.00000000000E+00  0.00000000000E+00 -0.17357281634E+04  0.17357281634E+04  0.50400001928E-02 0.  1.
    10030    2    1    2    0    0  0.00000000000E+00  0.00000000000E+00  0.45280336594E+02  0.35167366634E+04  0.35164451440E+04 0.  0.
        4    1    3    3  502    0  0.10768158201E+04 -0.28190692550E+03  0.13837604099E+04  0.17758936652E+04  0.12699999809E+01 0. -1.
       -4    1    3    3    0  502 -0.10768158201E+04  0.28190692550E+03 -0.13384800733E+04  0.17408429983E+04  0.12699999809E+01 0.  1.
</event>
<event>
 5   0  0.3190185E-07  0.3487144E+04  0.7818609E-02  0.8116843E-01
       -2   -1    0    0    0  501  0.00000000000E+00  0.00000000000E+00  0.13446738235E+04  0.13446738235E+04  0.25500000920E-02 0. -1.
        2   -1    0    0  501    0  0.00000000000E+00  0.00000000000E+00 -0.22608032435E+04  0.22608032435E+04  0.25500000920E-02 0.  1.
    10030    2    1    2    0    0  0.00000000000E+00  0.00000000000E+00 -0.91612942002E+03  0.36054770671E+04  0.34871437835E+04 0.  0.
        1    1    3    3  502    0 -0.13092595952E+04  0.10722477234E+04 -0.89203025835E+03  0.19130064949E+04  0.50400001928E-02 0.  1.
       -1    1    3    3    0  502  0.13092595952E+04 -0.10722477234E+04 -0.24099161678E+02  0.16924705721E+04  0.50400001928E-02 0. -1.
</event>
<event>
 5   0  0.3119048E-07  0.3506763E+04  0.7818609E-02  0.8112189E-01
       -2   -1    0    0    0  501  0.00000000000E+00  0.00000000000E+00  0.11348974666E+04  0.11348974666E+04  0.25500000920E-02 0.  1.
        2   -1    0    0  501    0  0.00000000000E+00  0.00000000000E+00 -0.27089204552E+04  0.27089204552E+04  0.25500000920E-02 0. -1.
    10030    2    1    2    0    0  0.00000000000E+00  0.00000000000E+00 -0.15740229886E+04  0.38438179218E+04  0.35067631582E+04 0.  0.
        3    1    3    3  502    0 -0.11270053025E+04 -0.13298667375E+04 -0.99400172335E+03  0.20066703585E+04  0.10100000352E+00 0. -1.
       -3    1    3    3    0  502  0.11270053025E+04  0.13298667375E+04 -0.58002126525E+03  0.18371475634E+04  0.10100000352E+00 0.  1.
</event>
<event>
 5   0  0.1098171E-07  0.3511052E+04  0.7818609E-02  0.8111176E-01
       -1   -1    0    0    0  501  0.00000000000E+00  0.00000000000E+00  0.18745063792E+04  0.18745063792E+04  0.50400001928E-02 0. -1.
        1   -1    0    0  501    0  0.00000000000E+00  0.00000000000E+00 -0.16440975942E+04  0.16440975942E+04  0.50400001928E-02 0.  1.
    10030    2    1    2    0    0  0.00000000000E+00  0.00000000000E+00  0.23040878500E+03  0.35186039735E+04  0.35110519384E+04 0.  0.
        4    1    3    3  502    0  0.15675353825E+04 -0.66179644653E+03 -0.31784554269E+03  0.17309445728E+04  0.12699999809E+01 0.  1.
       -4    1    3    3    0  502 -0.15675353825E+04  0.66179644653E+03  0.54825432769E+03  0.17876594007E+04  0.12699999809E+01 0. -1.
</event>
<event>
 5   0  0.1033796E-07  0.3509085E+04  0.7818609E-02  0.8111640E-01
       -1   -1    0    0    0  501  0.00000000000E+00  0.00000000000E+00  0.20364449099E+04  0.20364449099E+04  0.50400001928E-02 0. -1.
        1   -1    0    0  501    0  0.00000000000E+00  0.00000000000E+00 -0.15116630857E+04  0.15116630857E+04  0.50400001928E-02 0.  1.
    10030    2    1    2    0    0  0.00000000000E+00  0.00000000000E+00  0.52478182423E+03  0.35481079957E+04  0.35090845510E+04 0.  0.
        3    1    3    3  502    0  0.10885715938E+03  0.17489525236E+04  0.35131077198E+03  0.17872056624E+04  0.10100000352E+00 0.  1.
       -3    1    3    3    0  502 -0.10885715938E+03 -0.17489525236E+04  0.17347105226E+03  0.17609023332E+04  0.10100000352E+00 0. -1.
</event>
<event>
 5   0  0.1013863E-07  0.3512346E+04  0.7818609E-02  0.8110870E-01
       -1   -1    0    0    0  501  0.00000000000E+00  0.00000000000E+00  0.18134324643E+04  0.18134324644E+04  0.50400001928E-02 0. -1.
        1   -1    0    0  501    0  0.00000000000E+00  0.00000000000E+00 -0.17007211957E+04  0.17007211957E+04  0.50400001928E-02 0.  1.
    10030    2    1    2    0    0  0.00000000000E+00  0.00000000000E+00  0.11271126866E+03  0.35141536600E+04  0.35123456715E+04 0.  0.
        2    1    3    3  502    0  0.14426657818E+04  0.61706100038E+03 -0.73277984629E+03  0.17317664794E+04  0.25500000920E-02 0.  1.
       -2    1    3    3    0  502 -0.14426657818E+04 -0.61706100038E+03  0.84549111495E+03  0.17823871806E+04  0.25500000920E-02 0. -1.
</event>
<event>
 5   0  0.3190112E-07  0.3496587E+04  0.7818609E-02  0.8114599E-01
       -2   -1    0    0    0  501  0.00000000000E+00  0.00000000000E+00  0.11527774413E+04  0.11527774413E+04  0.25500000920E-02 0.  1.
        2   -1    0    0  501    0  0.00000000000E+00  0.00000000000E+00 -0.26514486333E+04  0.26514486333E+04  0.25500000920E-02 0. -1.
    10030    2    1    2    0    0  0.00000000000E+00  0.00000000000E+00 -0.14986711920E+04  0.38042260746E+04  0.34965870052E+04 0.  0.
        5    1    3    3  502    0 -0.15523628967E+04 -0.15103634979E+01  0.12557785649E+03  0.15574417268E+04  0.46999998093E+01 0.  1.
       -5    1    3    3    0  502  0.15523628967E+04  0.15103634979E+01 -0.16242490485E+04  0.22467843479E+04  0.46999998093E+01 0. -1.
</event>
<event>
 5   0  0.1098171E-07  0.3499842E+04  0.7818609E-02  0.8113827E-01
        1   -1    0    0  501    0  0.00000000000E+00  0.00000000000E+00  0.16257189191E+04  0.16257189191E+04  0.50400001928E-02 0. -1.
       -1   -1    0    0    0  501  0.00000000000E+00  0.00000000000E+00 -0.18836123599E+04  0.18836123599E+04  0.50400001928E-02 0.  1.
    10030    2    1    2    0    0  0.00000000000E+00  0.00000000000E+00 -0.25789344082E+03  0.35093312791E+04  0.34998424249E+04 0.  0.
        4    1    3    3  502    0  0.16713074066E+04  0.33244034945E+03 -0.52806811496E+03  0.17839962389E+04  0.12699999809E+01 0.  1.
       -4    1    3    3    0  502 -0.16713074066E+04 -0.33244034945E+03  0.27017467414E+03  0.17253350402E+04  0.12699999809E+01 0. -1.
</event>
<event>
 5   0  0.1013863E-07  0.3506406E+04  0.7818609E-02  0.8112274E-01
        1   -1    0    0  501    0  0.00000000000E+00  0.00000000000E+00  0.13080950057E+04  0.13080950057E+04  0.50400001928E-02 0.  1.
       -1   -1    0    0    0  501  0.00000000000E+00  0.00000000000E+00 -0.23497681302E+04  0.23497681302E+04  0.50400001928E-02 0. -1.
    10030    2    1    2    0    0  0.00000000000E+00  0.00000000000E+00 -0.10416731245E+04  0.36578631360E+04  0.35064055418E+04 0.  0.
        5    1    3    3  502    0  0.24027361197E+03  0.14831686474E+04 -0.14632848775E+04  0.20973186139E+04  0.46999998093E+01 0. -1.
       -5    1    3    3    0  502 -0.24027361197E+03 -0.14831686474E+04  0.42161175304E+03  0.15605445221E+04  0.46999998093E+01 0.  1.
</event>
<event>
 5   0  0.1013863E-07  0.3515305E+04  0.7818609E-02  0.8110172E-01
       -1   -1    0    0    0  501  0.00000000000E+00  0.00000000000E+00  0.14965414721E+04  0.14965414721E+04  0.50400001928E-02 0. -1.
        1   -1    0    0  501    0  0.00000000000E+00  0.00000000000E+00 -0.20643217667E+04  0.20643217667E+04  0.50400001928E-02 0.  1.
    10030    2    1    2    0    0  0.00000000000E+00  0.00000000000E+00 -0.56778029465E+03  0.35608632388E+04  0.35153054693E+04 0.  0.
        2    1    3    3  502    0 -0.93602311840E+03  0.77821583630E+03 -0.15682273353E+04  0.19852194189E+04  0.25500000920E-02 0.  1.
       -2    1    3    3    0  502  0.93602311840E+03 -0.77821583630E+03  0.10004470406E+04  0.15756438199E+04  0.25500000920E-02 0. -1.
</event>
<event>
 5   0  0.1013863E-07  0.3489260E+04  0.7818609E-02  0.8116340E-01
       -1   -1    0    0    0  501  0.00000000000E+00  0.00000000000E+00  0.17318121312E+04  0.17318121312E+04  0.50400001928E-02 0.  1.
        1   -1    0    0  501    0  0.00000000000E+00  0.00000000000E+00 -0.17575426535E+04  0.17575426535E+04  0.50400001928E-02 0. -1.
    10030    2    1    2    0    0  0.00000000000E+00  0.00000000000E+00 -0.25730522299E+02  0.34893547848E+04  0.34892599150E+04 0.  0.
        5    1    3    3  502    0  0.93720505391E+03  0.50163119311E+03 -0.13962771658E+04  0.17548786797E+04  0.46999998093E+01 0. -1.
       -5    1    3    3    0  502 -0.93720505391E+03 -0.50163119311E+03  0.13705466435E+04  0.17344761050E+04  0.46999998093E+01 0.  1.
</event>
<event>
 5   0  0.3219205E-07  0.3504083E+04  0.7818609E-02  0.8112823E-01
        2   -1    0    0  501    0  0.00000000000E+00  0.00000000000E+00  0.21617606878E+04  0.21617606878E+04  0.25500000920E-02 0.  1.
       -2   -1    0    0    0  501  0.00000000000E+00  0.00000000000E+00 -0.14199763511E+04  0.14199763511E+04  0.25500000920E-02 0. -1.
    10030    2    1    2    0    0  0.00000000000E+00  0.00000000000E+00  0.74178433673E+03  0.35817370388E+04  0.35040827920E+04 0.  0.
        2    1    3    3  502    0 -0.57682010320E+03 -0.94239121338E+03 -0.10189561592E+04  0.15030283713E+04  0.25500000920E-02 0. -1.
       -2    1    3    3    0  502  0.57682010320E+03  0.94239121338E+03  0.17607404959E+04  0.20787086676E+04  0.25500000920E-02 0.  1.
</event>
<event>
 5   0  0.2180451E-07  0.3437091E+04  0.7818609E-02  0.8128862E-01
       -2   -1    0    0    0  501  0.00000000000E+00  0.00000000000E+00  0.14243390763E+04  0.14243390763E+04  0.25500000920E-02 0. -1.
        2   -1    0    0  501    0  0.00000000000E+00  0.00000000000E+00 -0.20735224477E+04  0.20735224477E+04  0.25500000920E-02 0.  1.
    10030    2    1    2    0    0  0.00000000000E+00  0.00000000000E+00 -0.64918337135E+03  0.34978615240E+04  0.34370912399E+04 0.  0.
        4    1    3    3  502    0  0.44457362671E+03 -0.99094777565E+03 -0.16799705907E+04  0.20004814426E+04  0.12699999809E+01 0.  1.
       -4    1    3    3    0  502 -0.44457362671E+03  0.99094777565E+03  0.10307872194E+04  0.14973800814E+04  0.12699999809E+01 0. -1.
</event>
<event>
 5   0  0.3190185E-07  0.3510852E+04  0.7818609E-02  0.8111223E-01
       -2   -1    0    0    0  501  0.00000000000E+00  0.00000000000E+00  0.15582955113E+04  0.15582955113E+04  0.25500000920E-02 0.  1.
        2   -1    0    0  501    0  0.00000000000E+00  0.00000000000E+00 -0.19774942002E+04  0.19774942002E+04  0.25500000920E-02 0. -1.
    10030    2    1    2    0    0  0.00000000000E+00  0.00000000000E+00 -0.41919868885E+03  0.35357897115E+04  0.35108519398E+04 0.  0.
        1    1    3    3  502    0  0.93624896606E+03  0.38421878269E+03 -0.16541285576E+04  0.19391563847E+04  0.50400001928E-02 0. -1.
       -1    1    3    3    0  502 -0.93624896606E+03 -0.38421878269E+03  0.12349298687E+04  0.15966333268E+04  0.50400001928E-02 0.  1.
</event>
<event>
 5   0  0.1098171E-07  0.3501214E+04  0.7818609E-02  0.8113502E-01
       -1   -1    0    0    0  501  0.00000000000E+00  0.00000000000E+00  0.22998707241E+04  0.22998707241E+04  0.50400001928E-02 0. -1.
        1   -1    0    0  501    0  0.00000000000E+00  0.00000000000E+00 -0.13325207004E+04  0.13325207004E+04  0.50400001928E-02 0.  1.
    10030    2    1    2    0    0  0.00000000000E+00  0.00000000000E+00  0.96735002371E+03  0.36323914245E+04  0.35012142739E+04 0.  0.
        4    1    3    3  502    0  0.61367569701E+03  0.14570277633E+04  0.12635680737E+04  0.20238907219E+04  0.12699999809E+01 0.  1.
       -4    1    3    3    0  502 -0.61367569701E+03 -0.14570277633E+04 -0.29621805004E+03  0.16085007026E+04  0.12699999809E+01 0. -1.
</event>
<event>
 5   0  0.1033796E-07  0.3484377E+04  0.7818609E-02  0.8117502E-01
        1   -1    0    0  501    0  0.00000000000E+00  0.00000000000E+00  0.13661613938E+04  0.13661613938E+04  0.50400001928E-02 0.  1.
       -1   -1    0    0    0  501  0.00000000000E+00  0.00000000000E+00 -0.22217148393E+04  0.22217148393E+04  0.50400001928E-02 0. -1.
    10030    2    1    2    0    0  0.00000000000E+00  0.00000000000E+00 -0.85555344545E+03  0.35878762331E+04  0.34843771562E+04 0.  0.
        3    1    3    3  502    0 -0.54184369171E+03 -0.81605130536E+03  0.10557425682E+04  0.14401828702E+04  0.10100000352E+00 0.  1.
       -3    1    3    3    0  502  0.54184369171E+03  0.81605130536E+03 -0.19112960136E+04  0.21476933629E+04  0.10100000352E+00 0. -1.
</event>
<event>
 5   0  0.1013863E-07  0.3493883E+04  0.7818609E-02  0.8115241E-01
        1   -1    0    0  501    0  0.00000000000E+00  0.00000000000E+00  0.28450171405E+04  0.28450171405E+04  0.50400001928E-02 0.  1.
       -1   -1    0    0    0  501  0.00000000000E+00  0.00000000000E+00 -0.10726840433E+04  0.10726840433E+04  0.50400001928E-02 0. -1.
    10030    2    1    2    0    0  0.00000000000E+00  0.00000000000E+00  0.17723330972E+04  0.39177011838E+04  0.34938829343E+04 0.  0.
        5    1    3    3  502    0  0.16852692865E+04 -0.45107315020E+03  0.78473451835E+03  0.19129636455E+04  0.46999998093E+01 0.  1.
       -5    1    3    3    0  502 -0.16852692865E+04  0.45107315020E+03  0.98759857880E+03  0.20047375383E+04  0.46999998093E+01 0. -1.
</event>
<event>
 5   0  0.1013863E-07  0.3336825E+04  0.7818609E-02  0.8153588E-01
        1   -1    0    0  501    0  0.00000000000E+00  0.00000000000E+00  0.10470800372E+04  0.10470800372E+04  0.50400001928E-02 0. -1.
       -1   -1    0    0    0  501  0.00000000000E+00  0.00000000000E+00 -0.26584400607E+04  0.26584400607E+04  0.50400001928E-02 0.  1.
    10030    2    1    2    0    0  0.00000000000E+00  0.00000000000E+00 -0.16113600235E+04  0.37055200979E+04  0.33368245490E+04 0.  0.
        5    1    3    3  502    0 -0.11608300379E+04  0.11353910018E+04 -0.12313601057E+04  0.20378687160E+04  0.46999998093E+01 0. -1.
       -5    1    3    3    0  502  0.11608300379E+04 -0.11353910018E+04 -0.37999991780E+03  0.16676513819E+04  0.46999998093E+01 0.  1.
</event>
<event>
 5   0  0.3219205E-07  0.3480968E+04  0.7818609E-02  0.8118315E-01
        2   -1    0    0  501    0  0.00000000000E+00  0.00000000000E+00  0.20572813779E+04  0.20572813779E+04  0.25500000920E-02 0. -1.
       -2   -1    0    0    0  501  0.00000000000E+00  0.00000000000E+00 -0.14724701369E+04  0.14724701369E+04  0.25500000920E-02 0.  1.
    10030    2    1    2    0    0  0.00000000000E+00  0.00000000000E+00  0.58481124100E+03  0.35297515149E+04  0.34809684815E+04 0.  0.
        2    1    3    3  502    0 -0.28624405247E+03  0.16482049128E+04 -0.19471217962E+03  0.16841698029E+04  0.25500000920E-02 0.  1.
       -2    1    3    3    0  502  0.28624405247E+03 -0.16482049128E+04  0.77952342063E+03  0.18455817120E+04  0.25500000920E-02 0. -1.
</event>
<event>
 5   0  0.3219205E-07  0.3490120E+04  0.7818609E-02  0.8116135E-01
        2   -1    0    0  501    0  0.00000000000E+00  0.00000000000E+00  0.17712555925E+04  0.17712555925E+04  0.25500000920E-02 0.  1.
       -2   -1    0    0    0  501  0.00000000000E+00  0.00000000000E+00 -0.17192521488E+04  0.17192521488E+04  0.25500000920E-02 0. -1.
    10030    2    1    2    0    0  0.00000000000E+00  0.00000000000E+00  0.52003443654E+02  0.34905077413E+04  0.34901203323E+04 0.  0.
        2    1    3    3  502    0  0.82662149119E+03 -0.18677689032E+03  0.15516369756E+04  0.17679835973E+04  0.25500000920E-02 0.  1.
       -2    1    3    3    0  502 -0.82662149119E+03  0.18677689032E+03 -0.14996335319E+04  0.17225241440E+04  0.25500000920E-02 0. -1.
</event>
<event>
 5   0  0.1072381E-07  0.3504373E+04  0.7818609E-02  0.8112754E-01
        1   -1    0    0  501    0  0.00000000000E+00  0.00000000000E+00  0.29661723508E+04  0.29661723509E+04  0.50400001928E-02 0. -1.
       -1   -1    0    0    0  501  0.00000000000E+00  0.00000000000E+00 -0.10350572845E+04  0.10350572845E+04  0.50400001928E-02 0.  1.
    10030    2    1    2    0    0  0.00000000000E+00  0.00000000000E+00  0.19311150663E+04  0.40012296354E+04  0.35043734384E+04 0.  0.
        1    1    3    3  502    0  0.17322868148E+03  0.10128419284E+04 -0.65492859934E+03  0.12185189446E+04  0.50400001928E-02 0.  1.
       -1    1    3    3    0  502 -0.17322868148E+03 -0.10128419284E+04  0.25860436657E+04  0.27827106908E+04  0.50400001928E-02 0. -1.
</event>
<event>
 5   0  0.1098171E-07  0.3495476E+04  0.7818609E-02  0.8114863E-01
        1   -1    0    0  501    0  0.00000000000E+00  0.00000000000E+00  0.26179918320E+04  0.26179918320E+04  0.50400001928E-02 0. -1.
       -1   -1    0    0    0  501  0.00000000000E+00  0.00000000000E+00 -0.11667675392E+04  0.11667675392E+04  0.50400001928E-02 0.  1.
    10030    2    1    2    0    0  0.00000000000E+00  0.00000000000E+00  0.14512242928E+04  0.37847593712E+04  0.34954758689E+04 0.  0.
        4    1    3    3  502    0  0.75555962361E+03  0.15744668726E+04  0.65083119032E+03  0.18637057517E+04  0.12699999809E+01 0. -1.
       -4    1    3    3    0  502 -0.75555962361E+03 -0.15744668726E+04  0.80039310243E+03  0.19210536195E+04  0.12699999809E+01 0.  1.
</event>
<event>
 5   0  0.3190185E-07  0.3492851E+04  0.7818609E-02  0.8115486E-01
       -2   -1    0    0    0  501  0.00000000000E+00  0.00000000000E+00  0.10307660915E+04  0.10307660915E+04  0.25500000920E-02 0. -1.
        2   -1    0    0  501    0  0.00000000000E+00  0.00000000000E+00 -0.29589661614E+04  0.29589661614E+04  0.25500000920E-02 0.  1.
    10030    2    1    2    0    0  0.00000000000E+00  0.00000000000E+00 -0.19282000699E+04  0.39897322529E+04  0.34928509759E+04 0.  0.
        1    1    3    3  502    0  0.15371597431E+04  0.27173743765E+03 -0.18586413754E+04  0.24271895421E+04  0.50400001928E-02 0.  1.
       -1    1    3    3    0  502 -0.15371597431E+04 -0.27173743765E+03 -0.69558694465E+02  0.15625427107E+04  0.50400001928E-02 0. -1.
</event>
<event>
 5   0  0.3190112E-07  0.3488729E+04  0.7818609E-02  0.8116466E-01
        2   -1    0    0  501    0  0.00000000000E+00  0.00000000000E+00  0.15754706470E+04  0.15754706470E+04  0.25500000920E-02 0. -1.
       -2   -1    0    0    0  501  0.00000000000E+00  0.00000000000E+00 -0.19313636718E+04  0.19313636718E+04  0.25500000920E-02 0.  1.
    10030    2    1    2    0    0  0.00000000000E+00  0.00000000000E+00 -0.35589302478E+03  0.35068343188E+04  0.34887285785E+04 0.  0.
        5    1    3    3  502    0 -0.11899226533E+04 -0.91975144011E+03  0.71033990332E+03  0.16632689201E+04  0.46999998093E+01 0. -1.
       -5    1    3    3    0  502  0.11899226533E+04  0.91975144011E+03 -0.10662329281E+04  0.18435653987E+04  0.46999998093E+01 0.  1.
</event>
<event>
 5   0  0.1013863E-07  0.3508189E+04  0.7818609E-02  0.8111852E-01
        1   -1    0    0  501    0  0.00000000000E+00  0.00000000000E+00  0.22323962945E+04  0.22323962945E+04  0.50400001928E-02 0. -1.
       -1   -1    0    0    0  501  0.00000000000E+00  0.00000000000E+00 -0.13782709938E+04  0.13782709938E+04  0.50400001928E-02 0.  1.
    10030    2    1    2    0    0  0.00000000000E+00  0.00000000000E+00  0.85412530068E+03  0.36106672883E+04  0.35081887403E+04 0.  0.
        2    1    3    3  502    0  0.52939662144E+03 -0.40387234260E+03  0.20972646130E+04  0.22004300736E+04  0.25500000920E-02 0. -1.
       -2    1    3    3    0  502 -0.52939662144E+03  0.40387234260E+03 -0.12431393123E+04  0.14102372147E+04  0.25500000920E-02 0.  1.
</event>
<event>
 5   0  0.1013863E-07  0.3493655E+04  0.7818609E-02  0.8115295E-01
        1   -1    0    0  501    0  0.00000000000E+00  0.00000000000E+00  0.17589710254E+04  0.17589710254E+04  0.50400001928E-02 0.  1.
       -1   -1    0    0    0  501  0.00000000000E+00  0.00000000000E+00 -0.17347681218E+04  0.17347681218E+04  0.50400001928E-02 0. -1.
    10030    2    1    2    0    0  0.00000000000E+00  0.00000000000E+00  0.24202903541E+02  0.34937391472E+04  0.34936553133E+04 0.  0.
        2    1    3    3  502    0 -0.44265389759E+03  0.84698625058E+03  0.14743535820E+04  0.17569993359E+04  0.25500000920E-02 0.  1.
       -2    1    3    3    0  502  0.44265389759E+03 -0.84698625058E+03 -0.14501506785E+04  0.17367398112E+04  0.25500000920E-02 0. -1.
</event>
<event>
 5   0  0.1033796E-07  0.3474968E+04  0.7818609E-02  0.8119748E-01
        1   -1    0    0  501    0  0.00000000000E+00  0.00000000000E+00  0.18370689977E+04  0.18370689977E+04  0.50400001928E-02 0. -1.
       -1   -1    0    0    0  501  0.00000000000E+00  0.00000000000E+00 -0.16432969269E+04  0.16432969270E+04  0.50400001928E-02 0.  1.
    10030    2    1    2    0    0  0.00000000000E+00  0.00000000000E+00  0.19377207072E+03  0.34803659246E+04  0.34749675328E+04 0.  0.
        3    1    3    3  502    0 -0.68511968755E+03  0.69918129125E+03  0.15345972986E+04  0.18202286514E+04  0.10100000352E+00 0. -1.
       -3    1    3    3    0  502  0.68511968755E+03 -0.69918129125E+03 -0.13408252278E+04  0.16601372733E+04  0.10100000352E+00 0.  1.
</event>
<event>
 5   0  0.3119048E-07  0.3505118E+04  0.7818609E-02  0.8112578E-01
       -2   -1    0    0    0  501  0.00000000000E+00  0.00000000000E+00  0.98752740479E+03  0.98752740480E+03  0.25500000920E-02 0.  1.
        2   -1    0    0  501    0  0.00000000000E+00  0.00000000000E+00 -0.31102563233E+04  0.31102563233E+04  0.25500000920E-02 0. -1.
    10030    2    1    2    0    0  0.00000000000E+00  0.00000000000E+00 -0.21227289185E+04  0.40977837281E+04  0.35051181750E+04 0.  0.
        3    1    3    3  502    0 -0.95958742363E+03  0.51671943241E+03  0.54316319173E+03  0.12177164113E+04  0.10100000352E+00 0.  1.
       -3    1    3    3    0  502  0.95958742363E+03 -0.51671943241E+03 -0.26658921103E+04  0.28800673168E+04  0.10100000352E+00 0. -1.
</event>
<event>
 5   0  0.1033796E-07  0.3500053E+04  0.7818609E-02  0.8113777E-01
        1   -1    0    0  501    0  0.00000000000E+00  0.00000000000E+00  0.21918227247E+04  0.21918227247E+04  0.50400001928E-02 0. -1.
       -1   -1    0    0    0  501  0.00000000000E+00  0.00000000000E+00 -0.13972810432E+04  0.13972810432E+04  0.50400001928E-02 0.  1.
    10030    2    1    2    0    0  0.00000000000E+00  0.00000000000E+00  0.79454168153E+03  0.35891037679E+04  0.35000527672E+04 0.  0.
        3    1    3    3  502    0 -0.14318715653E+04 -0.26196723665E+03  0.13934341578E+04  0.20150786027E+04  0.10100000352E+00 0. -1.
       -3    1    3    3    0  502  0.14318715653E+04  0.26196723665E+03 -0.59889247630E+03  0.15740251653E+04  0.10100000352E+00 0.  1.
</event>
<event>
 5   0  0.1013863E-07  0.3530196E+04  0.7818609E-02  0.8106671E-01
        1   -1    0    0  501    0  0.00000000000E+00  0.00000000000E+00  0.19650982583E+04  0.19650982583E+04  0.50400001928E-02 0. -1.
       -1   -1    0    0    0  501  0.00000000000E+00  0.00000000000E+00 -0.15854527126E+04  0.15854527126E+04  0.50400001928E-02 0.  1.
    10030    2    1    2    0    0  0.00000000000E+00  0.00000000000E+00  0.37964554571E+03  0.35505509710E+04  0.35301956684E+04 0.  0.
        2    1    3    3  502    0  0.38796537417E+03  0.66269061364E+03  0.17882930588E+04  0.19461932188E+04  0.25500000920E-02 0. -1.
       -2    1    3    3    0  502 -0.38796537417E+03 -0.66269061364E+03 -0.14086475130E+04  0.16043577522E+04  0.25500000920E-02 0.  1.
</event>
<event>
 5   0  0.3190185E-07  0.3486768E+04  0.7818609E-02  0.8116933E-01
        2   -1    0    0  501    0  0.00000000000E+00  0.00000000000E+00  0.23240253459E+04  0.23240253459E+04  0.25500000920E-02 0.  1.
       -2   -1    0    0    0  501  0.00000000000E+00  0.00000000000E+00 -0.13078114570E+04  0.13078114570E+04  0.25500000920E-02 0. -1.
    10030    2    1    2    0    0  0.00000000000E+00  0.00000000000E+00  0.10162138889E+04  0.36318368029E+04  0.34867675424E+04 0.  0.
        1    1    3    3  502    0  0.76310667760E+03  0.29568572968E+03 -0.10952977593E+04  0.13672743081E+04  0.50400001928E-02 0. -1.
       -1    1    3    3    0  502 -0.76310667760E+03 -0.29568572968E+03  0.21115116482E+04  0.22645624948E+04  0.50400001928E-02 0.  1.
</event>
<event>
 5   0  0.3119048E-07  0.3506539E+04  0.7818609E-02  0.8112242E-01
        2   -1    0    0  501    0  0.00000000000E+00  0.00000000000E+00  0.20445400090E+04  0.20445400090E+04  0.25500000920E-02 0. -1.
       -2   -1    0    0    0  501  0.00000000000E+00  0.00000000000E+00 -0.15034942880E+04  0.15034942880E+04  0.25500000920E-02 0.  1.
    10030    2    1    2    0    0  0.00000000000E+00  0.00000000000E+00  0.54104572095E+03  0.35480342970E+04  0.35065391628E+04 0.  0.
        3    1    3    3  502    0 -0.53437512617E+03  0.11024846500E+04  0.15395272611E+04  0.19675297652E+04  0.10100000352E+00 0. -1.
       -3    1    3    3    0  502  0.53437512617E+03 -0.11024846500E+04 -0.99848154017E+03  0.15805045318E+04  0.10100000352E+00 0.  1.
</event>
<event>
 5   0  0.3190112E-07  0.3497716E+04  0.7818609E-02  0.8114331E-01
        2   -1    0    0  501    0  0.00000000000E+00  0.00000000000E+00  0.25194178801E+04  0.25194178801E+04  0.25500000920E-02 0.  1.
       -2   -1    0    0    0  501  0.00000000000E+00  0.00000000000E+00 -0.12139724568E+04  0.12139724568E+04  0.25500000920E-02 0. -1.
    10030    2    1    2    0    0  0.00000000000E+00  0.00000000000E+00  0.13054454233E+04  0.37333903369E+04  0.34977157767E+04 0.  0.
        5    1    3    3  502    0 -0.58615763895E+03  0.32685833663E+03 -0.10710423005E+04  0.12639504933E+04  0.46999998093E+01 0. -1.
       -5    1    3    3    0  502  0.58615763895E+03 -0.32685833663E+03  0.23764877238E+04  0.24694398437E+04  0.46999998093E+01 0.  1.
</event>
<event>
 5   0  0.3190112E-07  0.3542560E+04  0.7818609E-02  0.8103777E-01
       -2   -1    0    0    0  501  0.00000000000E+00  0.00000000000E+00  0.11934260510E+04  0.11934260510E+04  0.25500000920E-02 0.  1.
        2   -1    0    0  501    0  0.00000000000E+00  0.00000000000E+00 -0.26289287641E+04  0.26289287641E+04  0.25500000920E-02 0. -1.
    10030    2    1    2    0    0  0.00000000000E+00  0.00000000000E+00 -0.14355027132E+04  0.38223548151E+04  0.35425595680E+04 0.  0.
        5    1    3    3  502    0  0.10462421167E+04 -0.13287634758E+04 -0.12858070249E+04  0.21245132941E+04  0.46999998093E+01 0. -1.
       -5    1    3    3    0  502 -0.10462421167E+04  0.13287634758E+04 -0.14969568823E+03  0.16978415210E+04  0.46999998093E+01 0.  1.
</event>
<event>
 5   0  0.3219205E-07  0.3531959E+04  0.7818609E-02  0.8106258E-01
       -2   -1    0    0    0  501  0.00000000000E+00  0.00000000000E+00  0.22808870308E+04  0.22808870308E+04  0.25500000920E-02 0.  1.
        2   -1    0    0  501    0  0.00000000000E+00  0.00000000000E+00 -0.13673117422E+04  0.13673117422E+04  0.25500000920E-02 0. -1.
    10030    2    1    2    0    0  0.00000000000E+00  0.00000000000E+00  0.91357528855E+03  0.36481987730E+04  0.35319590144E+04 0.  0.
        2    1    3    3  502    0 -0.13743459297E+04  0.47702533965E+03 -0.57731228102E+03  0.15651419677E+04  0.25500000920E-02 0. -1.
       -2    1    3    3    0  502  0.13743459297E+04 -0.47702533965E+03  0.14908875696E+04  0.20830568053E+04  0.25500000920E-02 0.  1.
</event>
<event>
 5   0  0.2180451E-07  0.3507032E+04  0.7818609E-02  0.8112125E-01
        2   -1    0    0  501    0  0.00000000000E+00  0.00000000000E+00  0.23421417468E+04  0.23421417468E+04  0.25500000920E-02 0.  1.
       -2   -1    0    0    0  501  0.00000000000E+00  0.00000000000E+00 -0.13128235721E+04  0.13128235721E+04  0.25500000920E-02 0. -1.
    10030    2    1    2    0    0  0.00000000000E+00  0.00000000000E+00  0.10293181747E+04  0.36549653189E+04  0.35070323034E+04 0.  0.
        4    1    3    3  502    0 -0.26643019842E+03  0.10509959903E+04  0.19509201256E+04  0.22319651815E+04  0.12699999809E+01 0.  1.
       -4    1    3    3    0  502  0.26643019842E+03 -0.10509959903E+04 -0.92160195089E+03  0.14230001374E+04  0.12699999809E+01 0. -1.
</event>
<event>
 5   0  0.3119048E-07  0.3502734E+04  0.7818609E-02  0.8113142E-01
        2   -1    0    0  501    0  0.00000000000E+00  0.00000000000E+00  0.22969302164E+04  0.22969302164E+04  0.25500000920E-02 0. -1.
       -2   -1    0    0    0  501  0.00000000000E+00  0.00000000000E+00 -0.13353851767E+04  0.13353851768E+04  0.25500000920E-02 0.  1.
    10030    2    1    2    0    0  0.00000000000E+00  0.00000000000E+00  0.96154503964E+03  0.36323153931E+04  0.35027341110E+04 0.  0.
        3    1    3    3  502    0 -0.16564481134E+03  0.16358915499E+04 -0.14461947871E+03  0.16506041835E+04  0.10100000352E+00 0.  1.
       -3    1    3    3    0  502  0.16564481134E+03 -0.16358915499E+04  0.11061645184E+04  0.19817112097E+04  0.10100000352E+00 0. -1.
</event>
<event>
 5   0  0.3119048E-07  0.3500967E+04  0.7818609E-02  0.8113561E-01
       -2   -1    0    0    0  501  0.00000000000E+00  0.00000000000E+00  0.11495139460E+04  0.11495139460E+04  0.25500000920E-02 0.  1.
        2   -1    0    0  501    0  0.00000000000E+00  0.00000000000E+00 -0.26656421559E+04  0.26656421559E+04  0.25500000920E-02 0. -1.
    10030    2    1    2    0    0  0.00000000000E+00  0.00000000000E+00 -0.15161282100E+04  0.38151561019E+04  0.35009671996E+04 0.  0.
        3    1    3    3  502    0  0.51929979050E+03  0.41710996922E+03  0.10060214852E+04  0.12065372923E+04  0.10100000352E+00 0.  1.
       -3    1    3    3    0  502 -0.51929979050E+03 -0.41710996922E+03 -0.25221496952E+04  0.26086188096E+04  0.10100000352E+00 0. -1.
</event>
<event>
 5   0  0.2180451E-07  0.3494959E+04  0.7818609E-02  0.8114986E-01
        2   -1    0    0  501    0  0.00000000000E+00  0.00000000000E+00  0.20201040394E+04  0.20201040394E+04  0.25500000920E-02 0. -1.
       -2   -1    0    0    0  501  0.00000000000E+00  0.00000000000E+00 -0.15116471099E+04  0.15116471099E+04  0.25500000920E-02 0.  1.
    10030    2    1    2    0    0  0.00000000000E+00  0.00000000000E+00  0.50845692952E+03  0.35317511493E+04  0.34949589027E+04 0.  0.
        4    1    3    3  502    0  0.30462627439E+03 -0.10525583618E+04  0.16298105112E+04  0.19639145061E+04  0.12699999809E+01 0. -1.
       -4    1    3    3    0  502 -0.30462627439E+03  0.10525583618E+04 -0.11213535816E+04  0.15678366433E+04  0.12699999809E+01 0.  1.
</event>
<event>
 5   0  0.1013863E-07  0.3500682E+04  0.7818609E-02  0.8113628E-01
       -1   -1    0    0    0  501  0.00000000000E+00  0.00000000000E+00  0.11440720063E+04  0.11440720063E+04  0.50400001928E-02 0.  1.
        1   -1    0    0  501    0  0.00000000000E+00  0.00000000000E+00 -0.26778851450E+04  0.26778851450E+04  0.50400001928E-02 0. -1.
    10030    2    1    2    0    0  0.00000000000E+00  0.00000000000E+00 -0.15338131387E+04  0.38219571514E+04  0.35006818939E+04 0.  0.
        5    1    3    3  502    0  0.48682128467E+03 -0.61587062759E+03 -0.24748907597E+04  0.25964202193E+04  0.46999998093E+01 0. -1.
       -5    1    3    3    0  502 -0.48682128467E+03  0.61587062759E+03  0.94107762096E+03  0.12255369320E+04  0.46999998093E+01 0.  1.
</event>
<event>
 5   0  0.3190185E-07  0.3506151E+04  0.7818609E-02  0.8112334E-01
       -2   -1    0    0    0  501  0.00000000000E+00  0.00000000000E+00  0.28677024063E+04  0.28677024063E+04  0.25500000920E-02 0.  1.
        2   -1    0    0  501    0  0.00000000000E+00  0.00000000000E+00 -0.10716848295E+04  0.10716848295E+04  0.25500000920E-02 0. -1.
    10030    2    1    2    0    0  0.00000000000E+00  0.00000000000E+00  0.17960175768E+04  0.39393872358E+04  0.35061506894E+04 0.  0.
        1    1    3    3  502    0  0.18614057842E+03  0.16279880056E+04  0.19789190317E+03  0.16505012774E+04  0.50400001928E-02 0. -1.
       -1    1    3    3    0  502 -0.18614057842E+03 -0.16279880056E+04  0.15981256736E+04  0.22888859583E+04  0.50400001928E-02 0.  1.
</event>
<event>
 5   0  0.3190112E-07  0.3445140E+04  0.7818609E-02  0.8126916E-01
       -2   -1    0    0    0  501  0.00000000000E+00  0.00000000000E+00  0.13600495925E+04  0.13600495925E+04  0.25500000920E-02 0.  1.
        2   -1    0    0  501    0  0.00000000000E+00  0.00000000000E+00 -0.21817199981E+04  0.21817199981E+04  0.25500000920E-02 0. -1.
    10030    2    1    2    0    0  0.00000000000E+00  0.00000000000E+00 -0.82167040560E+03  0.35417695905E+04  0.34451399938E+04 0.  0.
        5    1    3    3  502    0 -0.40146374556E+03  0.10883012603E+04  0.89832360766E+03  0.14671673954E+04  0.46999998093E+01 0.  1.
       -5    1    3    3    0  502  0.40146374556E+03 -0.10883012603E+04 -0.17199940133E+04  0.20746021951E+04  0.46999998093E+01 0. -1.
</event>
<event>
 5   0  0.3119048E-07  0.3506252E+04  0.7818609E-02  0.8112310E-01
        2   -1    0    0  501    0  0.00000000000E+00  0.00000000000E+00  0.29258125134E+04  0.29258125134E+04  0.25500000920E-02 0.  1.
       -2   -1    0    0    0  501  0.00000000000E+00  0.00000000000E+00 -0.10504603927E+04  0.10504603927E+04  0.25500000920E-02 0. -1.
    10030    2    1    2    0    0  0.00000000000E+00  0.00000000000E+00  0.18753521207E+04  0.39762729060E+04  0.35062516519E+04 0.  0.
        3    1    3    3  502    0  0.28732516428E+03  0.17237037812E+04  0.77834402268E+03  0.19129897813E+04  0.10100000352E+00 0. -1.
       -3    1    3    3    0  502 -0.28732516428E+03 -0.17237037812E+04  0.10970080980E+04  0.20632831247E+04  0.10100000352E+00 0.  1.
</event>
<event>
 5   0  0.1098171E-07  0.3504157E+04  0.7818609E-02  0.8112805E-01
       -1   -1    0    0    0  501  0.00000000000E+00  0.00000000000E+00  0.10737800482E+04  0.10737800483E+04  0.50400001928E-02 0.  1.
        1   -1    0    0  501    0  0.00000000000E+00  0.00000000000E+00 -0.28588534721E+04  0.28588534721E+04  0.50400001928E-02 0. -1.
    10030    2    1    2    0    0  0.00000000000E+00  0.00000000000E+00 -0.17850734239E+04  0.39326335204E+04  0.35041574275E+04 0.  0.
        4    1    3    3  502    0 -0.62446081190E+03 -0.71021135160E+03  0.76274569264E+03  0.12149625813E+04  0.12699999809E+01 0.  1.
       -4    1    3    3    0  502  0.62446081190E+03  0.71021135160E+03 -0.25478191165E+04  0.27176709390E+04  0.12699999809E+01 0. -1.
</event>
<event>
 5   0  0.1072381E-07  0.3477541E+04  0.7818609E-02  0.8119133E-01
        1   -1    0    0  501    0  0.00000000000E+00  0.00000000000E+00  0.21094141301E+04  0.21094141301E+04  0.50400001928E-02 0.  1.
       -1   -1    0    0    0  501  0.00000000000E+00  0.00000000000E+00 -0.14332527063E+04  0.14332527063E+04  0.50400001928E-02 0. -1.
    10030    2    1    2    0    0  0.00000000000E+00  0.00000000000E+00  0.67616142378E+03  0.35426668364E+04  0.34775413790E+04 0.  0.
        1    1    3    3  502    0  0.18707932885E+03 -0.55076405045E+03  0.20073593666E+04  0.20899357266E+04  0.50400001928E-02 0.  1.
       -1    1    3    3    0  502 -0.18707932885E+03  0.55076405045E+03 -0.13311979428E+04  0.14527311098E+04  0.50400001928E-02 0. -1.
</event>
<event>
 5   0  0.1013863E-07  0.3493811E+04  0.7818609E-02  0.8115258E-01
       -1   -1    0    0    0  501  0.00000000000E+00  0.00000000000E+00  0.14728100800E+04  0.14728100800E+04  0.50400001928E-02 0.  1.
        1   -1    0    0  501    0  0.00000000000E+00  0.00000000000E+00 -0.20720107850E+04  0.20720107850E+04  0.50400001928E-02 0. -1.
    10030    2    1    2    0    0  0.00000000000E+00  0.00000000000E+00 -0.59920070495E+03  0.35448208650E+04  0.34938107391E+04 0.  0.
        5    1    3    3  502    0  0.12404401108E+03 -0.12064674942E+04 -0.15752176709E+04  0.19880350933E+04  0.46999998093E+01 0. -1.
       -5    1    3    3    0  502 -0.12404401108E+03  0.12064674942E+04  0.97601696599E+03  0.15567857718E+04  0.46999998093E+01 0.  1.
</event>
<event>
 5   0  0.2180451E-07  0.3481622E+04  0.7818609E-02  0.8118159E-01
        2   -1    0    0  501    0  0.00000000000E+00  0.00000000000E+00  0.25365182935E+04  0.25365182935E+04  0.25500000920E-02 0.  1.
       -2   -1    0    0    0  501  0.00000000000E+00  0.00000000000E+00 -0.11947172999E+04  0.11947172999E+04  0.25500000920E-02 0. -1.
    10030    2    1    2    0    0  0.00000000000E+00  0.00000000000E+00  0.13418009936E+04  0.37312355933E+04  0.34816216260E+04 0.  0.
        4    1    3    3  502    0 -0.11243754443E+04 -0.24374070749E+03  0.20710076441E+04  0.23691145913E+04  0.12699999809E+01 0.  1.
       -4    1    3    3    0  502  0.11243754443E+04  0.24374070749E+03 -0.72920665044E+03  0.13621210020E+04  0.12699999809E+01 0. -1.
</event>
<event>
 5   0  0.1013863E-07  0.3508615E+04  0.7818609E-02  0.8111751E-01
        1   -1    0    0  501    0  0.00000000000E+00  0.00000000000E+00  0.22718201802E+04  0.22718201802E+04  0.50400001928E-02 0.  1.
       -1   -1    0    0    0  501  0.00000000000E+00  0.00000000000E+00 -0.13546823158E+04  0.13546823158E+04  0.50400001928E-02 0. -1.
    10030    2    1    2    0    0  0.00000000000E+00  0.00000000000E+00  0.91713786437E+03  0.36265024960E+04  0.35086148964E+04 0.  0.
        2    1    3    3  502    0  0.11936969947E+04 -0.12827196978E+04  0.37018388098E+03  0.17908987811E+04  0.25500000920E-02 0. -1.
       -2    1    3    3    0  502 -0.11936969947E+04  0.12827196978E+04  0.54695398338E+03  0.18356037149E+04  0.25500000920E-02 0.  1.
</event>
<event>
 5   0  0.3219205E-07  0.3286224E+04  0.7818609E-02  0.8166410E-01
       -2   -1    0    0    0  501  0.00000000000E+00  0.00000000000E+00  0.13293747157E+04  0.13293747157E+04  0.25500000920E-02 0. -1.
        2   -1    0    0  501    0  0.00000000000E+00  0.00000000000E+00 -0.20308920645E+04  0.20308920645E+04  0.25500000920E-02 0.  1.
    10030    2    1    2    0    0  0.00000000000E+00  0.00000000000E+00 -0.70151734880E+03  0.33602667802E+04  0.32862237056E+04 0.  0.
        2    1    3    3  502    0 -0.89568055878E+02 -0.34374797679E+03 -0.19911588688E+04  0.20225970308E+04  0.25500000920E-02 0.  1.
       -2    1    3    3    0  502  0.89568055878E+02  0.34374797679E+03  0.12896415200E+04  0.13376697494E+04  0.25500000920E-02 0. -1.
</event>
<event>
 5   0  0.3190185E-07  0.3286344E+04  0.7818609E-02  0.8166379E-01
       -2   -1    0    0    0  501  0.00000000000E+00  0.00000000000E+00  0.13336324625E+04  0.13336324625E+04  0.25500000920E-02 0.  1.
        2   -1    0    0  501    0  0.00000000000E+00  0.00000000000E+00 -0.20245568990E+04  0.20245568990E+04  0.25500000920E-02 0. -1.
    10030    2    1    2    0    0  0.00000000000E+00  0.00000000000E+00 -0.69092443646E+03  0.33581893615E+04  0.32863443537E+04 0.  0.
        1    1    3    3  502    0 -0.58902756642E+03  0.15334636428E+04 -0.30522389348E+03  0.16708159213E+04  0.50400001928E-02 0. -1.
       -1    1    3    3    0  502  0.58902756642E+03 -0.15334636428E+04 -0.38570054298E+03  0.16873734402E+04  0.50400001928E-02 0.  1.
</event>
<event>
 5   0  0.3190112E-07  0.3501133E+04  0.7818609E-02  0.8113521E-01
       -2   -1    0    0    0  501  0.00000000000E+00  0.00000000000E+00  0.21391246704E+04  0.21391246704E+04  0.25500000920E-02 0.  1.
        2   -1    0    0  501    0  0.00000000000E+00  0.00000000000E+00 -0.14325877600E+04  0.14325877600E+04  0.25500000920E-02 0. -1.
    10030    2    1    2    0    0  0.00000000000E+00  0.00000000000E+00  0.70653691036E+03  0.35717124304E+04  0.35011334279E+04 0.  0.
        5    1    3    3  502    0 -0.10243243614E+04  0.13726604668E+04  0.72253860618E+03  0.18589032470E+04  0.46999998093E+01 0.  1.
       -5    1    3    3    0  502  0.10243243614E+04 -0.13726604668E+04 -0.16001695817E+02  0.17128091834E+04  0.46999998093E+01 0. -1.
</event>
<event>
 5   0  0.3190112E-07  0.3503523E+04  0.7818609E-02  0.8112956E-01
       -2   -1    0    0    0  501  0.00000000000E+00  0.00000000000E+00  0.12668781936E+04  0.12668781936E+04  0.25500000920E-02 0.  1.
        2   -1    0    0  501    0  0.00000000000E+00  0.00000000000E+00 -0.24222282399E+04  0.24222282399E+04  0.25500000920E-02 0. -1.
    10030    2    1    2    0    0  0.00000000000E+00  0.00000000000E+00 -0.11553500463E+04  0.36891064335E+04  0.35035228768E+04 0.  0.
        5    1    3    3  502    0 -0.98304149771E+02 -0.19335762484E+03  0.12526759156E+04  0.12713260465E+04  0.46999998093E+01 0.  1.
       -5    1    3    3    0  502  0.98304149771E+02  0.19335762484E+03 -0.24080259619E+04  0.24177803871E+04  0.46999998093E+01 0. -1.
</event>
<event>
 5   0  0.1098171E-07  0.3496462E+04  0.7818609E-02  0.8114629E-01
        1   -1    0    0  501    0  0.00000000000E+00  0.00000000000E+00  0.11842380717E+04  0.11842380717E+04  0.50400001928E-02 0. -1.
       -1   -1    0    0    0  501  0.00000000000E+00  0.00000000000E+00 -0.25808251469E+04  0.25808251469E+04  0.50400001928E-02 0.  1.
    10030    2    1    2    0    0  0.00000000000E+00  0.00000000000E+00 -0.13965870752E+04  0.37650632186E+04  0.34964618661E+04 0.  0.
        4    1    3    3  502    0 -0.99692604586E+03 -0.66730464499E+03  0.67107075441E+03  0.13745888842E+04  0.12699999809E+01 0. -1.
       -4    1    3    3    0  502  0.99692604586E+03  0.66730464499E+03 -0.20676578296E+04  0.23904743344E+04  0.12699999809E+01 0.  1.
</event>
<event>
 5   0  0.2180451E-07  0.3489522E+04  0.7818609E-02  0.8116278E-01
        2   -1    0    0  501    0  0.00000000000E+00  0.00000000000E+00  0.13340833813E+04  0.13340833813E+04  0.25500000920E-02 0.  1.
       -2   -1    0    0    0  501  0.00000000000E+00  0.00000000000E+00 -0.22818596707E+04  0.22818596707E+04  0.25500000920E-02 0. -1.
    10030    2    1    2    0    0  0.00000000000E+00  0.00000000000E+00 -0.94777628941E+03  0.36159430521E+04  0.34895220677E+04 0.  0.
        4    1    3    3  502    0 -0.10399358627E+03  0.15738309523E+04 -0.12468556918E+04  0.20105743611E+04  0.12699999809E+01 0. -1.
       -4    1    3    3    0  502  0.10399358627E+03 -0.15738309523E+04  0.29907940239E+03  0.16053686910E+04  0.12699999809E+01 0.  1.
</event>
<event>
 5   0  0.3190185E-07  0.3505708E+04  0.7818609E-02  0.8112439E-01
       -2   -1    0    0    0  501  0.00000000000E+00  0.00000000000E+00  0.25122310051E+04  0.25122310051E+04  0.25500000920E-02 0. -1.
        2   -1    0    0  501    0  0.00000000000E+00  0.00000000000E+00 -0.12230150558E+04  0.12230150558E+04  0.25500000920E-02 0.  1.
    10030    2    1    2    0    0  0.00000000000E+00  0.00000000000E+00  0.12892159493E+04  0.37352460609E+04  0.35057075422E+04 0.  0.
        1    1    3    3  502    0 -0.37568261825E+02 -0.38857921080E+03  0.24653220039E+04  0.24960404164E+04  0.50400001928E-02 0. -1.
       -1    1    3    3    0  502  0.37568261825E+02  0.38857921080E+03 -0.11761060547E+04  0.12392056444E+04  0.50400001928E-02 0.  1.
</event>
<event>
 5   0  0.1072381E-07  0.3507997E+04  0.7818609E-02  0.8111897E-01
        1   -1    0    0  501    0  0.00000000000E+00  0.00000000000E+00  0.15273539360E+04  0.15273539360E+04  0.50400001928E-02 0. -1.
       -1   -1    0    0    0  501  0.00000000000E+00  0.00000000000E+00 -0.20142747764E+04  0.20142747764E+04  0.50400001928E-02 0.  1.
    10030    2    1    2    0    0  0.00000000000E+00  0.00000000000E+00 -0.48692084041E+03  0.35416287123E+04  0.35079968688E+04 0.  0.
        1    1    3    3  502    0 -0.11724300765E+04 -0.37768015666E+02  0.10730706226E+04  0.15898110795E+04  0.50400001928E-02 0. -1.
       -1    1    3    3    0  502  0.11724300765E+04  0.37768015666E+02 -0.15599914630E+04  0.19518176329E+04  0.50400001928E-02 0.  1.
</event>
<event>
 5   0  0.1072381E-07  0.3433485E+04  0.7818609E-02  0.8129737E-01
       -1   -1    0    0    0  501  0.00000000000E+00  0.00000000000E+00  0.16118505278E+04  0.16118505278E+04  0.50400001928E-02 0. -1.
        1   -1    0    0  501    0  0.00000000000E+00  0.00000000000E+00 -0.18284598688E+04  0.18284598689E+04  0.50400001928E-02 0.  1.
    10030    2    1    2    0    0  0.00000000000E+00  0.00000000000E+00 -0.21660934106E+03  0.34403103967E+04  0.34334845301E+04 0.  0.
        1    1    3    3  502    0  0.74057850961E+03 -0.13258851357E+04 -0.91038096238E+03  0.17706556465E+04  0.50400001928E-02 0.  1.
       -1    1    3    3    0  502 -0.74057850961E+03  0.13258851357E+04  0.69377162132E+03  0.16696547501E+04  0.50400001928E-02 0. -1.
</event>
<event>
 5   0  0.1013863E-07  0.3437230E+04  0.7818609E-02  0.8128829E-01
        1   -1    0    0  501    0  0.00000000000E+00  0.00000000000E+00  0.17679573851E+04  0.17679573851E+04  0.50400001928E-02 0. -1.
       -1   -1    0    0    0  501  0.00000000000E+00  0.00000000000E+00 -0.16706498514E+04  0.16706498514E+04  0.50400001928E-02 0.  1.
    10030    2    1    2    0    0  0.00000000000E+00  0.00000000000E+00  0.97307533743E+02  0.34386072365E+04  0.34372301306E+04 0.  0.
        2    1    3    3  502    0  0.74116209522E+03  0.96288628124E+03 -0.11672205580E+04  0.16848961609E+04  0.25500000920E-02 0.  1.
       -2    1    3    3    0  502 -0.74116209522E+03 -0.96288628124E+03  0.12645280917E+04  0.17537110756E+04  0.25500000920E-02 0. -1.
</event>
<event>
 5   0  0.1013863E-07  0.3503878E+04  0.7818609E-02  0.8112872E-01
       -1   -1    0    0    0  501  0.00000000000E+00  0.00000000000E+00  0.15280413770E+04  0.15280413770E+04  0.50400001928E-02 0.  1.
        1   -1    0    0  501    0  0.00000000000E+00  0.00000000000E+00 -0.20086432897E+04  0.20086432897E+04  0.50400001928E-02 0. -1.
    10030    2    1    2    0    0  0.00000000000E+00  0.00000000000E+00 -0.48060191267E+03  0.35366846668E+04  0.35038778851E+04 0.  0.
        2    1    3    3  502    0 -0.14246143896E+04  0.70835964817E+02  0.78644804800E+03  0.16288168789E+04  0.25500000920E-02 0.  1.
       -2    1    3    3    0  502  0.14246143896E+04 -0.70835964817E+02 -0.12670499607E+04  0.19078677878E+04  0.25500000920E-02 0. -1.
</event>
<event>
 5   0  0.3119048E-07  0.3479748E+04  0.7818609E-02  0.8118606E-01
       -2   -1    0    0    0  501  0.00000000000E+00  0.00000000000E+00  0.17104208918E+04  0.17104208918E+04  0.25500000920E-02 0.  1.
        2   -1    0    0  501    0  0.00000000000E+00  0.00000000000E+00 -0.17698346254E+04  0.17698346254E+04  0.25500000920E-02 0. -1.
    10030    2    1    2    0    0  0.00000000000E+00  0.00000000000E+00 -0.59413733689E+02  0.34802555172E+04  0.34797483348E+04 0.  0.
        3    1    3    3  502    0  0.13306467646E+03 -0.20228559160E+03 -0.17529021101E+04  0.17695455593E+04  0.10100000352E+00 0. -1.
       -3    1    3    3    0  502 -0.13306467646E+03  0.20228559160E+03  0.16934883764E+04  0.17107099579E+04  0.10100000352E+00 0.  1.
</event>
<event>
 5   0  0.1013863E-07  0.3489888E+04  0.7818609E-02  0.8116190E-01
       -1   -1    0    0    0  501  0.00000000000E+00  0.00000000000E+00  0.16159141755E+04  0.16159141755E+04  0.50400001928E-02 0.  1.
        1   -1    0    0  501    0  0.00000000000E+00  0.00000000000E+00 -0.18842772028E+04  0.18842772028E+04  0.50400001928E-02 0. -1.
    10030    2    1    2    0    0  0.00000000000E+00  0.00000000000E+00 -0.26836302728E+03  0.35001913783E+04  0.34898883894E+04 0.  0.
        5    1    3    3  502    0 -0.16229507832E+04 -0.53352346962E+03 -0.49046484358E+03  0.17774122735E+04  0.46999998093E+01 0. -1.
       -5    1    3    3    0  502  0.16229507832E+04  0.53352346962E+03  0.22210181630E+03  0.17227791048E+04  0.46999998093E+01 0.  1.
</event>
<event>
 5   0  0.1033796E-07  0.3499969E+04  0.7818609E-02  0.8113797E-01
        1   -1    0    0  501    0  0.00000000000E+00  0.00000000000E+00  0.13559843221E+04  0.13559843221E+04  0.50400001928E-02 0.  1.
       -1   -1    0    0    0  501  0.00000000000E+00  0.00000000000E+00 -0.22584663721E+04  0.22584663721E+04  0.50400001928E-02 0. -1.
    10030    2    1    2    0    0  0.00000000000E+00  0.00000000000E+00 -0.90248204997E+03  0.36144506942E+04  0.34999685670E+04 0.  0.
        3    1    3    3  502    0 -0.77613566859E+03 -0.90349582574E+03  0.87278503266E+03  0.14766329966E+04  0.10100000352E+00 0.  1.
       -3    1    3    3    0  502  0.77613566859E+03  0.90349582574E+03 -0.17752670826E+04  0.21378176976E+04  0.10100000352E+00 0. -1.
</event>
<event>
 5   0  0.1033796E-07  0.3496918E+04  0.7818609E-02  0.8114521E-01
        1   -1    0    0  501    0  0.00000000000E+00  0.00000000000E+00  0.20600703435E+04  0.20600703435E+04  0.50400001928E-02 0.  1.
       -1   -1    0    0    0  501  0.00000000000E+00  0.00000000000E+00 -0.14839826974E+04  0.14839826974E+04  0.50400001928E-02 0. -1.
    10030    2    1    2    0    0  0.00000000000E+00  0.00000000000E+00  0.57608764615E+03  0.35440530409E+04  0.34969179259E+04 0.  0.
        3    1    3    3  502    0 -0.45754402956E+03  0.11530022000E+04 -0.96077792138E+03  0.15690299030E+04  0.10100000352E+00 0. -1.
       -3    1    3    3    0  502  0.45754402956E+03 -0.11530022000E+04  0.15368655675E+04  0.19750231379E+04  0.10100000352E+00 0.  1.
</event>
<event>
 5   0  0.1098171E-07  0.3505814E+04  0.7818609E-02  0.8112413E-01
       -1   -1    0    0    0  501  0.00000000000E+00  0.00000000000E+00  0.14537166457E+04  0.14537166457E+04  0.50400001928E-02 0.  1.
        1   -1    0    0  501    0  0.00000000000E+00  0.00000000000E+00 -0.21136739734E+04  0.21136739734E+04  0.50400001928E-02 0. -1.
    10030    2    1    2    0    0  0.00000000000E+00  0.00000000000E+00 -0.65995732775E+03  0.35673906191E+04  0.35058140503E+04 0.  0.
        4    1    3    3  502    0  0.29537203381E+03 -0.66288717425E+03 -0.19536288657E+04  0.20840660743E+04  0.12699999809E+01 0. -1.
       -4    1    3    3    0  502 -0.29537203381E+03  0.66288717425E+03  0.12936715380E+04  0.14833245448E+04  0.12699999809E+01 0.  1.
</event>
<event>
 5   0  0.3219205E-07  0.3486504E+04  0.7818609E-02  0.8116996E-01
        2   -1    0    0  501    0  0.00000000000E+00  0.00000000000E+00  0.10329528899E+04  0.10329528899E+04  0.25500000920E-02 0.  1.
       -2   -1    0    0    0  501  0.00000000000E+00  0.00000000000E+00 -0.29419805384E+04  0.29419805384E+04  0.25500000920E-02 0. -1.
    10030    2    1    2    0    0  0.00000000000E+00  0.00000000000E+00 -0.19090276485E+04  0.39749334283E+04  0.34865038645E+04 0.  0.
        2    1    3    3  502    0 -0.16882734882E+04 -0.42275207311E+03 -0.84084371228E+03  0.19328747592E+04  0.25500000920E-02 0.  1.
       -2    1    3    3    0  502  0.16882734882E+04  0.42275207311E+03 -0.10681839362E+04  0.20420586691E+04  0.25500000920E-02 0. -1.
</event>
<event>
 5   0  0.2180451E-07  0.3511817E+04  0.7818609E-02  0.8110995E-01
       -2   -1    0    0    0  501  0.00000000000E+00  0.00000000000E+00  0.14371329026E+04  0.14371329026E+04  0.25500000920E-02 0. -1.
        2   -1    0    0  501    0  0.00000000000E+00  0.00000000000E+00 -0.21453933181E+04  0.21453933181E+04  0.25500000920E-02 0.  1.
    10030    2    1    2    0    0  0.00000000000E+00  0.00000000000E+00 -0.70826041547E+03  0.35825262207E+04  0.35118173793E+04 0.  0.
        4    1    3    3  502    0 -0.54370970785E+03  0.14539411051E+03  0.13426249661E+04  0.14558169893E+04  0.12699999809E+01 0. -1.
       -4    1    3    3    0  502  0.54370970785E+03 -0.14539411051E+03 -0.20508853816E+04  0.21267092314E+04  0.12699999809E+01 0.  1.
</event>
<event>
 5   0  0.1013863E-07  0.3502154E+04  0.7818609E-02  0.8113280E-01
       -1   -1    0    0    0  501  0.00000000000E+00  0.00000000000E+00  0.15409579465E+04  0.15409579465E+04  0.50400001928E-02 0.  1.
        1   -1    0    0  501    0  0.00000000000E+00  0.00000000000E+00 -0.19898471512E+04  0.19898471512E+04  0.50400001928E-02 0. -1.
    10030    2    1    2    0    0  0.00000000000E+00  0.00000000000E+00 -0.44888920472E+03  0.35308050977E+04  0.35021540686E+04 0.  0.
        5    1    3    3  502    0 -0.14776365929E+04  0.54622540590E+03 -0.99520973396E+03  0.18633938391E+04  0.46999998093E+01 0.  1.
       -5    1    3    3    0  502  0.14776365929E+04 -0.54622540590E+03  0.54632052925E+03  0.16674112587E+04  0.46999998093E+01 0. -1.
</event>
<event>
 5   0  0.1013863E-07  0.3509498E+04  0.7818609E-02  0.8111543E-01
        1   -1    0    0  501    0  0.00000000000E+00  0.00000000000E+00  0.12034516794E+04  0.12034516794E+04  0.50400001928E-02 0. -1.
       -1   -1    0    0    0  501  0.00000000000E+00  0.00000000000E+00 -0.25585938366E+04  0.25585938366E+04  0.50400001928E-02 0.  1.
    10030    2    1    2    0    0  0.00000000000E+00  0.00000000000E+00 -0.13551421572E+04  0.37620455160E+04  0.35094979980E+04 0.  0.
        2    1    3    3  502    0  0.12197444833E+04 -0.93798217387E+03 -0.15818113808E+04  0.22067429409E+04  0.25500000920E-02 0.  1.
       -2    1    3    3    0  502 -0.12197444833E+04  0.93798217387E+03  0.22666922360E+03  0.15553025750E+04  0.25500000920E-02 0. -1.
</event>
<event>
 5   0  0.1033796E-07  0.3487136E+04  0.7818609E-02  0.8116845E-01
       -1   -1    0    0    0  501  0.00000000000E+00  0.00000000000E+00  0.10317093076E+04  0.10317093076E+04  0.50400001928E-02 0. -1.
        1   -1    0    0  501    0  0.00000000000E+00  0.00000000000E+00 -0.29465945122E+04  0.29465945122E+04  0.50400001928E-02 0.  1.
    10030    2    1    2    0    0  0.00000000000E+00  0.00000000000E+00 -0.19148852047E+04  0.39783038198E+04  0.34871357782E+04 0.  0.
        3    1    3    3  502    0  0.34662278918E+03 -0.14364597992E+04  0.98362760722E+02  0.14809589311E+04  0.10100000352E+00 0. -1.
       -3    1    3    3    0  502 -0.34662278918E+03  0.14364597992E+04 -0.20132479654E+04  0.24973448887E+04  0.10100000352E+00 0.  1.
</event>
<event>
 5   0  0.3219205E-07  0.3513043E+04  0.7818609E-02  0.8110706E-01
       -2   -1    0    0    0  501  0.00000000000E+00  0.00000000000E+00  0.16206826057E+04  0.16206826057E+04  0.25500000920E-02 0. -1.
        2   -1    0    0  501    0  0.00000000000E+00  0.00000000000E+00 -0.19037460265E+04  0.19037460265E+04  0.25500000920E-02 0.  1.
    10030    2    1    2    0    0  0.00000000000E+00  0.00000000000E+00 -0.28306342078E+03  0.35244286322E+04  0.35130431656E+04 0.  0.
        2    1    3    3  502    0  0.19998187205E+03  0.11642686842E+04  0.11626250438E+04  0.16574713604E+04  0.25500000920E-02 0. -1.
       -2    1    3    3    0  502 -0.19998187205E+03 -0.11642686842E+04 -0.14456884646E+04  0.18669572718E+04  0.25500000920E-02 0.  1.
</event>
<event>
 5   0  0.3190185E-07  0.3512499E+04  0.7818609E-02  0.8110834E-01
       -2   -1    0    0    0  501  0.00000000000E+00  0.00000000000E+00  0.13912930428E+04  0.13912930428E+04  0.25500000920E-02 0.  1.
        2   -1    0    0  501    0  0.00000000000E+00  0.00000000000E+00 -0.22169390435E+04  0.22169390435E+04  0.25500000920E-02 0. -1.
    10030    2    1    2    0    0  0.00000000000E+00  0.00000000000E+00 -0.82564600077E+03  0.36082320863E+04  0.35124987502E+04 0.  0.
        1    1    3    3  502    0 -0.58202899932E+03 -0.51880009851E+03  0.12037581177E+04  0.14342053215E+04  0.50400001928E-02 0.  1.
       -1    1    3    3    0  502  0.58202899932E+03  0.51880009851E+03 -0.20294041184E+04  0.21740267648E+04  0.50400001928E-02 0. -1.
</event>
<event>
 5   0  0.1098171E-07  0.3501523E+04  0.7818609E-02  0.8113429E-01
       -1   -1    0    0    0  501  0.00000000000E+00  0.00000000000E+00  0.17619181342E+04  0.17619181342E+04  0.50400001928E-02 0.  1.
        1   -1    0    0  501    0  0.00000000000E+00  0.00000000000E+00 -0.17396754260E+04  0.17396754260E+04  0.50400001928E-02 0. -1.
    10030    2    1    2    0    0  0.00000000000E+00  0.00000000000E+00  0.22242708241E+02  0.35015935602E+04  0.35015229148E+04 0.  0.
        4    1    3    3  502    0  0.81496025562E+03 -0.10962198233E+04  0.11062717285E+04  0.17577533585E+04  0.12699999809E+01 0.  1.
       -4    1    3    3    0  502 -0.81496025562E+03  0.10962198233E+04 -0.10840290203E+04  0.17438402017E+04  0.12699999809E+01 0. -1.
</event>
<event>
 5   0  0.3219205E-07  0.3508490E+04  0.7818609E-02  0.8111781E-01
        2   -1    0    0  501    0  0.00000000000E+00  0.00000000000E+00  0.21805336451E+04  0.21805336451E+04  0.25500000920E-02 0. -1.
       -2   -1    0    0    0  501  0.00000000000E+00  0.00000000000E+00 -0.14112947367E+04  0.14112947367E+04  0.25500000920E-02 0.  1.
    10030    2    1    2    0    0  0.00000000000E+00  0.00000000000E+00  0.76923890838E+03  0.35918283819E+04  0.35084900779E+04 0.  0.
        2    1    3    3  502    0  0.94654208273E+03 -0.30093256443E+01 -0.11274280544E+04  0.14720886483E+04  0.25500000920E-02 0.  1.
       -2    1    3    3    0  502 -0.94654208273E+03  0.30093256443E+01  0.18966669628E+04  0.21197397336E+04  0.25500000920E-02 0. -1.
</event>
<event>
 5   0  0.1013863E-07  0.3506805E+04  0.7818609E-02  0.8112179E-01
        1   -1    0    0  501    0  0.00000000000E+00  0.00000000000E+00  0.29754492016E+04  0.29754492016E+04  0.50400001928E-02 0.  1.
       -1   -1    0    0    0  501  0.00000000000E+00  0.00000000000E+00 -0.10332625725E+04  0.10332625725E+04  0.50400001928E-02 0. -1.
    10030    2    1    2    0    0  0.00000000000E+00  0.00000000000E+00  0.19421866291E+04  0.40087117741E+04  0.35068049825E+04 0.  0.
        2    1    3    3  502    0  0.51372812608E+03 -0.10711829368E+03 -0.94138687519E+03  0.10777755634E+04  0.25500000920E-02 0. -1.
       -2    1    3    3    0  502 -0.51372812608E+03  0.10711829368E+03  0.28835735043E+04  0.29309362106E+04  0.25500000920E-02 0.  1.
</event>
<event>
 5   0  0.1013863E-07  0.3456634E+04  0.7818609E-02  0.8124145E-01
        3   -1    0    0  501    0  0.00000000000E+00  0.00000000000E+00  0.19898839977E+04  0.19898840003E+04  0.10100000352E+00 0. -1.
       -3   -1    0    0    0  501  0.00000000000E+00  0.00000000000E+00 -0.15011329085E+04  0.15011329119E+04  0.10100000352E+00 0.  1.
    10030    2    1    2    0    0  0.00000000000E+00  0.00000000000E+00  0.48875108927E+03  0.34910169122E+04  0.34566344114E+04 0.  0.
        2    1    3    3  502    0  0.89361181799E+02 -0.13281395022E+04 -0.86892323936E+03  0.15896438450E+04  0.25500000920E-02 0. -1.
       -2    1    3    3    0  502 -0.89361181799E+02  0.13281395022E+04  0.13576743286E+04  0.19013730672E+04  0.25500000920E-02 0.  1.
</event>
<event>
 5   0  0.1072381E-07  0.3495478E+04  0.7818609E-02  0.8114862E-01
       -1   -1    0    0    0  501  0.00000000000E+00  0.00000000000E+00  0.28686154782E+04  0.28686154782E+04  0.50400001928E-02 0. -1.
        1   -1    0    0  501    0  0.00000000000E+00  0.00000000000E+00 -0.10648312869E+04  0.10648312870E+04  0.50400001928E-02 0.  1.
    10030    2    1    2    0    0  0.00000000000E+00  0.00000000000E+00  0.18037841913E+04  0.39334467652E+04  0.34954779424E+04 0.  0.
        1    1    3    3  502    0 -0.79621552315E+03  0.15282494136E+04  0.12301354740E+04  0.21172479104E+04  0.50400001928E-02 0. -1.
       -1    1    3    3    0  502  0.79621552315E+03 -0.15282494136E+04  0.57364871724E+03  0.18161988548E+04  0.50400001928E-02 0.  1.
</event>
<event>
 5   0  0.3190112E-07  0.3494721E+04  0.7818609E-02  0.8115042E-01
        2   -1    0    0  501    0  0.00000000000E+00  0.00000000000E+00  0.18478998818E+04  0.18478998818E+04  0.25500000920E-02 0.  1.
       -2   -1    0    0    0  501  0.00000000000E+00  0.00000000000E+00 -0.16522916220E+04  0.16522916220E+04  0.25500000920E-02 0. -1.
    10030    2    1    2    0    0  0.00000000000E+00  0.00000000000E+00  0.19560825974E+03  0.35001915038E+04  0.34947214441E+04 0.  0.
        5    1    3    3  502    0 -0.15593350593E+04 -0.23456363306E+03 -0.65616994659E+03  0.17079598982E+04  0.46999998093E+01 0.  1.
       -5    1    3    3    0  502  0.15593350593E+04  0.23456363306E+03  0.85177820633E+03  0.17922316056E+04  0.46999998093E+01 0. -1.
</event>
<event>
 5   0  0.3219205E-07  0.3530104E+04  0.7818609E-02  0.8106693E-01
       -2   -1    0    0    0  501  0.00000000000E+00  0.00000000000E+00  0.12141868261E+04  0.12141868261E+04  0.25500000920E-02 0.  1.
        2   -1    0    0  501    0  0.00000000000E+00  0.00000000000E+00 -0.25658388907E+04  0.25658388907E+04  0.25500000920E-02 0. -1.
    10030    2    1    2    0    0  0.00000000000E+00  0.00000000000E+00 -0.13516520646E+04  0.37800257169E+04  0.35301035560E+04 0.  0.
        2    1    3    3  502    0  0.42296682771E+03  0.93455313289E+03 -0.22138718302E+04  0.24399833967E+04  0.25500000920E-02 0. -1.
       -2    1    3    3    0  502 -0.42296682771E+03 -0.93455313289E+03  0.86221976560E+03  0.13400423201E+04  0.25500000920E-02 0.  1.
</event>
<event>
 5   0  0.1013863E-07  0.3538773E+04  0.7818609E-02  0.8104662E-01
        1   -1    0    0  501    0  0.00000000000E+00  0.00000000000E+00  0.19759731783E+04  0.19759731783E+04  0.50400001928E-02 0. -1.
       -1   -1    0    0    0  501  0.00000000000E+00  0.00000000000E+00 -0.15843983507E+04  0.15843983507E+04  0.50400001928E-02 0.  1.
    10030    2    1    2    0    0  0.00000000000E+00  0.00000000000E+00  0.39157482762E+03  0.35603715290E+04  0.35387730329E+04 0.  0.
        5    1    3    3  502    0  0.12415698319E+04  0.21395546229E+03  0.14457201349E+04  0.19176551791E+04  0.46999998093E+01 0. -1.
       -5    1    3    3    0  502 -0.12415698319E+04 -0.21395546229E+03 -0.10541453073E+04  0.16427163499E+04  0.46999998093E+01 0.  1.
</event>
<event>
 5   0  0.1013863E-07  0.3498011E+04  0.7818609E-02  0.8114261E-01
        1   -1    0    0  501    0  0.00000000000E+00  0.00000000000E+00  0.13149986930E+04  0.13149986930E+04  0.50400001928E-02 0.  1.
       -1   -1    0    0    0  501  0.00000000000E+00  0.00000000000E+00 -0.23262535604E+04  0.23262535604E+04  0.50400001928E-02 0. -1.
    10030    2    1    2    0    0  0.00000000000E+00  0.00000000000E+00 -0.10112548675E+04  0.36412522534E+04  0.34980110872E+04 0.  0.
        5    1    3    3  502    0  0.16618308783E+04  0.46676008011E+03 -0.79904122867E+03  0.19021135128E+04  0.46999998093E+01 0. -1.
       -5    1    3    3    0  502 -0.16618308783E+04 -0.46676008011E+03 -0.21221363878E+03  0.17391387406E+04  0.46999998093E+01 0.  1.
</event>
<event>
 5   0  0.3190112E-07  0.3500825E+04  0.7818609E-02  0.8113594E-01
        2   -1    0    0  501    0  0.00000000000E+00  0.00000000000E+00  0.15675148595E+04  0.15675148595E+04  0.25500000920E-02 0. -1.
       -2   -1    0    0    0  501  0.00000000000E+00  0.00000000000E+00 -0.19546511893E+04  0.19546511893E+04  0.25500000920E-02 0.  1.
    10030    2    1    2    0    0  0.00000000000E+00  0.00000000000E+00 -0.38713632982E+03  0.35221660489E+04  0.35008254938E+04 0.  0.
        5    1    3    3  502    0  0.68524813494E+03  0.43337790480E+03 -0.17543277880E+04  0.19326327878E+04  0.46999998093E+01 0.  1.
       -5    1    3    3    0  502 -0.68524813494E+03 -0.43337790480E+03  0.13671914581E+04  0.15895332611E+04  0.46999998093E+01 0. -1.
</event>
<event>
 5   0  0.1072381E-07  0.3497153E+04  0.7818609E-02  0.8114465E-01
       -1   -1    0    0    0  501  0.00000000000E+00  0.00000000000E+00  0.14844808841E+04  0.14844808841E+04  0.50400001928E-02 0. -1.
        1   -1    0    0  501    0  0.00000000000E+00  0.00000000000E+00 -0.20596560991E+04  0.20596560991E+04  0.50400001928E-02 0.  1.
    10030    2    1    2    0    0  0.00000000000E+00  0.00000000000E+00 -0.57517521498E+03  0.35441369833E+04  0.34971531891E+04 0.  0.
        1    1    3    3  502    0  0.25992331112E+03  0.14151699208E+04  0.71936796623E+03  0.16086504603E+04  0.50400001928E-02 0. -1.
       -1    1    3    3    0  502 -0.25992331112E+03 -0.14151699208E+04 -0.12945431812E+04  0.19354865230E+04  0.50400001928E-02 0.  1.
</event>
<event>
 5   0  0.3219205E-07  0.3495935E+04  0.7818609E-02  0.8114754E-01
       -2   -1    0    0    0  501  0.00000000000E+00  0.00000000000E+00  0.17764009097E+04  0.17764009097E+04  0.25500000920E-02 0. -1.
        2   -1    0    0  501    0  0.00000000000E+00  0.00000000000E+00 -0.17199893861E+04  0.17199893861E+04  0.25500000920E-02 0.  1.
    10030    2    1    2    0    0  0.00000000000E+00  0.00000000000E+00  0.56411523578E+02  0.34963902958E+04  0.34959351883E+04 0.  0.
        2    1    3    3  502    0 -0.11572979772E+04  0.11381809774E+03  0.13334034467E+04  0.17692534920E+04  0.25500000920E-02 0. -1.
       -2    1    3    3    0  502  0.11572979772E+04 -0.11381809774E+03 -0.12769919231E+04  0.17271368038E+04  0.25500000920E-02 0.  1.
</event>
<event>
 5   0  0.1072381E-07  0.3566309E+04  0.7818609E-02  0.8098253E-01
       -1   -1    0    0    0  501  0.00000000000E+00  0.00000000000E+00  0.14920188271E+04  0.14920188271E+04  0.50400001928E-02 0.  1.
        1   -1    0    0  501    0  0.00000000000E+00  0.00000000000E+00 -0.21310991046E+04  0.21310991046E+04  0.50400001928E-02 0. -1.
    10030    2    1    2    0    0  0.00000000000E+00  0.00000000000E+00 -0.63908027746E+03  0.36231179317E+04  0.35663090087E+04 0.  0.
        1    1    3    3  502    0 -0.75626320348E+02 -0.17422743142E+04  0.58408595033E+02  0.17448927446E+04  0.50400001928E-02 0.  1.
       -1    1    3    3    0  502  0.75626320348E+02  0.17422743142E+04 -0.69748887249E+03  0.18782251871E+04  0.50400001928E-02 0. -1.
</event>
<event>
 5   0  0.3190112E-07  0.3455470E+04  0.7818609E-02  0.8124425E-01
       -2   -1    0    0    0  501  0.00000000000E+00  0.00000000000E+00  0.10826802078E+04  0.10826802079E+04  0.25500000920E-02 0. -1.
        2   -1    0    0  501    0  0.00000000000E+00  0.00000000000E+00 -0.27571102620E+04  0.27571102620E+04  0.25500000920E-02 0.  1.
    10030    2    1    2    0    0  0.00000000000E+00  0.00000000000E+00 -0.16744300542E+04  0.38397904699E+04  0.34554702786E+04 0.  0.
        5    1    3    3  502    0 -0.60862003603E+03  0.64869089945E+03  0.80867832367E+03  0.12021651103E+04  0.46999998093E+01 0. -1.
       -5    1    3    3    0  502  0.60862003603E+03 -0.64869089945E+03 -0.24831083779E+04  0.26376253596E+04  0.46999998093E+01 0.  1.
</event>
<event>
 5   0  0.1033796E-07  0.3500116E+04  0.7818609E-02  0.8113762E-01
        1   -1    0    0  501    0  0.00000000000E+00  0.00000000000E+00  0.19414268184E+04  0.19414268184E+04  0.50400001928E-02 0. -1.
       -1   -1    0    0    0  501  0.00000000000E+00  0.00000000000E+00 -0.15775524594E+04  0.15775524594E+04  0.50400001928E-02 0.  1.
    10030    2    1    2    0    0  0.00000000000E+00  0.00000000000E+00  0.36387435901E+03  0.35189792778E+04  0.35001157993E+04 0.  0.
        3    1    3    3  502    0  0.15349520110E+03 -0.10054562506E+04  0.16137611940E+04  0.19075450846E+04  0.10100000352E+00 0. -1.
       -3    1    3    3    0  502 -0.15349520110E+03  0.10054562506E+04 -0.12498868349E+04  0.16114341932E+04  0.10100000352E+00 0.  1.
</event>
<event>
 5   0  0.1013863E-07  0.3530705E+04  0.7818609E-02  0.8106552E-01
       -1   -1    0    0    0  501  0.00000000000E+00  0.00000000000E+00  0.21116793697E+04  0.21116793697E+04  0.50400001928E-02 0.  1.
        1   -1    0    0  501    0  0.00000000000E+00  0.00000000000E+00 -0.14758253654E+04  0.14758253654E+04  0.50400001928E-02 0. -1.
    10030    2    1    2    0    0  0.00000000000E+00  0.00000000000E+00  0.63585400437E+03  0.35875047351E+04  0.35307052991E+04 0.  0.
        5    1    3    3  502    0 -0.13416936935E+04 -0.34536232919E+03 -0.79376293058E+03  0.15967149982E+04  0.46999998093E+01 0. -1.
       -5    1    3    3    0  502  0.13416936935E+04  0.34536232919E+03  0.14296169349E+04  0.19907897368E+04  0.46999998093E+01 0.  1.
</event>
<event>
 5   0  0.1013863E-07  0.3488711E+04  0.7818609E-02  0.8116471E-01
       -1   -1    0    0    0  501  0.00000000000E+00  0.00000000000E+00  0.11630124681E+04  0.11630124681E+04  0.50400001928E-02 0.  1.
        1   -1    0    0  501    0  0.00000000000E+00  0.00000000000E+00 -0.26162879158E+04  0.26162879158E+04  0.50400001928E-02 0. -1.
    10030    2    1    2    0    0  0.00000000000E+00  0.00000000000E+00 -0.14532754478E+04  0.37793003839E+04  0.34887106307E+04 0.  0.
        5    1    3    3  502    0 -0.17188118219E+03  0.85157093896E+03 -0.23652567789E+04  0.25197575132E+04  0.46999998093E+01 0. -1.
       -5    1    3    3    0  502  0.17188118219E+03 -0.85157093896E+03  0.91198133116E+03  0.12595428707E+04  0.46999998093E+01 0.  1.
</event>
<event>
 5   0  0.3219205E-07  0.3501019E+04  0.7818609E-02  0.8113549E-01
        2   -1    0    0  501    0  0.00000000000E+00  0.00000000000E+00  0.23098483388E+04  0.23098483388E+04  0.25500000920E-02 0. -1.
       -2   -1    0    0    0  501  0.00000000000E+00  0.00000000000E+00 -0.13266163947E+04  0.13266163947E+04  0.25500000920E-02 0.  1.
    10030    2    1    2    0    0  0.00000000000E+00  0.00000000000E+00  0.98323194408E+03  0.36364647335E+04  0.35010185235E+04 0.  0.
        2    1    3    3  502    0 -0.12233160778E+04  0.11123529962E+04  0.10887044332E+04  0.19796739017E+04  0.25500000920E-02 0. -1.
       -2    1    3    3    0  502  0.12233160778E+04 -0.11123529962E+04 -0.10547248910E+03  0.16567908318E+04  0.25500000920E-02 0.  1.
</event>
<event>
 5   0  0.1013863E-07  0.3539577E+04  0.7818609E-02  0.8104474E-01
        1   -1    0    0  501    0  0.00000000000E+00  0.00000000000E+00  0.20002845392E+04  0.20002845392E+04  0.50400001928E-02 0.  1.
       -1   -1    0    0    0  501  0.00000000000E+00  0.00000000000E+00 -0.15658526514E+04  0.15658526514E+04  0.50400001928E-02 0. -1.
    10030    2    1    2    0    0  0.00000000000E+00  0.00000000000E+00  0.43443188776E+03  0.35661371906E+04  0.35395767257E+04 0.  0.
        5    1    3    3  502    0  0.11372300610E+04  0.63486481081E+03  0.14244490941E+04  0.19301354490E+04  0.46999998093E+01 0.  1.
       -5    1    3    3    0  502 -0.11372300610E+04 -0.63486481081E+03 -0.99001720637E+03  0.16360017416E+04  0.46999998093E+01 0. -1.
</event>
<event>
 5   0  0.1072381E-07  0.3490992E+04  0.7818609E-02  0.8115928E-01
       -1   -1    0    0    0  501  0.00000000000E+00  0.00000000000E+00  0.11067805443E+04  0.11067805443E+04  0.50400001928E-02 0.  1.
        1   -1    0    0  501    0  0.00000000000E+00  0.00000000000E+00 -0.27528097780E+04  0.27528097780E+04  0.50400001928E-02 0. -1.
    10030    2    1    2    0    0  0.00000000000E+00  0.00000000000E+00 -0.16460292336E+04  0.38595903223E+04  0.34909920106E+04 0.  0.
        1    1    3    3  502    0  0.99883333533E+03  0.92110083135E+03 -0.20344566883E+04  0.24464481989E+04  0.50400001928E-02 0. -1.
       -1    1    3    3    0  502 -0.99883333533E+03 -0.92110083135E+03  0.38842745470E+03  0.14131421234E+04  0.50400001928E-02 0.  1.
</event>
<event>
 5   0  0.3219205E-07  0.3499682E+04  0.7818609E-02  0.8113865E-01
       -2   -1    0    0    0  501  0.00000000000E+00  0.00000000000E+00  0.16589345099E+04  0.16589345099E+04  0.25500000920E-02 0.  1.
        2   -1    0    0  501    0  0.00000000000E+00  0.00000000000E+00 -0.18457291276E+04  0.18457291276E+04  0.25500000920E-02 0. -1.
    10030    2    1    2    0    0  0.00000000000E+00  0.00000000000E+00 -0.18679461773E+03  0.35046636374E+04  0.34996821259E+04 0.  0.
        2    1    3    3  502    0  0.13160686969E+04 -0.14216780629E+03 -0.12394454699E+04  0.18134148927E+04  0.25500000920E-02 0. -1.
       -2    1    3    3    0  502 -0.13160686969E+04  0.14216780629E+03  0.10526508522E+04  0.16912487448E+04  0.25500000920E-02 0.  1.
</event>
<event>
 5   0  0.3190112E-07  0.3497734E+04  0.7818609E-02  0.8114327E-01
        2   -1    0    0  501    0  0.00000000000E+00  0.00000000000E+00  0.12604574828E+04  0.12604574828E+04  0.25500000920E-02 0.  1.
       -2   -1    0    0    0  501  0.00000000000E+00  0.00000000000E+00 -0.24265283163E+04  0.24265283163E+04  0.25500000920E-02 0. -1.
    10030    2    1    2    0    0  0.00000000000E+00  0.00000000000E+00 -0.11660708334E+04  0.36869857991E+04  0.34977339942E+04 0.  0.
        5    1    3    3  502    0 -0.30398178461E+03 -0.35952230133E+03  0.11923925746E+04  0.12819841468E+04  0.46999998093E+01 0.  1.
       -5    1    3    3    0  502  0.30398178461E+03  0.35952230133E+03 -0.23584634081E+04  0.24050016523E+04  0.46999998093E+01 0. -1.
</event>
<event>
 5   0  0.1013863E-07  0.3422382E+04  0.7818609E-02  0.8132435E-01
       -1   -1    0    0    0  501  0.00000000000E+00  0.00000000000E+00  0.10683106476E+04  0.10683106476E+04  0.50400001928E-02 0.  1.
        1   -1    0    0  501    0  0.00000000000E+00  0.00000000000E+00 -0.27409393199E+04  0.27409393199E+04  0.50400001928E-02 0. -1.
    10030    2    1    2    0    0  0.00000000000E+00  0.00000000000E+00 -0.16726286722E+04  0.38092499675E+04  0.34223820125E+04 0.  0.
        2    1    3    3  502    0  0.13586867606E+03  0.77359016729E+03 -0.25284554388E+04  0.26476383722E+04  0.25500000920E-02 0. -1.
       -2    1    3    3    0  502 -0.13586867606E+03 -0.77359016729E+03  0.85582676652E+03  0.11616115953E+04  0.25500000920E-02 0.  1.
</event>
<event>
 5   0  0.1013863E-07  0.3510409E+04  0.7818609E-02  0.8111328E-01
        1   -1    0    0  501    0  0.00000000000E+00  0.00000000000E+00  0.22035516738E+04  0.22035516738E+04  0.50400001928E-02 0. -1.
       -1   -1    0    0    0  501  0.00000000000E+00  0.00000000000E+00 -0.13980806261E+04  0.13980806262E+04  0.50400001928E-02 0.  1.
    10030    2    1    2    0    0  0.00000000000E+00  0.00000000000E+00  0.80547104769E+03  0.36016323000E+04  0.35104090382E+04 0.  0.
        2    1    3    3  502    0 -0.90078879697E+03  0.11362845785E+03 -0.11384352142E+04  0.14561478703E+04  0.25500000920E-02 0.  1.
       -2    1    3    3    0  502  0.90078879697E+03 -0.11362845785E+03  0.19439062619E+04  0.21454844297E+04  0.25500000920E-02 0. -1.
</event>
<event>
 5   0  0.1098171E-07  0.3504378E+04  0.7818609E-02  0.8112753E-01
       -1   -1    0    0    0  501  0.00000000000E+00  0.00000000000E+00  0.14749396662E+04  0.14749396662E+04  0.50400001928E-02 0. -1.
        1   -1    0    0  501    0  0.00000000000E+00  0.00000000000E+00 -0.20815540146E+04  0.20815540146E+04  0.50400001928E-02 0.  1.
    10030    2    1    2    0    0  0.00000000000E+00  0.00000000000E+00 -0.60661434845E+03  0.35564936808E+04  0.35043781665E+04 0.  0.
        4    1    3    3  502    0  0.10229260651E+04  0.46094767940E+03 -0.16691728903E+04  0.20112161118E+04  0.12699999809E+01 0.  1.
       -4    1    3    3    0  502 -0.10229260651E+04 -0.46094767940E+03  0.10625585418E+04  0.15452775691E+04  0.12699999809E+01 0. -1.
</event>
<event>
 5   0  0.1013863E-07  0.3518567E+04  0.7818609E-02  0.8109404E-01
        1   -1    0    0  501    0  0.00000000000E+00  0.00000000000E+00  0.17141527084E+04  0.17141527084E+04  0.50400001928E-02 0.  1.
       -1   -1    0    0    0  501  0.00000000000E+00  0.00000000000E+00 -0.18056024568E+04  0.18056024568E+04  0.50400001928E-02 0. -1.
    10030    2    1    2    0    0  0.00000000000E+00  0.00000000000E+00 -0.91449748429E+02  0.35197551652E+04  0.35185669478E+04 0.  0.
        5    1    3    3  502    0  0.63366790686E+03 -0.84723840058E+03 -0.14517984653E+04  0.17964099748E+04  0.46999998093E+01 0. -1.
       -5    1    3    3    0  502 -0.63366790686E+03  0.84723840058E+03  0.13603487169E+04  0.17233451904E+04  0.46999998093E+01 0.  1.
</event>
<event>
 5   0  0.1033796E-07  0.3542844E+04  0.7818609E-02  0.8103711E-01
       -1   -1    0    0    0  501  0.00000000000E+00  0.00000000000E+00  0.18491478907E+04  0.18491478907E+04  0.50400001928E-02 0.  1.
        1   -1    0    0  501    0  0.00000000000E+00  0.00000000000E+00 -0.16969630493E+04  0.16969630493E+04  0.50400001928E-02 0. -1.
    10030    2    1    2    0    0  0.00000000000E+00  0.00000000000E+00  0.15218484149E+03  0.35461109400E+04  0.35428438539E+04 0.  0.
        3    1    3    3  502    0 -0.12958142607E+04  0.11609308555E+04  0.40962723668E+03  0.17873694449E+04  0.10100000352E+00 0.  1.
       -3    1    3    3    0  502  0.12958142607E+04 -0.11609308555E+04 -0.25744239519E+03  0.17587414951E+04  0.10100000352E+00 0. -1.
</event>
<event>
 5   0  0.3119048E-07  0.3467232E+04  0.7818609E-02  0.8121600E-01
       -2   -1    0    0    0  501  0.00000000000E+00  0.00000000000E+00  0.27793615889E+04  0.27793615889E+04  0.25500000920E-02 0.  1.
        2   -1    0    0  501    0  0.00000000000E+00  0.00000000000E+00 -0.10813364188E+04  0.10813364188E+04  0.25500000920E-02 0. -1.
    10030    2    1    2    0    0  0.00000000000E+00  0.00000000000E+00  0.16980251701E+04  0.38606980078E+04  0.34672322721E+04 0.  0.
        3    1    3    3  502    0  0.94338788947E+03  0.14035415644E+04  0.12737662853E+04  0.21171656035E+04  0.10100000352E+00 0. -1.
       -3    1    3    3    0  502 -0.94338788947E+03 -0.14035415644E+04  0.42425888486E+03  0.17435324042E+04  0.10100000352E+00 0.  1.
</event>
<event>
 5   0  0.1013863E-07  0.3512322E+04  0.7818609E-02  0.8110876E-01
        1   -1    0    0  501    0  0.00000000000E+00  0.00000000000E+00  0.23847319903E+04  0.23847319903E+04  0.50400001928E-02 0. -1.
       -1   -1    0    0    0  501  0.00000000000E+00  0.00000000000E+00 -0.12932693278E+04  0.12932693278E+04  0.50400001928E-02 0.  1.
    10030    2    1    2    0    0  0.00000000000E+00  0.00000000000E+00  0.10914626625E+04  0.36780013182E+04  0.35123215902E+04 0.  0.
        5    1    3    3  502    0  0.12359795942E+04 -0.76774830104E+03 -0.48401407827E+03  0.15334192932E+04  0.46999998093E+01 0.  1.
       -5    1    3    3    0  502 -0.12359795942E+04  0.76774830104E+03  0.15754767408E+04  0.21445820249E+04  0.46999998093E+01 0. -1.
</event>
<event>
 5   0  0.2180451E-07  0.3494754E+04  0.7818609E-02  0.8115034E-01
       -2   -1    0    0    0  501  0.00000000000E+00  0.00000000000E+00  0.19453135217E+04  0.19453135217E+04  0.25500000920E-02 0. -1.
        2   -1    0    0  501    0  0.00000000000E+00  0.00000000000E+00 -0.15695802121E+04  0.15695802121E+04  0.25500000920E-02 0.  1.
    10030    2    1    2    0    0  0.00000000000E+00  0.00000000000E+00  0.37573330956E+03  0.35148937339E+04  0.34947535593E+04 0.  0.
        4    1    3    3  502    0 -0.55594425360E+03 -0.15130492762E+04 -0.49050676909E+03  0.16849304522E+04  0.12699999809E+01 0.  1.
       -4    1    3    3    0  502  0.55594425360E+03  0.15130492762E+04  0.86624007865E+03  0.18299632816E+04  0.12699999809E+01 0. -1.
</event>
<event>
 5   0  0.1033796E-07  0.3505614E+04  0.7818609E-02  0.8112461E-01
        1   -1    0    0  501    0  0.00000000000E+00  0.00000000000E+00  0.17907769250E+04  0.17907769250E+04  0.50400001928E-02 0. -1.
       -1   -1    0    0    0  501  0.00000000000E+00  0.00000000000E+00 -0.17156425664E+04  0.17156425664E+04  0.50400001928E-02 0.  1.
    10030    2    1    2    0    0  0.00000000000E+00  0.00000000000E+00  0.75134358620E+02  0.35064194914E+04  0.35056144223E+04 0.  0.
        3    1    3    3  502    0 -0.11790992920E+04  0.30507098240E+03 -0.12232736416E+04  0.17261928795E+04  0.10100000352E+00 0.  1.
       -3    1    3    3    0  502  0.11790992920E+04 -0.30507098240E+03  0.12984080002E+04  0.17802266119E+04  0.10100000352E+00 0. -1.
</event>
<event>
 5   0  0.1013863E-07  0.3494977E+04  0.7818609E-02  0.8114981E-01
        1   -1    0    0  501    0  0.00000000000E+00  0.00000000000E+00  0.16457889922E+04  0.16457889922E+04  0.50400001928E-02 0.  1.
       -1   -1    0    0    0  501  0.00000000000E+00  0.00000000000E+00 -0.18554721397E+04  0.18554721397E+04  0.50400001928E-02 0. -1.
    10030    2    1    2    0    0  0.00000000000E+00  0.00000000000E+00 -0.20968314755E+03  0.35012611319E+04  0.34949767512E+04 0.  0.
        2    1    3    3  502    0 -0.68507313632E+03  0.11343261395E+04 -0.12460539300E+04  0.18189753680E+04  0.25500000920E-02 0. -1.
       -2    1    3    3    0  502  0.68507313632E+03 -0.11343261395E+04  0.10363707824E+04  0.16822857639E+04  0.25500000920E-02 0.  1.
</event>
<event>
 5   0  0.1013863E-07  0.3490748E+04  0.7818609E-02  0.8115986E-01
       -3   -1    0    0    0  501  0.00000000000E+00  0.00000000000E+00  0.13413217663E+04  0.13413217701E+04  0.10100000352E+00 0.  1.
        3   -1    0    0  501    0  0.00000000000E+00  0.00000000000E+00 -0.22711410649E+04  0.22711410671E+04  0.10100000352E+00 0. -1.
    10030    2    1    2    0    0  0.00000000000E+00  0.00000000000E+00 -0.92981929863E+03  0.36124628372E+04  0.34907483183E+04 0.  0.
        2    1    3    3  502    0 -0.11949861727E+04 -0.50986256942E+02 -0.17803480290E+04  0.21448148302E+04  0.25500000920E-02 0. -1.
       -2    1    3    3    0  502  0.11949861727E+04  0.50986256942E+02  0.85052873035E+03  0.14676480070E+04  0.25500000920E-02 0.  1.
</event>
<event>
 5   0  0.2180451E-07  0.3509700E+04  0.7818609E-02  0.8111495E-01
        2   -1    0    0  501    0  0.00000000000E+00  0.00000000000E+00  0.13732085613E+04  0.13732085613E+04  0.25500000920E-02 0. -1.
       -2   -1    0    0    0  501  0.00000000000E+00  0.00000000000E+00 -0.22425564035E+04  0.22425564035E+04  0.25500000920E-02 0.  1.
    10030    2    1    2    0    0  0.00000000000E+00  0.00000000000E+00 -0.86934784215E+03  0.36157649648E+04  0.35096995043E+04 0.  0.
        4    1    3    3  502    0  0.24185093547E+03  0.54798365130E+03 -0.21339816375E+04  0.22164514881E+04  0.12699999809E+01 0.  1.
       -4    1    3    3    0  502 -0.24185093547E+03 -0.54798365130E+03  0.12646337953E+04  0.13993134768E+04  0.12699999809E+01 0. -1.
</event>
<event>
 5   0  0.3119048E-07  0.3508775E+04  0.7818609E-02  0.8111714E-01
       -2   -1    0    0    0  501  0.00000000000E+00  0.00000000000E+00  0.28516380237E+04  0.28516380237E+04  0.25500000920E-02 0.  1.
        2   -1    0    0  501    0  0.00000000000E+00  0.00000000000E+00 -0.10793359994E+04  0.10793359994E+04  0.25500000920E-02 0. -1.
    10030    2    1    2    0    0  0.00000000000E+00  0.00000000000E+00  0.17723020242E+04  0.39309740231E+04  0.35087750434E+04 0.  0.
        3    1    3    3  502    0  0.14831194030E+04  0.61118198146E+03  0.16820474537E+04  0.23243214546E+04  0.10100000352E+00 0.  1.
       -3    1    3    3    0  502 -0.14831194030E+04 -0.61118198146E+03  0.90254570560E+02  0.16066525684E+04  0.10100000352E+00 0. -1.
</event>
<event>
 5   0  0.3190185E-07  0.3499645E+04  0.7818609E-02  0.8113874E-01
        2   -1    0    0  501    0  0.00000000000E+00  0.00000000000E+00  0.26636114359E+04  0.26636114359E+04  0.25500000920E-02 0.  1.
       -2   -1    0    0    0  501  0.00000000000E+00  0.00000000000E+00 -0.11495214268E+04  0.11495214268E+04  0.25500000920E-02 0. -1.
    10030    2    1    2    0    0  0.00000000000E+00  0.00000000000E+00  0.15140900091E+04  0.38131328627E+04  0.34996447923E+04 0.  0.
        1    1    3    3  502    0  0.16655392537E+04 -0.49572941288E+03  0.98063345333E+03  0.19953472445E+04  0.50400001928E-02 0.  1.
       -1    1    3    3    0  502 -0.16655392537E+04  0.49572941288E+03  0.53345655581E+03  0.18177856181E+04  0.50400001928E-02 0. -1.
</event>
<event>
 5   0  0.3190185E-07  0.3504388E+04  0.7818609E-02  0.8112751E-01
       -2   -1    0    0    0  501  0.00000000000E+00  0.00000000000E+00  0.12295625142E+04  0.12295625142E+04  0.25500000920E-02 0. -1.
        2   -1    0    0  501    0  0.00000000000E+00  0.00000000000E+00 -0.24969726028E+04  0.24969726028E+04  0.25500000920E-02 0.  1.
    10030    2    1    2    0    0  0.00000000000E+00  0.00000000000E+00 -0.12674100886E+04  0.37265351170E+04  0.35043880558E+04 0.  0.
        1    1    3    3  502    0 -0.41699878645E+03 -0.12366056916E+04  0.60964533622E+03  0.14403989241E+04  0.50400001928E-02 0. -1.
       -1    1    3    3    0  502  0.41699878645E+03  0.12366056916E+04 -0.18770554249E+04  0.22861361929E+04  0.50400001928E-02 0.  1.
</event>
<event>
 5   0  0.3219205E-07  0.3506777E+04  0.7818609E-02  0.8112186E-01
        2   -1    0    0  501    0  0.00000000000E+00  0.00000000000E+00  0.19329026937E+04  0.19329026937E+04  0.25500000920E-02 0. -1.
       -2   -1    0    0    0  501  0.00000000000E+00  0.00000000000E+00 -0.15905459679E+04  0.15905459679E+04  0.25500000920E-02 0.  1.
    10030    2    1    2    0    0  0.00000000000E+00  0.00000000000E+00  0.34235672584E+03  0.35234486616E+04  0.35067766315E+04 0.  0.
        2    1    3    3  502    0  0.31464533785E+03 -0.91764746922E+03  0.16387016399E+04  0.19043165784E+04  0.25500000920E-02 0. -1.
       -2    1    3    3    0  502 -0.31464533785E+03  0.91764746922E+03 -0.12963449140E+04  0.16191320831E+04  0.25500000920E-02 0.  1.
</event>
<event>
 5   0  0.2180451E-07  0.3491555E+04  0.7818609E-02  0.8115794E-01
       -2   -1    0    0    0  501  0.00000000000E+00  0.00000000000E+00  0.17230208301E+04  0.17230208301E+04  0.25500000920E-02 0. -1.
        2   -1    0    0  501    0  0.00000000000E+00  0.00000000000E+00 -0.17688348667E+04  0.17688348667E+04  0.25500000920E-02 0.  1.
    10030    2    1    2    0    0  0.00000000000E+00  0.00000000000E+00 -0.45814036586E+02  0.34918556968E+04  0.34915551379E+04 0.  0.
        4    1    3    3  502    0 -0.12729845715E+04 -0.10827004124E+04  0.48211942667E+03  0.17393017727E+04  0.12699999809E+01 0. -1.
       -4    1    3    3    0  502  0.12729845715E+04  0.10827004124E+04 -0.52793346326E+03  0.17525539240E+04  0.12699999809E+01 0.  1.
</event>
<event>
 5   0  0.1013863E-07  0.3502476E+04  0.7818609E-02  0.8113203E-01
        1   -1    0    0  501    0  0.00000000000E+00  0.00000000000E+00  0.18080070906E+04  0.18080070906E+04  0.50400001928E-02 0. -1.
       -1   -1    0    0    0  501  0.00000000000E+00  0.00000000000E+00 -0.16962514072E+04  0.16962514072E+04  0.50400001928E-02 0.  1.
    10030    2    1    2    0    0  0.00000000000E+00  0.00000000000E+00  0.11175568338E+03  0.35042584978E+04  0.35024760223E+04 0.  0.
        5    1    3    3  502    0 -0.15810571435E+04  0.72378534837E+03 -0.15208741410E+03  0.17454969473E+04  0.46999998093E+01 0.  1.
       -5    1    3    3    0  502  0.15810571435E+04 -0.72378534837E+03  0.26384309748E+03  0.17587615505E+04  0.46999998093E+01 0. -1.
</event>
<event>
 5   0  0.1033796E-07  0.3500707E+04  0.7818609E-02  0.8113623E-01
        1   -1    0    0  501    0  0.00000000000E+00  0.00000000000E+00  0.20633973943E+04  0.20633973943E+04  0.50400001928E-02 0. -1.
       -1   -1    0    0    0  501  0.00000000000E+00  0.00000000000E+00 -0.14848020467E+04  0.14848020467E+04  0.50400001928E-02 0.  1.
    10030    2    1    2    0    0  0.00000000000E+00  0.00000000000E+00  0.57859534765E+03  0.35481994410E+04  0.35007065996E+04 0.  0.
        3    1    3    3  502    0 -0.70042563195E+03  0.15484853161E+04  0.71370723784E+03  0.18433070476E+04  0.10100000352E+00 0. -1.
       -3    1    3    3    0  502  0.70042563195E+03 -0.15484853161E+04 -0.13511189018E+03  0.17048923934E+04  0.10100000352E+00 0.  1.
</event>
<event>
 5   0  0.3219205E-07  0.3497356E+04  0.7818609E-02  0.8114417E-01
       -2   -1    0    0    0  501  0.00000000000E+00  0.00000000000E+00  0.24186676940E+04  0.24186676940E+04  0.25500000920E-02 0.  1.
        2   -1    0    0  501    0  0.00000000000E+00  0.00000000000E+00 -0.12642809536E+04  0.12642809536E+04  0.25500000920E-02 0. -1.
    10030    2    1    2    0    0  0.00000000000E+00  0.00000000000E+00  0.11543867404E+04  0.36829486476E+04  0.34973564294E+04 0.  0.
        2    1    3    3  502    0  0.61007931178E+02  0.38161911736E+03 -0.12187466316E+04  0.12785532725E+04  0.25500000920E-02 0. -1.
       -2    1    3    3    0  502 -0.61007931178E+02 -0.38161911736E+03  0.23731333721E+04  0.24043953752E+04  0.25500000920E-02 0.  1.
</event>
<event>
 5   0  0.1033796E-07  0.3509093E+04  0.7818609E-02  0.8111638E-01
       -1   -1    0    0    0  501  0.00000000000E+00  0.00000000000E+00  0.20439765568E+04  0.20439765568E+04  0.50400001928E-02 0. -1.
        1   -1    0    0  501    0  0.00000000000E+00  0.00000000000E+00 -0.15061000497E+04  0.15061000497E+04  0.50400001928E-02 0.  1.
    10030    2    1    2    0    0  0.00000000000E+00  0.00000000000E+00  0.53787650713E+03  0.35500766065E+04  0.35090928707E+04 0.  0.
        3    1    3    3  502    0 -0.45327047466E+03 -0.15327354876E+04 -0.46318560165E+03  0.16641133104E+04  0.10100000352E+00 0.  1.
       -3    1    3    3    0  502  0.45327047466E+03  0.15327354876E+04  0.10010621088E+04  0.18859632960E+04  0.10100000352E+00 0. -1.
</event>
<event>
 5   0  0.1033796E-07  0.3489597E+04  0.7818609E-02  0.8116260E-01
       -1   -1    0    0    0  501  0.00000000000E+00  0.00000000000E+00  0.13111278351E+04  0.13111278351E+04  0.50400001928E-02 0. -1.
        1   -1    0    0  501    0  0.00000000000E+00  0.00000000000E+00 -0.23219107809E+04  0.23219107809E+04  0.50400001928E-02 0.  1.
    10030    2    1    2    0    0  0.00000000000E+00  0.00000000000E+00 -0.10107829458E+04  0.36330386160E+04  0.34895970286E+04 0.  0.
        3    1    3    3  502    0  0.16964554463E+04  0.46159759961E+02 -0.92730265474E+03  0.19339033142E+04  0.10100000352E+00 0.  1.
       -3    1    3    3    0  502 -0.16964554463E+04 -0.46159759961E+02 -0.83480291104E+02  0.16991353019E+04  0.10100000352E+00 0. -1.
</event>
<event>
 5   0  0.3190112E-07  0.3499762E+04  0.7818609E-02  0.8113846E-01
        2   -1    0    0  501    0  0.00000000000E+00  0.00000000000E+00  0.24661783631E+04  0.24661783632E+04  0.25500000920E-02 0.  1.
       -2   -1    0    0    0  501  0.00000000000E+00  0.00000000000E+00 -0.12416311528E+04  0.12416311528E+04  0.25500000920E-02 0. -1.
    10030    2    1    2    0    0  0.00000000000E+00  0.00000000000E+00  0.12245472103E+04  0.37078095160E+04  0.34997622114E+04 0.  0.
        5    1    3    3  502    0  0.42806682004E+03  0.86980787523E+03  0.21556705802E+04  0.23636295570E+04  0.46999998093E+01 0.  1.
       -5    1    3    3    0  502 -0.42806682004E+03 -0.86980787523E+03 -0.93112336989E+03  0.13441799590E+04  0.46999998093E+01 0. -1.
</event>
<event>
 5   0  0.3190185E-07  0.3489846E+04  0.7818609E-02  0.8116201E-01
        2   -1    0    0  501    0  0.00000000000E+00  0.00000000000E+00  0.12701711384E+04  0.12701711384E+04  0.25500000920E-02 0.  1.
       -2   -1    0    0    0  501  0.00000000000E+00  0.00000000000E+00 -0.23971222392E+04  0.23971222392E+04  0.25500000920E-02 0. -1.
    10030    2    1    2    0    0  0.00000000000E+00  0.00000000000E+00 -0.11269511008E+04  0.36672933777E+04  0.34898455459E+04 0.  0.
        1    1    3    3  502    0 -0.16958181956E+04  0.39833668426E+03 -0.67004208384E+03  0.18663943476E+04  0.50400001928E-02 0.  1.
       -1    1    3    3    0  502  0.16958181956E+04 -0.39833668426E+03 -0.45690901696E+03  0.18008990300E+04  0.50400001928E-02 0. -1.
</event>
<event>
 5   0  0.1013863E-07  0.3484916E+04  0.7818609E-02  0.8117374E-01
        1   -1    0    0  501    0  0.00000000000E+00  0.00000000000E+00  0.99250888522E+03  0.99250888523E+03  0.50400001928E-02 0.  1.
       -1   -1    0    0    0  501  0.00000000000E+00  0.00000000000E+00 -0.30590759319E+04  0.30590759319E+04  0.50400001928E-02 0. -1.
    10030    2    1    2    0    0  0.00000000000E+00  0.00000000000E+00 -0.20665670467E+04  0.40515848171E+04  0.34849160925E+04 0.  0.
        5    1    3    3  502    0  0.96220272803E+03 -0.36134907810E+03  0.60253706069E+03  0.11914194247E+04  0.46999998093E+01 0.  1.
       -5    1    3    3    0  502 -0.96220272803E+03  0.36134907810E+03 -0.26691041074E+04  0.28601653924E+04  0.46999998093E+01 0. -1.
</event>
<event>
 5   0  0.3219205E-07  0.3505191E+04  0.7818609E-02  0.8112561E-01
        2   -1    0    0  501    0  0.00000000000E+00  0.00000000000E+00  0.17275767846E+04  0.17275767846E+04  0.25500000920E-02 0. -1.
       -2   -1    0    0    0  501  0.00000000000E+00  0.00000000000E+00 -0.17779768585E+04  0.17779768585E+04  0.25500000920E-02 0.  1.
    10030    2    1    2    0    0  0.00000000000E+00  0.00000000000E+00 -0.50400073970E+02  0.35055536431E+04  0.35051913182E+04 0.  0.
        2    1    3    3  502    0  0.15952041347E+04  0.24155793542E+03 -0.70978892905E+03  0.17626192985E+04  0.25500000920E-02 0.  1.
       -2    1    3    3    0  502 -0.15952041347E+04 -0.24155793542E+03  0.65938885508E+03  0.17429343446E+04  0.25500000920E-02 0. -1.
</event>
<event>
 5   0  0.1072381E-07  0.3515079E+04  0.7818609E-02  0.8110226E-01
        1   -1    0    0  501    0  0.00000000000E+00  0.00000000000E+00  0.21342789508E+04  0.21342789508E+04  0.50400001928E-02 0.  1.
       -1   -1    0    0    0  501  0.00000000000E+00  0.00000000000E+00 -0.14473014166E+04  0.14473014166E+04  0.50400001928E-02 0. -1.
    10030    2    1    2    0    0  0.00000000000E+00  0.00000000000E+00  0.68697753423E+03  0.35815803674E+04  0.35150789174E+04 0.  0.
        1    1    3    3  502    0  0.40588557879E+03 -0.14613339621E+03 -0.13925190831E+04  0.14578091334E+04  0.50400001928E-02 0. -1.
       -1    1    3    3    0  502 -0.40588557879E+03  0.14613339621E+03  0.20794966174E+04  0.21237712340E+04  0.50400001928E-02 0.  1.
</event>
<event>
 5   0  0.1013863E-07  0.3496520E+04  0.7818609E-02  0.8114615E-01
       -1   -1    0    0    0  501  0.00000000000E+00  0.00000000000E+00  0.13451902913E+04  0.13451902913E+04  0.50400001928E-02 0.  1.
        1   -1    0    0  501    0  0.00000000000E+00  0.00000000000E+00 -0.22721045262E+04  0.22721045262E+04  0.50400001928E-02 0. -1.
    10030    2    1    2    0    0  0.00000000000E+00  0.00000000000E+00 -0.92691423486E+03  0.36172948175E+04  0.34965199553E+04 0.  0.
        5    1    3    3  502    0  0.90697147598E+02 -0.49217815832E+03  0.12694926200E+04  0.13645874521E+04  0.46999998093E+01 0.  1.
       -5    1    3    3    0  502 -0.90697147598E+02  0.49217815832E+03 -0.21964068548E+04  0.22527073654E+04  0.46999998093E+01 0. -1.
</event>
<event>
 5   0  0.3190185E-07  0.3498699E+04  0.7818609E-02  0.8114098E-01
       -2   -1    0    0    0  501  0.00000000000E+00  0.00000000000E+00  0.19182079541E+04  0.19182079541E+04  0.25500000920E-02 0.  1.
        2   -1    0    0  501    0  0.00000000000E+00  0.00000000000E+00 -0.15953554545E+04  0.15953554545E+04  0.25500000920E-02 0. -1.
    10030    2    1    2    0    0  0.00000000000E+00  0.00000000000E+00  0.32285249954E+03  0.35135634086E+04  0.34986989138E+04 0.  0.
        1    1    3    3  502    0 -0.32030865705E+02  0.15506249134E+04  0.97403645142E+03  0.18314504107E+04  0.50400001928E-02 0.  1.
       -1    1    3    3    0  502  0.32030865705E+02 -0.15506249134E+04 -0.65118395187E+03  0.16821129978E+04  0.50400001928E-02 0. -1.
</event>
<event>
 5   0  0.3190112E-07  0.3501189E+04  0.7818609E-02  0.8113508E-01
       -2   -1    0    0    0  501  0.00000000000E+00  0.00000000000E+00  0.18543245113E+04  0.18543245113E+04  0.25500000920E-02 0. -1.
        2   -1    0    0  501    0  0.00000000000E+00  0.00000000000E+00 -0.16526667431E+04  0.16526667431E+04  0.25500000920E-02 0.  1.
    10030    2    1    2    0    0  0.00000000000E+00  0.00000000000E+00  0.20165776823E+03  0.35069912544E+04  0.35011886271E+04 0.  0.
        5    1    3    3  502    0 -0.76759163946E+03 -0.11298354764E+04  0.11975559473E+04  0.18165592381E+04  0.46999998093E+01 0. -1.
       -5    1    3    3    0  502  0.76759163946E+03  0.11298354764E+04 -0.99589817906E+03  0.16904320163E+04  0.46999998093E+01 0.  1.
</event>
<event>
 5   0  0.1033796E-07  0.3501567E+04  0.7818609E-02  0.8113419E-01
        1   -1    0    0  501    0  0.00000000000E+00  0.00000000000E+00  0.32843184563E+04  0.32843184563E+04  0.50400001928E-02 0. -1.
       -1   -1    0    0    0  501  0.00000000000E+00  0.00000000000E+00 -0.93329626064E+03  0.93329626065E+03  0.50400001928E-02 0.  1.
    10030    2    1    2    0    0  0.00000000000E+00  0.00000000000E+00  0.23510221957E+04  0.42176147170E+04  0.35015665832E+04 0.  0.
        3    1    3    3  502    0  0.26682535461E+03  0.28579822148E+03  0.32310583806E+04  0.32546297274E+04  0.10100000352E+00 0. -1.
       -3    1    3    3    0  502 -0.26682535461E+03 -0.28579822148E+03 -0.88003618491E+03  0.96298498961E+03  0.10100000352E+00 0.  1.
</event>
<event>
 5   0  0.1013863E-07  0.3505982E+04  0.7818609E-02  0.8112374E-01
        1   -1    0    0  501    0  0.00000000000E+00  0.00000000000E+00  0.21300760677E+04  0.21300760677E+04  0.50400001928E-02 0.  1.
       -1   -1    0    0    0  501  0.00000000000E+00  0.00000000000E+00 -0.14426612289E+04  0.14426612289E+04  0.50400001928E-02 0. -1.
    10030    2    1    2    0    0  0.00000000000E+00  0.00000000000E+00  0.68741483877E+03  0.35727372967E+04  0.35059824059E+04 0.  0.
        5    1    3    3  502    0 -0.11554333587E+02 -0.15513382706E+04 -0.48802682527E+03  0.16263382811E+04  0.46999998093E+01 0. -1.
       -5    1    3    3    0  502  0.11554333587E+02  0.15513382706E+04  0.11754416640E+04  0.19463990156E+04  0.46999998093E+01 0.  1.
</event>
<event>
 5   0  0.1013863E-07  0.3501366E+04  0.7818609E-02  0.8113466E-01
        1   -1    0    0  501    0  0.00000000000E+00  0.00000000000E+00  0.20915234671E+04  0.20915234671E+04  0.50400001928E-02 0. -1.
       -1   -1    0    0    0  501  0.00000000000E+00  0.00000000000E+00 -0.14653871469E+04  0.14653871469E+04  0.50400001928E-02 0.  1.
    10030    2    1    2    0    0  0.00000000000E+00  0.00000000000E+00  0.62613632025E+03  0.35569106140E+04  0.35013663654E+04 0.  0.
        2    1    3    3  502    0  0.36051150014E+03 -0.14495016403E+04  0.12407179815E+04  0.19417529854E+04  0.25500000920E-02 0. -1.
       -2    1    3    3    0  502 -0.36051150014E+03  0.14495016403E+04 -0.61458166123E+03  0.16151576286E+04  0.25500000920E-02 0.  1.
</event>
<event>
 5   0  0.2180451E-07  0.3509522E+04  0.7818609E-02  0.8111537E-01
       -2   -1    0    0    0  501  0.00000000000E+00  0.00000000000E+00  0.19363716706E+04  0.19363716706E+04  0.25500000920E-02 0.  1.
        2   -1    0    0  501    0  0.00000000000E+00  0.00000000000E+00 -0.15901830543E+04  0.15901830543E+04  0.25500000920E-02 0. -1.
    10030    2    1    2    0    0  0.00000000000E+00  0.00000000000E+00  0.34618861631E+03  0.35265547249E+04  0.35095215727E+04 0.  0.
        4    1    3    3  502    0  0.92754219723E+03 -0.13437252739E+04 -0.47287222362E+03  0.16998652571E+04  0.12699999809E+01 0. -1.
       -4    1    3    3    0  502 -0.92754219723E+03  0.13437252739E+04  0.81906083993E+03  0.18266894678E+04  0.12699999809E+01 0.  1.
</event>
<event>
 5   0  0.1098171E-07  0.3488167E+04  0.7818609E-02  0.8116600E-01
        1   -1    0    0  501    0  0.00000000000E+00  0.00000000000E+00  0.19832292590E+04  0.19832292590E+04  0.50400001928E-02 0. -1.
       -1   -1    0    0    0  501  0.00000000000E+00  0.00000000000E+00 -0.15337748757E+04  0.15337748757E+04  0.50400001928E-02 0.  1.
    10030    2    1    2    0    0  0.00000000000E+00  0.00000000000E+00  0.44945438331E+03  0.35170041347E+04  0.34881669744E+04 0.  0.
        4    1    3    3  502    0 -0.15936113750E+04  0.63951842961E+03 -0.83156983511E+02  0.17191561108E+04  0.12699999809E+01 0.  1.
       -4    1    3    3    0  502  0.15936113750E+04 -0.63951842961E+03  0.53261136682E+03  0.17978480240E+04  0.12699999809E+01 0. -1.
</event>
<event>
 5   0  0.1033796E-07  0.3504922E+04  0.7818609E-02  0.8112624E-01
       -1   -1    0    0    0  501  0.00000000000E+00  0.00000000000E+00  0.17839071727E+04  0.17839071727E+04  0.50400001928E-02 0. -1.
        1   -1    0    0  501    0  0.00000000000E+00  0.00000000000E+00 -0.17215694144E+04  0.17215694144E+04  0.50400001928E-02 0.  1.
    10030    2    1    2    0    0  0.00000000000E+00  0.00000000000E+00  0.62337758259E+02  0.35054765871E+04  0.35049222682E+04 0.  0.
        3    1    3    3  502    0 -0.16257684222E+04  0.38756529770E+03  0.55831029108E+03  0.17621124294E+04  0.10100000352E+00 0.  1.
       -3    1    3    3    0  502  0.16257684222E+04 -0.38756529770E+03 -0.49597253282E+03  0.17433641576E+04  0.10100000352E+00 0. -1.
</event>
<event>
 5   0  0.3190112E-07  0.3500097E+04  0.7818609E-02  0.8113767E-01
        2   -1    0    0  501    0  0.00000000000E+00  0.00000000000E+00  0.18036777501E+04  0.18036777501E+04  0.25500000920E-02 0.  1.
       -2   -1    0    0    0  501  0.00000000000E+00  0.00000000000E+00 -0.16980140798E+04  0.16980140798E+04  0.25500000920E-02 0. -1.
    10030    2    1    2    0    0  0.00000000000E+00  0.00000000000E+00  0.10566367026E+03  0.35016918299E+04  0.35000972644E+04 0.  0.
        5    1    3    3  502    0  0.96051764930E+03  0.33504101032E+03  0.14774895323E+04  0.17938350095E+04  0.46999998093E+01 0.  1.
       -5    1    3    3    0  502 -0.96051764930E+03 -0.33504101032E+03 -0.13718258620E+04  0.17078568204E+04  0.46999998093E+01 0. -1.
</event>
<event>
 5   0  0.2180451E-07  0.3492753E+04  0.7818609E-02  0.8115510E-01
        2   -1    0    0  501    0  0.00000000000E+00  0.00000000000E+00  0.22831260128E+04  0.22831260128E+04  0.25500000920E-02 0. -1.
       -2   -1    0    0    0  501  0.00000000000E+00  0.00000000000E+00 -0.13358135512E+04  0.13358135512E+04  0.25500000920E-02 0.  1.
    10030    2    1    2    0    0  0.00000000000E+00  0.00000000000E+00  0.94731246159E+03  0.36189395640E+04  0.34927528782E+04 0.  0.
        4    1    3    3  502    0  0.10694510206E+04  0.59770615578E+02  0.19028112769E+04  0.21835728475E+04  0.12699999809E+01 0. -1.
       -4    1    3    3    0  502 -0.10694510206E+04 -0.59770615578E+02 -0.95549881531E+03  0.14353667165E+04  0.12699999809E+01 0.  1.
</event>
<event>
 5   0  0.3119048E-07  0.3495060E+04  0.7818609E-02  0.8114962E-01
       -2   -1    0    0    0  501  0.00000000000E+00  0.00000000000E+00  0.20032894036E+04  0.20032894036E+04  0.25500000920E-02 0. -1.
        2   -1    0    0  501    0  0.00000000000E+00  0.00000000000E+00 -0.15244237591E+04  0.15244237591E+04  0.25500000920E-02 0.  1.
    10030    2    1    2    0    0  0.00000000000E+00  0.00000000000E+00  0.47886564449E+03  0.35277131627E+04  0.34950604934E+04 0.  0.
        3    1    3    3  502    0 -0.11156852234E+04  0.80499648671E+03 -0.84817254203E+03  0.16162207562E+04  0.10100000352E+00 0.  1.
       -3    1    3    3    0  502  0.11156852234E+04 -0.80499648671E+03  0.13270381865E+04  0.19114924065E+04  0.10100000352E+00 0. -1.
</event>
<event>
 5   0  0.3119048E-07  0.3604493E+04  0.7818609E-02  0.8089463E-01
       -2   -1    0    0    0  501  0.00000000000E+00  0.00000000000E+00  0.20885719487E+04  0.20885719487E+04  0.25500000920E-02 0.  1.
        2   -1    0    0  501    0  0.00000000000E+00  0.00000000000E+00 -0.15551737145E+04  0.15551737145E+04  0.25500000920E-02 0. -1.
    10030    2    1    2    0    0  0.00000000000E+00  0.00000000000E+00  0.53339823424E+03  0.36437456632E+04  0.36044928606E+04 0.  0.
        3    1    3    3  502    0 -0.17383683618E+04 -0.33061218178E+03  0.61227449367E+03  0.18724606917E+04  0.10100000352E+00 0. -1.
       -3    1    3    3    0  502  0.17383683618E+04  0.33061218178E+03 -0.78876259432E+02  0.17712849716E+04  0.10100000352E+00 0.  1.
</event>
<event>
 5   0  0.1098171E-07  0.3480772E+04  0.7818609E-02  0.8118362E-01
        1   -1    0    0  501    0  0.00000000000E+00  0.00000000000E+00  0.19333004662E+04  0.19333004662E+04  0.50400001928E-02 0. -1.
       -1   -1    0    0    0  501  0.00000000000E+00  0.00000000000E+00 -0.15667217157E+04  0.15667217157E+04  0.50400001928E-02 0.  1.
    10030    2    1    2    0    0  0.00000000000E+00  0.00000000000E+00  0.36657875045E+03  0.35000221819E+04  0.34807722266E+04 0.  0.
        4    1    3    3  502    0 -0.75211372390E+03  0.12230839906E+03  0.17566497235E+04  0.19147987524E+04  0.12699999809E+01 0. -1.
       -4    1    3    3    0  502  0.75211372390E+03 -0.12230839906E+03 -0.13900709731E+04  0.15852234295E+04  0.12699999809E+01 0.  1.
</event>
<event>
 5   0  0.2180451E-07  0.3466963E+04  0.7818609E-02  0.8121664E-01
       -2   -1    0    0    0  501  0.00000000000E+00  0.00000000000E+00  0.18516007372E+04  0.18516007372E+04  0.25500000920E-02 0.  1.
        2   -1    0    0  501    0  0.00000000000E+00  0.00000000000E+00 -0.16228974144E+04  0.16228974144E+04  0.25500000920E-02 0. -1.
    10030    2    1    2    0    0  0.00000000000E+00  0.00000000000E+00  0.22870332281E+03  0.34744981516E+04  0.34669629643E+04 0.  0.
        4    1    3    3  502    0  0.69302727640E+03 -0.67431052987E+03 -0.13275160829E+04  0.16423404214E+04  0.12699999809E+01 0. -1.
       -4    1    3    3    0  502 -0.69302727640E+03  0.67431052987E+03  0.15562194057E+04  0.18321577302E+04  0.12699999809E+01 0.  1.
</event>
<event>
 5   0  0.1013863E-07  0.3538873E+04  0.7818609E-02  0.8104639E-01
       -1   -1    0    0    0  501  0.00000000000E+00  0.00000000000E+00  0.16791036805E+04  0.16791036805E+04  0.50400001928E-02 0.  1.
        1   -1    0    0  501    0  0.00000000000E+00  0.00000000000E+00 -0.18646290499E+04  0.18646290499E+04  0.50400001928E-02 0. -1.
    10030    2    1    2    0    0  0.00000000000E+00  0.00000000000E+00 -0.18552536948E+03  0.35437327304E+04  0.35388729847E+04 0.  0.
        2    1    3    3  502    0 -0.21901071775E+03  0.37073353576E+03 -0.18113643817E+04  0.18618404798E+04  0.25500000920E-02 0. -1.
       -2    1    3    3    0  502  0.21901071775E+03 -0.37073353576E+03  0.16258390122E+04  0.16818922506E+04  0.25500000920E-02 0.  1.
</event>
<event>
 5   0  0.1072381E-07  0.3502600E+04  0.7818609E-02  0.8113174E-01
       -1   -1    0    0    0  501  0.00000000000E+00  0.00000000000E+00  0.18070681731E+04  0.18070681731E+04  0.50400001928E-02 0.  1.
        1   -1    0    0  501    0  0.00000000000E+00  0.00000000000E+00 -0.16972531818E+04  0.16972531818E+04  0.50400001928E-02 0. -1.
    10030    2    1    2    0    0  0.00000000000E+00  0.00000000000E+00  0.10981499122E+03  0.35043213549E+04  0.35026002949E+04 0.  0.
        1    1    3    3  502    0 -0.26423308859E+03  0.16323992871E+04  0.63182386161E+03  0.17702395176E+04  0.50400001928E-02 0.  1.
       -1    1    3    3    0  502  0.26423308859E+03 -0.16323992871E+04 -0.52200887039E+03  0.17340818373E+04  0.50400001928E-02 0. -1.
</event>
<event>
 5   0  0.1013863E-07  0.3499033E+04  0.7818609E-02  0.8114019E-01
        1   -1    0    0  501    0  0.00000000000E+00  0.00000000000E+00  0.26218140312E+04  0.26218140312E+04  0.50400001928E-02 0. -1.
       -1   -1    0    0    0  501  0.00000000000E+00  0.00000000000E+00 -0.11674391098E+04  0.11674391098E+04  0.50400001928E-02 0.  1.
    10030    2    1    2    0    0  0.00000000000E+00  0.00000000000E+00  0.14543749215E+04  0.37892531410E+04  0.34990331457E+04 0.  0.
        5    1    3    3  502    0 -0.14585975494E+04 -0.81475222319E+03  0.16503874001E+03  0.16788650547E+04  0.46999998093E+01 0.  1.
       -5    1    3    3    0  502  0.14585975494E+04  0.81475222319E+03  0.12893361814E+04  0.21103880863E+04  0.46999998093E+01 0. -1.
</event>
<event>
 5   0  0.3219205E-07  0.3491697E+04  0.7818609E-02  0.8115761E-01
        2   -1    0    0  501    0  0.00000000000E+00  0.00000000000E+00  0.30646107812E+04  0.30646107812E+04  0.25500000920E-02 0. -1.
       -2   -1    0    0    0  501  0.00000000000E+00  0.00000000000E+00 -0.99457542807E+03  0.99457542807E+03  0.25500000920E-02 0.  1.
    10030    2    1    2    0    0  0.00000000000E+00  0.00000000000E+00  0.20700353531E+04  0.40591862093E+04  0.34916967678E+04 0.  0.
        2    1    3    3  502    0 -0.11520846116E+04  0.20429403895E+03  0.25413525768E+04  0.27977683832E+04  0.25500000920E-02 0. -1.
       -2    1    3    3    0  502  0.11520846116E+04 -0.20429403895E+03 -0.47131722367E+03  0.12614178261E+04  0.25500000920E-02 0.  1.
</event>
<event>
 5   0  0.2180451E-07  0.3500436E+04  0.7818609E-02  0.8113687E-01
        2   -1    0    0  501    0  0.00000000000E+00  0.00000000000E+00  0.14600447618E+04  0.14600447618E+04  0.25500000920E-02 0.  1.
       -2   -1    0    0    0  501  0.00000000000E+00  0.00000000000E+00 -0.20980614781E+04  0.20980614781E+04  0.25500000920E-02 0. -1.
    10030    2    1    2    0    0  0.00000000000E+00  0.00000000000E+00 -0.63801671627E+03  0.35581062400E+04  0.35004363563E+04 0.  0.
        4    1    3    3  502    0  0.32411008975E+03  0.77431719729E+03 -0.18800994791E+04  0.20589779349E+04  0.12699999809E+01 0. -1.
       -4    1    3    3    0  502 -0.32411008975E+03 -0.77431719729E+03  0.12420827628E+04  0.14991283050E+04  0.12699999809E+01 0.  1.
</event>
<event>
 5   0  0.3119048E-07  0.3516578E+04  0.7818609E-02  0.8109872E-01
        2   -1    0    0  501    0  0.00000000000E+00  0.00000000000E+00  0.21335298079E+04  0.21335298079E+04  0.25500000920E-02 0. -1.
       -2   -1    0    0    0  501  0.00000000000E+00  0.00000000000E+00 -0.14490450376E+04  0.14490450376E+04  0.25500000920E-02 0.  1.
    10030    2    1    2    0    0  0.00000000000E+00  0.00000000000E+00  0.68448477031E+03  0.35825748454E+04  0.35165783259E+04 0.  0.
        3    1    3    3  502    0 -0.51136900942E+03 -0.27086694377E+03  0.20337377110E+04  0.21144635850E+04  0.10100000352E+00 0. -1.
       -3    1    3    3    0  502  0.51136900942E+03  0.27086694377E+03 -0.13492529406E+04  0.14681112604E+04  0.10100000352E+00 0.  1.
</event>
<event>
 5   0  0.1013863E-07  0.3495549E+04  0.7818609E-02  0.8114846E-01
        1   -1    0    0  501    0  0.00000000000E+00  0.00000000000E+00  0.24598655937E+04  0.24598655937E+04  0.50400001928E-02 0.  1.
       -1   -1    0    0    0  501  0.00000000000E+00  0.00000000000E+00 -0.12418221797E+04  0.12418221797E+04  0.50400001928E-02 0. -1.
    10030    2    1    2    0    0  0.00000000000E+00  0.00000000000E+00  0.12180434140E+04  0.37016877734E+04  0.34955489717E+04 0.  0.
        5    1    3    3  502    0  0.10939776406E+04 -0.13322451813E+04  0.91416229772E+03  0.19512506497E+04  0.46999998093E+01 0.  1.
       -5    1    3    3    0  502 -0.10939776406E+04  0.13322451813E+04  0.30388111628E+03  0.17504371237E+04  0.46999998093E+01 0. -1.
</event>
<event>
 5   0  0.3190112E-07  0.3493057E+04  0.7818609E-02  0.8115437E-01
       -2   -1    0    0    0  501  0.00000000000E+00  0.00000000000E+00  0.18466902415E+04  0.18466902415E+04  0.25500000920E-02 0. -1.
        2   -1    0    0  501    0  0.00000000000E+00  0.00000000000E+00 -0.16517995106E+04  0.16517995106E+04  0.25500000920E-02 0.  1.
    10030    2    1    2    0    0  0.00000000000E+00  0.00000000000E+00  0.19489073093E+03  0.34984897522E+04  0.34930571351E+04 0.  0.
        5    1    3    3  502    0  0.44098638292E+03  0.15526655178E+04  0.76564168381E+03  0.17864681576E+04  0.46999998093E+01 0.  1.
       -5    1    3    3    0  502 -0.44098638292E+03 -0.15526655178E+04 -0.57075095289E+03  0.17120215946E+04  0.46999998093E+01 0. -1.
</event>
<event>
 5   0  0.2180451E-07  0.3439552E+04  0.7818609E-02  0.8128267E-01
        2   -1    0    0  501    0  0.00000000000E+00  0.00000000000E+00  0.16551246852E+04  0.16551246852E+04  0.25500000920E-02 0. -1.
       -2   -1    0    0    0  501  0.00000000000E+00  0.00000000000E+00 -0.17869524717E+04  0.17869524717E+04  0.25500000920E-02 0.  1.
    10030    2    1    2    0    0  0.00000000000E+00  0.00000000000E+00 -0.13182778655E+03  0.34420771569E+04  0.34395518005E+04 0.  0.
        4    1    3    3  502    0 -0.48242343833E+03  0.14891880269E+04  0.64679871274E+03  0.16937424659E+04  0.12699999809E+01 0. -1.
       -4    1    3    3    0  502  0.48242343833E+03 -0.14891880269E+04 -0.77862649929E+03  0.17483346909E+04  0.12699999809E+01 0.  1.
</event>
<event>
 5   0  0.3190185E-07  0.3509569E+04  0.7818609E-02  0.8111526E-01
        2   -1    0    0  501    0  0.00000000000E+00  0.00000000000E+00  0.21910485792E+04  0.21910485792E+04  0.25500000920E-02 0. -1.
       -2   -1    0    0    0  501  0.00000000000E+00  0.00000000000E+00 -0.14053855587E+04  0.14053855587E+04  0.25500000920E-02 0.  1.
    10030    2    1    2    0    0  0.00000000000E+00  0.00000000000E+00  0.78566302047E+03  0.35964341379E+04  0.35095686525E+04 0.  0.
        1    1    3    3  502    0 -0.65990762788E+03 -0.16214684922E+04  0.51677930245E+03  0.18252942218E+04  0.50400001928E-02 0.  1.
       -1    1    3    3    0  502  0.65990762788E+03  0.16214684922E+04  0.26888371802E+03  0.17711399161E+04  0.50400001928E-02 0. -1.
</event>
<event>
 5   0  0.1098171E-07  0.3499126E+04  0.7818609E-02  0.8113997E-01
       -1   -1    0    0    0  501  0.00000000000E+00  0.00000000000E+00  0.17139290436E+04  0.17139290437E+04  0.50400001928E-02 0.  1.
        1   -1    0    0  501    0  0.00000000000E+00  0.00000000000E+00 -0.17859381248E+04  0.17859381248E+04  0.50400001928E-02 0. -1.
    10030    2    1    2    0    0  0.00000000000E+00  0.00000000000E+00 -0.72009081124E+02  0.34998671684E+04  0.34991263036E+04 0.  0.
        4    1    3    3  502    0  0.24302816773E+03  0.13793785022E+04 -0.10846643468E+04  0.17715095542E+04  0.12699999809E+01 0. -1.
       -4    1    3    3    0  502 -0.24302816773E+03 -0.13793785022E+04  0.10126552657E+04  0.17283576142E+04  0.12699999809E+01 0.  1.
</event>
<event>
 5   0  0.1013863E-07  0.3506361E+04  0.7818609E-02  0.8112284E-01
        1   -1    0    0  501    0  0.00000000000E+00  0.00000000000E+00  0.13247736312E+04  0.13247736312E+04  0.50400001928E-02 0. -1.
       -1   -1    0    0    0  501  0.00000000000E+00  0.00000000000E+00 -0.23201260269E+04  0.23201260269E+04  0.50400001928E-02 0.  1.
    10030    2    1    2    0    0  0.00000000000E+00  0.00000000000E+00 -0.99535239570E+03  0.36448996581E+04  0.35063609521E+04 0.  0.
        5    1    3    3  502    0 -0.12980915420E+04  0.82001645024E+03  0.38201708476E+03  0.15822224158E+04  0.46999998093E+01 0. -1.
       -5    1    3    3    0  502  0.12980915420E+04 -0.82001645024E+03 -0.13773694805E+04  0.20626772423E+04  0.46999998093E+01 0.  1.
</event>
<event>
 5   0  0.3119048E-07  0.3502342E+04  0.7818609E-02  0.8113235E-01
       -2   -1    0    0    0  501  0.00000000000E+00  0.00000000000E+00  0.21178770079E+04  0.21178770079E+04  0.25500000920E-02 0. -1.
        2   -1    0    0  501    0  0.00000000000E+00  0.00000000000E+00 -0.14479590179E+04  0.14479590179E+04  0.25500000920E-02 0.  1.
    10030    2    1    2    0    0  0.00000000000E+00  0.00000000000E+00  0.66991799001E+03  0.35658360257E+04  0.35023415666E+04 0.  0.
        3    1    3    3  502    0  0.12218579884E+04  0.45964382176E+03 -0.85341611773E+03  0.15596565221E+04  0.10100000352E+00 0.  1.
       -3    1    3    3    0  502 -0.12218579884E+04 -0.45964382176E+03  0.15233341077E+04  0.20061795036E+04  0.10100000352E+00 0. -1.
</event>
<event>
 5   0  0.3190112E-07  0.3474390E+04  0.7818609E-02  0.8119886E-01
        2   -1    0    0  501    0  0.00000000000E+00  0.00000000000E+00  0.17539851153E+04  0.17539851153E+04  0.25500000920E-02 0. -1.
       -2   -1    0    0    0  501  0.00000000000E+00  0.00000000000E+00 -0.17205657551E+04  0.17205657551E+04  0.25500000920E-02 0.  1.
    10030    2    1    2    0    0  0.00000000000E+00  0.00000000000E+00  0.33419360195E+02  0.34745508703E+04  0.34743901475E+04 0.  0.
        5    1    3    3  502    0  0.11411703241E+03  0.47818279623E+03 -0.16495436024E+04  0.17212488692E+04  0.46999998093E+01 0.  1.
       -5    1    3    3    0  502 -0.11411703241E+03 -0.47818279623E+03  0.16829629626E+04  0.17533020011E+04  0.46999998093E+01 0. -1.
</event>
<event>
 5   0  0.3190112E-07  0.3523571E+04  0.7818609E-02  0.8108226E-01
        2   -1    0    0  501    0  0.00000000000E+00  0.00000000000E+00  0.24863086109E+04  0.24863086109E+04  0.25500000920E-02 0. -1.
       -2   -1    0    0    0  501  0.00000000000E+00  0.00000000000E+00 -0.12483923135E+04  0.12483923135E+04  0.25500000920E-02 0.  1.
    10030    2    1    2    0    0  0.00000000000E+00  0.00000000000E+00  0.12379162975E+04  0.37347009244E+04  0.35235712331E+04 0.  0.
        5    1    3    3  502    0  0.11634237419E+04 -0.92766254519E+03  0.16187456789E+04  0.21987433375E+04  0.46999998093E+01 0. -1.
       -5    1    3    3    0  502 -0.11634237419E+04  0.92766254519E+03 -0.38082938145E+03  0.15359575869E+04  0.46999998093E+01 0.  1.
</event>
<event>
 5   0  0.2180451E-07  0.3489032E+04  0.7818609E-02  0.8116394E-01
       -2   -1    0    0    0  501  0.00000000000E+00  0.00000000000E+00  0.30464137657E+04  0.30464137657E+04  0.25500000920E-02 0. -1.
        2   -1    0    0  501    0  0.00000000000E+00  0.00000000000E+00 -0.99898963951E+03  0.99898963951E+03  0.25500000920E-02 0.  1.
    10030    2    1    2    0    0  0.00000000000E+00  0.00000000000E+00  0.20474241262E+04  0.40454034052E+04  0.34890318368E+04 0.  0.
        4    1    3    3  502    0 -0.10222149820E+04  0.62627161231E+01  0.26627726808E+04  0.28522487012E+04  0.12699999809E+01 0. -1.
       -4    1    3    3    0  502  0.10222149820E+04 -0.62627161231E+01 -0.61534855460E+03  0.11931547040E+04  0.12699999809E+01 0.  1.
</event>
<event>
 5   0  0.2180451E-07  0.3495486E+04  0.7818609E-02  0.8114861E-01
       -2   -1    0    0    0  501  0.00000000000E+00  0.00000000000E+00  0.15069966095E+04  0.15069966095E+04  0.25500000920E-02 0.  1.
        2   -1    0    0  501    0  0.00000000000E+00  0.00000000000E+00 -0.20269488568E+04  0.20269488568E+04  0.25500000920E-02 0. -1.
    10030    2    1    2    0    0  0.00000000000E+00  0.00000000000E+00 -0.51995224732E+03  0.35339454663E+04  0.34954856915E+04 0.  0.
        4    1    3    3  502    0 -0.35394483972E+03 -0.37494562586E+03 -0.19483028852E+04  0.20153776115E+04  0.12699999809E+01 0. -1.
       -4    1    3    3    0  502  0.35394483972E+03  0.37494562586E+03  0.14283506378E+04  0.15185678547E+04  0.12699999809E+01 0.  1.
</event>
<event>
 5   0  0.1013863E-07  0.3461824E+04  0.7818609E-02  0.8122897E-01
        1   -1    0    0  501    0  0.00000000000E+00  0.00000000000E+00  0.18937839983E+04  0.18937839983E+04  0.50400001928E-02 0.  1.
       -1   -1    0    0    0  501  0.00000000000E+00  0.00000000000E+00 -0.15820471362E+04  0.15820471363E+04  0.50400001928E-02 0. -1.
    10030    2    1    2    0    0  0.00000000000E+00  0.00000000000E+00  0.31173686201E+03  0.34758311345E+04  0.34618235375E+04 0.  0.
        5    1    3    3  502    0 -0.16776688329E+04 -0.16986510723E+03 -0.23636119320E+03  0.17027376695E+04  0.46999998093E+01 0. -1.
       -5    1    3    3    0  502  0.16776688329E+04  0.16986510723E+03  0.54809805521E+03  0.17730934650E+04  0.46999998093E+01 0.  1.
</event>
<event>
 5   0  0.3190185E-07  0.3502295E+04  0.7818609E-02  0.8113246E-01
       -2   -1    0    0    0  501  0.00000000000E+00  0.00000000000E+00  0.12542184967E+04  0.12542184967E+04  0.25500000920E-02 0.  1.
        2   -1    0    0  501    0  0.00000000000E+00  0.00000000000E+00 -0.24449623537E+04  0.24449623537E+04  0.25500000920E-02 0. -1.
    10030    2    1    2    0    0  0.00000000000E+00  0.00000000000E+00 -0.11907438569E+04  0.36991808504E+04  0.35022946808E+04 0.  0.
        1    1    3    3  502    0 -0.10149464534E+04 -0.13596126680E+04 -0.10531586758E+04  0.19969491998E+04  0.50400001928E-02 0. -1.
       -1    1    3    3    0  502  0.10149464534E+04  0.13596126680E+04 -0.13758518118E+03  0.17022316506E+04  0.50400001928E-02 0.  1.
</event>
<event>
 5   0  0.3219205E-07  0.3507035E+04  0.7818609E-02  0.8112125E-01
        2   -1    0    0  501    0  0.00000000000E+00  0.00000000000E+00  0.24943884061E+04  0.24943884061E+04  0.25500000920E-02 0. -1.
       -2   -1    0    0    0  501  0.00000000000E+00  0.00000000000E+00 -0.12326961597E+04  0.12326961597E+04  0.25500000920E-02 0.  1.
    10030    2    1    2    0    0  0.00000000000E+00  0.00000000000E+00  0.12616922465E+04  0.37270845658E+04  0.35070346499E+04 0.  0.
        2    1    3    3  502    0 -0.38239646211E+03 -0.47674902375E+03 -0.11158449777E+04  0.12722526086E+04  0.25500000920E-02 0.  1.
       -2    1    3    3    0  502  0.38239646211E+03  0.47674902375E+03  0.23775372242E+04  0.24548319572E+04  0.25500000920E-02 0. -1.
</event>
<event>
 5   0  0.1072381E-07  0.3519017E+04  0.7818609E-02  0.8109298E-01
       -1   -1    0    0    0  501  0.00000000000E+00  0.00000000000E+00  0.16045048318E+04  0.16045048318E+04  0.50400001928E-02 0. -1.
        1   -1    0    0  501    0  0.00000000000E+00  0.00000000000E+00 -0.19294862380E+04  0.19294862380E+04  0.50400001928E-02 0.  1.
    10030    2    1    2    0    0  0.00000000000E+00  0.00000000000E+00 -0.32498140619E+03  0.35339910698E+04  0.35190169035E+04 0.  0.
        1    1    3    3  502    0 -0.16895450373E+04  0.40739589160E+03 -0.43813295864E+03  0.17923432526E+04  0.50400001928E-02 0.  1.
       -1    1    3    3    0  502  0.16895450373E+04 -0.40739589160E+03  0.11315155245E+03  0.17416478173E+04  0.50400001928E-02 0. -1.
</event>
<event>
 5   0  0.3190112E-07  0.3498972E+04  0.7818609E-02  0.8114034E-01
        2   -1    0    0  501    0  0.00000000000E+00  0.00000000000E+00  0.18153425162E+04  0.18153425162E+04  0.25500000920E-02 0. -1.
       -2   -1    0    0    0  501  0.00000000000E+00  0.00000000000E+00 -0.16860187843E+04  0.16860187843E+04  0.25500000920E-02 0.  1.
    10030    2    1    2    0    0  0.00000000000E+00  0.00000000000E+00  0.12932373193E+03  0.35013613005E+04  0.34989721818E+04 0.  0.
        5    1    3    3  502    0  0.23537422338E+03 -0.17291994377E+04 -0.58498455848E+02  0.17461316903E+04  0.46999998093E+01 0.  1.
       -5    1    3    3    0  502 -0.23537422338E+03  0.17291994377E+04  0.18782218778E+03  0.17552296102E+04  0.46999998093E+01 0. -1.
</event>
<event>
 5   0  0.3219205E-07  0.3498740E+04  0.7818609E-02  0.8114089E-01
       -2   -1    0    0    0  501  0.00000000000E+00  0.00000000000E+00  0.12754122516E+04  0.12754122516E+04  0.25500000920E-02 0.  1.
        2   -1    0    0  501    0  0.00000000000E+00  0.00000000000E+00 -0.23994558411E+04  0.23994558411E+04  0.25500000920E-02 0. -1.
    10030    2    1    2    0    0  0.00000000000E+00  0.00000000000E+00 -0.11240435895E+04  0.36748680927E+04  0.34987399886E+04 0.  0.
        2    1    3    3  502    0 -0.14241347733E+04 -0.15839813513E+02  0.50493210941E+03  0.15110814628E+04  0.25500000920E-02 0.  1.
       -2    1    3    3    0  502  0.14241347733E+04  0.15839813513E+02 -0.16289756989E+04  0.21637866299E+04  0.25500000920E-02 0. -1.
</event>
<event>
 5   0  0.1072381E-07  0.3514458E+04  0.7818609E-02  0.8110372E-01
        1   -1    0    0  501    0  0.00000000000E+00  0.00000000000E+00  0.16997706317E+04  0.16997706317E+04  0.50400001928E-02 0.  1.
       -1   -1    0    0    0  501  0.00000000000E+00  0.00000000000E+00 -0.18166300339E+04  0.18166300339E+04  0.50400001928E-02 0. -1.
    10030    2    1    2    0    0  0.00000000000E+00  0.00000000000E+00 -0.11685940214E+03  0.35164006656E+04  0.35144583539E+04 0.  0.
        1    1    3    3  502    0  0.43227983508E+03  0.92019370112E+03 -0.14924810604E+04  0.18058576962E+04  0.50400001928E-02 0. -1.
       -1    1    3    3    0  502 -0.43227983508E+03 -0.92019370112E+03  0.13756216582E+04  0.17105429694E+04  0.50400001928E-02 0.  1.
</event>
<event>
 5   0  0.3119048E-07  0.3497333E+04  0.7818609E-02  0.8114422E-01
       -2   -1    0    0    0  501  0.00000000000E+00  0.00000000000E+00  0.18121617347E+04  0.18121617347E+04  0.25500000920E-02 0.  1.
        2   -1    0    0  501    0  0.00000000000E+00  0.00000000000E+00 -0.16873961795E+04  0.16873961795E+04  0.25500000920E-02 0. -1.
    10030    2    1    2    0    0  0.00000000000E+00  0.00000000000E+00  0.12476555518E+03  0.34995579142E+04  0.34973331484E+04 0.  0.
        3    1    3    3  502    0 -0.86295520480E+03 -0.11407283598E+04  0.10689460849E+04  0.17856647555E+04  0.10100000352E+00 0. -1.
       -3    1    3    3    0  502  0.86295520480E+03  0.11407283598E+04 -0.94418052973E+03  0.17138931587E+04  0.10100000352E+00 0.  1.
</event>
<event>
 5   0  0.3190112E-07  0.3494602E+04  0.7818609E-02  0.8115070E-01
       -2   -1    0    0    0  501  0.00000000000E+00  0.00000000000E+00  0.14539286979E+04  0.14539286979E+04  0.25500000920E-02 0. -1.
        2   -1    0    0  501    0  0.00000000000E+00  0.00000000000E+00 -0.20998696596E+04  0.20998696596E+04  0.25500000920E-02 0.  1.
    10030    2    1    2    0    0  0.00000000000E+00  0.00000000000E+00 -0.64594096163E+03  0.35537983575E+04  0.34946019859E+04 0.  0.
        5    1    3    3  502    0  0.19989875790E+03  0.41937607144E+03  0.13899620528E+04  0.14655553216E+04  0.46999998093E+01 0. -1.
       -5    1    3    3    0  502 -0.19989875790E+03 -0.41937607144E+03 -0.20359030144E+04  0.20882430358E+04  0.46999998093E+01 0.  1.
</event>
<event>
 5   0  0.3190185E-07  0.3487513E+04  0.7818609E-02  0.8116756E-01
       -2   -1    0    0    0  501  0.00000000000E+00  0.00000000000E+00  0.17553982469E+04  0.17553982469E+04  0.25500000920E-02 0.  1.
        2   -1    0    0  501    0  0.00000000000E+00  0.00000000000E+00 -0.17321916170E+04  0.17321916170E+04  0.25500000920E-02 0. -1.
    10030    2    1    2    0    0  0.00000000000E+00  0.00000000000E+00  0.23206629866E+02  0.34875898639E+04  0.34875126539E+04 0.  0.
        1    1    3    3  502    0 -0.59485316496E+03  0.65907048580E+03  0.15124569621E+04  0.17537817012E+04  0.50400001928E-02 0.  1.
       -1    1    3    3    0  502  0.59485316496E+03 -0.65907048580E+03 -0.14892503322E+04  0.17338081628E+04  0.50400001928E-02 0. -1.
</event>
<event>
 5   0  0.3190112E-07  0.3561679E+04  0.7818609E-02  0.8099326E-01
        2   -1    0    0  501    0  0.00000000000E+00  0.00000000000E+00  0.21229814420E+04  0.21229814420E+04  0.25500000920E-02 0. -1.
       -2   -1    0    0    0  501  0.00000000000E+00  0.00000000000E+00 -0.14938375619E+04  0.14938375619E+04  0.25500000920E-02 0.  1.
    10030    2    1    2    0    0  0.00000000000E+00  0.00000000000E+00  0.62914388009E+03  0.36168190039E+04  0.35616790542E+04 0.  0.
        5    1    3    3  502    0  0.36110665878E+03 -0.89436985265E+03 -0.12056251145E+04  0.15439719748E+04  0.46999998093E+01 0.  1.
       -5    1    3    3    0  502 -0.36110665878E+03  0.89436985265E+03  0.18347689946E+04  0.20728470291E+04  0.46999998093E+01 0. -1.
</event>
<event>
 5   0  0.1013863E-07  0.3498067E+04  0.7818609E-02  0.8114248E-01
       -1   -1    0    0    0  501  0.00000000000E+00  0.00000000000E+00  0.16422595429E+04  0.16422595429E+04  0.50400001928E-02 0.  1.
        1   -1    0    0  501    0  0.00000000000E+00  0.00000000000E+00 -0.18627495385E+04  0.18627495386E+04  0.50400001928E-02 0. -1.
    10030    2    1    2    0    0  0.00000000000E+00  0.00000000000E+00 -0.22048999562E+03  0.35050090815E+04  0.34980670124E+04 0.  0.
        5    1    3    3  502    0 -0.34046071359E+03 -0.17019980859E+04  0.10555449975E+03  0.17389292178E+04  0.46999998093E+01 0.  1.
       -5    1    3    3    0  502  0.34046071359E+03  0.17019980859E+04 -0.32604449538E+03  0.17660798637E+04  0.46999998093E+01 0. -1.
</event>
<event>
 5   0  0.3219205E-07  0.3501440E+04  0.7818609E-02  0.8113449E-01
       -2   -1    0    0    0  501  0.00000000000E+00  0.00000000000E+00  0.17479517410E+04  0.17479517410E+04  0.25500000920E-02 0. -1.
        2   -1    0    0  501    0  0.00000000000E+00  0.00000000000E+00 -0.17534922286E+04  0.17534922286E+04  0.25500000920E-02 0.  1.
    10030    2    1    2    0    0  0.00000000000E+00  0.00000000000E+00 -0.55404875727E+01  0.35014439696E+04  0.35014395861E+04 0.  0.
        2    1    3    3  502    0 -0.23236996846E+02  0.18271804161E+03  0.17382356558E+04  0.17479671152E+04  0.25500000920E-02 0. -1.
       -2    1    3    3    0  502  0.23236996846E+02 -0.18271804161E+03 -0.17437761434E+04  0.17534768544E+04  0.25500000920E-02 0.  1.
</event>
<event>
 5   0  0.3190185E-07  0.3502888E+04  0.7818609E-02  0.8113106E-01
        2   -1    0    0  501    0  0.00000000000E+00  0.00000000000E+00  0.25833526320E+04  0.25833526320E+04  0.25500000920E-02 0.  1.
       -2   -1    0    0    0  501  0.00000000000E+00  0.00000000000E+00 -0.11874324440E+04  0.11874324440E+04  0.25500000920E-02 0. -1.
    10030    2    1    2    0    0  0.00000000000E+00  0.00000000000E+00  0.13959201880E+04  0.37707850760E+04  0.35028883679E+04 0.  0.
        1    1    3    3  502    0 -0.32996631598E+03  0.92364098738E+03 -0.86407195928E+03  0.13071383990E+04  0.50400001928E-02 0. -1.
       -1    1    3    3    0  502  0.32996631598E+03 -0.92364098738E+03  0.22599921473E+04  0.24636466770E+04  0.50400001928E-02 0.  1.
</event>
<event>
 5   0  0.1013863E-07  0.3499050E+04  0.7818609E-02  0.8114015E-01
        1   -1    0    0  501    0  0.00000000000E+00  0.00000000000E+00  0.20954269293E+04  0.20954269293E+04  0.50400001928E-02 0.  1.
       -1   -1    0    0    0  501  0.00000000000E+00  0.00000000000E+00 -0.14607228637E+04  0.14607228637E+04  0.50400001928E-02 0. -1.
    10030    2    1    2    0    0  0.00000000000E+00  0.00000000000E+00  0.63470406560E+03  0.35561497931E+04  0.34990501711E+04 0.  0.
        2    1    3    3  502    0  0.15603351476E+04  0.49914536139E+03  0.94141316943E+03  0.18894577583E+04  0.25500000920E-02 0.  1.
       -2    1    3    3    0  502 -0.15603351476E+04 -0.49914536139E+03 -0.30670910384E+03  0.16666920348E+04  0.25500000920E-02 0. -1.
</event>
<event>
 5   0  0.1072381E-07  0.3507316E+04  0.7818609E-02  0.8112058E-01
        1   -1    0    0  501    0  0.00000000000E+00  0.00000000000E+00  0.16761829765E+04  0.16761829765E+04  0.50400001928E-02 0. -1.
       -1   -1    0    0    0  501  0.00000000000E+00  0.00000000000E+00 -0.18347142072E+04  0.18347142072E+04  0.50400001928E-02 0.  1.
    10030    2    1    2    0    0  0.00000000000E+00  0.00000000000E+00 -0.15853123070E+03  0.35108971838E+04  0.35073161939E+04 0.  0.
        1    1    3    3  502    0 -0.11340964826E+04 -0.10610350912E+04  0.73602677202E+03  0.17186348378E+04  0.50400001928E-02 0. -1.
       -1    1    3    3    0  502  0.11340964826E+04  0.10610350912E+04 -0.89455800273E+03  0.17922623460E+04  0.50400001928E-02 0.  1.
</event>
<event>
 5   0  0.3219205E-07  0.3495090E+04  0.7818609E-02  0.8114955E-01
        2   -1    0    0  501    0  0.00000000000E+00  0.00000000000E+00  0.19418940230E+04  0.19418940230E+04  0.25500000920E-02 0. -1.
       -2   -1    0    0    0  501  0.00000000000E+00  0.00000000000E+00 -0.15726468598E+04  0.15726468598E+04  0.25500000920E-02 0.  1.
    10030    2    1    2    0    0  0.00000000000E+00  0.00000000000E+00  0.36924716313E+03  0.35145408828E+04  0.34950900059E+04 0.  0.
        2    1    3    3  502    0 -0.13956573911E+04  0.77597733615E+03 -0.52919538734E+03  0.16822746914E+04  0.25500000920E-02 0.  1.
       -2    1    3    3    0  502  0.13956573911E+04 -0.77597733615E+03  0.89844255047E+03  0.18322661914E+04  0.25500000920E-02 0. -1.
</event>
<event>
 5   0  0.1072381E-07  0.3479129E+04  0.7818609E-02  0.8118754E-01
        1   -1    0    0  501    0  0.00000000000E+00  0.00000000000E+00  0.16734976489E+04  0.16734976489E+04  0.50400001928E-02 0.  1.
       -1   -1    0    0    0  501  0.00000000000E+00  0.00000000000E+00 -0.18082398045E+04  0.18082398045E+04  0.50400001928E-02 0. -1.
    10030    2    1    2    0    0  0.00000000000E+00  0.00000000000E+00 -0.13474215552E+03  0.34817374534E+04  0.34791292367E+04 0.  0.
        1    1    3    3  502    0  0.61027484823E+02  0.16802126880E+04  0.37933339088E+03  0.17235814028E+04  0.50400001928E-02 0.  1.
       -1    1    3    3    0  502 -0.61027484823E+02 -0.16802126880E+04 -0.51407554640E+03  0.17581560506E+04  0.50400001928E-02 0. -1.
</event>
<event>
 5   0  0.1098171E-07  0.3496277E+04  0.7818609E-02  0.8114673E-01
       -1   -1    0    0    0  501  0.00000000000E+00  0.00000000000E+00  0.13593742212E+04  0.13593742212E+04  0.50400001928E-02 0. -1.
        1   -1    0    0  501    0  0.00000000000E+00  0.00000000000E+00 -0.22480848814E+04  0.22480848814E+04  0.50400001928E-02 0.  1.
    10030    2    1    2    0    0  0.00000000000E+00  0.00000000000E+00 -0.88871066026E+03  0.36074591026E+04  0.34962772400E+04 0.  0.
        4    1    3    3  502    0 -0.86757204241E+03 -0.43386692452E+03  0.10562187473E+04  0.14340576739E+04  0.12699999809E+01 0. -1.
       -4    1    3    3    0  502  0.86757204241E+03  0.43386692452E+03 -0.19449294076E+04  0.21734014287E+04  0.12699999809E+01 0.  1.
</event>
<event>
 5   0  0.1013863E-07  0.3493079E+04  0.7818609E-02  0.8115432E-01
        1   -1    0    0  501    0  0.00000000000E+00  0.00000000000E+00  0.19434008891E+04  0.19434008892E+04  0.50400001928E-02 0. -1.
       -1   -1    0    0    0  501  0.00000000000E+00  0.00000000000E+00 -0.15696195144E+04  0.15696195144E+04  0.50400001928E-02 0.  1.
    10030    2    1    2    0    0  0.00000000000E+00  0.00000000000E+00  0.37378137478E+03  0.35130204035E+04  0.34930788482E+04 0.  0.
        2    1    3    3  502    0  0.67674039678E+03  0.14305134549E+04  0.93006371756E+03  0.18355829668E+04  0.25500000920E-02 0. -1.
       -2    1    3    3    0  502 -0.67674039678E+03 -0.14305134549E+04 -0.55628234278E+03  0.16774374367E+04  0.25500000920E-02 0.  1.
</event>
<event>
 5   0  0.2180451E-07  0.3392084E+04  0.7818609E-02  0.8139852E-01
       -2   -1    0    0    0  501  0.00000000000E+00  0.00000000000E+00  0.17234277961E+04  0.17234277961E+04  0.25500000920E-02 0. -1.
        2   -1    0    0  501    0  0.00000000000E+00  0.00000000000E+00 -0.16690915781E+04  0.16690915781E+04  0.25500000920E-02 0.  1.
    10030    2    1    2    0    0  0.00000000000E+00  0.00000000000E+00  0.54336217972E+02  0.33925193743E+04  0.33920842089E+04 0.  0.
        4    1    3    3  502    0 -0.50081000205E+03 -0.14007496285E+04  0.84191795694E+03  0.17093091116E+04  0.12699999809E+01 0. -1.
       -4    1    3    3    0  502  0.50081000205E+03  0.14007496285E+04 -0.78758173896E+03  0.16832102627E+04  0.12699999809E+01 0.  1.
</event>
<event>
 5   0  0.3190112E-07  0.3502828E+04  0.7818609E-02  0.8113120E-01
       -2   -1    0    0    0  501  0.00000000000E+00  0.00000000000E+00  0.22971353101E+04  0.22971353101E+04  0.25500000920E-02 0. -1.
        2   -1    0    0  501    0  0.00000000000E+00  0.00000000000E+00 -0.13353372960E+04  0.13353372960E+04  0.25500000920E-02 0.  1.
    10030    2    1    2    0    0  0.00000000000E+00  0.00000000000E+00  0.96179801413E+03  0.36324726061E+04  0.35028276883E+04 0.  0.
        5    1    3    3  502    0 -0.14241631387E+03  0.17170045840E+04  0.15454304206E+03  0.17298244968E+04  0.46999998093E+01 0.  1.
       -5    1    3    3    0  502  0.14241631387E+03 -0.17170045840E+04  0.80725497207E+03  0.19026481093E+04  0.46999998093E+01 0. -1.
</event>
<event>
 5   0  0.2180451E-07  0.3529907E+04  0.7818609E-02  0.8106739E-01
       -2   -1    0    0    0  501  0.00000000000E+00  0.00000000000E+00  0.15272511095E+04  0.15272511095E+04  0.25500000920E-02 0.  1.
        2   -1    0    0  501    0  0.00000000000E+00  0.00000000000E+00 -0.20396516881E+04  0.20396516881E+04  0.25500000920E-02 0. -1.
    10030    2    1    2    0    0  0.00000000000E+00  0.00000000000E+00 -0.51240057857E+03  0.35669027976E+04  0.35299066864E+04 0.  0.
        4    1    3    3  502    0  0.10282562652E+04 -0.14052454159E+04 -0.54737495416E+03  0.18252798632E+04  0.12699999809E+01 0. -1.
       -4    1    3    3    0  502 -0.10282562652E+04  0.14052454159E+04  0.34974375591E+02  0.17416229344E+04  0.12699999809E+01 0.  1.
</event>
<event>
 5   0  0.2180451E-07  0.3455027E+04  0.7818609E-02  0.8124531E-01
       -2   -1    0    0    0  501  0.00000000000E+00  0.00000000000E+00  0.20067882338E+04  0.20067882338E+04  0.25500000920E-02 0.  1.
        2   -1    0    0  501    0  0.00000000000E+00  0.00000000000E+00 -0.14871038170E+04  0.14871038170E+04  0.25500000920E-02 0. -1.
    10030    2    1    2    0    0  0.00000000000E+00  0.00000000000E+00  0.51968441673E+03  0.34938920508E+04  0.34550267393E+04 0.  0.
        4    1    3    3  502    0 -0.11457859584E+04 -0.85326523021E+03  0.12420631410E+04  0.18930423859E+04  0.12699999809E+01 0.  1.
       -4    1    3    3    0  502  0.11457859584E+04  0.85326523021E+03 -0.72237872426E+03  0.16008496649E+04  0.12699999809E+01 0. -1.
</event>
<event>
 5   0  0.3190112E-07  0.3545211E+04  0.7818609E-02  0.8103158E-01
        2   -1    0    0  501    0  0.00000000000E+00  0.00000000000E+00  0.10586976640E+04  0.10586976640E+04  0.25500000920E-02 0. -1.
       -2   -1    0    0    0  501  0.00000000000E+00  0.00000000000E+00 -0.29679198300E+04  0.29679198300E+04  0.25500000920E-02 0.  1.
    10030    2    1    2    0    0  0.00000000000E+00  0.00000000000E+00 -0.19092221660E+04  0.40266174940E+04  0.35452107362E+04 0.  0.
        5    1    3    3  502    0 -0.22272492542E+03 -0.38169185006E+03 -0.29043415684E+04  0.29377741739E+04  0.46999998093E+01 0.  1.
       -5    1    3    3    0  502  0.22272492542E+03  0.38169185006E+03  0.99511940240E+03  0.10888433202E+04  0.46999998093E+01 0. -1.
</event>
<event>
 5   0  0.3190185E-07  0.3493698E+04  0.7818609E-02  0.8115285E-01
       -2   -1    0    0    0  501  0.00000000000E+00  0.00000000000E+00  0.11166386975E+04  0.11166386975E+04  0.25500000920E-02 0.  1.
        2   -1    0    0  501    0  0.00000000000E+00  0.00000000000E+00 -0.27327376816E+04  0.27327376816E+04  0.25500000920E-02 0. -1.
    10030    2    1    2    0    0  0.00000000000E+00  0.00000000000E+00 -0.16160989841E+04  0.38493763791E+04  0.34936975515E+04 0.  0.
        1    1    3    3  502    0  0.23236920347E+03  0.16973515250E+04 -0.43200750093E+03  0.17668129859E+04  0.50400001928E-02 0. -1.
       -1    1    3    3    0  502 -0.23236920347E+03 -0.16973515250E+04 -0.11840914831E+04  0.20825633932E+04  0.50400001928E-02 0.  1.
</event>
<event>
 5   0  0.2180451E-07  0.3447526E+04  0.7818609E-02  0.8126339E-01
       -2   -1    0    0    0  501  0.00000000000E+00  0.00000000000E+00  0.17870443758E+04  0.17870443758E+04  0.25500000920E-02 0. -1.
        2   -1    0    0  501    0  0.00000000000E+00  0.00000000000E+00 -0.16627226187E+04  0.16627226187E+04  0.25500000920E-02 0.  1.
    10030    2    1    2    0    0  0.00000000000E+00  0.00000000000E+00  0.12432175708E+03  0.34497669945E+04  0.34475261300E+04 0.  0.
        4    1    3    3  502    0 -0.85491632467E+03  0.70180825611E+03 -0.12607955737E+04  0.16772071554E+04  0.12699999809E+01 0.  1.
       -4    1    3    3    0  502  0.85491632467E+03 -0.70180825611E+03  0.13851173307E+04  0.17725598391E+04  0.12699999809E+01 0. -1.
</event>
<event>
 5   0  0.1072381E-07  0.3506941E+04  0.7818609E-02  0.8112147E-01
       -1   -1    0    0    0  501  0.00000000000E+00  0.00000000000E+00  0.14971315665E+04  0.14971315665E+04  0.50400001928E-02 0.  1.
        1   -1    0    0  501    0  0.00000000000E+00  0.00000000000E+00 -0.20537002696E+04  0.20537002696E+04  0.50400001928E-02 0. -1.
    10030    2    1    2    0    0  0.00000000000E+00  0.00000000000E+00 -0.55656870310E+03  0.35508318361E+04  0.35069414034E+04 0.  0.
        1    1    3    3  502    0  0.23742549686E+03  0.23480950291E+03 -0.20212091277E+04  0.20486075044E+04  0.50400001928E-02 0. -1.
       -1    1    3    3    0  502 -0.23742549686E+03 -0.23480950291E+03  0.14646404246E+04  0.15022243317E+04  0.50400001928E-02 0.  1.
</event>
<event>
 5   0  0.1013863E-07  0.3509323E+04  0.7818609E-02  0.8111584E-01
       -1   -1    0    0    0  501  0.00000000000E+00  0.00000000000E+00  0.25597977494E+04  0.25597977494E+04  0.50400001928E-02 0. -1.
        1   -1    0    0  501    0  0.00000000000E+00  0.00000000000E+00 -0.12027658358E+04  0.12027658358E+04  0.50400001928E-02 0.  1.
    10030    2    1    2    0    0  0.00000000000E+00  0.00000000000E+00  0.13570319136E+04  0.37625635852E+04  0.35093231710E+04 0.  0.
        2    1    3    3  502    0  0.60302140058E+03  0.13494736428E+04  0.16923321045E+04  0.22469316576E+04  0.25500000920E-02 0. -1.
       -2    1    3    3    0  502 -0.60302140058E+03 -0.13494736428E+04 -0.33530019088E+03  0.15156319276E+04  0.25500000920E-02 0.  1.
</event>
<event>
 5   0  0.1033796E-07  0.3511859E+04  0.7818609E-02  0.8110985E-01
        1   -1    0    0  501    0  0.00000000000E+00  0.00000000000E+00  0.29872881910E+04  0.29872881910E+04  0.50400001928E-02 0. -1.
       -1   -1    0    0    0  501  0.00000000000E+00  0.00000000000E+00 -0.10321360521E+04  0.10321360521E+04  0.50400001928E-02 0.  1.
    10030    2    1    2    0    0  0.00000000000E+00  0.00000000000E+00  0.19551521389E+04  0.40194242431E+04  0.35118586759E+04 0.  0.
        3    1    3    3  502    0  0.15342947318E+03  0.15906543610E+04  0.18104645115E+04  0.24148506490E+04  0.10100000352E+00 0. -1.
       -3    1    3    3    0  502 -0.15342947318E+03 -0.15906543610E+04  0.14468762744E+03  0.16045735941E+04  0.10100000352E+00 0.  1.
</event>
<event>
 5   0  0.2180451E-07  0.3497931E+04  0.7818609E-02  0.8114280E-01
       -2   -1    0    0    0  501  0.00000000000E+00  0.00000000000E+00  0.15898595795E+04  0.15898595795E+04  0.25500000920E-02 0. -1.
        2   -1    0    0  501    0  0.00000000000E+00  0.00000000000E+00 -0.19239945572E+04  0.19239945572E+04  0.25500000920E-02 0.  1.
    10030    2    1    2    0    0  0.00000000000E+00  0.00000000000E+00 -0.33413497767E+03  0.35138541368E+04  0.34979314903E+04 0.  0.
        4    1    3    3  502    0  0.39325938706E+03 -0.16061572058E+04 -0.73929690266E+03  0.18113407848E+04  0.12699999809E+01 0.  1.
       -4    1    3    3    0  502 -0.39325938706E+03  0.16061572058E+04  0.40516192499E+03  0.17025133520E+04  0.12699999809E+01 0. -1.
</event>
<event>
 5   0  0.1098171E-07  0.3482563E+04  0.7818609E-02  0.8117935E-01
       -1   -1    0    0    0  501  0.00000000000E+00  0.00000000000E+00  0.12422551292E+04  0.12422551292E+04  0.50400001928E-02 0.  1.
        1   -1    0    0  501    0  0.00000000000E+00  0.00000000000E+00 -0.24407721445E+04  0.24407721445E+04  0.50400001928E-02 0. -1.
    10030    2    1    2    0    0  0.00000000000E+00  0.00000000000E+00 -0.11985170153E+04  0.36830272738E+04  0.34825632605E+04 0.  0.
        4    1    3    3  502    0  0.16850733646E+04  0.67971139920E+02 -0.14074975512E+03  0.16923074267E+04  0.12699999809E+01 0. -1.
       -4    1    3    3    0  502 -0.16850733646E+04 -0.67971139920E+02 -0.10577672601E+04  0.19907198471E+04  0.12699999809E+01 0.  1.
</event>
<event>
 5   0  0.1013863E-07  0.3494229E+04  0.7818609E-02  0.8115159E-01
        1   -1    0    0  501    0  0.00000000000E+00  0.00000000000E+00  0.25118708073E+04  0.25118708073E+04  0.50400001928E-02 0.  1.
       -1   -1    0    0    0  501  0.00000000000E+00  0.00000000000E+00 -0.12151938413E+04  0.12151938413E+04  0.50400001928E-02 0. -1.
    10030    2    1    2    0    0  0.00000000000E+00  0.00000000000E+00  0.12966769660E+04  0.37270646487E+04  0.34942294918E+04 0.  0.
        5    1    3    3  502    0  0.11694659104E+03  0.13096231879E+04 -0.57880014010E+03  0.14366005331E+04  0.46999998093E+01 0. -1.
       -5    1    3    3    0  502 -0.11694659104E+03 -0.13096231879E+04  0.18754771061E+04  0.22904641156E+04  0.46999998093E+01 0.  1.
</event>
<event>
 5   0  0.1098171E-07  0.3501995E+04  0.7818609E-02  0.8113317E-01
        1   -1    0    0  501    0  0.00000000000E+00  0.00000000000E+00  0.25644142816E+04  0.25644142816E+04  0.50400001928E-02 0. -1.
       -1   -1    0    0    0  501  0.00000000000E+00  0.00000000000E+00 -0.11955919676E+04  0.11955919676E+04  0.50400001928E-02 0.  1.
    10030    2    1    2    0    0  0.00000000000E+00  0.00000000000E+00  0.13688223139E+04  0.37600062492E+04  0.35019954978E+04 0.  0.
        4    1    3    3  502    0 -0.16133565189E+04 -0.59808117839E+03  0.10329360842E+04  0.20068828864E+04  0.12699999809E+01 0.  1.
       -4    1    3    3    0  502  0.16133565189E+04  0.59808117839E+03  0.33588622975E+03  0.17531233628E+04  0.12699999809E+01 0. -1.
</event>
<event>
 5   0  0.1013863E-07  0.3479630E+04  0.7818609E-02  0.8118634E-01
       -1   -1    0    0    0  501  0.00000000000E+00  0.00000000000E+00  0.18638206115E+04  0.18638206115E+04  0.50400001928E-02 0.  1.
        1   -1    0    0  501    0  0.00000000000E+00  0.00000000000E+00 -0.16240598125E+04  0.16240598125E+04  0.50400001928E-02 0. -1.
    10030    2    1    2    0    0  0.00000000000E+00  0.00000000000E+00  0.23976079903E+03  0.34878804240E+04  0.34796299532E+04 0.  0.
        2    1    3    3  502    0 -0.10591469156E+04 -0.53116664388E+03 -0.11571206672E+04  0.16561577312E+04  0.25500000920E-02 0. -1.
       -2    1    3    3    0  502  0.10591469156E+04  0.53116664388E+03  0.13968814662E+04  0.18317226927E+04  0.25500000920E-02 0.  1.
</event>
<event>
 5   0  0.3119048E-07  0.3516517E+04  0.7818609E-02  0.8109887E-01
        2   -1    0    0  501    0  0.00000000000E+00  0.00000000000E+00  0.24419637487E+04  0.24419637487E+04  0.25500000920E-02 0. -1.
       -2   -1    0    0    0  501  0.00000000000E+00  0.00000000000E+00 -0.12659779642E+04  0.12659779642E+04  0.25500000920E-02 0.  1.
    10030    2    1    2    0    0  0.00000000000E+00  0.00000000000E+00  0.11759857845E+04  0.37079417130E+04  0.35165166261E+04 0.  0.
        3    1    3    3  502    0  0.46282376698E+03 -0.28476734627E+02 -0.12003428435E+04  0.12867943564E+04  0.10100000352E+00 0.  1.
       -3    1    3    3    0  502 -0.46282376698E+03  0.28476734627E+02  0.23763286280E+04  0.24211473565E+04  0.10100000352E+00 0. -1.
</event>
<event>
 5   0  0.2180451E-07  0.3500769E+04  0.7818609E-02  0.8113608E-01
        2   -1    0    0  501    0  0.00000000000E+00  0.00000000000E+00  0.17731634226E+04  0.17731634226E+04  0.25500000920E-02 0.  1.
       -2   -1    0    0    0  501  0.00000000000E+00  0.00000000000E+00 -0.17278979456E+04  0.17278979456E+04  0.25500000920E-02 0. -1.
    10030    2    1    2    0    0  0.00000000000E+00  0.00000000000E+00  0.45265477001E+02  0.35010613683E+04  0.35007687357E+04 0.  0.
        4    1    3    3  502    0 -0.50910992368E+03 -0.16060129411E+04  0.49740744395E+03  0.17566690808E+04  0.12699999809E+01 0.  1.
       -4    1    3    3    0  502  0.50910992368E+03  0.16060129411E+04 -0.45214196695E+03  0.17443922874E+04  0.12699999809E+01 0. -1.
</event>
<event>
 5   0  0.1033796E-07  0.3538357E+04  0.7818609E-02  0.8104759E-01
       -1   -1    0    0    0  501  0.00000000000E+00  0.00000000000E+00  0.33579739873E+04  0.33579739873E+04  0.50400001928E-02 0. -1.
        1   -1    0    0  501    0  0.00000000000E+00  0.00000000000E+00 -0.93210761007E+03  0.93210761008E+03  0.50400001928E-02 0.  1.
    10030    2    1    2    0    0  0.00000000000E+00  0.00000000000E+00  0.24258663772E+04  0.42900815974E+04  0.35383573070E+04 0.  0.
        3    1    3    3  502    0 -0.14312105303E+04 -0.74677513400E+03  0.20905631623E+04  0.26413047966E+04  0.10100000352E+00 0. -1.
       -3    1    3    3    0  502  0.14312105303E+04  0.74677513400E+03  0.33530321498E+03  0.16487768008E+04  0.10100000352E+00 0.  1.
</event>
<event>
 5   0  0.3190112E-07  0.3525080E+04  0.7818609E-02  0.8107872E-01
        2   -1    0    0  501    0  0.00000000000E+00  0.00000000000E+00  0.25149251638E+04  0.25149251638E+04  0.25500000920E-02 0. -1.
       -2   -1    0    0    0  501  0.00000000000E+00  0.00000000000E+00 -0.12352440795E+04  0.12352440795E+04  0.25500000920E-02 0.  1.
    10030    2    1    2    0    0  0.00000000000E+00  0.00000000000E+00  0.12796810843E+04  0.37501692433E+04  0.35250795276E+04 0.  0.
        5    1    3    3  502    0  0.49318468142E+02  0.31122608504E+03 -0.12050274481E+04  0.12455549879E+04  0.46999998093E+01 0.  1.
       -5    1    3    3    0  502 -0.49318468142E+02 -0.31122608504E+03  0.24847085324E+04  0.25046142554E+04  0.46999998093E+01 0. -1.
</event>
<event>
 5   0  0.2180451E-07  0.3495980E+04  0.7818609E-02  0.8114743E-01
       -2   -1    0    0    0  501  0.00000000000E+00  0.00000000000E+00  0.11822439519E+04  0.11822439519E+04  0.25500000920E-02 0. -1.
        2   -1    0    0  501    0  0.00000000000E+00  0.00000000000E+00 -0.25844662912E+04  0.25844662912E+04  0.25500000920E-02 0.  1.
    10030    2    1    2    0    0  0.00000000000E+00  0.00000000000E+00 -0.14022223393E+04  0.37667102431E+04  0.34959803442E+04 0.  0.
        4    1    3    3  502    0 -0.33766468818E+03 -0.15291845543E+04 -0.15378080667E+04  0.21948298580E+04  0.12699999809E+01 0.  1.
       -4    1    3    3    0  502  0.33766468818E+03  0.15291845543E+04  0.13558572741E+03  0.15718803851E+04  0.12699999809E+01 0. -1.
</event>
<event>
 5   0  0.1098171E-07  0.3494016E+04  0.7818609E-02  0.8115210E-01
       -1   -1    0    0    0  501  0.00000000000E+00  0.00000000000E+00  0.21087654719E+04  0.21087654720E+04  0.50400001928E-02 0.  1.
        1   -1    0    0  501    0  0.00000000000E+00  0.00000000000E+00 -0.14473098013E+04  0.14473098013E+04  0.50400001928E-02 0. -1.
    10030    2    1    2    0    0  0.00000000000E+00  0.00000000000E+00  0.66145567069E+03  0.35560752732E+04  0.34940159909E+04 0.  0.
        4    1    3    3  502    0 -0.24333935630E+03 -0.54851392538E+03  0.20005870385E+04  0.20886435024E+04  0.12699999809E+01 0.  1.
       -4    1    3    3    0  502  0.24333935630E+03  0.54851392538E+03 -0.13391313678E+04  0.14674317708E+04  0.12699999809E+01 0. -1.
</event>
<event>
 5   0  0.2180451E-07  0.3494169E+04  0.7818609E-02  0.8115173E-01
        2   -1    0    0  501    0  0.00000000000E+00  0.00000000000E+00  0.19819823999E+04  0.19819823999E+04  0.25500000920E-02 0. -1.
       -2   -1    0    0    0  501  0.00000000000E+00  0.00000000000E+00 -0.15400259996E+04  0.15400259996E+04  0.25500000920E-02 0.  1.
    10030    2    1    2    0    0  0.00000000000E+00  0.00000000000E+00  0.44195640023E+03  0.35220083995E+04  0.34941691010E+04 0.  0.
        4    1    3    3  502    0 -0.37269773494E+03 -0.87359779329E+03 -0.12570697851E+04  0.15755325333E+04  0.12699999809E+01 0.  1.
       -4    1    3    3    0  502  0.37269773494E+03  0.87359779329E+03  0.16990261853E+04  0.19464758661E+04  0.12699999809E+01 0. -1.
</event>
<event>
 5   0  0.1098171E-07  0.3497024E+04  0.7818609E-02  0.8114496E-01
        1   -1    0    0  501    0  0.00000000000E+00  0.00000000000E+00  0.21429637074E+04  0.21429637074E+04  0.50400001928E-02 0.  1.
       -1   -1    0    0    0  501  0.00000000000E+00  0.00000000000E+00 -0.14266665696E+04  0.14266665696E+04  0.50400001928E-02 0. -1.
    10030    2    1    2    0    0  0.00000000000E+00  0.00000000000E+00  0.71629713785E+03  0.35696302770E+04  0.34970242671E+04 0.  0.
        4    1    3    3  502    0  0.94308249439E+03  0.71924892082E+03  0.16695676370E+04  0.20479700459E+04  0.12699999809E+01 0.  1.
       -4    1    3    3    0  502 -0.94308249439E+03 -0.71924892082E+03 -0.95327049920E+03  0.15216602311E+04  0.12699999809E+01 0. -1.
</event>
<event>
 5   0  0.1072381E-07  0.3499468E+04  0.7818609E-02  0.8113916E-01
       -1   -1    0    0    0  501  0.00000000000E+00  0.00000000000E+00  0.11167119899E+04  0.11167119899E+04  0.50400001928E-02 0. -1.
        1   -1    0    0  501    0  0.00000000000E+00  0.00000000000E+00 -0.27415927505E+04  0.27415927505E+04  0.50400001928E-02 0.  1.
    10030    2    1    2    0    0  0.00000000000E+00  0.00000000000E+00 -0.16248807606E+04  0.38583047403E+04  0.34994682429E+04 0.  0.
        1    1    3    3  502    0 -0.74874194448E+03  0.57306004672E+02  0.93001669029E+03  0.11953365726E+04  0.50400001928E-02 0. -1.
       -1    1    3    3    0  502  0.74874194448E+03 -0.57306004672E+02 -0.25548974509E+04  0.26629681677E+04  0.50400001928E-02 0.  1.
</event>
<event>
 5   0  0.3119048E-07  0.3495142E+04  0.7818609E-02  0.8114942E-01
        2   -1    0    0  501    0  0.00000000000E+00  0.00000000000E+00  0.17739276712E+04  0.17739276712E+04  0.25500000920E-02 0. -1.
       -2   -1    0    0    0  501  0.00000000000E+00  0.00000000000E+00 -0.17216059749E+04  0.17216059749E+04  0.25500000920E-02 0.  1.
    10030    2    1    2    0    0  0.00000000000E+00  0.00000000000E+00  0.52321696289E+02  0.34955336461E+04  0.34951420445E+04 0.  0.
        3    1    3    3  502    0  0.14386979040E+04  0.80724868467E+02 -0.96270485995E+03  0.17329653259E+04  0.10100000352E+00 0.  1.
       -3    1    3    3    0  502 -0.14386979040E+04 -0.80724868467E+02  0.10150265562E+04  0.17625683202E+04  0.10100000352E+00 0. -1.
</event>
<event>
 5   0  0.1013863E-07  0.3492077E+04  0.7818609E-02  0.8115670E-01
        1   -1    0    0  501    0  0.00000000000E+00  0.00000000000E+00  0.14750619732E+04  0.14750619732E+04  0.50400001928E-02 0.  1.
       -1   -1    0    0    0  501  0.00000000000E+00  0.00000000000E+00 -0.20667949584E+04  0.20667949584E+04  0.50400001928E-02 0. -1.
    10030    2    1    2    0    0  0.00000000000E+00  0.00000000000E+00 -0.59173298519E+03  0.35418569315E+04  0.34920771180E+04 0.  0.
        5    1    3    3  502    0  0.38083550629E+03  0.66108605328E+03  0.12970494687E+04  0.15048022684E+04  0.46999998093E+01 0.  1.
       -5    1    3    3    0  502 -0.38083550629E+03 -0.66108605328E+03 -0.18887824539E+04  0.20370546632E+04  0.46999998093E+01 0. -1.
</event>
<event>
 5   0  0.3190185E-07  0.3506081E+04  0.7818609E-02  0.8112350E-01
        2   -1    0    0  501    0  0.00000000000E+00  0.00000000000E+00  0.35314184870E+04  0.35314184870E+04  0.25500000920E-02 0.  1.
       -2   -1    0    0    0  501  0.00000000000E+00  0.00000000000E+00 -0.87023121696E+03  0.87023121696E+03  0.25500000920E-02 0. -1.
    10030    2    1    2    0    0  0.00000000000E+00  0.00000000000E+00  0.26611872701E+04  0.44016497040E+04  0.35060807792E+04 0.  0.
        1    1    3    3  502    0  0.17252177216E+04 -0.30619326053E+03  0.13995865971E+04  0.22425372109E+04  0.50400001928E-02 0.  1.
       -1    1    3    3    0  502 -0.17252177216E+04  0.30619326053E+03  0.12616006730E+04  0.21591124931E+04  0.50400001928E-02 0. -1.
</event>
<event>
 5   0  0.2180451E-07  0.3419397E+04  0.7818609E-02  0.8133162E-01
       -2   -1    0    0    0  501  0.00000000000E+00  0.00000000000E+00  0.13973584502E+04  0.13973584502E+04  0.25500000920E-02 0. -1.
        2   -1    0    0  501    0  0.00000000000E+00  0.00000000000E+00 -0.20918532507E+04  0.20918532507E+04  0.25500000920E-02 0.  1.
    10030    2    1    2    0    0  0.00000000000E+00  0.00000000000E+00 -0.69449480051E+03  0.34892117009E+04  0.34193969155E+04 0.  0.
        4    1    3    3  502    0 -0.94136558618E+03  0.62139505310E+03 -0.16583014363E+04  0.20055588362E+04  0.12699999809E+01 0.  1.
       -4    1    3    3    0  502  0.94136558618E+03 -0.62139505310E+03  0.96380663581E+03  0.14836528647E+04  0.12699999809E+01 0. -1.
</event>
<event>
 5   0  0.3190185E-07  0.3502416E+04  0.7818609E-02  0.8113218E-01
       -2   -1    0    0    0  501  0.00000000000E+00  0.00000000000E+00  0.19748337180E+04  0.19748337180E+04  0.25500000920E-02 0.  1.
        2   -1    0    0  501    0  0.00000000000E+00  0.00000000000E+00 -0.15529047820E+04  0.15529047820E+04  0.25500000920E-02 0. -1.
    10030    2    1    2    0    0  0.00000000000E+00  0.00000000000E+00  0.42192893604E+03  0.35277385000E+04  0.35024155803E+04 0.  0.
        1    1    3    3  502    0  0.49770914232E+03 -0.16687682091E+04  0.39730748148E+03  0.17861564772E+04  0.50400001928E-02 0.  1.
       -1    1    3    3    0  502 -0.49770914232E+03  0.16687682091E+04  0.24621454554E+02  0.17415820228E+04  0.50400001928E-02 0. -1.
</event>
<event>
 5   0  0.3190185E-07  0.3474097E+04  0.7818609E-02  0.8119956E-01
       -2   -1    0    0    0  501  0.00000000000E+00  0.00000000000E+00  0.14002270769E+04  0.14002270769E+04  0.25500000920E-02 0.  1.
        2   -1    0    0  501    0  0.00000000000E+00  0.00000000000E+00 -0.21548915266E+04  0.21548915266E+04  0.25500000920E-02 0. -1.
    10030    2    1    2    0    0  0.00000000000E+00  0.00000000000E+00 -0.75466444977E+03  0.35551186035E+04  0.34740969838E+04 0.  0.
        1    1    3    3  502    0 -0.47765679089E+03 -0.48640744187E+03 -0.20122752545E+04  0.21246175914E+04  0.50400001928E-02 0. -1.
       -1    1    3    3    0  502  0.47765679089E+03  0.48640744187E+03  0.12576108048E+04  0.14305010121E+04  0.50400001928E-02 0.  1.
</event>
<event>
 5   0  0.3190112E-07  0.3503062E+04  0.7818609E-02  0.8113065E-01
       -2   -1    0    0    0  501  0.00000000000E+00  0.00000000000E+00  0.16664507499E+04  0.16664507499E+04  0.25500000920E-02 0. -1.
        2   -1    0    0  501    0  0.00000000000E+00  0.00000000000E+00 -0.18409554892E+04  0.18409554893E+04  0.25500000920E-02 0.  1.
    10030    2    1    2    0    0  0.00000000000E+00  0.00000000000E+00 -0.17450473932E+03  0.35074062392E+04  0.35030624634E+04 0.  0.
        5    1    3    3  502    0  0.74262765232E+03  0.49661574723E+03  0.14211735961E+04  0.16786540771E+04  0.46999998093E+01 0. -1.
       -5    1    3    3    0  502 -0.74262765232E+03 -0.49661574723E+03 -0.15956783354E+04  0.18287521621E+04  0.46999998093E+01 0.  1.
</event>
<event>
 5   0  0.1013863E-07  0.3512205E+04  0.7818609E-02  0.8110904E-01
        1   -1    0    0  501    0  0.00000000000E+00  0.00000000000E+00  0.23215021880E+04  0.23215021880E+04  0.50400001928E-02 0. -1.
       -1   -1    0    0    0  501  0.00000000000E+00  0.00000000000E+00 -0.13284052312E+04  0.13284052313E+04  0.50400001928E-02 0.  1.
    10030    2    1    2    0    0  0.00000000000E+00  0.00000000000E+00  0.99309695674E+03  0.36499074192E+04  0.35122048066E+04 0.  0.
        2    1    3    3  502    0 -0.25397033409E+03 -0.17281287705E+04  0.30786538532E+03  0.17736152553E+04  0.25500000920E-02 0.  1.
       -2    1    3    3    0  502  0.25397033409E+03  0.17281287705E+04  0.68523157142E+03  0.18762921640E+04  0.25500000920E-02 0. -1.
</event>
<event>
 5   0  0.3190112E-07  0.3491811E+04  0.7818609E-02  0.8115733E-01
        2   -1    0    0  501    0  0.00000000000E+00  0.00000000000E+00  0.29813485868E+04  0.29813485868E+04  0.25500000920E-02 0.  1.
       -2   -1    0    0    0  501  0.00000000000E+00  0.00000000000E+00 -0.10224182976E+04  0.10224182976E+04  0.25500000920E-02 0. -1.
    10030    2    1    2    0    0  0.00000000000E+00  0.00000000000E+00  0.19589302891E+04  0.40037668844E+04  0.34918106173E+04 0.  0.
        5    1    3    3  502    0 -0.11148994050E+04  0.84386614805E+03 -0.21931243672E+03  0.14153553596E+04  0.46999998093E+01 0. -1.
       -5    1    3    3    0  502  0.11148994050E+04 -0.84386614805E+03  0.21782427258E+04  0.25884115248E+04  0.46999998093E+01 0.  1.
</event>
<event>
 5   0  0.1072381E-07  0.3358926E+04  0.7818609E-02  0.8148062E-01
        1   -1    0    0  501    0  0.00000000000E+00  0.00000000000E+00  0.23875788957E+04  0.23875788958E+04  0.50400001928E-02 0.  1.
       -1   -1    0    0    0  501  0.00000000000E+00  0.00000000000E+00 -0.11813621660E+04  0.11813621660E+04  0.50400001928E-02 0. -1.
    10030    2    1    2    0    0  0.00000000000E+00  0.00000000000E+00  0.12062167298E+04  0.35689410617E+04  0.33589256471E+04 0.  0.
        1    1    3    3  502    0 -0.63320421925E+03 -0.10985825062E+04 -0.56700295868E+03  0.13890008860E+04  0.50400001928E-02 0. -1.
       -1    1    3    3    0  502  0.63320421925E+03  0.10985825062E+04  0.17732196885E+04  0.21799401757E+04  0.50400001928E-02 0.  1.
</event>
<event>
 5   0  0.1098171E-07  0.3494498E+04  0.7818609E-02  0.8115095E-01
        1   -1    0    0  501    0  0.00000000000E+00  0.00000000000E+00  0.15407511200E+04  0.15407511201E+04  0.50400001928E-02 0.  1.
       -1   -1    0    0    0  501  0.00000000000E+00  0.00000000000E+00 -0.19814220205E+04  0.19814220205E+04  0.50400001928E-02 0. -1.
    10030    2    1    2    0    0  0.00000000000E+00  0.00000000000E+00 -0.44067090044E+03  0.35221731405E+04  0.34944975017E+04 0.  0.
        4    1    3    3  502    0  0.35637221020E+03  0.20319147875E+03 -0.19321941416E+04  0.19752629554E+04  0.12699999809E+01 0. -1.
       -4    1    3    3    0  502 -0.35637221020E+03 -0.20319147875E+03  0.14915232411E+04  0.15469101852E+04  0.12699999809E+01 0.  1.
</event>
<event>
 5   0  0.1013863E-07  0.3498337E+04  0.7818609E-02  0.8114184E-01
       -1   -1    0    0    0  501  0.00000000000E+00  0.00000000000E+00  0.14151645265E+04  0.14151645265E+04  0.50400001928E-02 0. -1.
        1   -1    0    0  501    0  0.00000000000E+00  0.00000000000E+00 -0.21620028976E+04  0.21620028976E+04  0.50400001928E-02 0.  1.
    10030    2    1    2    0    0  0.00000000000E+00  0.00000000000E+00 -0.74683837108E+03  0.35771674241E+04  0.34983366372E+04 0.  0.
        5    1    3    3  502    0 -0.92747023268E+03 -0.21204535057E+03 -0.18742826548E+04  0.21019328779E+04  0.46999998093E+01 0.  1.
       -5    1    3    3    0  502  0.92747023268E+03  0.21204535057E+03  0.11274442837E+04  0.14752345461E+04  0.46999998093E+01 0. -1.
</event>
<event>
 5   0  0.2180451E-07  0.3501514E+04  0.7818609E-02  0.8113431E-01
       -2   -1    0    0    0  501  0.00000000000E+00  0.00000000000E+00  0.15819169043E+04  0.15819169043E+04  0.25500000920E-02 0.  1.
        2   -1    0    0  501    0  0.00000000000E+00  0.00000000000E+00 -0.19376181358E+04  0.19376181358E+04  0.25500000920E-02 0. -1.
    10030    2    1    2    0    0  0.00000000000E+00  0.00000000000E+00 -0.35570123150E+03  0.35195350401E+04  0.35015144627E+04 0.  0.
        4    1    3    3  502    0  0.14513669957E+03  0.13736677872E+03 -0.19261165279E+04  0.19364557277E+04  0.12699999809E+01 0. -1.
       -4    1    3    3    0  502 -0.14513669957E+03 -0.13736677872E+03  0.15704152964E+04  0.15830793124E+04  0.12699999809E+01 0.  1.
</event>
<event>
 5   0  0.1072381E-07  0.3509926E+04  0.7818609E-02  0.8111442E-01
        1   -1    0    0  501    0  0.00000000000E+00  0.00000000000E+00  0.25604125854E+04  0.25604125854E+04  0.50400001928E-02 0. -1.
       -1   -1    0    0    0  501  0.00000000000E+00  0.00000000000E+00 -0.12028898713E+04  0.12028898713E+04  0.50400001928E-02 0.  1.
    10030    2    1    2    0    0  0.00000000000E+00  0.00000000000E+00  0.13575227141E+04  0.37633024567E+04  0.35099255635E+04 0.  0.
        1    1    3    3  502    0  0.11364538039E+04  0.46419651496E+03  0.20234452896E+04  0.23667142820E+04  0.50400001928E-02 0. -1.
       -1    1    3    3    0  502 -0.11364538039E+04 -0.46419651496E+03 -0.66592257547E+03  0.13965881746E+04  0.50400001928E-02 0.  1.
</event>
<event>
 5   0  0.3219205E-07  0.3500260E+04  0.7818609E-02  0.8113728E-01
       -2   -1    0    0    0  501  0.00000000000E+00  0.00000000000E+00  0.10400827383E+04  0.10400827383E+04  0.25500000920E-02 0. -1.
        2   -1    0    0  501    0  0.00000000000E+00  0.00000000000E+00 -0.29449152694E+04  0.29449152694E+04  0.25500000920E-02 0.  1.
    10030    2    1    2    0    0  0.00000000000E+00  0.00000000000E+00 -0.19048325311E+04  0.39849980077E+04  0.35002602975E+04 0.  0.
        2    1    3    3  502    0 -0.67410716576E+03 -0.10971456665E+04  0.39696915481E+03  0.13474915934E+04  0.25500000920E-02 0. -1.
       -2    1    3    3    0  502  0.67410716576E+03  0.10971456665E+04 -0.23018016859E+04  0.26375064143E+04  0.25500000920E-02 0.  1.
</event>
<event>
 5   0  0.3190112E-07  0.3508296E+04  0.7818609E-02  0.8111827E-01
        2   -1    0    0  501    0  0.00000000000E+00  0.00000000000E+00  0.24097205533E+04  0.24097205533E+04  0.25500000920E-02 0. -1.
       -2   -1    0    0    0  501  0.00000000000E+00  0.00000000000E+00 -0.12769257979E+04  0.12769257979E+04  0.25500000920E-02 0.  1.
    10030    2    1    2    0    0  0.00000000000E+00  0.00000000000E+00  0.11327947554E+04  0.36866463511E+04  0.35082955064E+04 0.  0.
        5    1    3    3  502    0  0.10640808593E+04 -0.11485603281E+04 -0.26472980815E+03  0.15879429661E+04  0.46999998093E+01 0.  1.
       -5    1    3    3    0  502 -0.10640808593E+04  0.11485603281E+04  0.13975245636E+04  0.20987033850E+04  0.46999998093E+01 0. -1.
</event>
<event>
 5   0  0.1033796E-07  0.3370363E+04  0.7818609E-02  0.8145219E-01
       -1   -1    0    0    0  501  0.00000000000E+00  0.00000000000E+00  0.15064320405E+04  0.15064320405E+04  0.50400001928E-02 0.  1.
        1   -1    0    0  501    0  0.00000000000E+00  0.00000000000E+00 -0.18851408949E+04  0.18851408949E+04  0.50400001928E-02 0. -1.
    10030    2    1    2    0    0  0.00000000000E+00  0.00000000000E+00 -0.37870885439E+03  0.33915729354E+04  0.33703629745E+04 0.  0.
        3    1    3    3  502    0 -0.15756469402E+04 -0.31239202329E+03  0.32334629560E+03  0.16385374251E+04  0.10100000352E+00 0.  1.
       -3    1    3    3    0  502  0.15756469402E+04  0.31239202329E+03 -0.70205515000E+03  0.17530355103E+04  0.10100000352E+00 0. -1.
</event>
<event>
 5   0  0.1013863E-07  0.3325508E+04  0.7818609E-02  0.8156435E-01
       -3   -1    0    0    0  501  0.00000000000E+00  0.00000000000E+00  0.15633721516E+04  0.15633721548E+04  0.10100000352E+00 0. -1.
        3   -1    0    0  501    0  0.00000000000E+00  0.00000000000E+00 -0.17684530282E+04  0.17684530311E+04  0.10100000352E+00 0.  1.
    10030    2    1    2    0    0  0.00000000000E+00  0.00000000000E+00 -0.20508087666E+03  0.33318251860E+04  0.33255076160E+04 0.  0.
        2    1    3    3  502    0  0.58672047064E+03 -0.38390975741E+03 -0.16130924766E+04  0.17588902611E+04  0.25500000920E-02 0.  1.
       -2    1    3    3    0  502 -0.58672047064E+03  0.38390975741E+03  0.14080115999E+04  0.15729349249E+04  0.25500000920E-02 0. -1.
</event>
<event>
 5   0  0.1033796E-07  0.3498120E+04  0.7818609E-02  0.8114236E-01
        1   -1    0    0  501    0  0.00000000000E+00  0.00000000000E+00  0.14062863697E+04  0.14062863697E+04  0.50400001928E-02 0. -1.
       -1   -1    0    0    0  501  0.00000000000E+00  0.00000000000E+00 -0.21753830678E+04  0.21753830678E+04  0.50400001928E-02 0.  1.
    10030    2    1    2    0    0  0.00000000000E+00  0.00000000000E+00 -0.76909669807E+03  0.35816694376E+04  0.34981203851E+04 0.  0.
        3    1    3    3  502    0 -0.57860722388E+03  0.16377697039E+04 -0.17437605392E+03  0.17457041390E+04  0.10100000352E+00 0. -1.
       -3    1    3    3    0  502  0.57860722388E+03 -0.16377697039E+04 -0.59472064415E+03  0.18359652985E+04  0.10100000352E+00 0.  1.
</event>
<event>
 5   0  0.3219205E-07  0.3522386E+04  0.7818609E-02  0.8108505E-01
        2   -1    0    0  501    0  0.00000000000E+00  0.00000000000E+00  0.10970823605E+04  0.10970823605E+04  0.25500000920E-02 0. -1.
       -2   -1    0    0    0  501  0.00000000000E+00  0.00000000000E+00 -0.28273182034E+04  0.28273182034E+04  0.25500000920E-02 0.  1.
    10030    2    1    2    0    0  0.00000000000E+00  0.00000000000E+00 -0.17302358429E+04  0.39244005639E+04  0.35223860824E+04 0.  0.
        2    1    3    3  502    0 -0.11778522205E+03  0.14972135991E+04  0.15980960526E+03  0.15103181883E+04  0.25500000920E-02 0. -1.
       -2    1    3    3    0  502  0.11778522205E+03 -0.14972135991E+04 -0.18900454482E+04  0.24140823756E+04  0.25500000920E-02 0.  1.
</event>
<event>
 5   0  0.1098171E-07  0.3479520E+04  0.7818609E-02  0.8118661E-01
       -1   -1    0    0    0  501  0.00000000000E+00  0.00000000000E+00  0.13007694887E+04  0.13007694887E+04  0.50400001928E-02 0. -1.
        1   -1    0    0  501    0  0.00000000000E+00  0.00000000000E+00 -0.23269038583E+04  0.23269038584E+04  0.50400001928E-02 0.  1.
    10030    2    1    2    0    0  0.00000000000E+00  0.00000000000E+00 -0.10261343696E+04  0.36276733471E+04  0.34795203935E+04 0.  0.
        4    1    3    3  502    0  0.90279858593E+03  0.23131050419E+03 -0.20447048934E+04  0.22470802278E+04  0.12699999809E+01 0. -1.
       -4    1    3    3    0  502 -0.90279858593E+03 -0.23131050419E+03  0.10185705238E+04  0.13805931193E+04  0.12699999809E+01 0.  1.
</event>
<event>
 5   0  0.3119048E-07  0.3490684E+04  0.7818609E-02  0.8116001E-01
       -2   -1    0    0    0  501  0.00000000000E+00  0.00000000000E+00  0.29320452710E+04  0.29320452710E+04  0.25500000920E-02 0.  1.
        2   -1    0    0  501    0  0.00000000000E+00  0.00000000000E+00 -0.10389399637E+04  0.10389399637E+04  0.25500000920E-02 0. -1.
    10030    2    1    2    0    0  0.00000000000E+00  0.00000000000E+00  0.18931053073E+04  0.39709852347E+04  0.34906841779E+04 0.  0.
        3    1    3    3  502    0  0.27140486340E+02 -0.17448538151E+04  0.91116713443E+03  0.19686231227E+04  0.10100000352E+00 0. -1.
       -3    1    3    3    0  502 -0.27140486340E+02  0.17448538151E+04  0.98193817284E+03  0.20023621120E+04  0.10100000352E+00 0.  1.
</event>
<event>
 5   0  0.3119048E-07  0.3514841E+04  0.7818609E-02  0.8110282E-01
       -2   -1    0    0    0  501  0.00000000000E+00  0.00000000000E+00  0.16950779141E+04  0.16950779141E+04  0.25500000920E-02 0. -1.
        2   -1    0    0  501    0  0.00000000000E+00  0.00000000000E+00 -0.18220555184E+04  0.18220555184E+04  0.25500000920E-02 0.  1.
    10030    2    1    2    0    0  0.00000000000E+00  0.00000000000E+00 -0.12697760433E+03  0.35171334325E+04  0.35148405754E+04 0.  0.
        3    1    3    3  502    0  0.58140211320E+03  0.16451487976E+04  0.14636942640E+03  0.17509902920E+04  0.10100000352E+00 0. -1.
       -3    1    3    3    0  502 -0.58140211320E+03 -0.16451487976E+04 -0.27334703073E+03  0.17661431405E+04  0.10100000352E+00 0.  1.
</event>
<event>
 5   0  0.2180451E-07  0.3503331E+04  0.7818609E-02  0.8113001E-01
        2   -1    0    0  501    0  0.00000000000E+00  0.00000000000E+00  0.26100219393E+04  0.26100219393E+04  0.25500000920E-02 0.  1.
       -2   -1    0    0    0  501  0.00000000000E+00  0.00000000000E+00 -0.11755962204E+04  0.11755962204E+04  0.25500000920E-02 0. -1.
    10030    2    1    2    0    0  0.00000000000E+00  0.00000000000E+00  0.14344257189E+04  0.37856181597E+04  0.35033309447E+04 0.  0.
        4    1    3    3  502    0 -0.22957464358E+03 -0.12440060521E+04 -0.59205867001E+03  0.13967070760E+04  0.12699999809E+01 0. -1.
       -4    1    3    3    0  502  0.22957464358E+03  0.12440060521E+04  0.20264843889E+04  0.23889110837E+04  0.12699999809E+01 0.  1.
</event>
<event>
 5   0  0.1098171E-07  0.3496124E+04  0.7818609E-02  0.8114709E-01
       -1   -1    0    0    0  501  0.00000000000E+00  0.00000000000E+00  0.11643151924E+04  0.11643151924E+04  0.50400001928E-02 0.  1.
        1   -1    0    0  501    0  0.00000000000E+00  0.00000000000E+00 -0.26244784622E+04  0.26244784622E+04  0.50400001928E-02 0. -1.
    10030    2    1    2    0    0  0.00000000000E+00  0.00000000000E+00 -0.14601632698E+04  0.37887936546E+04  0.34961236510E+04 0.  0.
        4    1    3    3  502    0 -0.17079436359E+04  0.35601685581E+03 -0.84829610457E+03  0.19399555044E+04  0.12699999809E+01 0. -1.
       -4    1    3    3    0  502  0.17079436359E+04 -0.35601685581E+03 -0.61186716518E+03  0.18488381502E+04  0.12699999809E+01 0.  1.
</event>
<event>
 5   0  0.3190185E-07  0.3523044E+04  0.7818609E-02  0.8108350E-01
       -2   -1    0    0    0  501  0.00000000000E+00  0.00000000000E+00  0.22025843180E+04  0.22025843180E+04  0.25500000920E-02 0.  1.
        2   -1    0    0  501    0  0.00000000000E+00  0.00000000000E+00 -0.14087813626E+04  0.14087813626E+04  0.25500000920E-02 0. -1.
    10030    2    1    2    0    0  0.00000000000E+00  0.00000000000E+00  0.79380295543E+03  0.36113656806E+04  0.35230439888E+04 0.  0.
        1    1    3    3  502    0  0.33016096864E+03  0.40287544941E+03 -0.13280337490E+04  0.14265302421E+04  0.50400001928E-02 0. -1.
       -1    1    3    3    0  502 -0.33016096864E+03 -0.40287544941E+03  0.21218367045E+04  0.21848354385E+04  0.50400001928E-02 0.  1.
</event>
<event>
 5   0  0.1098171E-07  0.3501809E+04  0.7818609E-02  0.8113361E-01
        1   -1    0    0  501    0  0.00000000000E+00  0.00000000000E+00  0.27551085930E+04  0.27551085930E+04  0.50400001928E-02 0. -1.
       -1   -1    0    0    0  501  0.00000000000E+00  0.00000000000E+00 -0.11127204761E+04  0.11127204761E+04  0.50400001928E-02 0.  1.
    10030    2    1    2    0    0  0.00000000000E+00  0.00000000000E+00  0.16423881169E+04  0.38678290692E+04  0.35018085302E+04 0.  0.
        4    1    3    3  502    0 -0.57895416621E+03  0.14675046442E+04  0.16601275396E+04  0.22901490930E+04  0.12699999809E+01 0.  1.
       -4    1    3    3    0  502  0.57895416621E+03 -0.14675046442E+04 -0.17739422694E+02  0.15776799762E+04  0.12699999809E+01 0. -1.
</event>
<event>
 5   0  0.2180451E-07  0.3505629E+04  0.7818609E-02  0.8112457E-01
        2   -1    0    0  501    0  0.00000000000E+00  0.00000000000E+00  0.20061554765E+04  0.20061554765E+04  0.25500000920E-02 0.  1.
       -2   -1    0    0    0  501  0.00000000000E+00  0.00000000000E+00 -0.15314662533E+04  0.15314662533E+04  0.25500000920E-02 0. -1.
    10030    2    1    2    0    0  0.00000000000E+00  0.00000000000E+00  0.47468922312E+03  0.35376217298E+04  0.35056294220E+04 0.  0.
        4    1    3    3  502    0  0.43610581746E+02 -0.11376632416E+04 -0.11075512688E+04  0.15883485008E+04  0.12699999809E+01 0. -1.
       -4    1    3    3    0  502 -0.43610581746E+02  0.11376632416E+04  0.15822404919E+04  0.19492732290E+04  0.12699999809E+01 0.  1.
</event>
<event>
 5   0  0.1072381E-07  0.3501341E+04  0.7818609E-02  0.8113472E-01
        1   -1    0    0  501    0  0.00000000000E+00  0.00000000000E+00  0.22718224488E+04  0.22718224488E+04  0.50400001928E-02 0. -1.
       -1   -1    0    0    0  501  0.00000000000E+00  0.00000000000E+00 -0.13490695298E+04  0.13490695298E+04  0.50400001928E-02 0.  1.
    10030    2    1    2    0    0  0.00000000000E+00  0.00000000000E+00  0.92275291898E+03  0.36208919786E+04  0.35013405677E+04 0.  0.
        1    1    3    3  502    0  0.79689695001E+03  0.11636097508E+04  0.15340061579E+04  0.20837963657E+04  0.50400001928E-02 0. -1.
       -1    1    3    3    0  502 -0.79689695001E+03 -0.11636097508E+04 -0.61125323889E+03  0.15370956129E+04  0.50400001928E-02 0.  1.
</event>
<event>
 5   0  0.3119048E-07  0.3496149E+04  0.7818609E-02  0.8114703E-01
        2   -1    0    0  501    0  0.00000000000E+00  0.00000000000E+00  0.20709653926E+04  0.20709653926E+04  0.25500000920E-02 0. -1.
       -2   -1    0    0    0  501  0.00000000000E+00  0.00000000000E+00 -0.14755266396E+04  0.14755266396E+04  0.25500000920E-02 0.  1.
    10030    2    1    2    0    0  0.00000000000E+00  0.00000000000E+00  0.59543875292E+03  0.35464920322E+04  0.34961490852E+04 0.  0.
        3    1    3    3  502    0  0.67795971728E+03 -0.26795960519E+03  0.19094125100E+04  0.20438414498E+04  0.10100000352E+00 0. -1.
       -3    1    3    3    0  502 -0.67795971728E+03  0.26795960519E+03 -0.13139737571E+04  0.15026505824E+04  0.10100000352E+00 0.  1.
</event>
<event>
 5   0  0.3190112E-07  0.3495513E+04  0.7818609E-02  0.8114854E-01
       -2   -1    0    0    0  501  0.00000000000E+00  0.00000000000E+00  0.22924279179E+04  0.22924279179E+04  0.25500000920E-02 0.  1.
        2   -1    0    0  501    0  0.00000000000E+00  0.00000000000E+00 -0.13324969960E+04  0.13324969960E+04  0.25500000920E-02 0. -1.
    10030    2    1    2    0    0  0.00000000000E+00  0.00000000000E+00  0.95993092193E+03  0.36249249138E+04  0.34955133037E+04 0.  0.
        5    1    3    3  502    0  0.90900480458E+03 -0.14924476743E+04  0.44814681055E+03  0.18040364323E+04  0.46999998093E+01 0.  1.
       -5    1    3    3    0  502 -0.90900480458E+03  0.14924476743E+04  0.51178411138E+03  0.18208884815E+04  0.46999998093E+01 0. -1.
</event>
<event>
 5   0  0.3219205E-07  0.3501021E+04  0.7818609E-02  0.8113548E-01
        2   -1    0    0  501    0  0.00000000000E+00  0.00000000000E+00  0.15311968003E+04  0.15311968003E+04  0.25500000920E-02 0.  1.
       -2   -1    0    0    0  501  0.00000000000E+00  0.00000000000E+00 -0.20012366133E+04  0.20012366133E+04  0.25500000920E-02 0. -1.
    10030    2    1    2    0    0  0.00000000000E+00  0.00000000000E+00 -0.47003981308E+03  0.35324334136E+04  0.35010210504E+04 0.  0.
        2    1    3    3  502    0 -0.11890506724E+04 -0.70260206148E+03  0.85017473356E+03  0.16218163385E+04  0.25500000920E-02 0.  1.
       -2    1    3    3    0  502  0.11890506724E+04  0.70260206148E+03 -0.13202145466E+04  0.19106170751E+04  0.25500000920E-02 0. -1.
</event>
<event>
 5   0  0.3219205E-07  0.3503138E+04  0.7818609E-02  0.8113047E-01
        2   -1    0    0  501    0  0.00000000000E+00  0.00000000000E+00  0.10822710976E+04  0.10822710976E+04  0.25500000920E-02 0. -1.
       -2   -1    0    0    0  501  0.00000000000E+00  0.00000000000E+00 -0.28347733300E+04  0.28347733300E+04  0.25500000920E-02 0.  1.
    10030    2    1    2    0    0  0.00000000000E+00  0.00000000000E+00 -0.17525022323E+04  0.39170444276E+04  0.35031375898E+04 0.  0.
        2    1    3    3  502    0  0.72783297176E+03  0.13799905337E+04 -0.17664854202E+04  0.23568168040E+04  0.25500000920E-02 0.  1.
       -2    1    3    3    0  502 -0.72783297176E+03 -0.13799905337E+04  0.13983187871E+02  0.15602276236E+04  0.25500000920E-02 0. -1.
</event>
<event>
 5   0  0.3190185E-07  0.3505025E+04  0.7818609E-02  0.8112600E-01
       -2   -1    0    0    0  501  0.00000000000E+00  0.00000000000E+00  0.17150681222E+04  0.17150681222E+04  0.25500000920E-02 0.  1.
        2   -1    0    0  501    0  0.00000000000E+00  0.00000000000E+00 -0.17907742916E+04  0.17907742916E+04  0.25500000920E-02 0. -1.
    10030    2    1    2    0    0  0.00000000000E+00  0.00000000000E+00 -0.75706169394E+02  0.35058424138E+04  0.35050249081E+04 0.  0.
        1    1    3    3  502    0  0.30348033292E+03  0.93046577250E+03 -0.14919572821E+04  0.17843215511E+04  0.50400001928E-02 0. -1.
       -1    1    3    3    0  502 -0.30348033292E+03 -0.93046577250E+03  0.14162511127E+04  0.17215208626E+04  0.50400001928E-02 0.  1.
</event>
<event>
 5   0  0.1033796E-07  0.3444401E+04  0.7818609E-02  0.8127094E-01
       -1   -1    0    0    0  501  0.00000000000E+00  0.00000000000E+00  0.12816889488E+04  0.12816889488E+04  0.50400001928E-02 0.  1.
        1   -1    0    0  501    0  0.00000000000E+00  0.00000000000E+00 -0.23141143124E+04  0.23141143124E+04  0.50400001928E-02 0. -1.
    10030    2    1    2    0    0  0.00000000000E+00  0.00000000000E+00 -0.10324253637E+04  0.35958032612E+04  0.34444011035E+04 0.  0.
        3    1    3    3  502    0 -0.16556033416E+04 -0.46712660990E+03 -0.43047448732E+03  0.17732845200E+04  0.10100000352E+00 0. -1.
       -3    1    3    3    0  502  0.16556033416E+04  0.46712660990E+03 -0.60195087635E+03  0.18225187412E+04  0.10100000352E+00 0.  1.
</event>
<event>
 5   0  0.1033796E-07  0.3330890E+04  0.7818609E-02  0.8155080E-01
       -1   -1    0    0    0  501  0.00000000000E+00  0.00000000000E+00  0.11892986973E+04  0.11892986973E+04  0.50400001928E-02 0. -1.
        1   -1    0    0  501    0  0.00000000000E+00  0.00000000000E+00 -0.23322206673E+04  0.23322206673E+04  0.50400001928E-02 0.  1.
    10030    2    1    2    0    0  0.00000000000E+00  0.00000000000E+00 -0.11429219701E+04  0.35215193647E+04  0.33308899721E+04 0.  0.
        3    1    3    3  502    0  0.52198973887E+03  0.14610865451E+04  0.68543431280E+02  0.15530439118E+04  0.10100000352E+00 0. -1.
       -3    1    3    3    0  502 -0.52198973887E+03 -0.14610865451E+04 -0.12114654013E+04  0.19684754529E+04  0.10100000352E+00 0.  1.
</event>
<event>
 5   0  0.1013863E-07  0.3494284E+04  0.7818609E-02  0.8115146E-01
        1   -1    0    0  501    0  0.00000000000E+00  0.00000000000E+00  0.29261595903E+04  0.29261595903E+04  0.50400001928E-02 0.  1.
       -1   -1    0    0    0  501  0.00000000000E+00  0.00000000000E+00 -0.10431779355E+04  0.10431779355E+04  0.50400001928E-02 0. -1.
    10030    2    1    2    0    0  0.00000000000E+00  0.00000000000E+00  0.18829816548E+04  0.39693375259E+04  0.34942839727E+04 0.  0.
        5    1    3    3  502    0  0.11507734983E+04 -0.68459622649E+02 -0.54981796169E+03  0.12772189496E+04  0.46999998093E+01 0. -1.
       -5    1    3    3    0  502 -0.11507734983E+04  0.68459622649E+02  0.24327996165E+04  0.26921185762E+04  0.46999998093E+01 0.  1.
</event>
<event>
 5   0  0.3119048E-07  0.3499612E+04  0.7818609E-02  0.8113882E-01
        2   -1    0    0  501    0  0.00000000000E+00  0.00000000000E+00  0.26982344937E+04  0.26982344937E+04  0.25500000920E-02 0. -1.
       -2   -1    0    0    0  501  0.00000000000E+00  0.00000000000E+00 -0.11347495089E+04  0.11347495089E+04  0.25500000920E-02 0.  1.
    10030    2    1    2    0    0  0.00000000000E+00  0.00000000000E+00  0.15634849848E+04  0.38329840026E+04  0.34996115594E+04 0.  0.
        3    1    3    3  502    0 -0.61278241307E+02 -0.97704197287E+03 -0.80674462181E+03  0.12685436274E+04  0.10100000352E+00 0.  1.
       -3    1    3    3    0  502  0.61278241307E+02  0.97704197287E+03  0.23702296066E+04  0.25644403752E+04  0.10100000352E+00 0. -1.
</event>
<event>
 5   0  0.1098171E-07  0.3499666E+04  0.7818609E-02  0.8113869E-01
        1   -1    0    0  501    0  0.00000000000E+00  0.00000000000E+00  0.13133154400E+04  0.13133154401E+04  0.50400001928E-02 0.  1.
       -1   -1    0    0    0  501  0.00000000000E+00  0.00000000000E+00 -0.23314397495E+04  0.23314397495E+04  0.50400001928E-02 0. -1.
    10030    2    1    2    0    0  0.00000000000E+00  0.00000000000E+00 -0.10181243095E+04  0.36447551896E+04  0.34996661673E+04 0.  0.
        4    1    3    3  502    0  0.13108962511E+04 -0.10602350155E+04 -0.99684590773E+03  0.19586348935E+04  0.12699999809E+01 0.  1.
       -4    1    3    3    0  502 -0.13108962511E+04  0.10602350155E+04 -0.21278401723E+02  0.16861202960E+04  0.12699999809E+01 0. -1.
</event>
<event>
 5   0  0.3219205E-07  0.3470257E+04  0.7818609E-02  0.8120875E-01
       -2   -1    0    0    0  501  0.00000000000E+00  0.00000000000E+00  0.11522787538E+04  0.11522787538E+04  0.25500000920E-02 0.  1.
        2   -1    0    0  501    0  0.00000000000E+00  0.00000000000E+00 -0.26127972100E+04  0.26127972100E+04  0.25500000920E-02 0. -1.
    10030    2    1    2    0    0  0.00000000000E+00  0.00000000000E+00 -0.14605184562E+04  0.37650759638E+04  0.34702568856E+04 0.  0.
        2    1    3    3  502    0  0.16557358446E+04  0.51796379892E+03 -0.76322170053E+03  0.18953245232E+04  0.25500000920E-02 0. -1.
       -2    1    3    3    0  502 -0.16557358446E+04 -0.51796379892E+03 -0.69729675570E+03  0.18697514406E+04  0.25500000920E-02 0.  1.
</event>
<event>
 5   0  0.1098171E-07  0.3502838E+04  0.7818609E-02  0.8113118E-01
       -1   -1    0    0    0  501  0.00000000000E+00  0.00000000000E+00  0.13330053126E+04  0.13330053127E+04  0.50400001928E-02 0. -1.
        1   -1    0    0  501    0  0.00000000000E+00  0.00000000000E+00 -0.23011676245E+04  0.23011676245E+04  0.50400001928E-02 0.  1.
    10030    2    1    2    0    0  0.00000000000E+00  0.00000000000E+00 -0.96816231183E+03  0.36341729371E+04  0.35028380886E+04 0.  0.
        4    1    3    3  502    0  0.13705677768E+04  0.16410157021E+03  0.63433609591E+03  0.15191343758E+04  0.12699999809E+01 0. -1.
       -4    1    3    3    0  502 -0.13705677768E+04 -0.16410157021E+03 -0.16024984077E+04  0.21150385613E+04  0.12699999809E+01 0.  1.
</event>
<event>
 5   0  0.1098171E-07  0.3503919E+04  0.7818609E-02  0.8112862E-01
       -1   -1    0    0    0  501  0.00000000000E+00  0.00000000000E+00  0.10683004815E+04  0.10683004815E+04  0.50400001928E-02 0.  1.
        1   -1    0    0  501    0  0.00000000000E+00  0.00000000000E+00 -0.28731258239E+04  0.28731258239E+04  0.50400001928E-02 0. -1.
    10030    2    1    2    0    0  0.00000000000E+00  0.00000000000E+00 -0.18048253424E+04  0.39414263054E+04  0.35039187783E+04 0.  0.
        4    1    3    3  502    0 -0.40822020979E+03 -0.13572813614E+04 -0.20608044454E+04  0.25011543353E+04  0.12699999809E+01 0. -1.
       -4    1    3    3    0  502  0.40822020979E+03  0.13572813614E+04  0.25597910307E+03  0.14402719701E+04  0.12699999809E+01 0.  1.
</event>
<event>
 5   0  0.1013863E-07  0.3504369E+04  0.7818609E-02  0.8112755E-01
        4   -1    0    0  501    0  0.00000000000E+00  0.00000000000E+00  0.17426389683E+04  0.17426394310E+04  0.12699999809E+01 0.  1.
       -4   -1    0    0    0  501  0.00000000000E+00  0.00000000000E+00 -0.17617809936E+04  0.17617814513E+04  0.12699999809E+01 0. -1.
    10030    2    1    2    0    0  0.00000000000E+00  0.00000000000E+00 -0.19142025328E+02  0.35044208824E+04  0.35043686027E+04 0.  0.
        3    1    3    3  502    0  0.11457245144E+04  0.12676867031E+04 -0.39743705170E+03  0.17543290627E+04  0.10100000352E+00 0. -1.
       -3    1    3    3    0  502 -0.11457245144E+04 -0.12676867031E+04  0.37829502637E+03  0.17500918196E+04  0.10100000352E+00 0.  1.
</event>
<event>
 5   0  0.1033796E-07  0.3387568E+04  0.7818609E-02  0.8140964E-01
       -1   -1    0    0    0  501  0.00000000000E+00  0.00000000000E+00  0.31372640046E+04  0.31372640046E+04  0.50400001928E-02 0. -1.
        1   -1    0    0  501    0  0.00000000000E+00  0.00000000000E+00 -0.91446080723E+03  0.91446080725E+03  0.50400001928E-02 0.  1.
    10030    2    1    2    0    0  0.00000000000E+00  0.00000000000E+00  0.22228031974E+04  0.40517248119E+04  0.33875684343E+04 0.  0.
        3    1    3    3  502    0  0.86300817783E+03  0.30904912292E+03 -0.59213393494E+03  0.10912914746E+04  0.10100000352E+00 0.  1.
       -3    1    3    3    0  502 -0.86300817783E+03 -0.30904912292E+03  0.28149371323E+04  0.29604333373E+04  0.10100000352E+00 0. -1.
</event>
<event>
 5   0  0.2180451E-07  0.3495137E+04  0.7818609E-02  0.8114943E-01
       -2   -1    0    0    0  501  0.00000000000E+00  0.00000000000E+00  0.18090896476E+04  0.18090896476E+04  0.25500000920E-02 0. -1.
        2   -1    0    0  501    0  0.00000000000E+00  0.00000000000E+00 -0.16881395183E+04  0.16881395183E+04  0.25500000920E-02 0.  1.
    10030    2    1    2    0    0  0.00000000000E+00  0.00000000000E+00  0.12095012922E+03  0.34972291659E+04  0.34951370367E+04 0.  0.
        4    1    3    3  502    0  0.73041318345E+03 -0.28919241655E+03  0.16224535016E+04  0.18026349187E+04  0.12699999809E+01 0. -1.
       -4    1    3    3    0  502 -0.73041318345E+03  0.28919241655E+03 -0.15015033724E+04  0.16945942472E+04  0.12699999809E+01 0.  1.
</event>
<event>
 5   0  0.2180451E-07  0.3497164E+04  0.7818609E-02  0.8114462E-01
        2   -1    0    0  501    0  0.00000000000E+00  0.00000000000E+00  0.19802593531E+04  0.19802593531E+04  0.25500000920E-02 0.  1.
       -2   -1    0    0    0  501  0.00000000000E+00  0.00000000000E+00 -0.15440095753E+04  0.15440095753E+04  0.25500000920E-02 0. -1.
    10030    2    1    2    0    0  0.00000000000E+00  0.00000000000E+00  0.43624977772E+03  0.35242689284E+04  0.34971642242E+04 0.  0.
        4    1    3    3  502    0 -0.11297522671E+04 -0.91899589387E+03  0.11934296111E+04  0.18828620468E+04  0.12699999809E+01 0.  1.
       -4    1    3    3    0  502  0.11297522671E+04  0.91899589387E+03 -0.75717983338E+03  0.16414068816E+04  0.12699999809E+01 0. -1.
</event>
<event>
 5   0  0.1013863E-07  0.3405246E+04  0.7818609E-02  0.8136620E-01
        1   -1    0    0  501    0  0.00000000000E+00  0.00000000000E+00  0.17689460286E+04  0.17689460286E+04  0.50400001928E-02 0. -1.
       -1   -1    0    0    0  501  0.00000000000E+00  0.00000000000E+00 -0.16387867305E+04  0.16387867305E+04  0.50400001928E-02 0.  1.
    10030    2    1    2    0    0  0.00000000000E+00  0.00000000000E+00  0.13015929805E+03  0.34077327591E+04  0.34052461166E+04 0.  0.
        2    1    3    3  502    0 -0.76114941017E+03 -0.37861515904E+03  0.15413610947E+04  0.17602533589E+04  0.25500000920E-02 0. -1.
       -2    1    3    3    0  502  0.76114941017E+03  0.37861515904E+03 -0.14112017966E+04  0.16474794002E+04  0.25500000920E-02 0.  1.
</event>
<event>
 5   0  0.2180451E-07  0.3506007E+04  0.7818609E-02  0.8112368E-01
       -2   -1    0    0    0  501  0.00000000000E+00  0.00000000000E+00  0.15404388272E+04  0.15404388272E+04  0.25500000920E-02 0.  1.
        2   -1    0    0  501    0  0.00000000000E+00  0.00000000000E+00 -0.19948998026E+04  0.19948998026E+04  0.25500000920E-02 0. -1.
    10030    2    1    2    0    0  0.00000000000E+00  0.00000000000E+00 -0.45446097544E+03  0.35353386298E+04  0.35060069094E+04 0.  0.
        4    1    3    3  502    0  0.13307415966E+04  0.98016497311E+03  0.36197202768E+03  0.16919284657E+04  0.12699999809E+01 0. -1.
       -4    1    3    3    0  502 -0.13307415966E+04 -0.98016497311E+03 -0.81643300312E+03  0.18434101640E+04  0.12699999809E+01 0.  1.
</event>
<event>
 5   0  0.2180451E-07  0.3496344E+04  0.7818609E-02  0.8114657E-01
       -2   -1    0    0    0  501  0.00000000000E+00  0.00000000000E+00  0.16157023066E+04  0.16157023066E+04  0.25500000920E-02 0.  1.
        2   -1    0    0  501    0  0.00000000000E+00  0.00000000000E+00 -0.18915023610E+04  0.18915023610E+04  0.25500000920E-02 0. -1.
    10030    2    1    2    0    0  0.00000000000E+00  0.00000000000E+00 -0.27580005442E+03  0.35072046676E+04  0.34963436488E+04 0.  0.
        4    1    3    3  502    0  0.16523408859E+04 -0.25333626389E+03 -0.65104895264E+03  0.17939554112E+04  0.12699999809E+01 0. -1.
       -4    1    3    3    0  502 -0.16523408859E+04  0.25333626389E+03  0.37524889822E+03  0.17132492564E+04  0.12699999809E+01 0.  1.
</event>
<event>
 5   0  0.2180451E-07  0.3510797E+04  0.7818609E-02  0.8111236E-01
        2   -1    0    0  501    0  0.00000000000E+00  0.00000000000E+00  0.16793741778E+04  0.16793741778E+04  0.25500000920E-02 0.  1.
       -2   -1    0    0    0  501  0.00000000000E+00  0.00000000000E+00 -0.18348640797E+04  0.18348640797E+04  0.25500000920E-02 0. -1.
    10030    2    1    2    0    0  0.00000000000E+00  0.00000000000E+00 -0.15548990189E+03  0.35142382575E+04  0.35107966932E+04 0.  0.
        4    1    3    3  502    0  0.28383893790E+03 -0.72252770061E+03  0.14982224224E+04  0.16873893625E+04  0.12699999809E+01 0.  1.
       -4    1    3    3    0  502 -0.28383893790E+03  0.72252770061E+03 -0.16537123243E+04  0.18268488950E+04  0.12699999809E+01 0. -1.
</event>
<event>
 5   0  0.1033796E-07  0.3734262E+04  0.7818609E-02  0.8060411E-01
       -1   -1    0    0    0  501  0.00000000000E+00  0.00000000000E+00  0.22137907461E+04  0.22137907461E+04  0.50400001928E-02 0. -1.
        1   -1    0    0  501    0  0.00000000000E+00  0.00000000000E+00 -0.15747547246E+04  0.15747547247E+04  0.50400001928E-02 0.  1.
    10030    2    1    2    0    0  0.00000000000E+00  0.00000000000E+00  0.63903602145E+03  0.37885454707E+04  0.37342616067E+04 0.  0.
        3    1    3    3  502    0  0.46766454495E+03  0.15778654456E+04  0.12142726306E+04  0.20451962064E+04  0.10100000352E+00 0. -1.
       -3    1    3    3    0  502 -0.46766454495E+03 -0.15778654456E+04 -0.57523660914E+03  0.17433492644E+04  0.10100000352E+00 0.  1.
</event>
<event>
 5   0  0.3190112E-07  0.3496399E+04  0.7818609E-02  0.8114644E-01
       -2   -1    0    0    0  501  0.00000000000E+00  0.00000000000E+00  0.13336392989E+04  0.13336392989E+04  0.25500000920E-02 0. -1.
        2   -1    0    0  501    0  0.00000000000E+00  0.00000000000E+00 -0.22916248599E+04  0.22916248599E+04  0.25500000920E-02 0.  1.
    10030    2    1    2    0    0  0.00000000000E+00  0.00000000000E+00 -0.95798556096E+03  0.36252641588E+04  0.34963987024E+04 0.  0.
        5    1    3    3  502    0  0.10823769626E+03 -0.17440890186E+04 -0.42595092315E+03  0.17986156295E+04  0.46999998093E+01 0. -1.
       -5    1    3    3    0  502 -0.10823769626E+03  0.17440890186E+04 -0.53203463781E+03  0.18266485293E+04  0.46999998093E+01 0.  1.
</event>
<event>
 5   0  0.1033796E-07  0.3518219E+04  0.7818609E-02  0.8109486E-01
       -1   -1    0    0    0  501  0.00000000000E+00  0.00000000000E+00  0.15279122214E+04  0.15279122214E+04  0.50400001928E-02 0. -1.
        1   -1    0    0  501    0  0.00000000000E+00  0.00000000000E+00 -0.20252907322E+04  0.20252907322E+04  0.50400001928E-02 0.  1.
    10030    2    1    2    0    0  0.00000000000E+00  0.00000000000E+00 -0.49737851080E+03  0.35532029536E+04  0.35182191299E+04 0.  0.
        3    1    3    3  502    0 -0.69348630659E+03 -0.44923258656E+03 -0.18171070705E+04  0.19961491152E+04  0.10100000352E+00 0.  1.
       -3    1    3    3    0  502  0.69348630659E+03  0.44923258656E+03  0.13197285597E+04  0.15570538384E+04  0.10100000352E+00 0. -1.
</event>
<event>
 5   0  0.1033796E-07  0.3509494E+04  0.7818609E-02  0.8111544E-01
        1   -1    0    0  501    0  0.00000000000E+00  0.00000000000E+00  0.19136109886E+04  0.19136109886E+04  0.50400001928E-02 0. -1.
       -1   -1    0    0    0  501  0.00000000000E+00  0.00000000000E+00 -0.16090716968E+04  0.16090716968E+04  0.50400001928E-02 0.  1.
    10030    2    1    2    0    0  0.00000000000E+00  0.00000000000E+00  0.30453929186E+03  0.35226826854E+04  0.35094941404E+04 0.  0.
        3    1    3    3  502    0  0.16796450814E+04  0.26737104143E+03  0.58568205554E+03  0.17988102606E+04  0.10100000352E+00 0. -1.
       -3    1    3    3    0  502 -0.16796450814E+04 -0.26737104143E+03 -0.28114276368E+03  0.17238724248E+04  0.10100000352E+00 0.  1.
</event>
<event>
 5   0  0.3119048E-07  0.3451604E+04  0.7818609E-02  0.8125356E-01
       -2   -1    0    0    0  501  0.00000000000E+00  0.00000000000E+00  0.16075831744E+04  0.16075831744E+04  0.25500000920E-02 0. -1.
        2   -1    0    0  501    0  0.00000000000E+00  0.00000000000E+00 -0.18527142384E+04  0.18527142384E+04  0.25500000920E-02 0.  1.
    10030    2    1    2    0    0  0.00000000000E+00  0.00000000000E+00 -0.24513106398E+03  0.34602974128E+04  0.34516038223E+04 0.  0.
        3    1    3    3  502    0 -0.10578452461E+04 -0.94673134665E+03  0.86126008457E+03  0.16604534775E+04  0.10100000352E+00 0. -1.
       -3    1    3    3    0  502  0.10578452461E+04  0.94673134665E+03 -0.11063911485E+04  0.17998439353E+04  0.10100000352E+00 0.  1.
</event>
<event>
 5   0  0.1072381E-07  0.3505860E+04  0.7818609E-02  0.8112403E-01
        1   -1    0    0  501    0  0.00000000000E+00  0.00000000000E+00  0.19676183837E+04  0.19676183837E+04  0.50400001928E-02 0. -1.
       -1   -1    0    0    0  501  0.00000000000E+00  0.00000000000E+00 -0.15616666316E+04  0.15616666316E+04  0.50400001928E-02 0.  1.
    10030    2    1    2    0    0  0.00000000000E+00  0.00000000000E+00  0.40595175208E+03  0.35292850153E+04  0.35058602217E+04 0.  0.
        1    1    3    3  502    0 -0.25248714061E+03  0.35437679622E+03 -0.15064368778E+04  0.15680193674E+04  0.50400001928E-02 0.  1.
       -1    1    3    3    0  502  0.25248714061E+03 -0.35437679622E+03  0.19123886299E+04  0.19612656479E+04  0.50400001928E-02 0. -1.
</event>
<event>
 5   0  0.1098171E-07  0.3347989E+04  0.7818609E-02  0.8150791E-01
       -1   -1    0    0    0  501  0.00000000000E+00  0.00000000000E+00  0.12718370033E+04  0.12718370033E+04  0.50400001928E-02 0. -1.
        1   -1    0    0  501    0  0.00000000000E+00  0.00000000000E+00 -0.22033155989E+04  0.22033155989E+04  0.50400001928E-02 0.  1.
    10030    2    1    2    0    0  0.00000000000E+00  0.00000000000E+00 -0.93147859562E+03  0.34751526022E+04  0.33479894317E+04 0.  0.
        4    1    3    3  502    0  0.26189899153E+03  0.60571658323E+03 -0.20626039521E+04  0.21655993021E+04  0.12699999809E+01 0.  1.
       -4    1    3    3    0  502 -0.26189899153E+03 -0.60571658323E+03  0.11311253565E+04  0.13095533002E+04  0.12699999809E+01 0. -1.
</event>
<event>
 5   0  0.1013863E-07  0.3503290E+04  0.7818609E-02  0.8113011E-01
        1   -1    0    0  501    0  0.00000000000E+00  0.00000000000E+00  0.19120012640E+04  0.19120012641E+04  0.50400001928E-02 0.  1.
       -1   -1    0    0    0  501  0.00000000000E+00  0.00000000000E+00 -0.16047371413E+04  0.16047371413E+04  0.50400001928E-02 0. -1.
    10030    2    1    2    0    0  0.00000000000E+00  0.00000000000E+00  0.30726412278E+03  0.35167384053E+04  0.35032895642E+04 0.  0.
        5    1    3    3  502    0  0.61664517118E+03  0.91150489134E+03 -0.12143705489E+04  0.16388442129E+04  0.46999998093E+01 0. -1.
       -5    1    3    3    0  502 -0.61664517118E+03 -0.91150489134E+03  0.15216346717E+04  0.18778941925E+04  0.46999998093E+01 0.  1.
</event>
<event>
 5   0  0.1098171E-07  0.3508273E+04  0.7818609E-02  0.8111832E-01
        1   -1    0    0  501    0  0.00000000000E+00  0.00000000000E+00  0.19605165143E+04  0.19605165143E+04  0.50400001928E-02 0.  1.
       -1   -1    0    0    0  501  0.00000000000E+00  0.00000000000E+00 -0.15694813765E+04  0.15694813766E+04  0.50400001928E-02 0. -1.
    10030    2    1    2    0    0  0.00000000000E+00  0.00000000000E+00  0.39103513775E+03  0.35299978909E+04  0.35082725992E+04 0.  0.
        4    1    3    3  502    0  0.73740940196E+03  0.15464071092E+04  0.57447295677E+03  0.18069776879E+04  0.12699999809E+01 0.  1.
       -4    1    3    3    0  502 -0.73740940196E+03 -0.15464071092E+04 -0.18343781902E+03  0.17230202030E+04  0.12699999809E+01 0. -1.
</event>
<event>
 5   0  0.1072381E-07  0.3273433E+04  0.7818609E-02  0.8169688E-01
       -1   -1    0    0    0  501  0.00000000000E+00  0.00000000000E+00  0.23742808891E+04  0.23742808891E+04  0.50400001928E-02 0. -1.
        1   -1    0    0  501    0  0.00000000000E+00  0.00000000000E+00 -0.11282748323E+04  0.11282748323E+04  0.50400001928E-02 0.  1.
    10030    2    1    2    0    0  0.00000000000E+00  0.00000000000E+00  0.12460060567E+04  0.35025557214E+04  0.32734332876E+04 0.  0.
        1    1    3    3  502    0 -0.84981445241E+03 -0.53925773073E+03 -0.75801876130E+03  0.12599904548E+04  0.50400001928E-02 0.  1.
       -1    1    3    3    0  502  0.84981445241E+03  0.53925773073E+03  0.20040248180E+04  0.22425652666E+04  0.50400001928E-02 0. -1.
</event>
<event>
 5   0  0.2180451E-07  0.3487372E+04  0.7818609E-02  0.8116789E-01
       -2   -1    0    0    0  501  0.00000000000E+00  0.00000000000E+00  0.16785992702E+04  0.16785992702E+04  0.25500000920E-02 0.  1.
        2   -1    0    0  501    0  0.00000000000E+00  0.00000000000E+00 -0.18112964792E+04  0.18112964792E+04  0.25500000920E-02 0. -1.
    10030    2    1    2    0    0  0.00000000000E+00  0.00000000000E+00 -0.13269720898E+03  0.34898957493E+04  0.34873720467E+04 0.  0.
        4    1    3    3  502    0  0.35388666743E+03 -0.51372468944E+03  0.15631081168E+04  0.16829906202E+04  0.12699999809E+01 0.  1.
       -4    1    3    3    0  502 -0.35388666743E+03  0.51372468944E+03 -0.16958053258E+04  0.18069051292E+04  0.12699999809E+01 0. -1.
</event>
<event>
 5   0  0.1098171E-07  0.3487768E+04  0.7818609E-02  0.8116695E-01
       -1   -1    0    0    0  501  0.00000000000E+00  0.00000000000E+00  0.18012390370E+04  0.18012390370E+04  0.50400001928E-02 0.  1.
        1   -1    0    0  501    0  0.00000000000E+00  0.00000000000E+00 -0.16883554790E+04  0.16883554790E+04  0.50400001928E-02 0. -1.
    10030    2    1    2    0    0  0.00000000000E+00  0.00000000000E+00  0.11288355801E+03  0.34895945161E+04  0.34877682247E+04 0.  0.
        4    1    3    3  502    0  0.11325401612E+04  0.13223633375E+04  0.15568127170E+03  0.17480075184E+04  0.12699999809E+01 0. -1.
       -4    1    3    3    0  502 -0.11325401612E+04 -0.13223633375E+04 -0.42797713693E+02  0.17415869977E+04  0.12699999809E+01 0.  1.
</event>
<event>
 5   0  0.1098171E-07  0.3438714E+04  0.7818609E-02  0.8128469E-01
       -1   -1    0    0    0  501  0.00000000000E+00  0.00000000000E+00  0.10944361560E+04  0.10944361560E+04  0.50400001928E-02 0. -1.
        1   -1    0    0  501    0  0.00000000000E+00  0.00000000000E+00 -0.27011065842E+04  0.27011065842E+04  0.50400001928E-02 0.  1.
    10030    2    1    2    0    0  0.00000000000E+00  0.00000000000E+00 -0.16066704282E+04  0.37955427402E+04  0.34387141241E+04 0.  0.
        4    1    3    3  502    0  0.12184161763E+04  0.48170660056E+03 -0.20322449234E+04  0.24179744146E+04  0.12699999809E+01 0.  1.
       -4    1    3    3    0  502 -0.12184161763E+04 -0.48170660056E+03  0.42557449524E+03  0.13775683256E+04  0.12699999809E+01 0. -1.
</event>
<event>
 5   0  0.1033796E-07  0.3503356E+04  0.7818609E-02  0.8112995E-01
        1   -1    0    0  501    0  0.00000000000E+00  0.00000000000E+00  0.18351624102E+04  0.18351624102E+04  0.50400001928E-02 0.  1.
       -1   -1    0    0    0  501  0.00000000000E+00  0.00000000000E+00 -0.16719910339E+04  0.16719910339E+04  0.50400001928E-02 0. -1.
    10030    2    1    2    0    0  0.00000000000E+00  0.00000000000E+00  0.16317137628E+03  0.35071534441E+04  0.35033555889E+04 0.  0.
        3    1    3    3  502    0 -0.15145111541E+04 -0.77714330075E+03 -0.33199573567E+03  0.17343347210E+04  0.10100000352E+00 0. -1.
       -3    1    3    3    0  502  0.15145111541E+04  0.77714330075E+03  0.49516711196E+03  0.17728187231E+04  0.10100000352E+00 0.  1.
</event>
<event>
 5   0  0.1033796E-07  0.3516653E+04  0.7818609E-02  0.8109855E-01
       -1   -1    0    0    0  501  0.00000000000E+00  0.00000000000E+00  0.14068334237E+04  0.14068334237E+04  0.50400001928E-02 0. -1.
        1   -1    0    0  501    0  0.00000000000E+00  0.00000000000E+00 -0.21976389065E+04  0.21976389065E+04  0.50400001928E-02 0.  1.
    10030    2    1    2    0    0  0.00000000000E+00  0.00000000000E+00 -0.79080548281E+03  0.36044723301E+04  0.35166528784E+04 0.  0.
        3    1    3    3  502    0  0.47160490241E+02  0.13787545987E+04  0.72201633358E+03  0.15570793016E+04  0.10100000352E+00 0. -1.
       -3    1    3    3    0  502 -0.47160490241E+02 -0.13787545987E+04 -0.15128218164E+04  0.20473930286E+04  0.10100000352E+00 0.  1.
</event>
<event>
 5   0  0.2180451E-07  0.3473895E+04  0.7818609E-02  0.8120005E-01
        2   -1    0    0  501    0  0.00000000000E+00  0.00000000000E+00  0.17541572561E+04  0.17541572561E+04  0.25500000920E-02 0.  1.
       -2   -1    0    0    0  501  0.00000000000E+00  0.00000000000E+00 -0.17199064189E+04  0.17199064189E+04  0.25500000920E-02 0. -1.
    10030    2    1    2    0    0  0.00000000000E+00  0.00000000000E+00  0.34250837227E+02  0.34740636750E+04  0.34738948312E+04 0.  0.
        4    1    3    3  502    0 -0.10768837463E+04  0.19756279109E+03  0.13656252540E+04  0.17503267142E+04  0.12699999809E+01 0.  1.
       -4    1    3    3    0  502  0.10768837463E+04 -0.19756279109E+03 -0.13313744168E+04  0.17237369607E+04  0.12699999809E+01 0. -1.
</event>
<event>
 5   0  0.1013863E-07  0.3445133E+04  0.7818609E-02  0.8126917E-01
        1   -1    0    0  501    0  0.00000000000E+00  0.00000000000E+00  0.19822021866E+04  0.19822021867E+04  0.50400001928E-02 0.  1.
       -1   -1    0    0    0  501  0.00000000000E+00  0.00000000000E+00 -0.14969389335E+04  0.14969389335E+04  0.50400001928E-02 0. -1.
    10030    2    1    2    0    0  0.00000000000E+00  0.00000000000E+00  0.48526325312E+03  0.34791411202E+04  0.34451331628E+04 0.  0.
        2    1    3    3  502    0 -0.12342498775E+04 -0.56988168769E+03 -0.82568512673E+03  0.15905639964E+04  0.25500000920E-02 0. -1.
       -2    1    3    3    0  502  0.12342498775E+04  0.56988168769E+03  0.13109483799E+04  0.18885771238E+04  0.25500000920E-02 0.  1.
</event>
<event>
 5   0  0.1098171E-07  0.3510965E+04  0.7818609E-02  0.8111196E-01
        1   -1    0    0  501    0  0.00000000000E+00  0.00000000000E+00  0.28898098369E+04  0.28898098369E+04  0.50400001928E-02 0.  1.
       -1   -1    0    0    0  501  0.00000000000E+00  0.00000000000E+00 -0.10664088335E+04  0.10664088336E+04  0.50400001928E-02 0. -1.
    10030    2    1    2    0    0  0.00000000000E+00  0.00000000000E+00  0.18234010034E+04  0.39562186705E+04  0.35109649599E+04 0.  0.
        4    1    3    3  502    0  0.81550434764E+03 -0.12340958672E+04  0.19769323091E+04  0.24690692412E+04  0.12699999809E+01 0. -1.
       -4    1    3    3    0  502 -0.81550434764E+03  0.12340958672E+04 -0.15353130566E+03  0.14871494293E+04  0.12699999809E+01 0.  1.
</event>
<event>
 5   0  0.2180451E-07  0.3510025E+04  0.7818609E-02  0.8111418E-01
        2   -1    0    0  501    0  0.00000000000E+00  0.00000000000E+00  0.14468279274E+04  0.14468279274E+04  0.25500000920E-02 0. -1.
       -2   -1    0    0    0  501  0.00000000000E+00  0.00000000000E+00 -0.21288427700E+04  0.21288427700E+04  0.25500000920E-02 0.  1.
    10030    2    1    2    0    0  0.00000000000E+00  0.00000000000E+00 -0.68201484256E+03  0.35756706974E+04  0.35100251695E+04 0.  0.
        4    1    3    3  502    0 -0.17376081194E+04 -0.15524640187E+03 -0.14589431467E+03  0.17506199433E+04  0.12699999809E+01 0. -1.
       -4    1    3    3    0  502  0.17376081194E+04  0.15524640187E+03 -0.53612052789E+03  0.18250507541E+04  0.12699999809E+01 0.  1.
</event>
<event>
 5   0  0.3119048E-07  0.3503306E+04  0.7818609E-02  0.8113007E-01
        2   -1    0    0  501    0  0.00000000000E+00  0.00000000000E+00  0.17424372238E+04  0.17424372238E+04  0.25500000920E-02 0.  1.
       -2   -1    0    0    0  501  0.00000000000E+00  0.00000000000E+00 -0.17609175596E+04  0.17609175596E+04  0.25500000920E-02 0. -1.
    10030    2    1    2    0    0  0.00000000000E+00  0.00000000000E+00 -0.18480335840E+02  0.35033547834E+04  0.35033060408E+04 0.  0.
        3    1    3    3  502    0 -0.89927029066E+03  0.19683543516E+03 -0.14995149241E+04  0.17595386503E+04  0.10100000352E+00 0. -1.
       -3    1    3    3    0  502  0.89927029066E+03 -0.19683543516E+03  0.14810345883E+04  0.17438161331E+04  0.10100000352E+00 0.  1.
</event>
<event>
 5   0  0.1013863E-07  0.3500767E+04  0.7818609E-02  0.8113608E-01
        1   -1    0    0  501    0  0.00000000000E+00  0.00000000000E+00  0.22493619360E+04  0.22493619360E+04  0.50400001928E-02 0.  1.
       -1   -1    0    0    0  501  0.00000000000E+00  0.00000000000E+00 -0.13620936547E+04  0.13620936547E+04  0.50400001928E-02 0. -1.
    10030    2    1    2    0    0  0.00000000000E+00  0.00000000000E+00  0.88726828134E+03  0.36114555907E+04  0.35007665562E+04 0.  0.
        2    1    3    3  502    0 -0.17378628259E+04  0.20440712573E+03  0.48850830678E+03  0.18167525535E+04  0.25500000920E-02 0. -1.
       -2    1    3    3    0  502  0.17378628259E+04 -0.20440712573E+03  0.39875997457E+03  0.17947030373E+04  0.25500000920E-02 0.  1.
</event>
<event>
 5   0  0.2180451E-07  0.3498177E+04  0.7818609E-02  0.8114222E-01
       -2   -1    0    0    0  501  0.00000000000E+00  0.00000000000E+00  0.12963664753E+04  0.12963664753E+04  0.25500000920E-02 0.  1.
        2   -1    0    0  501    0  0.00000000000E+00  0.00000000000E+00 -0.23599123132E+04  0.23599123132E+04  0.25500000920E-02 0. -1.
    10030    2    1    2    0    0  0.00000000000E+00  0.00000000000E+00 -0.10635458379E+04  0.36562787885E+04  0.34981773582E+04 0.  0.
        4    1    3    3  502    0  0.12736872078E+04  0.90567350705E+03 -0.13526246693E+04  0.20669104271E+04  0.12699999809E+01 0. -1.
       -4    1    3    3    0  502 -0.12736872078E+04 -0.90567350705E+03  0.28907883135E+03  0.15893683614E+04  0.12699999809E+01 0.  1.
</event>
<event>
 5   0  0.3119048E-07  0.3471331E+04  0.7818609E-02  0.8120618E-01
       -2   -1    0    0    0  501  0.00000000000E+00  0.00000000000E+00  0.14991828584E+04  0.14991828584E+04  0.25500000920E-02 0. -1.
        2   -1    0    0  501    0  0.00000000000E+00  0.00000000000E+00 -0.20094508582E+04  0.20094508582E+04  0.25500000920E-02 0.  1.
    10030    2    1    2    0    0  0.00000000000E+00  0.00000000000E+00 -0.51026799986E+03  0.35086337166E+04  0.34713307428E+04 0.  0.
        3    1    3    3  502    0 -0.35569441655E+03  0.54013960156E+03 -0.18831145172E+04  0.19910774978E+04  0.10100000352E+00 0.  1.
       -3    1    3    3    0  502  0.35569441655E+03 -0.54013960156E+03  0.13728465173E+04  0.15175562189E+04  0.10100000352E+00 0. -1.
</event>
<event>
 5   0  0.1013863E-07  0.3502360E+04  0.7818609E-02  0.8113231E-01
        1   -1    0    0  501    0  0.00000000000E+00  0.00000000000E+00  0.23371647855E+04  0.23371647855E+04  0.50400001928E-02 0.  1.
       -1   -1    0    0    0  501  0.00000000000E+00  0.00000000000E+00 -0.13121163151E+04  0.13121163151E+04  0.50400001928E-02 0. -1.
    10030    2    1    2    0    0  0.00000000000E+00  0.00000000000E+00  0.10250484704E+04  0.36492811006E+04  0.35023603734E+04 0.  0.
        5    1    3    3  502    0  0.46762113086E+03  0.12135697888E+04 -0.70935321810E+03  0.14814267556E+04  0.46999998093E+01 0. -1.
       -5    1    3    3    0  502 -0.46762113086E+03 -0.12135697888E+04  0.17344016885E+04  0.21678543450E+04  0.46999998093E+01 0.  1.
</event>
<event>
 5   0  0.3219205E-07  0.3506835E+04  0.7818609E-02  0.8112172E-01
        2   -1    0    0  501    0  0.00000000000E+00  0.00000000000E+00  0.17321698105E+04  0.17321698105E+04  0.25500000920E-02 0. -1.
       -2   -1    0    0    0  501  0.00000000000E+00  0.00000000000E+00 -0.17749260950E+04  0.17749260950E+04  0.25500000920E-02 0.  1.
    10030    2    1    2    0    0  0.00000000000E+00  0.00000000000E+00 -0.42756284487E+02  0.35070959054E+04  0.35068352670E+04 0.  0.
        2    1    3    3  502    0 -0.76695098759E+03 -0.11601419473E+04  0.10465636886E+04  0.17405282846E+04  0.25500000920E-02 0. -1.
       -2    1    3    3    0  502  0.76695098759E+03  0.11601419473E+04 -0.10893199730E+04  0.17665676208E+04  0.25500000920E-02 0.  1.
</event>
<event>
 5   0  0.1013863E-07  0.3493944E+04  0.7818609E-02  0.8115227E-01
       -1   -1    0    0    0  501  0.00000000000E+00  0.00000000000E+00  0.11994807275E+04  0.11994807275E+04  0.50400001928E-02 0.  1.
        1   -1    0    0  501    0  0.00000000000E+00  0.00000000000E+00 -0.25443609483E+04  0.25443609483E+04  0.50400001928E-02 0. -1.
    10030    2    1    2    0    0  0.00000000000E+00  0.00000000000E+00 -0.13448802209E+04  0.37438416758E+04  0.34939444308E+04 0.  0.
        5    1    3    3  502    0 -0.11565470489E+04 -0.10182543597E+04  0.20949997696E+03  0.15551062175E+04  0.46999998093E+01 0.  1.
       -5    1    3    3    0  502  0.11565470489E+04  0.10182543597E+04 -0.15543801978E+04  0.21887354584E+04  0.46999998093E+01 0. -1.
</event>
<event>
 5   0  0.3219205E-07  0.3487596E+04  0.7818609E-02  0.8116736E-01
       -2   -1    0    0    0  501  0.00000000000E+00  0.00000000000E+00  0.11349454848E+04  0.11349454848E+04  0.25500000920E-02 0.  1.
        2   -1    0    0  501    0  0.00000000000E+00  0.00000000000E+00 -0.26792758789E+04  0.26792758789E+04  0.25500000920E-02 0. -1.
    10030    2    1    2    0    0  0.00000000000E+00  0.00000000000E+00 -0.15443303941E+04  0.38142213637E+04  0.34875963421E+04 0.  0.
        2    1    3    3  502    0  0.41188531729E+03  0.79128276323E+03 -0.24108411842E+04  0.25705900376E+04  0.25500000920E-02 0. -1.
       -2    1    3    3    0  502 -0.41188531729E+03 -0.79128276323E+03  0.86651079007E+03  0.12436313261E+04  0.25500000920E-02 0.  1.
</event>
<event>
 5   0  0.1033796E-07  0.3505048E+04  0.7818609E-02  0.8112595E-01
       -1   -1    0    0    0  501  0.00000000000E+00  0.00000000000E+00  0.17462810000E+04  0.17462810000E+04  0.50400001928E-02 0.  1.
        1   -1    0    0  501    0  0.00000000000E+00  0.00000000000E+00 -0.17587893097E+04  0.17587893097E+04  0.50400001928E-02 0. -1.
    10030    2    1    2    0    0  0.00000000000E+00  0.00000000000E+00 -0.12508309681E+02  0.35050703097E+04  0.35050479908E+04 0.  0.
        3    1    3    3  502    0  0.77275061225E+03 -0.12112729043E+04  0.99725349915E+03  0.17489540043E+04  0.10100000352E+00 0.  1.
       -3    1    3    3    0  502 -0.77275061225E+03  0.12112729043E+04 -0.10097618088E+04  0.17561163054E+04  0.10100000352E+00 0. -1.
</event>
<event>
 5   0  0.3190185E-07  0.3508117E+04  0.7818609E-02  0.8111869E-01
       -2   -1    0    0    0  501  0.00000000000E+00  0.00000000000E+00  0.15232353263E+04  0.15232353263E+04  0.25500000920E-02 0.  1.
        2   -1    0    0  501    0  0.00000000000E+00  0.00000000000E+00 -0.20198597351E+04  0.20198597351E+04  0.25500000920E-02 0. -1.
    10030    2    1    2    0    0  0.00000000000E+00  0.00000000000E+00 -0.49662440881E+03  0.35430950614E+04  0.35081172743E+04 0.  0.
        1    1    3    3  502    0 -0.27004591283E+03  0.12978428350E+04  0.91179222957E+03  0.16089393678E+04  0.50400001928E-02 0.  1.
       -1    1    3    3    0  502  0.27004591283E+03 -0.12978428350E+04 -0.14084166384E+04  0.19341556935E+04  0.50400001928E-02 0. -1.
</event>
<event>
 5   0  0.1013863E-07  0.3498380E+04  0.7818609E-02  0.8114174E-01
       -1   -1    0    0    0  501  0.00000000000E+00  0.00000000000E+00  0.19735552949E+04  0.19735552949E+04  0.50400001928E-02 0. -1.
        1   -1    0    0  501    0  0.00000000000E+00  0.00000000000E+00 -0.15503317471E+04  0.15503317472E+04  0.50400001928E-02 0.  1.
    10030    2    1    2    0    0  0.00000000000E+00  0.00000000000E+00  0.42322354774E+03  0.35238870420E+04  0.34983798698E+04 0.  0.
        2    1    3    3  502    0  0.16889888454E+04  0.17645864505E+03 -0.21078379389E+03  0.17112132483E+04  0.25500000920E-02 0.  1.
       -2    1    3    3    0  502 -0.16889888454E+04 -0.17645864505E+03  0.63400734163E+03  0.18126737938E+04  0.25500000920E-02 0. -1.
</event>
<event>
 5   0  0.1072381E-07  0.3497499E+04  0.7818609E-02  0.8114383E-01
       -1   -1    0    0    0  501  0.00000000000E+00  0.00000000000E+00  0.20006409977E+04  0.20006409977E+04  0.50400001928E-02 0. -1.
        1   -1    0    0  501    0  0.00000000000E+00  0.00000000000E+00 -0.15285727372E+04  0.15285727373E+04  0.50400001928E-02 0.  1.
    10030    2    1    2    0    0  0.00000000000E+00  0.00000000000E+00  0.47206826049E+03  0.35292137350E+04  0.34974992701E+04 0.  0.
        1    1    3    3  502    0  0.49093381971E+03 -0.24830006010E+03  0.19110429421E+04  0.19886563458E+04  0.50400001928E-02 0. -1.
       -1    1    3    3    0  502 -0.49093381971E+03  0.24830006010E+03 -0.14389746816E+04  0.15405573892E+04  0.50400001928E-02 0.  1.
</event>
<event>
 5   0  0.3219205E-07  0.3503705E+04  0.7818609E-02  0.8112913E-01
        2   -1    0    0  501    0  0.00000000000E+00  0.00000000000E+00  0.24421754275E+04  0.24421754275E+04  0.25500000920E-02 0. -1.
       -2   -1    0    0    0  501  0.00000000000E+00  0.00000000000E+00 -0.12566610163E+04  0.12566610163E+04  0.25500000920E-02 0.  1.
    10030    2    1    2    0    0  0.00000000000E+00  0.00000000000E+00  0.11855144112E+04  0.36988364437E+04  0.35037046991E+04 0.  0.
        2    1    3    3  502    0  0.78747574457E+03  0.19143091769E+03 -0.10468746306E+04  0.13238996702E+04  0.25500000920E-02 0.  1.
       -2    1    3    3    0  502 -0.78747574457E+03 -0.19143091769E+03  0.22323890418E+04  0.23749367736E+04  0.25500000920E-02 0. -1.
</event>
<event>
 5   0  0.1033796E-07  0.3532203E+04  0.7818609E-02  0.8106200E-01
       -1   -1    0    0    0  501  0.00000000000E+00  0.00000000000E+00  0.10516367469E+04  0.10516367469E+04  0.50400001928E-02 0.  1.
        1   -1    0    0  501    0  0.00000000000E+00  0.00000000000E+00 -0.29659619650E+04  0.29659619650E+04  0.50400001928E-02 0. -1.
    10030    2    1    2    0    0  0.00000000000E+00  0.00000000000E+00 -0.19143252181E+04  0.40175987119E+04  0.35322030475E+04 0.  0.
        3    1    3    3  502    0  0.88026103665E+03  0.34500693731E+03 -0.26538736660E+04  0.28172565955E+04  0.10100000352E+00 0. -1.
       -3    1    3    3    0  502 -0.88026103665E+03 -0.34500693731E+03  0.73954844788E+03  0.12003421164E+04  0.10100000352E+00 0.  1.
</event>
<event>
 5   0  0.2180451E-07  0.3505675E+04  0.7818609E-02  0.8112446E-01
        2   -1    0    0  501    0  0.00000000000E+00  0.00000000000E+00  0.25031978103E+04  0.25031978103E+04  0.25500000920E-02 0. -1.
       -2   -1    0    0    0  501  0.00000000000E+00  0.00000000000E+00 -0.12274053689E+04  0.12274053689E+04  0.25500000920E-02 0.  1.
    10030    2    1    2    0    0  0.00000000000E+00  0.00000000000E+00  0.12757924414E+04  0.37306031793E+04  0.35056745039E+04 0.  0.
        4    1    3    3  502    0  0.78438535079E+03  0.27015461435E+03  0.22810498232E+04  0.24272275961E+04  0.12699999809E+01 0. -1.
       -4    1    3    3    0  502 -0.78438535079E+03 -0.27015461435E+03 -0.10052573818E+04  0.13033755832E+04  0.12699999809E+01 0.  1.
</event>
<event>
 5   0  0.3190185E-07  0.3504609E+04  0.7818609E-02  0.8112698E-01
        2   -1    0    0  501    0  0.00000000000E+00  0.00000000000E+00  0.21615561239E+04  0.21615561239E+04  0.25500000920E-02 0.  1.
       -2   -1    0    0    0  501  0.00000000000E+00  0.00000000000E+00 -0.14205375275E+04  0.14205375275E+04  0.25500000920E-02 0. -1.
    10030    2    1    2    0    0  0.00000000000E+00  0.00000000000E+00  0.74101859641E+03  0.35820936514E+04  0.35046093030E+04 0.  0.
        1    1    3    3  502    0  0.10794270043E+04  0.61121551949E+03 -0.89452364542E+03  0.15293526804E+04  0.50400001928E-02 0. -1.
       -1    1    3    3    0  502 -0.10794270043E+04 -0.61121551949E+03  0.16355422418E+04  0.20527409709E+04  0.50400001928E-02 0.  1.
</event>
<event>
 5   0  0.3190112E-07  0.3499374E+04  0.7818609E-02  0.8113938E-01
        2   -1    0    0  501    0  0.00000000000E+00  0.00000000000E+00  0.11615416246E+04  0.11615416246E+04  0.25500000920E-02 0.  1.
       -2   -1    0    0    0  501  0.00000000000E+00  0.00000000000E+00 -0.26356390696E+04  0.26356390696E+04  0.25500000920E-02 0. -1.
    10030    2    1    2    0    0  0.00000000000E+00  0.00000000000E+00 -0.14740974450E+04  0.37971806941E+04  0.34993739364E+04 0.  0.
        5    1    3    3  502    0 -0.48726392775E+02 -0.56975401748E+03 -0.25313733598E+04  0.25951622451E+04  0.46999998093E+01 0. -1.
       -5    1    3    3    0  502  0.48726392775E+02  0.56975401748E+03  0.10572759148E+04  0.12020184490E+04  0.46999998093E+01 0.  1.
</event>
<event>
 5   0  0.1098171E-07  0.3471671E+04  0.7818609E-02  0.8120536E-01
       -1   -1    0    0    0  501  0.00000000000E+00  0.00000000000E+00  0.11431407672E+04  0.11431407673E+04  0.50400001928E-02 0.  1.
        1   -1    0    0  501    0  0.00000000000E+00  0.00000000000E+00 -0.26358307296E+04  0.26358307296E+04  0.50400001928E-02 0. -1.
    10030    2    1    2    0    0  0.00000000000E+00  0.00000000000E+00 -0.14926899624E+04  0.37789714969E+04  0.34716713915E+04 0.  0.
        4    1    3    3  502    0  0.40623367312E+03  0.16679903339E+04 -0.46689840298E+03  0.17791046295E+04  0.12699999809E+01 0.  1.
       -4    1    3    3    0  502 -0.40623367312E+03 -0.16679903339E+04 -0.10257915594E+04  0.19998668674E+04  0.12699999809E+01 0. -1.
</event>
<event>
 5   0  0.1072381E-07  0.3467823E+04  0.7818609E-02  0.8121458E-01
       -1   -1    0    0    0  501  0.00000000000E+00  0.00000000000E+00  0.11515699274E+04  0.11515699274E+04  0.50400001928E-02 0. -1.
        1   -1    0    0  501    0  0.00000000000E+00  0.00000000000E+00 -0.26107391128E+04  0.26107391128E+04  0.50400001928E-02 0.  1.
    10030    2    1    2    0    0  0.00000000000E+00  0.00000000000E+00 -0.14591691854E+04  0.37623090402E+04  0.34678227466E+04 0.  0.
        1    1    3    3  502    0  0.17033164055E+03  0.16598934986E+04 -0.21818638670E+03  0.16828144859E+04  0.50400001928E-02 0.  1.
       -1    1    3    3    0  502 -0.17033164055E+03 -0.16598934986E+04 -0.12409827987E+04  0.20794945543E+04  0.50400001928E-02 0. -1.
</event>
<event>
 5   0  0.1013863E-07  0.3494222E+04  0.7818609E-02  0.8115161E-01
       -1   -1    0    0    0  501  0.00000000000E+00  0.00000000000E+00  0.12949905974E+04  0.12949905974E+04  0.50400001928E-02 0.  1.
        1   -1    0    0  501    0  0.00000000000E+00  0.00000000000E+00 -0.23570801354E+04  0.23570801354E+04  0.50400001928E-02 0. -1.
    10030    2    1    2    0    0  0.00000000000E+00  0.00000000000E+00 -0.10620895380E+04  0.36520707328E+04  0.34942218663E+04 0.  0.
        5    1    3    3  502    0  0.59425808865E+03  0.16300611204E+04 -0.74557958619E+03  0.18884260487E+04  0.46999998093E+01 0. -1.
       -5    1    3    3    0  502 -0.59425808865E+03 -0.16300611204E+04 -0.31650995180E+03  0.17636446841E+04  0.46999998093E+01 0.  1.
</event>
<event>
 5   0  0.2180451E-07  0.3493940E+04  0.7818609E-02  0.8115227E-01
       -2   -1    0    0    0  501  0.00000000000E+00  0.00000000000E+00  0.23859011976E+04  0.23859011976E+04  0.25500000920E-02 0. -1.
        2   -1    0    0  501    0  0.00000000000E+00  0.00000000000E+00 -0.12791413681E+04  0.12791413681E+04  0.25500000920E-02 0.  1.
    10030    2    1    2    0    0  0.00000000000E+00  0.00000000000E+00  0.11067598295E+04  0.36650425657E+04  0.34939404243E+04 0.  0.
        4    1    3    3  502    0 -0.13819306307E+04 -0.91951302525E+03 -0.17964555452E+02  0.16599881957E+04  0.12699999809E+01 0.  1.
       -4    1    3    3    0  502  0.13819306307E+04  0.91951302525E+03  0.11247243849E+04  0.20050543700E+04  0.12699999809E+01 0. -1.
</event>
<event>
 5   0  0.2180451E-07  0.3503435E+04  0.7818609E-02  0.8112976E-01
        2   -1    0    0  501    0  0.00000000000E+00  0.00000000000E+00  0.21230309965E+04  0.21230309965E+04  0.25500000920E-02 0.  1.
       -2   -1    0    0    0  501  0.00000000000E+00  0.00000000000E+00 -0.14453460670E+04  0.14453460670E+04  0.25500000920E-02 0. -1.
    10030    2    1    2    0    0  0.00000000000E+00  0.00000000000E+00  0.67768492948E+03  0.35683770635E+04  0.35034351719E+04 0.  0.
        4    1    3    3  502    0 -0.41745355131E+03  0.91137339903E+03 -0.11243250071E+04  0.15063124757E+04  0.12699999809E+01 0. -1.
       -4    1    3    3    0  502  0.41745355131E+03 -0.91137339903E+03  0.18020099366E+04  0.20620645878E+04  0.12699999809E+01 0.  1.
</event>
<event>
 5   0  0.3119048E-07  0.3349941E+04  0.7818609E-02  0.8150303E-01
       -2   -1    0    0    0  501  0.00000000000E+00  0.00000000000E+00  0.14708160238E+04  0.14708160238E+04  0.25500000920E-02 0. -1.
        2   -1    0    0  501    0  0.00000000000E+00  0.00000000000E+00 -0.19074618774E+04  0.19074618774E+04  0.25500000920E-02 0.  1.
    10030    2    1    2    0    0  0.00000000000E+00  0.00000000000E+00 -0.43664585361E+03  0.33782779012E+04  0.33499405930E+04 0.  0.
        3    1    3    3  502    0 -0.11029013407E+04  0.12679889420E+03 -0.14831477498E+04  0.18526188450E+04  0.10100000352E+00 0.  1.
       -3    1    3    3    0  502  0.11029013407E+04 -0.12679889420E+03  0.10465018962E+04  0.15256590562E+04  0.10100000352E+00 0. -1.
</event>
<event>
 5   0  0.2180451E-07  0.3429228E+04  0.7818609E-02  0.8130770E-01
       -2   -1    0    0    0  501  0.00000000000E+00  0.00000000000E+00  0.11205317977E+04  0.11205317977E+04  0.25500000920E-02 0.  1.
        2   -1    0    0  501    0  0.00000000000E+00  0.00000000000E+00 -0.26236659594E+04  0.26236659594E+04  0.25500000920E-02 0. -1.
    10030    2    1    2    0    0  0.00000000000E+00  0.00000000000E+00 -0.15031341616E+04  0.37441977571E+04  0.34292279796E+04 0.  0.
        4    1    3    3  502    0 -0.61118727353E+03  0.15984219645E+04 -0.86812856031E+03  0.19188932930E+04  0.12699999809E+01 0.  1.
       -4    1    3    3    0  502  0.61118727353E+03 -0.15984219645E+04 -0.63500560133E+03  0.18253044641E+04  0.12699999809E+01 0. -1.
</event>
<event>
 5   0  0.3219205E-07  0.3488348E+04  0.7818609E-02  0.8116557E-01
       -2   -1    0    0    0  501  0.00000000000E+00  0.00000000000E+00  0.12698811725E+04  0.12698811725E+04  0.25500000920E-02 0.  1.
        2   -1    0    0  501    0  0.00000000000E+00  0.00000000000E+00 -0.23956126930E+04  0.23956126930E+04  0.25500000920E-02 0. -1.
    10030    2    1    2    0    0  0.00000000000E+00  0.00000000000E+00 -0.11257315205E+04  0.36654938655E+04  0.34883482942E+04 0.  0.
        2    1    3    3  502    0 -0.10101543344E+04 -0.63348466936E+03 -0.19004700096E+04  0.22435464923E+04  0.25500000920E-02 0. -1.
       -2    1    3    3    0  502  0.10101543344E+04  0.63348466936E+03  0.77473848910E+03  0.14219473732E+04  0.25500000920E-02 0.  1.
</event>
<event>
 5   0  0.3119048E-07  0.3477752E+04  0.7818609E-02  0.8119083E-01
       -2   -1    0    0    0  501  0.00000000000E+00  0.00000000000E+00  0.16184862642E+04  0.16184862642E+04  0.25500000920E-02 0.  1.
        2   -1    0    0  501    0  0.00000000000E+00  0.00000000000E+00 -0.18682205263E+04  0.18682205263E+04  0.25500000920E-02 0. -1.
    10030    2    1    2    0    0  0.00000000000E+00  0.00000000000E+00 -0.24973426204E+03  0.34867067905E+04  0.34777517222E+04 0.  0.
        3    1    3    3  502    0  0.14435262516E+04 -0.83889298441E+03  0.36236756017E+03  0.17084553659E+04  0.10100000352E+00 0. -1.
       -3    1    3    3    0  502 -0.14435262516E+04  0.83889298441E+03 -0.61210182221E+03  0.17782514247E+04  0.10100000352E+00 0.  1.
</event>
<event>
 5   0  0.3190112E-07  0.3527197E+04  0.7818609E-02  0.8107375E-01
       -2   -1    0    0    0  501  0.00000000000E+00  0.00000000000E+00  0.17925012459E+04  0.17925012459E+04  0.25500000920E-02 0. -1.
        2   -1    0    0  501    0  0.00000000000E+00  0.00000000000E+00 -0.17351617151E+04  0.17351617151E+04  0.25500000920E-02 0.  1.
    10030    2    1    2    0    0  0.00000000000E+00  0.00000000000E+00  0.57339530822E+02  0.35276629610E+04  0.35271969246E+04 0.  0.
        5    1    3    3  502    0  0.16585630848E+04 -0.26588094408E+00  0.62827034481E+03  0.17735775408E+04  0.46999998093E+01 0. -1.
       -5    1    3    3    0  502 -0.16585630848E+04  0.26588094408E+00 -0.57093081399E+03  0.17540854202E+04  0.46999998093E+01 0.  1.
</event>
<event>
 5   0  0.3190112E-07  0.3515924E+04  0.7818609E-02  0.8110026E-01
        2   -1    0    0  501    0  0.00000000000E+00  0.00000000000E+00  0.18823869668E+04  0.18823869668E+04  0.25500000920E-02 0. -1.
       -2   -1    0    0    0  501  0.00000000000E+00  0.00000000000E+00 -0.16417615809E+04  0.16417615809E+04  0.25500000920E-02 0.  1.
    10030    2    1    2    0    0  0.00000000000E+00  0.00000000000E+00  0.24062538587E+03  0.35241485478E+04  0.35159241190E+04 0.  0.
        5    1    3    3  502    0  0.33607383445E+03 -0.16845913496E+04  0.49483747436E+03  0.17876464564E+04  0.46999998093E+01 0. -1.
       -5    1    3    3    0  502 -0.33607383445E+03  0.16845913496E+04 -0.25421208849E+03  0.17365020913E+04  0.46999998093E+01 0.  1.
</event>
<event>
 5   0  0.3190112E-07  0.3491895E+04  0.7818609E-02  0.8115713E-01
        2   -1    0    0  501    0  0.00000000000E+00  0.00000000000E+00  0.15273427828E+04  0.15273427828E+04  0.25500000920E-02 0.  1.
       -2   -1    0    0    0  501  0.00000000000E+00  0.00000000000E+00 -0.19958407558E+04  0.19958407558E+04  0.25500000920E-02 0. -1.
    10030    2    1    2    0    0  0.00000000000E+00  0.00000000000E+00 -0.46849797299E+03  0.35231835387E+04  0.34918951726E+04 0.  0.
        5    1    3    3  502    0 -0.85496317255E+03  0.96784265921E+01  0.13016441579E+04  0.15573552267E+04  0.46999998093E+01 0.  1.
       -5    1    3    3    0  502  0.85496317255E+03 -0.96784265921E+01 -0.17701421309E+04  0.19658283119E+04  0.46999998093E+01 0. -1.
</event>
<event>
 5   0  0.3190112E-07  0.3486276E+04  0.7818609E-02  0.8117050E-01
       -2   -1    0    0    0  501  0.00000000000E+00  0.00000000000E+00  0.13250992214E+04  0.13250992214E+04  0.25500000920E-02 0.  1.
        2   -1    0    0  501    0  0.00000000000E+00  0.00000000000E+00 -0.22930584951E+04  0.22930584951E+04  0.25500000920E-02 0. -1.
    10030    2    1    2    0    0  0.00000000000E+00  0.00000000000E+00 -0.96795927368E+03  0.36181577165E+04  0.34862759653E+04 0.  0.
        5    1    3    3  502    0 -0.78893979346E+03 -0.67625152976E+02 -0.20956274960E+04  0.22402401324E+04  0.46999998093E+01 0. -1.
       -5    1    3    3    0  502  0.78893979346E+03  0.67625152976E+02  0.11276682223E+04  0.13779175841E+04  0.46999998093E+01 0.  1.
</event>
<event>
 5   0  0.1033796E-07  0.3428974E+04  0.7818609E-02  0.8130832E-01
       -1   -1    0    0    0  501  0.00000000000E+00  0.00000000000E+00  0.17932276493E+04  0.17932276493E+04  0.50400001928E-02 0.  1.
        1   -1    0    0  501    0  0.00000000000E+00  0.00000000000E+00 -0.16392034019E+04  0.16392034020E+04  0.50400001928E-02 0. -1.
    10030    2    1    2    0    0  0.00000000000E+00  0.00000000000E+00  0.15402424740E+03  0.34324310513E+04  0.34289735276E+04 0.  0.
        3    1    3    3  502    0  0.11473121727E+04 -0.35375240834E+03  0.13021738808E+04  0.17711924836E+04  0.10100000352E+00 0.  1.
       -3    1    3    3    0  502 -0.11473121727E+04  0.35375240834E+03 -0.11481496334E+04  0.16612385677E+04  0.10100000352E+00 0. -1.
</event>
<event>
 5   0  0.3119048E-07  0.3524025E+04  0.7818609E-02  0.8108120E-01
       -2   -1    0    0    0  501  0.00000000000E+00  0.00000000000E+00  0.17543280501E+04  0.17543280501E+04  0.25500000920E-02 0. -1.
        2   -1    0    0  501    0  0.00000000000E+00  0.00000000000E+00 -0.17697303989E+04  0.17697303989E+04  0.25500000920E-02 0.  1.
    10030    2    1    2    0    0  0.00000000000E+00  0.00000000000E+00 -0.15402348830E+02  0.35240584490E+04  0.35240247899E+04 0.  0.
        3    1    3    3  502    0  0.59920754867E+03  0.83076367259E+03  0.14260034565E+04  0.17557630348E+04  0.10100000352E+00 0. -1.
       -3    1    3    3    0  502 -0.59920754867E+03 -0.83076367259E+03 -0.14414058054E+04  0.17682954142E+04  0.10100000352E+00 0.  1.
</event>
<event>
 5   0  0.1072381E-07  0.3481793E+04  0.7818609E-02  0.8118118E-01
        1   -1    0    0  501    0  0.00000000000E+00  0.00000000000E+00  0.20293496120E+04  0.20293496120E+04  0.50400001928E-02 0.  1.
       -1   -1    0    0    0  501  0.00000000000E+00  0.00000000000E+00 -0.14934441339E+04  0.14934441339E+04  0.50400001928E-02 0. -1.
    10030    2    1    2    0    0  0.00000000000E+00  0.00000000000E+00  0.53590547814E+03  0.35227937459E+04  0.34817927989E+04 0.  0.
        1    1    3    3  502    0 -0.20150496737E+03  0.12408642092E+04  0.14864484443E+04  0.19467606980E+04  0.50400001928E-02 0.  1.
       -1    1    3    3    0  502  0.20150496737E+03 -0.12408642092E+04 -0.95054296619E+03  0.15760330479E+04  0.50400001928E-02 0. -1.
</event>
<event>
 5   0  0.1013863E-07  0.3506384E+04  0.7818609E-02  0.8112279E-01
        4   -1    0    0  501    0  0.00000000000E+00  0.00000000000E+00  0.21522200791E+04  0.21522204538E+04  0.12699999809E+01 0.  1.
       -4   -1    0    0    0  501  0.00000000000E+00  0.00000000000E+00 -0.14281441474E+04  0.14281447121E+04  0.12699999809E+01 0. -1.
    10030    2    1    2    0    0  0.00000000000E+00  0.00000000000E+00  0.72407593169E+03  0.35803651659E+04  0.35063840016E+04 0.  0.
        4    1    3    3  502    0  0.14411498384E+04 -0.38635402110E+03 -0.57798240028E+03  0.16000773588E+04  0.12699999809E+01 0. -1.
       -4    1    3    3    0  502 -0.14411498384E+04  0.38635402110E+03  0.13020583320E+04  0.19802878071E+04  0.12699999809E+01 0.  1.
</event>
<event>
 5   0  0.1013863E-07  0.3496635E+04  0.7818609E-02  0.8114588E-01
        1   -1    0    0  501    0  0.00000000000E+00  0.00000000000E+00  0.17354867964E+04  0.17354867964E+04  0.50400001928E-02 0. -1.
       -1   -1    0    0    0  501  0.00000000000E+00  0.00000000000E+00 -0.17612426265E+04  0.17612426265E+04  0.50400001928E-02 0.  1.
    10030    2    1    2    0    0  0.00000000000E+00  0.00000000000E+00 -0.25755830143E+02  0.34967294229E+04  0.34966345668E+04 0.  0.
        5    1    3    3  502    0 -0.16916323537E+04  0.44129599996E+03  0.22570146572E+01  0.17482532322E+04  0.46999998093E+01 0. -1.
       -5    1    3    3    0  502  0.16916323537E+04 -0.44129599996E+03 -0.28012844800E+02  0.17484761907E+04  0.46999998093E+01 0.  1.
</event>
<event>
 5   0  0.3219205E-07  0.3504128E+04  0.7818609E-02  0.8112812E-01
       -2   -1    0    0    0  501  0.00000000000E+00  0.00000000000E+00  0.15251729125E+04  0.15251729125E+04  0.25500000920E-02 0. -1.
        2   -1    0    0  501    0  0.00000000000E+00  0.00000000000E+00 -0.20127079590E+04  0.20127079590E+04  0.25500000920E-02 0.  1.
    10030    2    1    2    0    0  0.00000000000E+00  0.00000000000E+00 -0.48753504653E+03  0.35378808714E+04  0.35041276573E+04 0.  0.
        2    1    3    3  502    0  0.35160132318E+03  0.16976993199E+04  0.11494205884E+02  0.17337642827E+04  0.25500000920E-02 0. -1.
       -2    1    3    3    0  502 -0.35160132318E+03 -0.16976993199E+04 -0.49902925241E+03  0.18041165888E+04  0.25500000920E-02 0.  1.
</event>
<event>
 5   0  0.2180451E-07  0.3490740E+04  0.7818609E-02  0.8115988E-01
       -2   -1    0    0    0  501  0.00000000000E+00  0.00000000000E+00  0.17172238934E+04  0.17172238934E+04  0.25500000920E-02 0.  1.
        2   -1    0    0  501    0  0.00000000000E+00  0.00000000000E+00 -0.17739776907E+04  0.17739776907E+04  0.25500000920E-02 0. -1.
    10030    2    1    2    0    0  0.00000000000E+00  0.00000000000E+00 -0.56753797265E+02  0.34912015842E+04  0.34907402521E+04 0.  0.
        4    1    3    3  502    0  0.16819377294E+04  0.39026569388E+03  0.22679095430E+03  0.17414527232E+04  0.12699999809E+01 0.  1.
       -4    1    3    3    0  502 -0.16819377294E+04 -0.39026569388E+03 -0.28354475157E+03  0.17497488609E+04  0.12699999809E+01 0. -1.
</event>
<event>
 5   0  0.1033796E-07  0.3506064E+04  0.7818609E-02  0.8112354E-01
       -1   -1    0    0    0  501  0.00000000000E+00  0.00000000000E+00  0.19688737625E+04  0.19688737625E+04  0.50400001928E-02 0. -1.
        1   -1    0    0  501    0  0.00000000000E+00  0.00000000000E+00 -0.15608520726E+04  0.15608520726E+04  0.50400001928E-02 0.  1.
    10030    2    1    2    0    0  0.00000000000E+00  0.00000000000E+00  0.40802168990E+03  0.35297258351E+04  0.35060637147E+04 0.  0.
        3    1    3    3  502    0  0.27022058114E+03 -0.82725019403E+03 -0.13280210815E+04  0.15877663710E+04  0.10100000352E+00 0.  1.
       -3    1    3    3    0  502 -0.27022058114E+03  0.82725019403E+03  0.17360427714E+04  0.19419594641E+04  0.10100000352E+00 0. -1.
</event>
<event>
 5   0  0.3219205E-07  0.3503045E+04  0.7818609E-02  0.8113069E-01
       -2   -1    0    0    0  501  0.00000000000E+00  0.00000000000E+00  0.16147086266E+04  0.16147086266E+04  0.25500000920E-02 0.  1.
        2   -1    0    0  501    0  0.00000000000E+00  0.00000000000E+00 -0.18999288277E+04  0.18999288277E+04  0.25500000920E-02 0. -1.
    10030    2    1    2    0    0  0.00000000000E+00  0.00000000000E+00 -0.28522020109E+03  0.35146374543E+04  0.35030452284E+04 0.  0.
        2    1    3    3  502    0  0.12932152273E+04 -0.65913923470E+03  0.84092019116E+03  0.16775031811E+04  0.25500000920E-02 0.  1.
       -2    1    3    3    0  502 -0.12932152273E+04  0.65913923470E+03 -0.11261403923E+04  0.18371342732E+04  0.25500000920E-02 0. -1.
</event>
<event>
 5   0  0.1013863E-07  0.3505737E+04  0.7818609E-02  0.8112432E-01
       -1   -1    0    0    0  501  0.00000000000E+00  0.00000000000E+00  0.13847391563E+04  0.13847391563E+04  0.50400001928E-02 0. -1.
        1   -1    0    0  501    0  0.00000000000E+00  0.00000000000E+00 -0.22188635758E+04  0.22188635758E+04  0.50400001928E-02 0.  1.
    10030    2    1    2    0    0  0.00000000000E+00  0.00000000000E+00 -0.83412441949E+03  0.36036027320E+04  0.35057365992E+04 0.  0.
        5    1    3    3  502    0 -0.24816980750E+03  0.16264749539E+04  0.20439454695E+03  0.16579530301E+04  0.46999998093E+01 0. -1.
       -5    1    3    3    0  502  0.24816980750E+03 -0.16264749539E+04 -0.10385189664E+04  0.19456497020E+04  0.46999998093E+01 0.  1.
</event>
<event>
 5   0  0.1013863E-07  0.3483740E+04  0.7818609E-02  0.8117654E-01
       -1   -1    0    0    0  501  0.00000000000E+00  0.00000000000E+00  0.19238255356E+04  0.19238255356E+04  0.50400001928E-02 0.  1.
        1   -1    0    0  501    0  0.00000000000E+00  0.00000000000E+00 -0.15771240634E+04  0.15771240634E+04  0.50400001928E-02 0. -1.
    10030    2    1    2    0    0  0.00000000000E+00  0.00000000000E+00  0.34670147221E+03  0.35009495991E+04  0.34837402579E+04 0.  0.
        5    1    3    3  502    0 -0.15897060668E+04 -0.55617203162E+03  0.62006517323E+03  0.17947132407E+04  0.46999998093E+01 0.  1.
       -5    1    3    3    0  502  0.15897060668E+04  0.55617203162E+03 -0.27336370103E+03  0.17062363583E+04  0.46999998093E+01 0. -1.
</event>
<event>
 5   0  0.1098171E-07  0.3385702E+04  0.7818609E-02  0.8141425E-01
        1   -1    0    0  501    0  0.00000000000E+00  0.00000000000E+00  0.16461857898E+04  0.16461857898E+04  0.50400001928E-02 0.  1.
       -1   -1    0    0    0  501  0.00000000000E+00  0.00000000000E+00 -0.17408385766E+04  0.17408385766E+04  0.50400001928E-02 0. -1.
    10030    2    1    2    0    0  0.00000000000E+00  0.00000000000E+00 -0.94652786843E+02  0.33870243664E+04  0.33857015386E+04 0.  0.
        4    1    3    3  502    0  0.64268449766E+03  0.26817712563E+03  0.14962540330E+04  0.16503757386E+04  0.12699999809E+01 0.  1.
       -4    1    3    3    0  502 -0.64268449766E+03 -0.26817712563E+03 -0.15909068199E+04  0.17366486279E+04  0.12699999809E+01 0. -1.
</event>
<event>
 5   0  0.1013863E-07  0.3481010E+04  0.7818609E-02  0.8118305E-01
       -1   -1    0    0    0  501  0.00000000000E+00  0.00000000000E+00  0.17821103624E+04  0.17821103624E+04  0.50400001928E-02 0.  1.
        1   -1    0    0  501    0  0.00000000000E+00  0.00000000000E+00 -0.16998710386E+04  0.16998710387E+04  0.50400001928E-02 0. -1.
    10030    2    1    2    0    0  0.00000000000E+00  0.00000000000E+00  0.82239323741E+02  0.34819814011E+04  0.34810100791E+04 0.  0.
        2    1    3    3  502    0 -0.99025611120E+03  0.44421458295E+03 -0.13199304466E+04  0.17088446815E+04  0.25500000920E-02 0. -1.
       -2    1    3    3    0  502  0.99025611120E+03 -0.44421458295E+03  0.14021697703E+04  0.17731367196E+04  0.25500000920E-02 0.  1.
</event>
<event>
 5   0  0.1013863E-07  0.3495442E+04  0.7818609E-02  0.8114871E-01
       -1   -1    0    0    0  501  0.00000000000E+00  0.00000000000E+00  0.17536662711E+04  0.17536662711E+04  0.50400001928E-02 0.  1.
        1   -1    0    0  501    0  0.00000000000E+00  0.00000000000E+00 -0.17417954089E+04  0.17417954089E+04  0.50400001928E-02 0. -1.
    10030    2    1    2    0    0  0.00000000000E+00  0.00000000000E+00  0.11870862203E+02  0.34954616799E+04  0.34954415227E+04 0.  0.
        5    1    3    3  502    0  0.98729847195E+02 -0.12764053266E+04 -0.11838393188E+04  0.17436902715E+04  0.46999998093E+01 0. -1.
       -5    1    3    3    0  502 -0.98729847195E+02  0.12764053266E+04  0.11957101810E+04  0.17517714084E+04  0.46999998093E+01 0.  1.
</event>
<event>
 5   0  0.1072381E-07  0.3481213E+04  0.7818609E-02  0.8118257E-01
        1   -1    0    0  501    0  0.00000000000E+00  0.00000000000E+00  0.19950416985E+04  0.19950416985E+04  0.50400001928E-02 0.  1.
       -1   -1    0    0    0  501  0.00000000000E+00  0.00000000000E+00 -0.15186203869E+04  0.15186203869E+04  0.50400001928E-02 0. -1.
    10030    2    1    2    0    0  0.00000000000E+00  0.00000000000E+00  0.47642131166E+03  0.35136620854E+04  0.34812130047E+04 0.  0.
        1    1    3    3  502    0 -0.52229205215E+03  0.17225502872E+03 -0.14286215661E+04  0.15308234261E+04  0.50400001928E-02 0. -1.
       -1    1    3    3    0  502  0.52229205215E+03 -0.17225502872E+03  0.19050428778E+04  0.19828386593E+04  0.50400001928E-02 0.  1.
</event>
<event>
 5   0  0.3190185E-07  0.3533606E+04  0.7818609E-02  0.8105872E-01
       -2   -1    0    0    0  501  0.00000000000E+00  0.00000000000E+00  0.10801701124E+04  0.10801701124E+04  0.25500000920E-02 0. -1.
        2   -1    0    0  501    0  0.00000000000E+00  0.00000000000E+00 -0.28899085729E+04  0.28899085729E+04  0.25500000920E-02 0.  1.
    10030    2    1    2    0    0  0.00000000000E+00  0.00000000000E+00 -0.18097384605E+04  0.39700786853E+04  0.35336060155E+04 0.  0.
        1    1    3    3  502    0  0.13829581124E+04 -0.23493272658E+03 -0.21117134468E+04  0.25351726190E+04  0.50400001928E-02 0.  1.
       -1    1    3    3    0  502 -0.13829581124E+04  0.23493272658E+03  0.30197498632E+03  0.14349060663E+04  0.50400001928E-02 0. -1.
</event>
<event>
 5   0  0.3119048E-07  0.3526082E+04  0.7818609E-02  0.8107637E-01
       -2   -1    0    0    0  501  0.00000000000E+00  0.00000000000E+00  0.14457888958E+04  0.14457888958E+04  0.25500000920E-02 0.  1.
        2   -1    0    0  501    0  0.00000000000E+00  0.00000000000E+00 -0.21499082793E+04  0.21499082793E+04  0.25500000920E-02 0. -1.
    10030    2    1    2    0    0  0.00000000000E+00  0.00000000000E+00 -0.70411938349E+03  0.35956971751E+04  0.35260819714E+04 0.  0.
        3    1    3    3  502    0  0.17307993212E+04 -0.33505931484E+03 -0.37200270026E+03  0.18017538827E+04  0.10100000352E+00 0.  1.
       -3    1    3    3    0  502 -0.17307993212E+04  0.33505931484E+03 -0.33211668322E+03  0.17939432924E+04  0.10100000352E+00 0. -1.
</event>
<event>
 5   0  0.1013863E-07  0.3510027E+04  0.7818609E-02  0.8111418E-01
       -1   -1    0    0    0  501  0.00000000000E+00  0.00000000000E+00  0.15722488110E+04  0.15722488110E+04  0.50400001928E-02 0. -1.
        1   -1    0    0  501    0  0.00000000000E+00  0.00000000000E+00 -0.19590240646E+04  0.19590240646E+04  0.50400001928E-02 0.  1.
    10030    2    1    2    0    0  0.00000000000E+00  0.00000000000E+00 -0.38677525360E+03  0.35312728756E+04  0.35100274964E+04 0.  0.
        5    1    3    3  502    0 -0.86450871543E+03 -0.39490940402E+03 -0.16776896662E+04  0.19282099114E+04  0.46999998093E+01 0.  1.
       -5    1    3    3    0  502  0.86450871543E+03  0.39490940402E+03  0.12909144126E+04  0.16030629642E+04  0.46999998093E+01 0. -1.
</event>
<event>
 5   0  0.1072381E-07  0.3525446E+04  0.7818609E-02  0.8107786E-01
       -1   -1    0    0    0  501  0.00000000000E+00  0.00000000000E+00  0.18514297863E+04  0.18514297863E+04  0.50400001928E-02 0. -1.
        1   -1    0    0  501    0  0.00000000000E+00  0.00000000000E+00 -0.16782665934E+04  0.16782665934E+04  0.50400001928E-02 0.  1.
    10030    2    1    2    0    0  0.00000000000E+00  0.00000000000E+00  0.17316319294E+03  0.35296963797E+04  0.35254462188E+04 0.  0.
        1    1    3    3  502    0 -0.58247846354E+03  0.27925323931E+03  0.17286592184E+04  0.18454067914E+04  0.50400001928E-02 0. -1.
       -1    1    3    3    0  502  0.58247846354E+03 -0.27925323931E+03 -0.15554960255E+04  0.16842895884E+04  0.50400001928E-02 0.  1.
</event>
<event>
 5   0  0.1033796E-07  0.3507577E+04  0.7818609E-02  0.8111997E-01
        1   -1    0    0  501    0  0.00000000000E+00  0.00000000000E+00  0.21846077739E+04  0.21846077739E+04  0.50400001928E-02 0. -1.
       -1   -1    0    0    0  501  0.00000000000E+00  0.00000000000E+00 -0.14079296929E+04  0.14079296929E+04  0.50400001928E-02 0.  1.
    10030    2    1    2    0    0  0.00000000000E+00  0.00000000000E+00  0.77667808093E+03  0.35925374668E+04  0.35075770282E+04 0.  0.
        3    1    3    3  502    0  0.16261008619E+04 -0.43807282934E+03 -0.11307209321E+03  0.16878676268E+04  0.10100000352E+00 0.  1.
       -3    1    3    3    0  502 -0.16261008619E+04  0.43807282934E+03  0.88975017414E+03  0.19046698400E+04  0.10100000352E+00 0. -1.
</event>
<event>
 5   0  0.3219205E-07  0.3503911E+04  0.7818609E-02  0.8112864E-01
       -2   -1    0    0    0  501  0.00000000000E+00  0.00000000000E+00  0.28713731426E+04  0.28713731426E+04  0.25500000920E-02 0.  1.
        2   -1    0    0  501    0  0.00000000000E+00  0.00000000000E+00 -0.10689477436E+04  0.10689477436E+04  0.25500000920E-02 0. -1.
    10030    2    1    2    0    0  0.00000000000E+00  0.00000000000E+00  0.18024253990E+04  0.39403208862E+04  0.35039108675E+04 0.  0.
        2    1    3    3  502    0 -0.11016264513E+04 -0.42397932023E+03  0.23570627780E+04  0.26361115761E+04  0.25500000920E-02 0.  1.
       -2    1    3    3    0  502  0.11016264513E+04  0.42397932023E+03 -0.55463737903E+03  0.13042093101E+04  0.25500000920E-02 0. -1.
</event>
<event>
 5   0  0.3219205E-07  0.3480898E+04  0.7818609E-02  0.8118332E-01
       -2   -1    0    0    0  501  0.00000000000E+00  0.00000000000E+00  0.13866733824E+04  0.13866733824E+04  0.25500000920E-02 0. -1.
        2   -1    0    0  501    0  0.00000000000E+00  0.00000000000E+00 -0.21844822799E+04  0.21844822799E+04  0.25500000920E-02 0.  1.
    10030    2    1    2    0    0  0.00000000000E+00  0.00000000000E+00 -0.79780889748E+03  0.35711556623E+04  0.34808984081E+04 0.  0.
        2    1    3    3  502    0 -0.38747265821E+03 -0.14127368177E+04 -0.13630613494E+04  0.20009739176E+04  0.25500000920E-02 0. -1.
       -2    1    3    3    0  502  0.38747265821E+03  0.14127368177E+04  0.56525245193E+03  0.15701817446E+04  0.25500000920E-02 0.  1.
</event>
<event>
 5   0  0.1098171E-07  0.3526088E+04  0.7818609E-02  0.8107635E-01
        1   -1    0    0  501    0  0.00000000000E+00  0.00000000000E+00  0.17692117580E+04  0.17692117580E+04  0.50400001928E-02 0.  1.
       -1   -1    0    0    0  501  0.00000000000E+00  0.00000000000E+00 -0.17568972882E+04  0.17568972882E+04  0.50400001928E-02 0. -1.
    10030    2    1    2    0    0  0.00000000000E+00  0.00000000000E+00  0.12314469776E+02  0.35261090462E+04  0.35260875428E+04 0.  0.
        4    1    3    3  502    0 -0.99527305338E+03  0.54152414152E+03  0.13569078164E+04  0.17677718410E+04  0.12699999809E+01 0.  1.
       -4    1    3    3    0  502  0.99527305338E+03 -0.54152414152E+03 -0.13445933466E+04  0.17583372052E+04  0.12699999809E+01 0. -1.
</event>
<event>
 5   0  0.3190185E-07  0.3546107E+04  0.7818609E-02  0.8102949E-01
       -2   -1    0    0    0  501  0.00000000000E+00  0.00000000000E+00  0.19181469383E+04  0.19181469383E+04  0.25500000920E-02 0. -1.
        2   -1    0    0  501    0  0.00000000000E+00  0.00000000000E+00 -0.16389350903E+04  0.16389350903E+04  0.25500000920E-02 0.  1.
    10030    2    1    2    0    0  0.00000000000E+00  0.00000000000E+00  0.27921184806E+03  0.35570820286E+04  0.35461067810E+04 0.  0.
        1    1    3    3  502    0  0.21759932887E+03 -0.50182189793E+03  0.18314033969E+04  0.19113380359E+04  0.50400001928E-02 0. -1.
       -1    1    3    3    0  502 -0.21759932887E+03  0.50182189793E+03 -0.15521915489E+04  0.16457439927E+04  0.50400001928E-02 0.  1.
</event>
<event>
 5   0  0.1013863E-07  0.3504997E+04  0.7818609E-02  0.8112607E-01
       -1   -1    0    0    0  501  0.00000000000E+00  0.00000000000E+00  0.24829369059E+04  0.24829369059E+04  0.50400001928E-02 0. -1.
        1   -1    0    0  501    0  0.00000000000E+00  0.00000000000E+00 -0.12369425009E+04  0.12369425009E+04  0.50400001928E-02 0.  1.
    10030    2    1    2    0    0  0.00000000000E+00  0.00000000000E+00  0.12459944050E+04  0.37198794069E+04  0.35049965399E+04 0.  0.
        5    1    3    3  502    0 -0.13311220215E+04 -0.16753593150E+03 -0.57363543810E+03  0.14591209102E+04  0.46999998093E+01 0. -1.
       -5    1    3    3    0  502  0.13311220215E+04  0.16753593150E+03  0.18196298431E+04  0.22607584967E+04  0.46999998093E+01 0.  1.
</event>
<event>
 5   0  0.3190112E-07  0.3498672E+04  0.7818609E-02  0.8114105E-01
        2   -1    0    0  501    0  0.00000000000E+00  0.00000000000E+00  0.23295013065E+04  0.23295013065E+04  0.25500000920E-02 0. -1.
       -2   -1    0    0    0  501  0.00000000000E+00  0.00000000000E+00 -0.13136612377E+04  0.13136612377E+04  0.25500000920E-02 0.  1.
    10030    2    1    2    0    0  0.00000000000E+00  0.00000000000E+00  0.10158400688E+04  0.36431625441E+04  0.34986715018E+04 0.  0.
        5    1    3    3  502    0 -0.11345821784E+04  0.60122646147E+03  0.17450091222E+04  0.21665246142E+04  0.46999998093E+01 0. -1.
       -5    1    3    3    0  502  0.11345821784E+04 -0.60122646147E+03 -0.72916905340E+03  0.14766379299E+04  0.46999998093E+01 0.  1.
</event>
<event>
 5   0  0.3190112E-07  0.3504728E+04  0.7818609E-02  0.8112670E-01
       -2   -1    0    0    0  501  0.00000000000E+00  0.00000000000E+00  0.12580766480E+04  0.12580766480E+04  0.25500000920E-02 0. -1.
        2   -1    0    0  501    0  0.00000000000E+00  0.00000000000E+00 -0.24408524377E+04  0.24408524377E+04  0.25500000920E-02 0.  1.
    10030    2    1    2    0    0  0.00000000000E+00  0.00000000000E+00 -0.11827757897E+04  0.36989290857E+04  0.35047279228E+04 0.  0.
        5    1    3    3  502    0  0.96993481849E+03 -0.12847004667E+04 -0.13222390175E+04  0.20831627279E+04  0.46999998093E+01 0.  1.
       -5    1    3    3    0  502 -0.96993481849E+03  0.12847004667E+04  0.13946322786E+03  0.16157663579E+04  0.46999998093E+01 0. -1.
</event>
<event>
 5   0  0.3219205E-07  0.3519447E+04  0.7818609E-02  0.8109197E-01
        2   -1    0    0  501    0  0.00000000000E+00  0.00000000000E+00  0.12793297069E+04  0.12793297069E+04  0.25500000920E-02 0. -1.
       -2   -1    0    0    0  501  0.00000000000E+00  0.00000000000E+00 -0.24205067440E+04  0.24205067440E+04  0.25500000920E-02 0.  1.
    10030    2    1    2    0    0  0.00000000000E+00  0.00000000000E+00 -0.11411770371E+04  0.36998364509E+04  0.35194466516E+04 0.  0.
        2    1    3    3  502    0 -0.11200392556E+04 -0.12456824464E+04 -0.11371101989E+04  0.20246560933E+04  0.25500000920E-02 0.  1.
       -2    1    3    3    0  502  0.11200392556E+04  0.12456824464E+04 -0.40668382093E+01  0.16751803577E+04  0.25500000920E-02 0. -1.
</event>
<event>
 5   0  0.1013863E-07  0.3500392E+04  0.7818609E-02  0.8113697E-01
        1   -1    0    0  501    0  0.00000000000E+00  0.00000000000E+00  0.16155961310E+04  0.16155961310E+04  0.50400001928E-02 0. -1.
       -1   -1    0    0    0  501  0.00000000000E+00  0.00000000000E+00 -0.18960102905E+04  0.18960102905E+04  0.50400001928E-02 0.  1.
    10030    2    1    2    0    0  0.00000000000E+00  0.00000000000E+00 -0.28041415956E+03  0.35116064215E+04  0.35003924864E+04 0.  0.
        5    1    3    3  502    0 -0.55583284556E+03 -0.59589743312E+03 -0.16940787840E+04  0.18798853474E+04  0.46999998093E+01 0.  1.
       -5    1    3    3    0  502  0.55583284556E+03  0.59589743312E+03  0.14136646245E+04  0.16317210740E+04  0.46999998093E+01 0. -1.
</event>
<event>
 5   0  0.3119048E-07  0.3508579E+04  0.7818609E-02  0.8111760E-01
        2   -1    0    0  501    0  0.00000000000E+00  0.00000000000E+00  0.18420020698E+04  0.18420020698E+04  0.25500000920E-02 0.  1.
       -2   -1    0    0    0  501  0.00000000000E+00  0.00000000000E+00 -0.16707535560E+04  0.16707535560E+04  0.25500000920E-02 0. -1.
    10030    2    1    2    0    0  0.00000000000E+00  0.00000000000E+00  0.17124851382E+03  0.35127556258E+04  0.35085789193E+04 0.  0.
        3    1    3    3  502    0 -0.60407618928E+03 -0.51281770436E+03 -0.14813719674E+04  0.16799859989E+04  0.10100000352E+00 0. -1.
       -3    1    3    3    0  502  0.60407618928E+03  0.51281770436E+03  0.16526204812E+04  0.18327696270E+04  0.10100000352E+00 0.  1.
</event>
<event>
 5   0  0.1033796E-07  0.3461345E+04  0.7818609E-02  0.8123012E-01
        1   -1    0    0  501    0  0.00000000000E+00  0.00000000000E+00  0.24955778997E+04  0.24955778997E+04  0.50400001928E-02 0.  1.
       -1   -1    0    0    0  501  0.00000000000E+00  0.00000000000E+00 -0.12002139682E+04  0.12002139682E+04  0.50400001928E-02 0. -1.
    10030    2    1    2    0    0  0.00000000000E+00  0.00000000000E+00  0.12953639315E+04  0.36957918679E+04  0.34613450876E+04 0.  0.
        3    1    3    3  502    0  0.16467371932E+04 -0.42475245369E+03  0.99047146355E+03  0.19680426217E+04  0.10100000352E+00 0.  1.
       -3    1    3    3    0  502 -0.16467371932E+04  0.42475245369E+03  0.30489246792E+03  0.17277492462E+04  0.10100000352E+00 0. -1.
</event>
<event>
 5   0  0.2180451E-07  0.3499146E+04  0.7818609E-02  0.8113992E-01
       -2   -1    0    0    0  501  0.00000000000E+00  0.00000000000E+00  0.12942688286E+04  0.12942688286E+04  0.25500000920E-02 0.  1.
        2   -1    0    0  501    0  0.00000000000E+00  0.00000000000E+00 -0.23650458562E+04  0.23650458562E+04  0.25500000920E-02 0. -1.
    10030    2    1    2    0    0  0.00000000000E+00  0.00000000000E+00 -0.10707770276E+04  0.36593146848E+04  0.34991456842E+04 0.  0.
        4    1    3    3  502    0  0.11960830571E+04 -0.10534725703E+04  0.21915328170E+03  0.16088657214E+04  0.12699999809E+01 0. -1.
       -4    1    3    3    0  502 -0.11960830571E+04  0.10534725703E+04 -0.12899303093E+04  0.20504489634E+04  0.12699999809E+01 0.  1.
</event>
<event>
 5   0  0.1013863E-07  0.3527055E+04  0.7818609E-02  0.8107408E-01
        1   -1    0    0  501    0  0.00000000000E+00  0.00000000000E+00  0.12093975538E+04  0.12093975538E+04  0.50400001928E-02 0.  1.
       -1   -1    0    0    0  501  0.00000000000E+00  0.00000000000E+00 -0.25715528165E+04  0.25715528165E+04  0.50400001928E-02 0. -1.
    10030    2    1    2    0    0  0.00000000000E+00  0.00000000000E+00 -0.13621552627E+04  0.37809503703E+04  0.35270552510E+04 0.  0.
        2    1    3    3  502    0  0.59587243203E+03  0.12681410298E+04 -0.18290449848E+04  0.23040510375E+04  0.25500000920E-02 0. -1.
       -2    1    3    3    0  502 -0.59587243203E+03 -0.12681410298E+04  0.46688972214E+03  0.14768993329E+04  0.25500000920E-02 0.  1.
</event>
<event>
 5   0  0.1072381E-07  0.3479540E+04  0.7818609E-02  0.8118656E-01
        1   -1    0    0  501    0  0.00000000000E+00  0.00000000000E+00  0.17613296330E+04  0.17613296330E+04  0.50400001928E-02 0. -1.
       -1   -1    0    0    0  501  0.00000000000E+00  0.00000000000E+00 -0.17184740081E+04  0.17184740081E+04  0.50400001928E-02 0.  1.
    10030    2    1    2    0    0  0.00000000000E+00  0.00000000000E+00  0.42855624850E+02  0.34798036411E+04  0.34795397363E+04 0.  0.
        1    1    3    3  502    0  0.18664238442E+02  0.16108054310E+04  0.67855960970E+03  0.17479947467E+04  0.50400001928E-02 0. -1.
       -1    1    3    3    0  502 -0.18664238442E+02 -0.16108054310E+04 -0.63570398485E+03  0.17318088944E+04  0.50400001928E-02 0.  1.
</event>
<event>
 5   0  0.3119048E-07  0.3512077E+04  0.7818609E-02  0.8110934E-01
        2   -1    0    0  501    0  0.00000000000E+00  0.00000000000E+00  0.14384693820E+04  0.14384693820E+04  0.25500000920E-02 0.  1.
       -2   -1    0    0    0  501  0.00000000000E+00  0.00000000000E+00 -0.21437171411E+04  0.21437171411E+04  0.25500000920E-02 0. -1.
    10030    2    1    2    0    0  0.00000000000E+00  0.00000000000E+00 -0.70524775911E+03  0.35821865231E+04  0.35120771467E+04 0.  0.
        3    1    3    3  502    0  0.12967433263E+03 -0.16425655052E+04 -0.97206491165E+03  0.19130465426E+04  0.10100000352E+00 0. -1.
       -3    1    3    3    0  502 -0.12967433263E+03  0.16425655052E+04  0.26681715254E+03  0.16691399805E+04  0.10100000352E+00 0.  1.
</event>
<event>
 5   0  0.1033796E-07  0.3384139E+04  0.7818609E-02  0.8141810E-01
        1   -1    0    0  501    0  0.00000000000E+00  0.00000000000E+00  0.16738112010E+04  0.16738112010E+04  0.50400001928E-02 0. -1.
       -1   -1    0    0    0  501  0.00000000000E+00  0.00000000000E+00 -0.17105267043E+04  0.17105267043E+04  0.50400001928E-02 0.  1.
    10030    2    1    2    0    0  0.00000000000E+00  0.00000000000E+00 -0.36715503299E+02  0.33843379053E+04  0.33841387426E+04 0.  0.
        3    1    3    3  502    0  0.66354467798E+02 -0.12688985439E+03 -0.17044566189E+04  0.17104608521E+04  0.10100000352E+00 0.  1.
       -3    1    3    3    0  502 -0.66354467798E+02  0.12688985439E+03  0.16677411156E+04  0.16738770533E+04  0.10100000352E+00 0. -1.
</event>
<event>
 5   0  0.3119048E-07  0.3512860E+04  0.7818609E-02  0.8110749E-01
       -2   -1    0    0    0  501  0.00000000000E+00  0.00000000000E+00  0.16606926780E+04  0.16606926780E+04  0.25500000920E-02 0. -1.
        2   -1    0    0  501    0  0.00000000000E+00  0.00000000000E+00 -0.18576863949E+04  0.18576863949E+04  0.25500000920E-02 0.  1.
    10030    2    1    2    0    0  0.00000000000E+00  0.00000000000E+00 -0.19699371689E+03  0.35183790729E+04  0.35128599141E+04 0.  0.
        3    1    3    3  502    0  0.21996580451E+03 -0.16867072382E+04  0.34000365737E+03  0.17346379334E+04  0.10100000352E+00 0. -1.
       -3    1    3    3    0  502 -0.21996580451E+03  0.16867072382E+04 -0.53699737426E+03  0.17837411395E+04  0.10100000352E+00 0.  1.
</event>
<event>
 5   0  0.3190185E-07  0.3488910E+04  0.7818609E-02  0.8116423E-01
        2   -1    0    0  501    0  0.00000000000E+00  0.00000000000E+00  0.19127007468E+04  0.19127007468E+04  0.25500000920E-02 0.  1.
       -2   -1    0    0    0  501  0.00000000000E+00  0.00000000000E+00 -0.15910081426E+04  0.15910081426E+04  0.25500000920E-02 0. -1.
    10030    2    1    2    0    0  0.00000000000E+00  0.00000000000E+00  0.32169260420E+03  0.35037088895E+04  0.34889095504E+04 0.  0.
        1    1    3    3  502    0 -0.12912371295E+04  0.10969109282E+04  0.57807893393E+03  0.17901626079E+04  0.50400001928E-02 0.  1.
       -1    1    3    3    0  502  0.12912371295E+04 -0.10969109282E+04 -0.25638632973E+03  0.17135462816E+04  0.50400001928E-02 0. -1.
</event>
<event>
 5   0  0.3190112E-07  0.3509931E+04  0.7818609E-02  0.8111440E-01
       -2   -1    0    0    0  501  0.00000000000E+00  0.00000000000E+00  0.18790092155E+04  0.18790092155E+04  0.25500000920E-02 0. -1.
        2   -1    0    0  501    0  0.00000000000E+00  0.00000000000E+00 -0.16391110133E+04  0.16391110133E+04  0.25500000920E-02 0.  1.
    10030    2    1    2    0    0  0.00000000000E+00  0.00000000000E+00  0.23989820225E+03  0.35181202288E+04  0.35099314519E+04 0.  0.
        5    1    3    3  502    0 -0.12365501153E+04  0.96744932263E+03  0.90591385159E+03  0.18126545110E+04  0.46999998093E+01 0. -1.
       -5    1    3    3    0  502  0.12365501153E+04 -0.96744932263E+03 -0.66601564934E+03  0.17054657178E+04  0.46999998093E+01 0.  1.
</event>
<event>
 5   0  0.3190112E-07  0.3493581E+04  0.7818609E-02  0.8115313E-01
        2   -1    0    0  501    0  0.00000000000E+00  0.00000000000E+00  0.12148022018E+04  0.12148022018E+04  0.25500000920E-02 0.  1.
       -2   -1    0    0    0  501  0.00000000000E+00  0.00000000000E+00 -0.25117486525E+04  0.25117486525E+04  0.25500000920E-02 0. -1.
    10030    2    1    2    0    0  0.00000000000E+00  0.00000000000E+00 -0.12969464508E+04  0.37265508543E+04  0.34935814250E+04 0.  0.
        5    1    3    3  502    0 -0.91386891687E+03  0.33218800448E+03 -0.21963615768E+04  0.24019849154E+04  0.46999998093E+01 0. -1.
       -5    1    3    3    0  502  0.91386891687E+03 -0.33218800448E+03  0.89941512605E+03  0.13245659389E+04  0.46999998093E+01 0.  1.
</event>
<event>
 5   0  0.3190185E-07  0.3485650E+04  0.7818609E-02  0.8117199E-01
        2   -1    0    0  501    0  0.00000000000E+00  0.00000000000E+00  0.16830476861E+04  0.16830476861E+04  0.25500000920E-02 0.  1.
       -2   -1    0    0    0  501  0.00000000000E+00  0.00000000000E+00 -0.18047252744E+04  0.18047252744E+04  0.25500000920E-02 0. -1.
    10030    2    1    2    0    0  0.00000000000E+00  0.00000000000E+00 -0.12167758835E+03  0.34877729605E+04  0.34856498373E+04 0.  0.
        1    1    3    3  502    0  0.49569586293E+02  0.92470262606E+03  0.14165111965E+04  0.16923463181E+04  0.50400001928E-02 0.  1.
       -1    1    3    3    0  502 -0.49569586293E+02 -0.92470262606E+03 -0.15381887848E+04  0.17954266424E+04  0.50400001928E-02 0. -1.
</event>
<event>
 5   0  0.3119048E-07  0.3488626E+04  0.7818609E-02  0.8116491E-01
        2   -1    0    0  501    0  0.00000000000E+00  0.00000000000E+00  0.17908680163E+04  0.17908680163E+04  0.25500000920E-02 0. -1.
       -2   -1    0    0    0  501  0.00000000000E+00  0.00000000000E+00 -0.16989678312E+04  0.16989678312E+04  0.25500000920E-02 0.  1.
    10030    2    1    2    0    0  0.00000000000E+00  0.00000000000E+00  0.91900185055E+02  0.34898358475E+04  0.34886256031E+04 0.  0.
        3    1    3    3  502    0  0.35231130491E+01 -0.53898471692E+03  0.17054741239E+04  0.17886192817E+04  0.10100000352E+00 0. -1.
       -3    1    3    3    0  502 -0.35231130491E+01  0.53898471692E+03 -0.16135739388E+04  0.17012165658E+04  0.10100000352E+00 0.  1.
</event>
<event>
 5   0  0.1013863E-07  0.3521173E+04  0.7818609E-02  0.8108790E-01
       -1   -1    0    0    0  501  0.00000000000E+00  0.00000000000E+00  0.14411687691E+04  0.14411687691E+04  0.50400001928E-02 0.  1.
        1   -1    0    0  501    0  0.00000000000E+00  0.00000000000E+00 -0.21507997279E+04  0.21507997279E+04  0.50400001928E-02 0. -1.
    10030    2    1    2    0    0  0.00000000000E+00  0.00000000000E+00 -0.70963095881E+03  0.35919684970E+04  0.35211733252E+04 0.  0.
        2    1    3    3  502    0  0.15634000548E+04  0.42357081266E+03 -0.10586391085E+04  0.19350319704E+04  0.25500000920E-02 0.  1.
       -2    1    3    3    0  502 -0.15634000548E+04 -0.42357081266E+03  0.34900814967E+03  0.16569365266E+04  0.25500000920E-02 0. -1.
</event>
<event>
 5   0  0.1098171E-07  0.3504390E+04  0.7818609E-02  0.8112750E-01
       -1   -1    0    0    0  501  0.00000000000E+00  0.00000000000E+00  0.11351123372E+04  0.11351123372E+04  0.50400001928E-02 0. -1.
        1   -1    0    0  501    0  0.00000000000E+00  0.00000000000E+00 -0.27047437818E+04  0.27047437818E+04  0.50400001928E-02 0.  1.
    10030    2    1    2    0    0  0.00000000000E+00  0.00000000000E+00 -0.15696314446E+04  0.38398561190E+04  0.35043904096E+04 0.  0.
        4    1    3    3  502    0  0.12045028934E+04  0.36122156159E+03  0.55218626211E+03  0.13733970721E+04  0.12699999809E+01 0. -1.
       -4    1    3    3    0  502 -0.12045028934E+04 -0.36122156159E+03 -0.21218177067E+04  0.24664590469E+04  0.12699999809E+01 0.  1.
</event>
<event>
 5   0  0.1072381E-07  0.3508565E+04  0.7818609E-02  0.8111763E-01
       -1   -1    0    0    0  501  0.00000000000E+00  0.00000000000E+00  0.13375076823E+04  0.13375076823E+04  0.50400001928E-02 0. -1.
        1   -1    0    0  501    0  0.00000000000E+00  0.00000000000E+00 -0.23009265326E+04  0.23009265326E+04  0.50400001928E-02 0.  1.
    10030    2    1    2    0    0  0.00000000000E+00  0.00000000000E+00 -0.96341885029E+03  0.36384342149E+04  0.35085648996E+04 0.  0.
        1    1    3    3  502    0 -0.31191795169E+03  0.12715326418E+04  0.72916654060E+03  0.14985899745E+04  0.50400001928E-02 0. -1.
       -1    1    3    3    0  502  0.31191795169E+03 -0.12715326418E+04 -0.16925853909E+04  0.21398442404E+04  0.50400001928E-02 0.  1.
</event>
<event>
 5   0  0.1072381E-07  0.3492034E+04  0.7818609E-02  0.8115680E-01
        1   -1    0    0  501    0  0.00000000000E+00  0.00000000000E+00  0.22805792772E+04  0.22805792772E+04  0.50400001928E-02 0. -1.
       -1   -1    0    0    0  501  0.00000000000E+00  0.00000000000E+00 -0.13367550115E+04  0.13367550115E+04  0.50400001928E-02 0.  1.
    10030    2    1    2    0    0  0.00000000000E+00  0.00000000000E+00  0.94382426574E+03  0.36173342887E+04  0.34920342369E+04 0.  0.
        1    1    3    3  502    0  0.11157791402E+04 -0.74396326995E+03 -0.68629963624E+03  0.15064699225E+04  0.50400001928E-02 0.  1.
       -1    1    3    3    0  502 -0.11157791402E+04  0.74396326995E+03  0.16301239020E+04  0.21108643662E+04  0.50400001928E-02 0. -1.
</event>
<event>
 5   0  0.1013863E-07  0.3503459E+04  0.7818609E-02  0.8112971E-01
       -1   -1    0    0    0  501  0.00000000000E+00  0.00000000000E+00  0.13988227001E+04  0.13988227001E+04  0.50400001928E-02 0. -1.
        1   -1    0    0  501    0  0.00000000000E+00  0.00000000000E+00 -0.21936703428E+04  0.21936703428E+04  0.50400001928E-02 0.  1.
    10030    2    1    2    0    0  0.00000000000E+00  0.00000000000E+00 -0.79484764278E+03  0.35924930429E+04  0.35034587893E+04 0.  0.
        2    1    3    3  502    0  0.10032215657E+04 -0.11546537129E+04  0.47801559120E+03  0.16025534662E+04  0.25500000920E-02 0. -1.
       -2    1    3    3    0  502 -0.10032215657E+04  0.11546537129E+04 -0.12728632340E+04  0.19899395767E+04  0.25500000920E-02 0.  1.
</event>
<event>
 5   0  0.1013863E-07  0.3508353E+04  0.7818609E-02  0.8111813E-01
       -1   -1    0    0    0  501  0.00000000000E+00  0.00000000000E+00  0.15788162849E+04  0.15788162849E+04  0.50400001928E-02 0.  1.
        1   -1    0    0  501    0  0.00000000000E+00  0.00000000000E+00 -0.19490145616E+04  0.19490145616E+04  0.50400001928E-02 0. -1.
    10030    2    1    2    0    0  0.00000000000E+00  0.00000000000E+00 -0.37019827664E+03  0.35278308465E+04  0.35083534197E+04 0.  0.
        5    1    3    3  502    0  0.46004472109E+03  0.11807196591E+04 -0.14048353669E+04  0.18919102930E+04  0.46999998093E+01 0. -1.
       -5    1    3    3    0  502 -0.46004472109E+03 -0.11807196591E+04  0.10346370903E+04  0.16359205535E+04  0.46999998093E+01 0.  1.
</event>
<event>
 5   0  0.1013863E-07  0.3485871E+04  0.7818609E-02  0.8117147E-01
        4   -1    0    0  501    0  0.00000000000E+00  0.00000000000E+00  0.19851120843E+04  0.19851124905E+04  0.12699999809E+01 0.  1.
       -4   -1    0    0    0  501  0.00000000000E+00  0.00000000000E+00 -0.15303027318E+04  0.15303032588E+04  0.12699999809E+01 0. -1.
    10030    2    1    2    0    0  0.00000000000E+00  0.00000000000E+00  0.45480935245E+03  0.35154157493E+04  0.34858709591E+04 0.  0.
        4    1    3    3  502    0  0.16371178162E+04 -0.50980987092E+03  0.54272327802E+03  0.17985024376E+04  0.12699999809E+01 0. -1.
       -4    1    3    3    0  502 -0.16371178162E+04  0.50980987092E+03 -0.87913925571E+02  0.17169133117E+04  0.12699999809E+01 0.  1.
</event>
<event>
 5   0  0.2180451E-07  0.3506636E+04  0.7818609E-02  0.8112219E-01
        2   -1    0    0  501    0  0.00000000000E+00  0.00000000000E+00  0.27105350543E+04  0.27105350543E+04  0.25500000920E-02 0. -1.
       -2   -1    0    0    0  501  0.00000000000E+00  0.00000000000E+00 -0.11341390312E+04  0.11341390312E+04  0.25500000920E-02 0.  1.
    10030    2    1    2    0    0  0.00000000000E+00  0.00000000000E+00  0.15763960230E+04  0.38446740855E+04  0.35066357670E+04 0.  0.
        4    1    3    3  502    0  0.57805038103E+03 -0.53485493687E+03  0.25057036923E+04  0.26265499525E+04  0.12699999809E+01 0. -1.
       -4    1    3    3    0  502 -0.57805038103E+03  0.53485493687E+03 -0.92930766922E+03  0.12181241330E+04  0.12699999809E+01 0.  1.
</event>
<event>
 5   0  0.3190185E-07  0.3504244E+04  0.7818609E-02  0.8112785E-01
        2   -1    0    0  501    0  0.00000000000E+00  0.00000000000E+00  0.25867721712E+04  0.25867721712E+04  0.25500000920E-02 0.  1.
       -2   -1    0    0    0  501  0.00000000000E+00  0.00000000000E+00 -0.11867806384E+04  0.11867806384E+04  0.25500000920E-02 0. -1.
    10030    2    1    2    0    0  0.00000000000E+00  0.00000000000E+00  0.13999915328E+04  0.37735528096E+04  0.35042437864E+04 0.  0.
        1    1    3    3  502    0 -0.83951640762E+03 -0.11994595954E+04 -0.33649340997E+03  0.15022379754E+04  0.50400001928E-02 0. -1.
       -1    1    3    3    0  502  0.83951640762E+03  0.11994595954E+04  0.17364849428E+04  0.22713148342E+04  0.50400001928E-02 0.  1.
</event>
<event>
 5   0  0.3219205E-07  0.3468869E+04  0.7818609E-02  0.8121207E-01
       -2   -1    0    0    0  501  0.00000000000E+00  0.00000000000E+00  0.15981055117E+04  0.15981055117E+04  0.25500000920E-02 0. -1.
        2   -1    0    0  501    0  0.00000000000E+00  0.00000000000E+00 -0.18823932132E+04  0.18823932132E+04  0.25500000920E-02 0.  1.
    10030    2    1    2    0    0  0.00000000000E+00  0.00000000000E+00 -0.28428770156E+03  0.34804987249E+04  0.34688689622E+04 0.  0.
        2    1    3    3  502    0 -0.15690207016E+04  0.70813338794E+03 -0.35494950356E+03  0.17576313627E+04  0.25500000920E-02 0.  1.
       -2    1    3    3    0  502  0.15690207016E+04 -0.70813338794E+03  0.70661801999E+02  0.17228673621E+04  0.25500000920E-02 0. -1.
</event>
<event>
 5   0  0.1013863E-07  0.3488931E+04  0.7818609E-02  0.8116418E-01
       -1   -1    0    0    0  501  0.00000000000E+00  0.00000000000E+00  0.14426941963E+04  0.14426941963E+04  0.50400001928E-02 0. -1.
        1   -1    0    0  501    0  0.00000000000E+00  0.00000000000E+00 -0.21093584618E+04  0.21093584618E+04  0.50400001928E-02 0.  1.
    10030    2    1    2    0    0  0.00000000000E+00  0.00000000000E+00 -0.66666426550E+03  0.35520526582E+04  0.34889306161E+04 0.  0.
        2    1    3    3  502    0 -0.16014900422E+04  0.18712164069E+03  0.34457834077E+03  0.16487932244E+04  0.25500000920E-02 0. -1.
       -2    1    3    3    0  502  0.16014900422E+04 -0.18712164069E+03 -0.10112426063E+04  0.19032594338E+04  0.25500000920E-02 0.  1.
</event>
<event>
 5   0  0.1013863E-07  0.3488067E+04  0.7818609E-02  0.8116624E-01
        1   -1    0    0  501    0  0.00000000000E+00  0.00000000000E+00  0.25225396927E+04  0.25225396927E+04  0.50400001928E-02 0.  1.
       -1   -1    0    0    0  501  0.00000000000E+00  0.00000000000E+00 -0.12057895576E+04  0.12057895576E+04  0.50400001928E-02 0. -1.
    10030    2    1    2    0    0  0.00000000000E+00  0.00000000000E+00  0.13167501351E+04  0.37283292503E+04  0.34880665246E+04 0.  0.
        2    1    3    3  502    0 -0.45423412594E+02  0.14385777159E+04  0.17111460864E+04  0.22359763103E+04  0.25500000920E-02 0.  1.
       -2    1    3    3    0  502  0.45423412594E+02 -0.14385777159E+04 -0.39439595125E+03  0.14923529400E+04  0.25500000920E-02 0. -1.
</event>
<event>
 5   0  0.1098171E-07  0.3493470E+04  0.7818609E-02  0.8115339E-01
       -1   -1    0    0    0  501  0.00000000000E+00  0.00000000000E+00  0.13734507679E+04  0.13734507679E+04  0.50400001928E-02 0. -1.
        1   -1    0    0  501    0  0.00000000000E+00  0.00000000000E+00 -0.22214720003E+04  0.22214720003E+04  0.50400001928E-02 0.  1.
    10030    2    1    2    0    0  0.00000000000E+00  0.00000000000E+00 -0.84802123238E+03  0.35949227682E+04  0.34934695789E+04 0.  0.
        4    1    3    3  502    0 -0.11861164718E+04  0.94047311667E+03  0.47292041204E+03  0.15858806062E+04  0.12699999809E+01 0. -1.
       -4    1    3    3    0  502  0.11861164718E+04 -0.94047311667E+03 -0.13209416444E+04  0.20090421620E+04  0.12699999809E+01 0.  1.
</event>
<event>
 5   0  0.1013863E-07  0.3505563E+04  0.7818609E-02  0.8112473E-01
        1   -1    0    0  501    0  0.00000000000E+00  0.00000000000E+00  0.23402033007E+04  0.23402033007E+04  0.50400001928E-02 0.  1.
       -1   -1    0    0    0  501  0.00000000000E+00  0.00000000000E+00 -0.13128099652E+04  0.13128099652E+04  0.50400001928E-02 0. -1.
    10030    2    1    2    0    0  0.00000000000E+00  0.00000000000E+00  0.10273933355E+04  0.36530132659E+04  0.35055625590E+04 0.  0.
        2    1    3    3  502    0 -0.89723416167E+03 -0.10153981922E+04  0.16722987668E+04  0.21523581940E+04  0.25500000920E-02 0.  1.
       -2    1    3    3    0  502  0.89723416167E+03  0.10153981922E+04 -0.64490543135E+03  0.15006550719E+04  0.25500000920E-02 0. -1.
</event>
<event>
 5   0  0.3190112E-07  0.3498906E+04  0.7818609E-02  0.8114049E-01
        2   -1    0    0  501    0  0.00000000000E+00  0.00000000000E+00  0.23556624851E+04  0.23556624851E+04  0.25500000920E-02 0.  1.
       -2   -1    0    0    0  501  0.00000000000E+00  0.00000000000E+00 -0.12992463465E+04  0.12992463465E+04  0.25500000920E-02 0. -1.
    10030    2    1    2    0    0  0.00000000000E+00  0.00000000000E+00  0.10564161386E+04  0.36549088316E+04  0.34989060447E+04 0.  0.
        5    1    3    3  502    0 -0.60352657360E+03 -0.16396931079E+04  0.62002460397E+03  0.18539930994E+04  0.46999998093E+01 0. -1.
       -5    1    3    3    0  502  0.60352657360E+03  0.16396931079E+04  0.43639153462E+03  0.18009157322E+04  0.46999998093E+01 0.  1.
</event>
<event>
 5   0  0.3190185E-07  0.3507337E+04  0.7818609E-02  0.8112053E-01
        2   -1    0    0  501    0  0.00000000000E+00  0.00000000000E+00  0.10682862233E+04  0.10682862233E+04  0.25500000920E-02 0.  1.
       -2   -1    0    0    0  501  0.00000000000E+00  0.00000000000E+00 -0.28787729537E+04  0.28787729537E+04  0.25500000920E-02 0. -1.
    10030    2    1    2    0    0  0.00000000000E+00  0.00000000000E+00 -0.18104867303E+04  0.39470591770E+04  0.35073371589E+04 0.  0.
        1    1    3    3  502    0  0.52003875124E+03  0.16741926931E+04 -0.85501582846E+03  0.19504905904E+04  0.50400001928E-02 0. -1.
       -1    1    3    3    0  502 -0.52003875124E+03 -0.16741926931E+04 -0.95547090187E+03  0.19965685866E+04  0.50400001928E-02 0.  1.
</event>
<event>
 5   0  0.3190185E-07  0.3505903E+04  0.7818609E-02  0.8112392E-01
       -2   -1    0    0    0  501  0.00000000000E+00  0.00000000000E+00  0.12191998619E+04  0.12191998619E+04  0.25500000920E-02 0.  1.
        2   -1    0    0  501    0  0.00000000000E+00  0.00000000000E+00 -0.25203738752E+04  0.25203738752E+04  0.25500000920E-02 0. -1.
    10030    2    1    2    0    0  0.00000000000E+00  0.00000000000E+00 -0.13011740133E+04  0.37395737371E+04  0.35059032962E+04 0.  0.
        1    1    3    3  502    0 -0.34462054687E+03 -0.39307035712E+03  0.11341243107E+04  0.12488016572E+04  0.50400001928E-02 0.  1.
       -1    1    3    3    0  502  0.34462054687E+03  0.39307035712E+03 -0.24352983240E+04  0.24907720799E+04  0.50400001928E-02 0. -1.
</event>
<event>
 5   0  0.3190185E-07  0.3496109E+04  0.7818609E-02  0.8114713E-01
        2   -1    0    0  501    0  0.00000000000E+00  0.00000000000E+00  0.19754048850E+04  0.19754048850E+04  0.25500000920E-02 0.  1.
       -2   -1    0    0    0  501  0.00000000000E+00  0.00000000000E+00 -0.15468698526E+04  0.15468698526E+04  0.25500000920E-02 0. -1.
    10030    2    1    2    0    0  0.00000000000E+00  0.00000000000E+00  0.42853503240E+03  0.35222747376E+04  0.34961088446E+04 0.  0.
        1    1    3    3  502    0 -0.39075905913E+03  0.16351377084E+04  0.69673184683E+03  0.18198360459E+04  0.50400001928E-02 0.  1.
       -1    1    3    3    0  502  0.39075905913E+03 -0.16351377084E+04 -0.26819681443E+03  0.17024386917E+04  0.50400001928E-02 0. -1.
</event>
<event>
 5   0  0.1098171E-07  0.3493209E+04  0.7818609E-02  0.8115401E-01
        1   -1    0    0  501    0  0.00000000000E+00  0.00000000000E+00  0.10606412340E+04  0.10606412340E+04  0.50400001928E-02 0.  1.
       -1   -1    0    0    0  501  0.00000000000E+00  0.00000000000E+00 -0.28762099443E+04  0.28762099443E+04  0.50400001928E-02 0. -1.
    10030    2    1    2    0    0  0.00000000000E+00  0.00000000000E+00 -0.18155687103E+04  0.39368511784E+04  0.34932087626E+04 0.  0.
        4    1    3    3  502    0 -0.28656971112E+03  0.23021302010E+03  0.10165536340E+04  0.10809732363E+04  0.12699999809E+01 0.  1.
       -4    1    3    3    0  502  0.28656971112E+03 -0.23021302010E+03 -0.28321223443E+04  0.28558779421E+04  0.12699999809E+01 0. -1.
</event>
<event>
 5   0  0.3219205E-07  0.3486565E+04  0.7818609E-02  0.8116981E-01
        2   -1    0    0  501    0  0.00000000000E+00  0.00000000000E+00  0.15296520004E+04  0.15296520004E+04  0.25500000920E-02 0.  1.
       -2   -1    0    0    0  501  0.00000000000E+00  0.00000000000E+00 -0.19867489901E+04  0.19867489901E+04  0.25500000920E-02 0. -1.
    10030    2    1    2    0    0  0.00000000000E+00  0.00000000000E+00 -0.45709698964E+03  0.35164009905E+04  0.34865653970E+04 0.  0.
        2    1    3    3  502    0 -0.10212489927E+04 -0.64126187065E+03  0.10411399411E+04  0.15931536865E+04  0.25500000920E-02 0.  1.
       -2    1    3    3    0  502  0.10212489927E+04  0.64126187065E+03 -0.14982369307E+04  0.19232473040E+04  0.25500000920E-02 0. -1.
</event>
<event>
 5   0  0.3219205E-07  0.3495398E+04  0.7818609E-02  0.8114881E-01
        2   -1    0    0  501    0  0.00000000000E+00  0.00000000000E+00  0.20137953090E+04  0.20137953090E+04  0.25500000920E-02 0.  1.
       -2   -1    0    0    0  501  0.00000000000E+00  0.00000000000E+00 -0.15167636464E+04  0.15167636464E+04  0.25500000920E-02 0. -1.
    10030    2    1    2    0    0  0.00000000000E+00  0.00000000000E+00  0.49703166256E+03  0.35305589554E+04  0.34953978406E+04 0.  0.
        2    1    3    3  502    0 -0.16234979371E+04  0.10588977540E+03  0.89328921449E+03  0.18560505966E+04  0.25500000920E-02 0.  1.
       -2    1    3    3    0  502  0.16234979371E+04 -0.10588977540E+03 -0.39625755193E+03  0.16745083588E+04  0.25500000920E-02 0. -1.
</event>
<event>
 5   0  0.1098171E-07  0.3490650E+04  0.7818609E-02  0.8116009E-01
       -1   -1    0    0    0  501  0.00000000000E+00  0.00000000000E+00  0.11929454003E+04  0.11929454003E+04  0.50400001928E-02 0.  1.
        1   -1    0    0  501    0  0.00000000000E+00  0.00000000000E+00 -0.25534774947E+04  0.25534774947E+04  0.50400001928E-02 0. -1.
    10030    2    1    2    0    0  0.00000000000E+00  0.00000000000E+00 -0.13605320944E+04  0.37464228950E+04  0.34906499293E+04 0.  0.
        4    1    3    3  502    0 -0.14769577894E+04 -0.92402097342E+03 -0.79251708094E+03  0.19139759683E+04  0.12699999809E+01 0. -1.
       -4    1    3    3    0  502  0.14769577894E+04  0.92402097342E+03 -0.56801501347E+03  0.18324469267E+04  0.12699999809E+01 0.  1.
</event>
<event>
 5   0  0.1013863E-07  0.3514100E+04  0.7818609E-02  0.8110457E-01
        1   -1    0    0  501    0  0.00000000000E+00  0.00000000000E+00  0.15646923480E+04  0.15646923480E+04  0.50400001928E-02 0. -1.
       -1   -1    0    0    0  501  0.00000000000E+00  0.00000000000E+00 -0.19730552323E+04  0.19730552323E+04  0.50400001928E-02 0.  1.
    10030    2    1    2    0    0  0.00000000000E+00  0.00000000000E+00 -0.40836288427E+03  0.35377475803E+04  0.35140998416E+04 0.  0.
        2    1    3    3  502    0  0.90410240408E+03  0.10060449607E+04  0.92483619115E+03  0.16385510674E+04  0.25500000920E-02 0. -1.
       -2    1    3    3    0  502 -0.90410240408E+03 -0.10060449607E+04 -0.13331990754E+04  0.18991965129E+04  0.25500000920E-02 0.  1.
</event>
<event>
 5   0  0.1013863E-07  0.3527538E+04  0.7818609E-02  0.8107295E-01
       -1   -1    0    0    0  501  0.00000000000E+00  0.00000000000E+00  0.16119831975E+04  0.16119831975E+04  0.50400001928E-02 0. -1.
        1   -1    0    0  501    0  0.00000000000E+00  0.00000000000E+00 -0.19298466808E+04  0.19298466808E+04  0.50400001928E-02 0.  1.
    10030    2    1    2    0    0  0.00000000000E+00  0.00000000000E+00 -0.31786348328E+03  0.35418298783E+04  0.35275376246E+04 0.  0.
        5    1    3    3  502    0 -0.33487012307E+03 -0.66349634668E+03  0.14470779191E+04  0.16267827130E+04  0.46999998093E+01 0. -1.
       -5    1    3    3    0  502  0.33487012307E+03  0.66349634668E+03 -0.17649414024E+04  0.19150471653E+04  0.46999998093E+01 0.  1.
</event>
<event>
 5   0  0.2180451E-07  0.3495329E+04  0.7818609E-02  0.8114898E-01
        2   -1    0    0  501    0  0.00000000000E+00  0.00000000000E+00  0.18697108997E+04  0.18697108997E+04  0.25500000920E-02 0. -1.
       -2   -1    0    0    0  501  0.00000000000E+00  0.00000000000E+00 -0.16335850417E+04  0.16335850417E+04  0.25500000920E-02 0.  1.
    10030    2    1    2    0    0  0.00000000000E+00  0.00000000000E+00  0.23612585796E+03  0.35032959414E+04  0.34953293167E+04 0.  0.
        4    1    3    3  502    0  0.18415197513E+03 -0.17137330899E+04 -0.17162366802E+03  0.17321227872E+04  0.12699999809E+01 0.  1.
       -4    1    3    3    0  502 -0.18415197513E+03  0.17137330899E+04  0.40774952598E+03  0.17711731542E+04  0.12699999809E+01 0. -1.
</event>
<event>
 5   0  0.1013863E-07  0.3496665E+04  0.7818609E-02  0.8114581E-01
       -1   -1    0    0    0  501  0.00000000000E+00  0.00000000000E+00  0.14188235549E+04  0.14188235549E+04  0.50400001928E-02 0. -1.
        1   -1    0    0  501    0  0.00000000000E+00  0.00000000000E+00 -0.21543665176E+04  0.21543665176E+04  0.50400001928E-02 0.  1.
    10030    2    1    2    0    0  0.00000000000E+00  0.00000000000E+00 -0.73554296268E+03  0.35731900726E+04  0.34966646743E+04 0.  0.
        5    1    3    3  502    0 -0.95938367985E+03 -0.12754834514E+04 -0.10970917763E+04  0.19367259836E+04  0.46999998093E+01 0.  1.
       -5    1    3    3    0  502  0.95938367985E+03  0.12754834514E+04  0.36154881363E+03  0.16364640890E+04  0.46999998093E+01 0. -1.
</event>
<event>
 5   0  0.3190185E-07  0.3337723E+04  0.7818609E-02  0.8153362E-01
        2   -1    0    0  501    0  0.00000000000E+00  0.00000000000E+00  0.20627197076E+04  0.20627197076E+04  0.25500000920E-02 0.  1.
       -2   -1    0    0    0  501  0.00000000000E+00  0.00000000000E+00 -0.13502073542E+04  0.13502073542E+04  0.25500000920E-02 0. -1.
    10030    2    1    2    0    0  0.00000000000E+00  0.00000000000E+00  0.71251235335E+03  0.34129270618E+04  0.33377233671E+04 0.  0.
        1    1    3    3  502    0  0.13295818085E+04  0.77926486327E+02 -0.67200531595E+03  0.14917947136E+04  0.50400001928E-02 0. -1.
       -1    1    3    3    0  502 -0.13295818085E+04 -0.77926486327E+02  0.13845176693E+04  0.19211323482E+04  0.50400001928E-02 0.  1.
</event>
<event>
 5   0  0.1013863E-07  0.3575279E+04  0.7818609E-02  0.8096178E-01
        1   -1    0    0  501    0  0.00000000000E+00  0.00000000000E+00  0.25507964597E+04  0.25507964597E+04  0.50400001928E-02 0.  1.
       -1   -1    0    0    0  501  0.00000000000E+00  0.00000000000E+00 -0.12528066852E+04  0.12528066852E+04  0.50400001928E-02 0. -1.
    10030    2    1    2    0    0  0.00000000000E+00  0.00000000000E+00  0.12979897745E+04  0.38036031449E+04  0.35752789302E+04 0.  0.
        5    1    3    3  502    0 -0.11694411101E+04  0.11664971850E+03  0.20820264249E+04  0.23908274281E+04  0.46999998093E+01 0.  1.
       -5    1    3    3    0  502  0.11694411101E+04 -0.11664971850E+03 -0.78403665037E+03  0.14127757168E+04  0.46999998093E+01 0. -1.
</event>
<event>
 5   0  0.1072381E-07  0.3502301E+04  0.7818609E-02  0.8113245E-01
        1   -1    0    0  501    0  0.00000000000E+00  0.00000000000E+00  0.17738620880E+04  0.17738620880E+04  0.50400001928E-02 0. -1.
       -1   -1    0    0    0  501  0.00000000000E+00  0.00000000000E+00 -0.17287297968E+04  0.17287297968E+04  0.50400001928E-02 0.  1.
    10030    2    1    2    0    0  0.00000000000E+00  0.00000000000E+00  0.45132291200E+02  0.35025918849E+04  0.35023010990E+04 0.  0.
        1    1    3    3  502    0 -0.88812499499E+03 -0.30332189034E+02  0.15316122991E+04  0.17707406030E+04  0.50400001928E-02 0. -1.
       -1    1    3    3    0  502  0.88812499499E+03  0.30332189034E+02 -0.14864800079E+04  0.17318512818E+04  0.50400001928E-02 0.  1.
</event>
<event>
 5   0  0.1072381E-07  0.3504858E+04  0.7818609E-02  0.8112640E-01
       -1   -1    0    0    0  501  0.00000000000E+00  0.00000000000E+00  0.11545121583E+04  0.11545121583E+04  0.50400001928E-02 0. -1.
        1   -1    0    0  501    0  0.00000000000E+00  0.00000000000E+00 -0.26600037599E+04  0.26600037599E+04  0.50400001928E-02 0.  1.
    10030    2    1    2    0    0  0.00000000000E+00  0.00000000000E+00 -0.15054916016E+04  0.38145159182E+04  0.35048575902E+04 0.  0.
        1    1    3    3  502    0 -0.15625447715E+04 -0.40160123693E+03 -0.14974333221E+04  0.22011670247E+04  0.50400001928E-02 0.  1.
       -1    1    3    3    0  502  0.15625447715E+04  0.40160123693E+03 -0.80582794599E+01  0.16133488935E+04  0.50400001928E-02 0. -1.
</event>
<event>
 5   0  0.1013863E-07  0.3501857E+04  0.7818609E-02  0.8113350E-01
        1   -1    0    0  501    0  0.00000000000E+00  0.00000000000E+00  0.17367345369E+04  0.17367345369E+04  0.50400001928E-02 0. -1.
       -1   -1    0    0    0  501  0.00000000000E+00  0.00000000000E+00 -0.17652389157E+04  0.17652389158E+04  0.50400001928E-02 0.  1.
    10030    2    1    2    0    0  0.00000000000E+00  0.00000000000E+00 -0.28504378877E+02  0.35019734526E+04  0.35018574447E+04 0.  0.
        5    1    3    3  502    0 -0.13849648844E+04  0.12052195027E+02  0.10569771700E+04  0.17422674348E+04  0.46999998093E+01 0. -1.
       -5    1    3    3    0  502  0.13849648844E+04 -0.12052195027E+02 -0.10854815489E+04  0.17597060179E+04  0.46999998093E+01 0.  1.
</event>
<event>
 5   0  0.2180451E-07  0.3536677E+04  0.7818609E-02  0.8105153E-01
       -2   -1    0    0    0  501  0.00000000000E+00  0.00000000000E+00  0.11717763195E+04  0.11717763195E+04  0.25500000920E-02 0. -1.
        2   -1    0    0  501    0  0.00000000000E+00  0.00000000000E+00 -0.26686164451E+04  0.26686164451E+04  0.25500000920E-02 0.  1.
    10030    2    1    2    0    0  0.00000000000E+00  0.00000000000E+00 -0.14968401256E+04  0.38403927646E+04  0.35366772860E+04 0.  0.
        4    1    3    3  502    0 -0.64155384328E+03  0.11710229028E+04  0.51050966307E+03  0.14295130995E+04  0.12699999809E+01 0.  1.
       -4    1    3    3    0  502  0.64155384328E+03 -0.11710229028E+04 -0.20073497887E+04  0.24108796651E+04  0.12699999809E+01 0. -1.
</event>
<event>
 5   0  0.3190185E-07  0.3497667E+04  0.7818609E-02  0.8114343E-01
       -2   -1    0    0    0  501  0.00000000000E+00  0.00000000000E+00  0.15433385308E+04  0.15433385308E+04  0.25500000920E-02 0. -1.
        2   -1    0    0  501    0  0.00000000000E+00  0.00000000000E+00 -0.19816897697E+04  0.19816897697E+04  0.25500000920E-02 0.  1.
    10030    2    1    2    0    0  0.00000000000E+00  0.00000000000E+00 -0.43835123884E+03  0.35250283005E+04  0.34976667524E+04 0.  0.
        1    1    3    3  502    0  0.15899592564E+04  0.71588521200E+03 -0.35422426586E+03  0.17793079846E+04  0.50400001928E-02 0. -1.
       -1    1    3    3    0  502 -0.15899592564E+04 -0.71588521200E+03 -0.84126972980E+02  0.17457203159E+04  0.50400001928E-02 0.  1.
</event>
<event>
 5   0  0.3219205E-07  0.3501352E+04  0.7818609E-02  0.8113470E-01
       -2   -1    0    0    0  501  0.00000000000E+00  0.00000000000E+00  0.21288272589E+04  0.21288272589E+04  0.25500000920E-02 0.  1.
        2   -1    0    0  501    0  0.00000000000E+00  0.00000000000E+00 -0.14396969119E+04  0.14396969119E+04  0.25500000920E-02 0. -1.
    10030    2    1    2    0    0  0.00000000000E+00  0.00000000000E+00  0.68913034702E+03  0.35685241708E+04  0.35013517565E+04 0.  0.
        2    1    3    3  502    0 -0.58282170056E+03  0.11033085330E+04  0.15960871360E+04  0.20259479261E+04  0.25500000920E-02 0.  1.
       -2    1    3    3    0  502  0.58282170056E+03 -0.11033085330E+04 -0.90695678898E+03  0.15425762447E+04  0.25500000920E-02 0. -1.
</event>
<event>
 5   0  0.3190185E-07  0.3500471E+04  0.7818609E-02  0.8113678E-01
       -2   -1    0    0    0  501  0.00000000000E+00  0.00000000000E+00  0.13770660674E+04  0.13770660674E+04  0.25500000920E-02 0.  1.
        2   -1    0    0  501    0  0.00000000000E+00  0.00000000000E+00 -0.22245292803E+04  0.22245292803E+04  0.25500000920E-02 0. -1.
    10030    2    1    2    0    0  0.00000000000E+00  0.00000000000E+00 -0.84746321291E+03  0.36015953477E+04  0.35004707042E+04 0.  0.
        1    1    3    3  502    0 -0.48151371709E+03 -0.10869478153E+04 -0.17453684061E+04  0.21117816852E+04  0.50400001928E-02 0. -1.
       -1    1    3    3    0  502  0.48151371709E+03  0.10869478153E+04  0.89790519317E+03  0.14898136625E+04  0.50400001928E-02 0.  1.
</event>
<event>
 5   0  0.3119048E-07  0.3497775E+04  0.7818609E-02  0.8114317E-01
        2   -1    0    0  501    0  0.00000000000E+00  0.00000000000E+00  0.23157465488E+04  0.23157465488E+04  0.25500000920E-02 0.  1.
       -2   -1    0    0    0  501  0.00000000000E+00  0.00000000000E+00 -0.13207868266E+04  0.13207868266E+04  0.25500000920E-02 0. -1.
    10030    2    1    2    0    0  0.00000000000E+00  0.00000000000E+00  0.99495972221E+03  0.36365333754E+04  0.34977750273E+04 0.  0.
        3    1    3    3  502    0  0.97496321817E+03 -0.14439559495E+04  0.33965026824E+03  0.17750843292E+04  0.10100000352E+00 0.  1.
       -3    1    3    3    0  502 -0.97496321817E+03  0.14439559495E+04  0.65530945397E+03  0.18614490462E+04  0.10100000352E+00 0. -1.
</event>
<event>
 5   0  0.3190185E-07  0.3617268E+04  0.7818609E-02  0.8086548E-01
        2   -1    0    0  501    0  0.00000000000E+00  0.00000000000E+00  0.22001685428E+04  0.22001685428E+04  0.25500000920E-02 0. -1.
       -2   -1    0    0    0  501  0.00000000000E+00  0.00000000000E+00 -0.14867754600E+04  0.14867754600E+04  0.25500000920E-02 0.  1.
    10030    2    1    2    0    0  0.00000000000E+00  0.00000000000E+00  0.71339308286E+03  0.36869440028E+04  0.36172678072E+04 0.  0.
        1    1    3    3  502    0 -0.47090767243E+03 -0.43490483245E+03  0.20805036252E+04  0.21770143738E+04  0.50400001928E-02 0. -1.
       -1    1    3    3    0  502  0.47090767243E+03  0.43490483245E+03 -0.13671105424E+04  0.15099296289E+04  0.50400001928E-02 0.  1.
</event>
<event>
 5   0  0.1072381E-07  0.3488520E+04  0.7818609E-02  0.8116516E-01
       -1   -1    0    0    0  501  0.00000000000E+00  0.00000000000E+00  0.30259483235E+04  0.30259483236E+04  0.50400001928E-02 0. -1.
        1   -1    0    0  501    0  0.00000000000E+00  0.00000000000E+00 -0.10054512924E+04  0.10054512924E+04  0.50400001928E-02 0.  1.
    10030    2    1    2    0    0  0.00000000000E+00  0.00000000000E+00  0.20204970311E+04  0.40313996160E+04  0.34885204042E+04 0.  0.
        1    1    3    3  502    0 -0.16640192530E+04  0.24448325132E+03  0.15444788537E+04  0.22834506923E+04  0.50400001928E-02 0. -1.
       -1    1    3    3    0  502  0.16640192530E+04 -0.24448325132E+03  0.47601817748E+03  0.17479489237E+04  0.50400001928E-02 0.  1.
</event>
<event>
 5   0  0.1033796E-07  0.3492169E+04  0.7818609E-02  0.8115648E-01
       -1   -1    0    0    0  501  0.00000000000E+00  0.00000000000E+00  0.27821575699E+04  0.27821575699E+04  0.50400001928E-02 0.  1.
        1   -1    0    0  501    0  0.00000000000E+00  0.00000000000E+00 -0.10958441755E+04  0.10958441755E+04  0.50400001928E-02 0. -1.
    10030    2    1    2    0    0  0.00000000000E+00  0.00000000000E+00  0.16863133943E+04  0.38780017454E+04  0.34921690499E+04 0.  0.
        3    1    3    3  502    0  0.84329760363E+03  0.70483489307E+02  0.25392177337E+04  0.26765174164E+04  0.10100000352E+00 0.  1.
       -3    1    3    3    0  502 -0.84329760363E+03 -0.70483489307E+02 -0.85290433938E+03  0.12014843290E+04  0.10100000352E+00 0. -1.
</event>
<event>
 5   0  0.1013863E-07  0.3507489E+04  0.7818609E-02  0.8112017E-01
        1   -1    0    0  501    0  0.00000000000E+00  0.00000000000E+00  0.27973128230E+04  0.27973128230E+04  0.50400001928E-02 0. -1.
       -1   -1    0    0    0  501  0.00000000000E+00  0.00000000000E+00 -0.10994907986E+04  0.10994907986E+04  0.50400001928E-02 0.  1.
    10030    2    1    2    0    0  0.00000000000E+00  0.00000000000E+00  0.16978220245E+04  0.38968036216E+04  0.35074889649E+04 0.  0.
        5    1    3    3  502    0  0.16316096377E+04  0.64075797417E+03  0.90850043733E+03  0.19743646892E+04  0.46999998093E+01 0.  1.
       -5    1    3    3    0  502 -0.16316096377E+04 -0.64075797417E+03  0.78932158714E+03  0.19224389325E+04  0.46999998093E+01 0. -1.
</event>
<event>
 5   0  0.1033796E-07  0.3488435E+04  0.7818609E-02  0.8116536E-01
       -1   -1    0    0    0  501  0.00000000000E+00  0.00000000000E+00  0.26643244502E+04  0.26643244503E+04  0.50400001928E-02 0. -1.
        1   -1    0    0  501    0  0.00000000000E+00  0.00000000000E+00 -0.11418635295E+04  0.11418635295E+04  0.50400001928E-02 0.  1.
    10030    2    1    2    0    0  0.00000000000E+00  0.00000000000E+00  0.15224609208E+04  0.38061879797E+04  0.34884351336E+04 0.  0.
        3    1    3    3  502    0 -0.72146772714E+03  0.15633670193E+04  0.45716570684E+03  0.17814692285E+04  0.10100000352E+00 0. -1.
       -3    1    3    3    0  502  0.72146772714E+03 -0.15633670193E+04  0.10652952139E+04  0.20247187512E+04  0.10100000352E+00 0.  1.
</event>
<event>
 5   0  0.3219205E-07  0.3499649E+04  0.7818609E-02  0.8113873E-01
       -2   -1    0    0    0  501  0.00000000000E+00  0.00000000000E+00  0.15533833584E+04  0.15533833584E+04  0.25500000920E-02 0. -1.
        2   -1    0    0  501    0  0.00000000000E+00  0.00000000000E+00 -0.19711074934E+04  0.19711074934E+04  0.25500000920E-02 0.  1.
    10030    2    1    2    0    0  0.00000000000E+00  0.00000000000E+00 -0.41772413495E+03  0.35244908518E+04  0.34996488841E+04 0.  0.
        2    1    3    3  502    0 -0.14612088004E+04  0.45258178732E+03 -0.10645545115E+04  0.18636624535E+04  0.25500000920E-02 0. -1.
       -2    1    3    3    0  502  0.14612088004E+04 -0.45258178732E+03  0.64683037655E+03  0.16608283983E+04  0.25500000920E-02 0.  1.
</event>
<event>
 5   0  0.3190185E-07  0.3489861E+04  0.7818609E-02  0.8116197E-01
        2   -1    0    0  501    0  0.00000000000E+00  0.00000000000E+00  0.19904688407E+04  0.19904688407E+04  0.25500000920E-02 0.  1.
       -2   -1    0    0    0  501  0.00000000000E+00  0.00000000000E+00 -0.15296809310E+04  0.15296809310E+04  0.25500000920E-02 0. -1.
    10030    2    1    2    0    0  0.00000000000E+00  0.00000000000E+00  0.46078790973E+03  0.35201497717E+04  0.34898608737E+04 0.  0.
        1    1    3    3  502    0  0.91141555807E+03  0.19732785950E+03 -0.12572506574E+04  0.15653420774E+04  0.50400001928E-02 0. -1.
       -1    1    3    3    0  502 -0.91141555807E+03 -0.19732785950E+03  0.17180385672E+04  0.19548076944E+04  0.50400001928E-02 0.  1.
</event>
<event>
 5   0  0.1033796E-07  0.3491488E+04  0.7818609E-02  0.8115810E-01
       -1   -1    0    0    0  501  0.00000000000E+00  0.00000000000E+00  0.15945930402E+04  0.15945930402E+04  0.50400001928E-02 0. -1.
        1   -1    0    0  501    0  0.00000000000E+00  0.00000000000E+00 -0.19112227247E+04  0.19112227247E+04  0.50400001928E-02 0.  1.
    10030    2    1    2    0    0  0.00000000000E+00  0.00000000000E+00 -0.31662968456E+03  0.35058157649E+04  0.34914881956E+04 0.  0.
        3    1    3    3  502    0  0.13051776370E+04  0.19722774097E+03 -0.13054718616E+04  0.18565140014E+04  0.10100000352E+00 0.  1.
       -3    1    3    3    0  502 -0.13051776370E+04 -0.19722774097E+03  0.98884217700E+03  0.16493017635E+04  0.10100000352E+00 0. -1.
</event>
<event>
 5   0  0.1013863E-07  0.3504132E+04  0.7818609E-02  0.8112811E-01
       -1   -1    0    0    0  501  0.00000000000E+00  0.00000000000E+00  0.23486243951E+04  0.23486243951E+04  0.50400001928E-02 0.  1.
        1   -1    0    0  501    0  0.00000000000E+00  0.00000000000E+00 -0.13070355396E+04  0.13070355396E+04  0.50400001928E-02 0. -1.
    10030    2    1    2    0    0  0.00000000000E+00  0.00000000000E+00  0.10415888555E+04  0.36556599347E+04  0.35041321628E+04 0.  0.
        2    1    3    3  502    0 -0.11573525967E+04  0.99901863230E-01 -0.85148424635E+03  0.14368334854E+04  0.25500000920E-02 0. -1.
       -2    1    3    3    0  502  0.11573525967E+04 -0.99901863230E-01  0.18930731018E+04  0.22188264492E+04  0.25500000920E-02 0.  1.
</event>
<event>
 5   0  0.3219205E-07  0.3528738E+04  0.7818609E-02  0.8107013E-01
        2   -1    0    0  501    0  0.00000000000E+00  0.00000000000E+00  0.27085477489E+04  0.27085477489E+04  0.25500000920E-02 0.  1.
       -2   -1    0    0    0  501  0.00000000000E+00  0.00000000000E+00 -0.11493233508E+04  0.11493233508E+04  0.25500000920E-02 0. -1.
    10030    2    1    2    0    0  0.00000000000E+00  0.00000000000E+00  0.15592243981E+04  0.38578710997E+04  0.35287375503E+04 0.  0.
        2    1    3    3  502    0  0.11446079830E+04  0.10001312630E+04  0.17590568046E+04  0.23247947909E+04  0.25500000920E-02 0.  1.
       -2    1    3    3    0  502 -0.11446079830E+04 -0.10001312630E+04 -0.19983240652E+03  0.15330763088E+04  0.25500000920E-02 0. -1.
</event>
<event>
 5   0  0.1013863E-07  0.3507252E+04  0.7818609E-02  0.8112073E-01
        1   -1    0    0  501    0  0.00000000000E+00  0.00000000000E+00  0.14281698268E+04  0.14281698268E+04  0.50400001928E-02 0.  1.
       -1   -1    0    0    0  501  0.00000000000E+00  0.00000000000E+00 -0.21532486487E+04  0.21532486487E+04  0.50400001928E-02 0. -1.
    10030    2    1    2    0    0  0.00000000000E+00  0.00000000000E+00 -0.72507882188E+03  0.35814184756E+04  0.35072523432E+04 0.  0.
        2    1    3    3  502    0  0.10639387373E+03  0.58455491281E+03 -0.20473323228E+04  0.21318052778E+04  0.25500000920E-02 0. -1.
       -2    1    3    3    0  502 -0.10639387373E+03 -0.58455491281E+03  0.13222535009E+04  0.14496131978E+04  0.25500000920E-02 0.  1.
</event>
<event>
 5   0  0.1013863E-07  0.3506599E+04  0.7818609E-02  0.8112228E-01
        1   -1    0    0  501    0  0.00000000000E+00  0.00000000000E+00  0.11387076609E+04  0.11387076609E+04  0.50400001928E-02 0.  1.
       -1   -1    0    0    0  501  0.00000000000E+00  0.00000000000E+00 -0.26996033659E+04  0.26996033659E+04  0.50400001928E-02 0. -1.
    10030    2    1    2    0    0  0.00000000000E+00  0.00000000000E+00 -0.15608957050E+04  0.38383110268E+04  0.35065989415E+04 0.  0.
        5    1    3    3  502    0  0.56969342799E+03  0.15227372363E+04 -0.62040833960E+02  0.16270065912E+04  0.46999998093E+01 0.  1.
       -5    1    3    3    0  502 -0.56969342799E+03 -0.15227372363E+04 -0.14988548710E+04  0.22113044356E+04  0.46999998093E+01 0. -1.
</event>
<event>
 5   0  0.2180451E-07  0.3495059E+04  0.7818609E-02  0.8114962E-01
        2   -1    0    0  501    0  0.00000000000E+00  0.00000000000E+00  0.28979321697E+04  0.28979321697E+04  0.25500000920E-02 0.  1.
       -2   -1    0    0    0  501  0.00000000000E+00  0.00000000000E+00 -0.10538063468E+04  0.10538063468E+04  0.25500000920E-02 0. -1.
    10030    2    1    2    0    0  0.00000000000E+00  0.00000000000E+00  0.18441258230E+04  0.39517385165E+04  0.34950589769E+04 0.  0.
        4    1    3    3  502    0 -0.60385395064E+03 -0.12278093454E+04  0.21511643729E+04  0.25494440873E+04  0.12699999809E+01 0.  1.
       -4    1    3    3    0  502  0.60385395064E+03  0.12278093454E+04 -0.30703854992E+03  0.14022944292E+04  0.12699999809E+01 0. -1.
</event>
<event>
 5   0  0.1013863E-07  0.3493477E+04  0.7818609E-02  0.8115338E-01
       -1   -1    0    0    0  501  0.00000000000E+00  0.00000000000E+00  0.19054765121E+04  0.19054765121E+04  0.50400001928E-02 0.  1.
        1   -1    0    0  501    0  0.00000000000E+00  0.00000000000E+00 -0.16012243619E+04  0.16012243619E+04  0.50400001928E-02 0. -1.
    10030    2    1    2    0    0  0.00000000000E+00  0.00000000000E+00  0.30425215018E+03  0.35067008741E+04  0.34934770143E+04 0.  0.
        2    1    3    3  502    0  0.53911353020E+03  0.16606295905E+04  0.20487379303E+03  0.17579269912E+04  0.25500000920E-02 0. -1.
       -2    1    3    3    0  502 -0.53911353020E+03 -0.16606295905E+04  0.99378357154E+02  0.17487738828E+04  0.25500000920E-02 0.  1.
</event>
<event>
 5   0  0.1072381E-07  0.3486355E+04  0.7818609E-02  0.8117031E-01
       -1   -1    0    0    0  501  0.00000000000E+00  0.00000000000E+00  0.16318803018E+04  0.16318803018E+04  0.50400001928E-02 0.  1.
        1   -1    0    0  501    0  0.00000000000E+00  0.00000000000E+00 -0.18620654668E+04  0.18620654668E+04  0.50400001928E-02 0. -1.
    10030    2    1    2    0    0  0.00000000000E+00  0.00000000000E+00 -0.23018516499E+03  0.34939457686E+04  0.34863550914E+04 0.  0.
        1    1    3    3  502    0  0.72889419182E+03  0.13474560829E+04  0.71842934127E+03  0.16920595015E+04  0.50400001928E-02 0.  1.
       -1    1    3    3    0  502 -0.72889419182E+03 -0.13474560829E+04 -0.94861450626E+03  0.18018862671E+04  0.50400001928E-02 0. -1.
</event>
<event>
 5   0  0.1013863E-07  0.3532381E+04  0.7818609E-02  0.8106159E-01
        1   -1    0    0  501    0  0.00000000000E+00  0.00000000000E+00  0.23513453279E+04  0.23513453279E+04  0.50400001928E-02 0. -1.
       -1   -1    0    0    0  501  0.00000000000E+00  0.00000000000E+00 -0.13266572987E+04  0.13266572987E+04  0.50400001928E-02 0.  1.
    10030    2    1    2    0    0  0.00000000000E+00  0.00000000000E+00  0.10246880291E+04  0.36780026266E+04  0.35323813164E+04 0.  0.
        2    1    3    3  502    0 -0.17464811599E+04 -0.13986376409E+03  0.28028605902E+03  0.17743501879E+04  0.25500000920E-02 0.  1.
       -2    1    3    3    0  502  0.17464811599E+04  0.13986376409E+03  0.74440197010E+03  0.19036524387E+04  0.25500000920E-02 0. -1.
</event>
<event>
 5   0  0.2180451E-07  0.3500784E+04  0.7818609E-02  0.8113604E-01
       -2   -1    0    0    0  501  0.00000000000E+00  0.00000000000E+00  0.11616431176E+04  0.11616431176E+04  0.25500000920E-02 0.  1.
        2   -1    0    0  501    0  0.00000000000E+00  0.00000000000E+00 -0.26375329483E+04  0.26375329483E+04  0.25500000920E-02 0. -1.
    10030    2    1    2    0    0  0.00000000000E+00  0.00000000000E+00 -0.14758898308E+04  0.37991760659E+04  0.35007839104E+04 0.  0.
        4    1    3    3  502    0 -0.15099536735E+04 -0.23285622266E+02  0.22257649195E+03  0.15264482382E+04  0.12699999809E+01 0.  1.
       -4    1    3    3    0  502  0.15099536735E+04  0.23285622266E+02 -0.16984663227E+04  0.22727278277E+04  0.12699999809E+01 0. -1.
</event>
<event>
 5   0  0.3119048E-07  0.3500314E+04  0.7818609E-02  0.8113715E-01
        2   -1    0    0  501    0  0.00000000000E+00  0.00000000000E+00  0.17795114822E+04  0.17795114822E+04  0.25500000920E-02 0. -1.
       -2   -1    0    0    0  501  0.00000000000E+00  0.00000000000E+00 -0.17212869896E+04  0.17212869896E+04  0.25500000920E-02 0.  1.
    10030    2    1    2    0    0  0.00000000000E+00  0.00000000000E+00  0.58224492655E+02  0.35007984718E+04  0.35003142500E+04 0.  0.
        3    1    3    3  502    0  0.11906493070E+04 -0.14277299718E+03  0.13040513357E+04  0.17716037360E+04  0.10100000352E+00 0. -1.
       -3    1    3    3    0  502 -0.11906493070E+04  0.14277299718E+03 -0.12458268431E+04  0.17291947358E+04  0.10100000352E+00 0.  1.
</event>
<event>
 5   0  0.1033796E-07  0.3509767E+04  0.7818609E-02  0.8111479E-01
       -1   -1    0    0    0  501  0.00000000000E+00  0.00000000000E+00  0.15579842944E+04  0.15579842944E+04  0.50400001928E-02 0. -1.
        1   -1    0    0  501    0  0.00000000000E+00  0.00000000000E+00 -0.19766672324E+04  0.19766672324E+04  0.50400001928E-02 0.  1.
    10030    2    1    2    0    0  0.00000000000E+00  0.00000000000E+00 -0.41868293798E+03  0.35346515268E+04  0.35097672306E+04 0.  0.
        3    1    3    3  502    0 -0.59313736580E+03 -0.16354460608E+04 -0.44145494176E+03  0.17948198317E+04  0.10100000352E+00 0.  1.
       -3    1    3    3    0  502  0.59313736580E+03  0.16354460608E+04  0.22772003784E+02  0.17398316950E+04  0.10100000352E+00 0. -1.
</event>
<event>
 5   0  0.2180451E-07  0.3489599E+04  0.7818609E-02  0.8116259E-01
        2   -1    0    0  501    0  0.00000000000E+00  0.00000000000E+00  0.97951139179E+03  0.97951139179E+03  0.25500000920E-02 0. -1.
       -2   -1    0    0    0  501  0.00000000000E+00  0.00000000000E+00 -0.31080038903E+04  0.31080038903E+04  0.25500000920E-02 0.  1.
    10030    2    1    2    0    0  0.00000000000E+00  0.00000000000E+00 -0.21284924985E+04  0.40875152821E+04  0.34895989548E+04 0.  0.
        4    1    3    3  502    0  0.55435794040E+03  0.10164327763E+04 -0.25932296600E+04  0.28399454215E+04  0.12699999809E+01 0.  1.
       -4    1    3    3    0  502 -0.55435794040E+03 -0.10164327763E+04  0.46473716148E+03  0.12475698606E+04  0.12699999809E+01 0. -1.
</event>
<event>
 5   0  0.1098171E-07  0.3458757E+04  0.7818609E-02  0.8123634E-01
       -1   -1    0    0    0  501  0.00000000000E+00  0.00000000000E+00  0.16134949681E+04  0.16134949681E+04  0.50400001928E-02 0. -1.
        1   -1    0    0  501    0  0.00000000000E+00  0.00000000000E+00 -0.18535853543E+04  0.18535853543E+04  0.50400001928E-02 0.  1.
    10030    2    1    2    0    0  0.00000000000E+00  0.00000000000E+00 -0.24009038625E+03  0.34670803224E+04  0.34587573734E+04 0.  0.
        4    1    3    3  502    0 -0.53443275817E+03  0.44236764331E+03  0.14678884321E+04  0.16235780138E+04  0.12699999809E+01 0. -1.
       -4    1    3    3    0  502  0.53443275817E+03 -0.44236764331E+03 -0.17079788184E+04  0.18435023086E+04  0.12699999809E+01 0.  1.
</event>
<event>
 5   0  0.1013863E-07  0.3489138E+04  0.7818609E-02  0.8116369E-01
        1   -1    0    0  501    0  0.00000000000E+00  0.00000000000E+00  0.11996091406E+04  0.11996091406E+04  0.50400001928E-02 0.  1.
       -1   -1    0    0    0  501  0.00000000000E+00  0.00000000000E+00 -0.25370945629E+04  0.25370945630E+04  0.50400001928E-02 0. -1.
    10030    2    1    2    0    0  0.00000000000E+00  0.00000000000E+00 -0.13374854224E+04  0.37367037035E+04  0.34891384772E+04 0.  0.
        5    1    3    3  502    0 -0.92659564040E+03 -0.68629142869E+02  0.91257687347E+03  0.13023471427E+04  0.46999998093E+01 0. -1.
       -5    1    3    3    0  502  0.92659564040E+03  0.68629142869E+02 -0.22500622959E+04  0.24343565608E+04  0.46999998093E+01 0.  1.
</event>
<event>
 5   0  0.1013863E-07  0.3492262E+04  0.7818609E-02  0.8115626E-01
        1   -1    0    0  501    0  0.00000000000E+00  0.00000000000E+00  0.19351722395E+04  0.19351722395E+04  0.50400001928E-02 0.  1.
       -1   -1    0    0    0  501  0.00000000000E+00  0.00000000000E+00 -0.15755566005E+04  0.15755566005E+04  0.50400001928E-02 0. -1.
    10030    2    1    2    0    0  0.00000000000E+00  0.00000000000E+00  0.35961563899E+03  0.35107288400E+04  0.34922619576E+04 0.  0.
        2    1    3    3  502    0  0.86837442800E+03 -0.14738037791E+04 -0.17247592813E+03  0.17192788233E+04  0.25500000920E-02 0.  1.
       -2    1    3    3    0  502 -0.86837442800E+03  0.14738037791E+04  0.53209156712E+03  0.17914500167E+04  0.25500000920E-02 0. -1.
</event>
<event>
 5   0  0.3190112E-07  0.3435349E+04  0.7818609E-02  0.8129285E-01
        2   -1    0    0  501    0  0.00000000000E+00  0.00000000000E+00  0.14314719463E+04  0.14314719463E+04  0.25500000920E-02 0. -1.
       -2   -1    0    0    0  501  0.00000000000E+00  0.00000000000E+00 -0.20610988071E+04  0.20610988071E+04  0.25500000920E-02 0.  1.
    10030    2    1    2    0    0  0.00000000000E+00  0.00000000000E+00 -0.62962686073E+03  0.34925707534E+04  0.34353486699E+04 0.  0.
        5    1    3    3  502    0  0.85819176489E+03 -0.12390284126E+04 -0.11523674769E+04  0.18972763121E+04  0.46999998093E+01 0.  1.
       -5    1    3    3    0  502 -0.85819176489E+03  0.12390284126E+04  0.52274061615E+03  0.15952944413E+04  0.46999998093E+01 0. -1.
</event>
<event>
 5   0  0.1013863E-07  0.3490015E+04  0.7818609E-02  0.8116160E-01
       -1   -1    0    0    0  501  0.00000000000E+00  0.00000000000E+00  0.15525616699E+04  0.15525616699E+04  0.50400001928E-02 0.  1.
        1   -1    0    0  501    0  0.00000000000E+00  0.00000000000E+00 -0.19613073236E+04  0.19613073236E+04  0.50400001928E-02 0. -1.
    10030    2    1    2    0    0  0.00000000000E+00  0.00000000000E+00 -0.40874565370E+03  0.35138689935E+04  0.34900146552E+04 0.  0.
        5    1    3    3  502    0 -0.11472634283E+04  0.75641056540E+03  0.87845854406E+03  0.16309757267E+04  0.46999998093E+01 0.  1.
       -5    1    3    3    0  502  0.11472634283E+04 -0.75641056540E+03 -0.12872041978E+04  0.18828932668E+04  0.46999998093E+01 0. -1.
</event>
<event>
 5   0  0.1013863E-07  0.3501520E+04  0.7818609E-02  0.8113430E-01
        1   -1    0    0  501    0  0.00000000000E+00  0.00000000000E+00  0.14434426071E+04  0.14434426071E+04  0.50400001928E-02 0. -1.
       -1   -1    0    0    0  501  0.00000000000E+00  0.00000000000E+00 -0.21235069023E+04  0.21235069023E+04  0.50400001928E-02 0.  1.
    10030    2    1    2    0    0  0.00000000000E+00  0.00000000000E+00 -0.68006429513E+03  0.35669495094E+04  0.35015198639E+04 0.  0.
        5    1    3    3  502    0 -0.14158063272E+04 -0.49238268123E+03  0.58140867321E+03  0.16077955082E+04  0.46999998093E+01 0. -1.
       -5    1    3    3    0  502  0.14158063272E+04  0.49238268123E+03 -0.12614729683E+04  0.19591540013E+04  0.46999998093E+01 0.  1.
</event>
<event>
 5   0  0.1013863E-07  0.3497407E+04  0.7818609E-02  0.8114405E-01
        1   -1    0    0  501    0  0.00000000000E+00  0.00000000000E+00  0.24228095545E+04  0.24228095545E+04  0.50400001928E-02 0.  1.
       -1   -1    0    0    0  501  0.00000000000E+00  0.00000000000E+00 -0.12621561425E+04  0.12621561425E+04  0.50400001928E-02 0. -1.
    10030    2    1    2    0    0  0.00000000000E+00  0.00000000000E+00  0.11606534120E+04  0.36849656971E+04  0.34974070175E+04 0.  0.
        2    1    3    3  502    0  0.34533384248E+03 -0.71709497662E+03  0.22209046561E+04  0.23592155815E+04  0.25500000920E-02 0.  1.
       -2    1    3    3    0  502 -0.34533384248E+03  0.71709497662E+03 -0.10602512442E+04  0.13257501156E+04  0.25500000920E-02 0. -1.
</event>
<event>
 5   0  0.3190112E-07  0.3499434E+04  0.7818609E-02  0.8113924E-01
       -2   -1    0    0    0  501  0.00000000000E+00  0.00000000000E+00  0.17324908287E+04  0.17324908287E+04  0.25500000920E-02 0.  1.
        2   -1    0    0  501    0  0.00000000000E+00  0.00000000000E+00 -0.17671145632E+04  0.17671145632E+04  0.25500000920E-02 0. -1.
    10030    2    1    2    0    0  0.00000000000E+00  0.00000000000E+00 -0.34623734545E+02  0.34996053919E+04  0.34994341108E+04 0.  0.
        5    1    3    3  502    0 -0.24404125968E+03  0.88316288133E+03  0.14733834023E+04  0.17350543368E+04  0.46999998093E+01 0.  1.
       -5    1    3    3    0  502  0.24404125968E+03 -0.88316288133E+03 -0.15080071369E+04  0.17645510551E+04  0.46999998093E+01 0. -1.
</event>
<event>
 5   0  0.3190112E-07  0.3505075E+04  0.7818609E-02  0.8112588E-01
        2   -1    0    0  501    0  0.00000000000E+00  0.00000000000E+00  0.13991551966E+04  0.13991551966E+04  0.25500000920E-02 0.  1.
       -2   -1    0    0    0  501  0.00000000000E+00  0.00000000000E+00 -0.21951732083E+04  0.21951732083E+04  0.25500000920E-02 0. -1.
    10030    2    1    2    0    0  0.00000000000E+00  0.00000000000E+00 -0.79601801172E+03  0.35943284049E+04  0.35050751786E+04 0.  0.
        5    1    3    3  502    0 -0.74501838506E+03 -0.11213007589E+04  0.75261375172E+03  0.15423415105E+04  0.46999998093E+01 0.  1.
       -5    1    3    3    0  502  0.74501838506E+03  0.11213007589E+04 -0.15486317634E+04  0.20519868944E+04  0.46999998093E+01 0. -1.
</event>
<event>
 5   0  0.2180451E-07  0.3505813E+04  0.7818609E-02  0.8112414E-01
       -2   -1    0    0    0  501  0.00000000000E+00  0.00000000000E+00  0.30103494503E+04  0.30103494503E+04  0.25500000920E-02 0.  1.
        2   -1    0    0  501    0  0.00000000000E+00  0.00000000000E+00 -0.10207059286E+04  0.10207059286E+04  0.25500000920E-02 0. -1.
    10030    2    1    2    0    0  0.00000000000E+00  0.00000000000E+00  0.19896435217E+04  0.40310553789E+04  0.35058131902E+04 0.  0.
        4    1    3    3  502    0  0.76746557678E+03 -0.15756519691E+04  0.10311345889E+04  0.20334509319E+04  0.12699999809E+01 0. -1.
       -4    1    3    3    0  502 -0.76746557678E+03  0.15756519691E+04  0.95850893287E+03  0.19976044470E+04  0.12699999809E+01 0.  1.
</event>
<event>
 5   0  0.1013863E-07  0.3503254E+04  0.7818609E-02  0.8113019E-01
        1   -1    0    0  501    0  0.00000000000E+00  0.00000000000E+00  0.11926461880E+04  0.11926461880E+04  0.50400001928E-02 0. -1.
       -1   -1    0    0    0  501  0.00000000000E+00  0.00000000000E+00 -0.25725968264E+04  0.25725968264E+04  0.50400001928E-02 0.  1.
    10030    2    1    2    0    0  0.00000000000E+00  0.00000000000E+00 -0.13799506384E+04  0.37652430144E+04  0.35032543717E+04 0.  0.
        5    1    3    3  502    0 -0.13282092394E+04  0.11641103153E+03 -0.19109248651E+04  0.23300959727E+04  0.46999998093E+01 0.  1.
       -5    1    3    3    0  502  0.13282092394E+04 -0.11641103153E+03  0.53097422669E+03  0.14351470417E+04  0.46999998093E+01 0. -1.
</event>
<event>
 5   0  0.1013863E-07  0.3499587E+04  0.7818609E-02  0.8113888E-01
        1   -1    0    0  501    0  0.00000000000E+00  0.00000000000E+00  0.11869604327E+04  0.11869604327E+04  0.50400001928E-02 0. -1.
       -1   -1    0    0    0  501  0.00000000000E+00  0.00000000000E+00 -0.25795101636E+04  0.25795101636E+04  0.50400001928E-02 0.  1.
    10030    2    1    2    0    0  0.00000000000E+00  0.00000000000E+00 -0.13925497309E+04  0.37664705963E+04  0.34995865470E+04 0.  0.
        2    1    3    3  502    0 -0.17228518499E+04 -0.28044162668E+03 -0.82769560494E+03  0.19318245306E+04  0.25500000920E-02 0.  1.
       -2    1    3    3    0  502  0.17228518499E+04  0.28044162668E+03 -0.56485412596E+03  0.18346460657E+04  0.25500000920E-02 0. -1.
</event>
<event>
 5   0  0.1072381E-07  0.3489921E+04  0.7818609E-02  0.8116183E-01
       -1   -1    0    0    0  501  0.00000000000E+00  0.00000000000E+00  0.13082144692E+04  0.13082144692E+04  0.50400001928E-02 0.  1.
        1   -1    0    0  501    0  0.00000000000E+00  0.00000000000E+00 -0.23275142138E+04  0.23275142138E+04  0.50400001928E-02 0. -1.
    10030    2    1    2    0    0  0.00000000000E+00  0.00000000000E+00 -0.10192997445E+04  0.36357286830E+04  0.34899213583E+04 0.  0.
        1    1    3    3  502    0 -0.10207027388E+03  0.56484744546E+03 -0.22263485617E+04  0.22991517774E+04  0.50400001928E-02 0. -1.
       -1    1    3    3    0  502  0.10207027388E+03 -0.56484744546E+03  0.12070488172E+04  0.13365769056E+04  0.50400001928E-02 0.  1.
</event>
<event>
 5   0  0.3190112E-07  0.3497144E+04  0.7818609E-02  0.8114467E-01
        2   -1    0    0  501    0  0.00000000000E+00  0.00000000000E+00  0.26297308058E+04  0.26297308058E+04  0.25500000920E-02 0.  1.
       -2   -1    0    0    0  501  0.00000000000E+00  0.00000000000E+00 -0.11626677579E+04  0.11626677579E+04  0.25500000920E-02 0. -1.
    10030    2    1    2    0    0  0.00000000000E+00  0.00000000000E+00  0.14670630478E+04  0.37923985637E+04  0.34971435315E+04 0.  0.
        5    1    3    3  502    0 -0.11921234239E+04 -0.72604897477E+03 -0.40855945425E+03  0.14543893183E+04  0.46999998093E+01 0. -1.
       -5    1    3    3    0  502  0.11921234239E+04  0.72604897477E+03  0.18756225021E+04  0.23380092455E+04  0.46999998093E+01 0.  1.
</event>
<event>
 5   0  0.3119048E-07  0.3469661E+04  0.7818609E-02  0.8121018E-01
       -2   -1    0    0    0  501  0.00000000000E+00  0.00000000000E+00  0.11685068709E+04  0.11685068709E+04  0.25500000920E-02 0. -1.
        2   -1    0    0  501    0  0.00000000000E+00  0.00000000000E+00 -0.25756267276E+04  0.25756267276E+04  0.25500000920E-02 0.  1.
    10030    2    1    2    0    0  0.00000000000E+00  0.00000000000E+00 -0.14071198568E+04  0.37441335985E+04  0.34696613829E+04 0.  0.
        3    1    3    3  502    0 -0.16499559432E+03 -0.29316766927E+03 -0.25400919859E+04  0.25622720651E+04  0.10100000352E+00 0.  1.
       -3    1    3    3    0  502  0.16499559432E+03  0.29316766927E+03  0.11329721291E+04  0.11818615334E+04  0.10100000352E+00 0. -1.
</event>
<event>
 5   0  0.2180451E-07  0.3512775E+04  0.7818609E-02  0.8110769E-01
       -2   -1    0    0    0  501  0.00000000000E+00  0.00000000000E+00  0.10264186668E+04  0.10264186668E+04  0.25500000920E-02 0. -1.
        2   -1    0    0  501    0  0.00000000000E+00  0.00000000000E+00 -0.30054962667E+04  0.30054962667E+04  0.25500000920E-02 0.  1.
    10030    2    1    2    0    0  0.00000000000E+00  0.00000000000E+00 -0.19790775999E+04  0.40319149335E+04  0.35127752397E+04 0.  0.
        4    1    3    3  502    0 -0.14190142147E+04 -0.87851491948E+01 -0.21774932654E+04  0.25990684974E+04  0.12699999809E+01 0.  1.
       -4    1    3    3    0  502  0.14190142147E+04  0.87851491948E+01  0.19841566544E+03  0.14328464361E+04  0.12699999809E+01 0. -1.
</event>
<event>
 5   0  0.1013863E-07  0.3511868E+04  0.7818609E-02  0.8110983E-01
       -1   -1    0    0    0  501  0.00000000000E+00  0.00000000000E+00  0.22602442043E+04  0.22602442043E+04  0.50400001928E-02 0.  1.
        1   -1    0    0  501    0  0.00000000000E+00  0.00000000000E+00 -0.13641468336E+04  0.13641468336E+04  0.50400001928E-02 0. -1.
    10030    2    1    2    0    0  0.00000000000E+00  0.00000000000E+00  0.89609737074E+03  0.36243910379E+04  0.35118684340E+04 0.  0.
        5    1    3    3  502    0  0.11580619998E+04 -0.67155012842E+03 -0.72466730866E+03  0.15222522684E+04  0.46999998093E+01 0. -1.
       -5    1    3    3    0  502 -0.11580619998E+04  0.67155012842E+03  0.16207646794E+04  0.21021387695E+04  0.46999998093E+01 0.  1.
</event>
<event>
 5   0  0.3219205E-07  0.3508780E+04  0.7818609E-02  0.8111712E-01
       -2   -1    0    0    0  501  0.00000000000E+00  0.00000000000E+00  0.15106441967E+04  0.15106441967E+04  0.25500000920E-02 0. -1.
        2   -1    0    0  501    0  0.00000000000E+00  0.00000000000E+00 -0.20374649342E+04  0.20374649342E+04  0.25500000920E-02 0.  1.
    10030    2    1    2    0    0  0.00000000000E+00  0.00000000000E+00 -0.52682073749E+03  0.35481091309E+04  0.35087801748E+04 0.  0.
        2    1    3    3  502    0 -0.47020224864E+03 -0.16036455809E+04 -0.80335726783E+03  0.18542254996E+04  0.25500000920E-02 0.  1.
       -2    1    3    3    0  502  0.47020224864E+03  0.16036455809E+04  0.27653653034E+03  0.16938836313E+04  0.25500000920E-02 0. -1.
</event>
<event>
 5   0  0.1013863E-07  0.3489110E+04  0.7818609E-02  0.8116376E-01
        1   -1    0    0  501    0  0.00000000000E+00  0.00000000000E+00  0.18414872628E+04  0.18414872628E+04  0.50400001928E-02 0.  1.
       -1   -1    0    0    0  501  0.00000000000E+00  0.00000000000E+00 -0.16527246429E+04  0.16527246430E+04  0.50400001928E-02 0. -1.
    10030    2    1    2    0    0  0.00000000000E+00  0.00000000000E+00  0.18876261985E+03  0.34942119058E+04  0.34891095591E+04 0.  0.
        2    1    3    3  502    0 -0.80877532182E+03 -0.11797286138E+04 -0.90587569695E+03  0.16930705543E+04  0.25500000920E-02 0. -1.
       -2    1    3    3    0  502  0.80877532182E+03  0.11797286138E+04  0.10946383168E+04  0.18011413515E+04  0.25500000920E-02 0.  1.
</event>
<event>
 5   0  0.3219205E-07  0.3497302E+04  0.7818609E-02  0.8114430E-01
        2   -1    0    0  501    0  0.00000000000E+00  0.00000000000E+00  0.12452898313E+04  0.12452898313E+04  0.25500000920E-02 0.  1.
       -2   -1    0    0    0  501  0.00000000000E+00  0.00000000000E+00 -0.24554774452E+04  0.24554774452E+04  0.25500000920E-02 0. -1.
    10030    2    1    2    0    0  0.00000000000E+00  0.00000000000E+00 -0.12101876139E+04  0.37007672766E+04  0.34973024425E+04 0.  0.
        2    1    3    3  502    0  0.71867266132E+03  0.25609227317E+03 -0.22700708340E+04  0.23948476440E+04  0.25500000920E-02 0. -1.
       -2    1    3    3    0  502 -0.71867266132E+03 -0.25609227317E+03  0.10598832201E+04  0.13059196326E+04  0.25500000920E-02 0.  1.
</event>
<event>
 5   0  0.1013863E-07  0.3469047E+04  0.7818609E-02  0.8121165E-01
       -1   -1    0    0    0  501  0.00000000000E+00  0.00000000000E+00  0.12281571617E+04  0.12281571617E+04  0.50400001928E-02 0.  1.
        1   -1    0    0  501    0  0.00000000000E+00  0.00000000000E+00 -0.24496640845E+04  0.24496640845E+04  0.50400001928E-02 0. -1.
    10030    2    1    2    0    0  0.00000000000E+00  0.00000000000E+00 -0.12215069228E+04  0.36778212462E+04  0.34690474134E+04 0.  0.
        5    1    3    3  502    0  0.68457933166E+03  0.28892318022E+03  0.10508681428E+04  0.12870397853E+04  0.46999998093E+01 0.  1.
       -5    1    3    3    0  502 -0.68457933166E+03 -0.28892318022E+03 -0.22723750655E+04  0.23907814609E+04  0.46999998093E+01 0. -1.
</event>
<event>
 5   0  0.2180451E-07  0.3496026E+04  0.7818609E-02  0.8114732E-01
       -2   -1    0    0    0  501  0.00000000000E+00  0.00000000000E+00  0.13016707017E+04  0.13016707017E+04  0.25500000920E-02 0. -1.
        2   -1    0    0  501    0  0.00000000000E+00  0.00000000000E+00 -0.23474061985E+04  0.23474061985E+04  0.25500000920E-02 0.  1.
    10030    2    1    2    0    0  0.00000000000E+00  0.00000000000E+00 -0.10457354968E+04  0.36490769002E+04  0.34960262434E+04 0.  0.
        4    1    3    3  502    0  0.14958905748E+04  0.16816465008E+03  0.40461637375E+03  0.15587443614E+04  0.12699999809E+01 0.  1.
       -4    1    3    3    0  502 -0.14958905748E+04 -0.16816465008E+03 -0.14503518705E+04  0.20903325388E+04  0.12699999809E+01 0. -1.
</event>
<event>
 5   0  0.1072381E-07  0.3435782E+04  0.7818609E-02  0.8129180E-01
        1   -1    0    0  501    0  0.00000000000E+00  0.00000000000E+00  0.23361133842E+04  0.23361133842E+04  0.50400001928E-02 0.  1.
       -1   -1    0    0    0  501  0.00000000000E+00  0.00000000000E+00 -0.12632732409E+04  0.12632732410E+04  0.50400001928E-02 0. -1.
    10030    2    1    2    0    0  0.00000000000E+00  0.00000000000E+00  0.10728401432E+04  0.35993866251E+04  0.34357820222E+04 0.  0.
        1    1    3    3  502    0 -0.12030641289E+04  0.11610231355E+04  0.12289422517E+03  0.16764369985E+04  0.50400001928E-02 0. -1.
       -1    1    3    3    0  502  0.12030641289E+04 -0.11610231355E+04  0.94994591806E+03  0.19229496266E+04  0.50400001928E-02 0.  1.
</event>
<event>
 5   0  0.1013863E-07  0.3497367E+04  0.7818609E-02  0.8114414E-01
        1   -1    0    0  501    0  0.00000000000E+00  0.00000000000E+00  0.20415623342E+04  0.20415623342E+04  0.50400001928E-02 0.  1.
       -1   -1    0    0    0  501  0.00000000000E+00  0.00000000000E+00 -0.14978208557E+04  0.14978208557E+04  0.50400001928E-02 0. -1.
    10030    2    1    2    0    0  0.00000000000E+00  0.00000000000E+00  0.54374147849E+03  0.35393831899E+04  0.34973673770E+04 0.  0.
        5    1    3    3  502    0  0.15363467052E+04  0.64323176350E+03 -0.26722409572E+03  0.16868725819E+04  0.46999998093E+01 0. -1.
       -5    1    3    3    0  502 -0.15363467052E+04 -0.64323176350E+03  0.81096557421E+03  0.18525106080E+04  0.46999998093E+01 0.  1.
</event>
<event>
 5   0  0.1098171E-07  0.3418769E+04  0.7818609E-02  0.8133315E-01
       -1   -1    0    0    0  501  0.00000000000E+00  0.00000000000E+00  0.15370100160E+04  0.15370100160E+04  0.50400001928E-02 0. -1.
        1   -1    0    0  501    0  0.00000000000E+00  0.00000000000E+00 -0.19010911833E+04  0.19010911833E+04  0.50400001928E-02 0.  1.
    10030    2    1    2    0    0  0.00000000000E+00  0.00000000000E+00 -0.36408116725E+03  0.34381011993E+04  0.34187694804E+04 0.  0.
        4    1    3    3  502    0 -0.11085671571E+04  0.67785752024E+01 -0.14905620208E+04  0.18576177868E+04  0.12699999809E+01 0.  1.
       -4    1    3    3    0  502  0.11085671571E+04 -0.67785752024E+01  0.11264808536E+04  0.15804834125E+04  0.12699999809E+01 0. -1.
</event>
<event>
 5   0  0.3219205E-07  0.3493497E+04  0.7818609E-02  0.8115333E-01
        2   -1    0    0  501    0  0.00000000000E+00  0.00000000000E+00  0.15013427974E+04  0.15013427974E+04  0.25500000920E-02 0. -1.
       -2   -1    0    0    0  501  0.00000000000E+00  0.00000000000E+00 -0.20322674340E+04  0.20322674340E+04  0.25500000920E-02 0.  1.
    10030    2    1    2    0    0  0.00000000000E+00  0.00000000000E+00 -0.53092463666E+03  0.35336102314E+04  0.34934968581E+04 0.  0.
        2    1    3    3  502    0 -0.15328918510E+04 -0.78286702823E+03 -0.56635384483E+03  0.18120140420E+04  0.25500000920E-02 0.  1.
       -2    1    3    3    0  502  0.15328918510E+04  0.78286702823E+03  0.35429208163E+02  0.17215961895E+04  0.25500000920E-02 0. -1.
</event>
<event>
 5   0  0.3190185E-07  0.3504430E+04  0.7818609E-02  0.8112741E-01
       -2   -1    0    0    0  501  0.00000000000E+00  0.00000000000E+00  0.15505403612E+04  0.15505403612E+04  0.25500000920E-02 0. -1.
        2   -1    0    0  501    0  0.00000000000E+00  0.00000000000E+00 -0.19801206832E+04  0.19801206832E+04  0.25500000920E-02 0.  1.
    10030    2    1    2    0    0  0.00000000000E+00  0.00000000000E+00 -0.42958032202E+03  0.35306610444E+04  0.35044297906E+04 0.  0.
        1    1    3    3  502    0 -0.71702925143E+03 -0.44777904753E+03  0.13315010246E+04  0.15771911746E+04  0.50400001928E-02 0. -1.
       -1    1    3    3    0  502  0.71702925143E+03  0.44777904753E+03 -0.17610813466E+04  0.19534698698E+04  0.50400001928E-02 0.  1.
</event>
<event>
 5   0  0.1033796E-07  0.3511423E+04  0.7818609E-02  0.8111088E-01
       -1   -1    0    0    0  501  0.00000000000E+00  0.00000000000E+00  0.29553265128E+04  0.29553265129E+04  0.50400001928E-02 0.  1.
        1   -1    0    0  501    0  0.00000000000E+00  0.00000000000E+00 -0.10430395562E+04  0.10430395562E+04  0.50400001928E-02 0. -1.
    10030    2    1    2    0    0  0.00000000000E+00  0.00000000000E+00  0.19122869566E+04  0.39983660691E+04  0.35114227626E+04 0.  0.
        3    1    3    3  502    0  0.60130278993E+03 -0.10298369658E+04  0.24233961508E+04  0.27009217196E+04  0.10100000352E+00 0.  1.
       -3    1    3    3    0  502 -0.60130278993E+03  0.10298369658E+04 -0.51110919422E+03  0.12974443495E+04  0.10100000352E+00 0. -1.
</event>
<event>
 5   0  0.3190112E-07  0.3494821E+04  0.7818609E-02  0.8115018E-01
        2   -1    0    0  501    0  0.00000000000E+00  0.00000000000E+00  0.18749199739E+04  0.18749199739E+04  0.25500000920E-02 0.  1.
       -2   -1    0    0    0  501  0.00000000000E+00  0.00000000000E+00 -0.16285727180E+04  0.16285727180E+04  0.25500000920E-02 0. -1.
    10030    2    1    2    0    0  0.00000000000E+00  0.00000000000E+00  0.24634725589E+03  0.35034926918E+04  0.34948210356E+04 0.  0.
        5    1    3    3  502    0 -0.21853878705E+03  0.13482922292E+04  0.12157266031E+04  0.18285689487E+04  0.46999998093E+01 0.  1.
       -5    1    3    3    0  502  0.21853878705E+03 -0.13482922292E+04 -0.96937934717E+03  0.16749237431E+04  0.46999998093E+01 0. -1.
</event>
<event>
 5   0  0.3119048E-07  0.3497832E+04  0.7818609E-02  0.8114304E-01
       -2   -1    0    0    0  501  0.00000000000E+00  0.00000000000E+00  0.10937958828E+04  0.10937958828E+04  0.25500000920E-02 0.  1.
        2   -1    0    0  501    0  0.00000000000E+00  0.00000000000E+00 -0.27964151643E+04  0.27964151643E+04  0.25500000920E-02 0. -1.
    10030    2    1    2    0    0  0.00000000000E+00  0.00000000000E+00 -0.17026192815E+04  0.38902110471E+04  0.34978321247E+04 0.  0.
        3    1    3    3  502    0  0.23835807703E+03  0.55563385014E+03  0.97386988203E+03  0.11462836061E+04  0.10100000352E+00 0.  1.
       -3    1    3    3    0  502 -0.23835807703E+03 -0.55563385014E+03 -0.26764891636E+04  0.27439274410E+04  0.10100000352E+00 0. -1.
</event>
<event>
 5   0  0.3190112E-07  0.3499049E+04  0.7818609E-02  0.8114015E-01
        2   -1    0    0  501    0  0.00000000000E+00  0.00000000000E+00  0.21111547902E+04  0.21111547902E+04  0.25500000920E-02 0. -1.
       -2   -1    0    0    0  501  0.00000000000E+00  0.00000000000E+00 -0.14498392884E+04  0.14498392884E+04  0.25500000920E-02 0.  1.
    10030    2    1    2    0    0  0.00000000000E+00  0.00000000000E+00  0.66131550179E+03  0.35609940786E+04  0.34990485328E+04 0.  0.
        5    1    3    3  502    0  0.58064327930E+01 -0.12660542484E+04 -0.89814752424E+03  0.15522944759E+04  0.46999998093E+01 0.  1.
       -5    1    3    3    0  502 -0.58064327930E+01  0.12660542484E+04  0.15594630260E+04  0.20086996028E+04  0.46999998093E+01 0. -1.
</event>
<event>
 5   0  0.1098171E-07  0.3459093E+04  0.7818609E-02  0.8123553E-01
        1   -1    0    0  501    0  0.00000000000E+00  0.00000000000E+00  0.21911523767E+04  0.21911523767E+04  0.50400001928E-02 0. -1.
       -1   -1    0    0    0  501  0.00000000000E+00  0.00000000000E+00 -0.13651863110E+04  0.13651863110E+04  0.50400001928E-02 0.  1.
    10030    2    1    2    0    0  0.00000000000E+00  0.00000000000E+00  0.82596606578E+03  0.35563386877E+04  0.34590930777E+04 0.  0.
        4    1    3    3  502    0 -0.13418066281E+04  0.23856077483E+03 -0.68183587560E+03  0.15238956804E+04  0.12699999809E+01 0.  1.
       -4    1    3    3    0  502  0.13418066281E+04 -0.23856077483E+03  0.15078019414E+04  0.20324430073E+04  0.12699999809E+01 0. -1.
</event>
<event>
 5   0  0.2180451E-07  0.3500928E+04  0.7818609E-02  0.8113570E-01
        2   -1    0    0  501    0  0.00000000000E+00  0.00000000000E+00  0.19990689586E+04  0.19990689586E+04  0.25500000920E-02 0. -1.
       -2   -1    0    0    0  501  0.00000000000E+00  0.00000000000E+00 -0.15327753802E+04  0.15327753802E+04  0.25500000920E-02 0.  1.
    10030    2    1    2    0    0  0.00000000000E+00  0.00000000000E+00  0.46629357840E+03  0.35318443389E+04  0.35009276960E+04 0.  0.
        4    1    3    3  502    0 -0.13347090927E+04  0.10944727310E+01 -0.90940608339E+03  0.16150760346E+04  0.12699999809E+01 0.  1.
       -4    1    3    3    0  502  0.13347090927E+04 -0.10944727310E+01  0.13756996618E+04  0.19167683043E+04  0.12699999809E+01 0. -1.
</event>
<event>
 5   0  0.1098171E-07  0.3538057E+04  0.7818609E-02  0.8104830E-01
       -1   -1    0    0    0  501  0.00000000000E+00  0.00000000000E+00  0.14351854124E+04  0.14351854124E+04  0.50400001928E-02 0.  1.
        1   -1    0    0  501    0  0.00000000000E+00  0.00000000000E+00 -0.21805273362E+04  0.21805273362E+04  0.50400001928E-02 0. -1.
    10030    2    1    2    0    0  0.00000000000E+00  0.00000000000E+00 -0.74534192384E+03  0.36157127486E+04  0.35380565423E+04 0.  0.
        4    1    3    3  502    0  0.16194048419E+04 -0.70270465120E+03 -0.25528670267E+03  0.17836588189E+04  0.12699999809E+01 0.  1.
       -4    1    3    3    0  502 -0.16194048419E+04  0.70270465120E+03 -0.49005522117E+03  0.18320539297E+04  0.12699999809E+01 0. -1.
</event>
<event>
 5   0  0.1013863E-07  0.3528734E+04  0.7818609E-02  0.8107014E-01
       -3   -1    0    0    0  501  0.00000000000E+00  0.00000000000E+00  0.12133268798E+04  0.12133268840E+04  0.10100000352E+00 0.  1.
        3   -1    0    0  501    0  0.00000000000E+00  0.00000000000E+00 -0.25656660445E+04  0.25656660465E+04  0.10100000352E+00 0. -1.
    10030    2    1    2    0    0  0.00000000000E+00  0.00000000000E+00 -0.13523391646E+04  0.37789929305E+04  0.35287343840E+04 0.  0.
        3    1    3    3  502    0  0.94444066040E+03  0.60479379515E+03  0.78250388199E+03  0.13674999200E+04  0.10100000352E+00 0.  1.
       -3    1    3    3    0  502 -0.94444066040E+03 -0.60479379515E+03 -0.21348430466E+04  0.24114930105E+04  0.10100000352E+00 0. -1.
</event>
<event>
 5   0  0.1072381E-07  0.3318049E+04  0.7818609E-02  0.8158318E-01
       -1   -1    0    0    0  501  0.00000000000E+00  0.00000000000E+00  0.15515645723E+04  0.15515645724E+04  0.50400001928E-02 0. -1.
        1   -1    0    0  501    0  0.00000000000E+00  0.00000000000E+00 -0.17739272737E+04  0.17739272737E+04  0.50400001928E-02 0.  1.
    10030    2    1    2    0    0  0.00000000000E+00  0.00000000000E+00 -0.22236270132E+03  0.33254918460E+04  0.33180492533E+04 0.  0.
        1    1    3    3  502    0  0.65415519005E+03 -0.15245903151E+04 -0.10291237793E+03  0.16621930090E+04  0.50400001928E-02 0.  1.
       -1    1    3    3    0  502 -0.65415519005E+03  0.15245903151E+04 -0.11945032340E+03  0.16632988371E+04  0.50400001928E-02 0. -1.
</event>
<event>
 5   0  0.1013863E-07  0.3496953E+04  0.7818609E-02  0.8114512E-01
        1   -1    0    0  501    0  0.00000000000E+00  0.00000000000E+00  0.28413785367E+04  0.28413785367E+04  0.50400001928E-02 0.  1.
       -1   -1    0    0    0  501  0.00000000000E+00  0.00000000000E+00 -0.10759461215E+04  0.10759461215E+04  0.50400001928E-02 0. -1.
    10030    2    1    2    0    0  0.00000000000E+00  0.00000000000E+00  0.17654324152E+04  0.39173246583E+04  0.34969530831E+04 0.  0.
        2    1    3    3  502    0  0.10061960411E+04 -0.65844795033E+03  0.23046278357E+04  0.25994794936E+04  0.25500000920E-02 0.  1.
       -2    1    3    3    0  502 -0.10061960411E+04  0.65844795033E+03 -0.53919542053E+03  0.13178451647E+04  0.25500000920E-02 0. -1.
</event>
<event>
 5   0  0.2180451E-07  0.3505701E+04  0.7818609E-02  0.8112440E-01
       -2   -1    0    0    0  501  0.00000000000E+00  0.00000000000E+00  0.26513626300E+04  0.26513626300E+04  0.25500000920E-02 0.  1.
        2   -1    0    0  501    0  0.00000000000E+00  0.00000000000E+00 -0.11588321151E+04  0.11588321151E+04  0.25500000920E-02 0. -1.
    10030    2    1    2    0    0  0.00000000000E+00  0.00000000000E+00  0.14925305149E+04  0.38101947451E+04  0.35057005944E+04 0.  0.
        4    1    3    3  502    0  0.61640830585E+03  0.92449147683E+02  0.25268461413E+04  0.26025869974E+04  0.12699999809E+01 0.  1.
       -4    1    3    3    0  502 -0.61640830585E+03 -0.92449147683E+02 -0.10343156264E+04  0.12076077477E+04  0.12699999809E+01 0. -1.
</event>
<event>
 5   0  0.1013863E-07  0.3531614E+04  0.7818609E-02  0.8106338E-01
        1   -1    0    0  501    0  0.00000000000E+00  0.00000000000E+00  0.15117488628E+04  0.15117488628E+04  0.50400001928E-02 0.  1.
       -1   -1    0    0    0  501  0.00000000000E+00  0.00000000000E+00 -0.20625610867E+04  0.20625610867E+04  0.50400001928E-02 0. -1.
    10030    2    1    2    0    0  0.00000000000E+00  0.00000000000E+00 -0.55081222391E+03  0.35743099495E+04  0.35316140091E+04 0.  0.
        2    1    3    3  502    0 -0.12932743975E+03  0.16585483492E+04  0.32383827867E+03  0.16948095598E+04  0.25500000920E-02 0.  1.
       -2    1    3    3    0  502  0.12932743975E+03 -0.16585483492E+04 -0.87465050258E+03  0.18795003897E+04  0.25500000920E-02 0. -1.
</event>
<event>
 5   0  0.1072381E-07  0.3485144E+04  0.7818609E-02  0.8117320E-01
       -1   -1    0    0    0  501  0.00000000000E+00  0.00000000000E+00  0.17162504869E+04  0.17162504869E+04  0.50400001928E-02 0. -1.
        1   -1    0    0  501    0  0.00000000000E+00  0.00000000000E+00 -0.17692968654E+04  0.17692968654E+04  0.50400001928E-02 0.  1.
    10030    2    1    2    0    0  0.00000000000E+00  0.00000000000E+00 -0.53046378493E+02  0.34855473523E+04  0.34851436737E+04 0.  0.
        1    1    3    3  502    0  0.88074632146E+03 -0.47893719968E+03  0.13989354428E+04  0.17210796894E+04  0.50400001928E-02 0. -1.
       -1    1    3    3    0  502 -0.88074632146E+03  0.47893719968E+03 -0.14519818213E+04  0.17644676629E+04  0.50400001928E-02 0.  1.
</event>
<event>
 5   0  0.3190185E-07  0.3535824E+04  0.7818609E-02  0.8105352E-01
       -2   -1    0    0    0  501  0.00000000000E+00  0.00000000000E+00  0.14402636200E+04  0.14402636200E+04  0.25500000920E-02 0.  1.
        2   -1    0    0  501    0  0.00000000000E+00  0.00000000000E+00 -0.21700972212E+04  0.21700972212E+04  0.25500000920E-02 0. -1.
    10030    2    1    2    0    0  0.00000000000E+00  0.00000000000E+00 -0.72983360115E+03  0.36103608412E+04  0.35358235700E+04 0.  0.
        1    1    3    3  502    0 -0.86583112490E+03  0.86313869488E+03  0.93904755268E+03  0.15415843310E+04  0.50400001928E-02 0.  1.
       -1    1    3    3    0  502  0.86583112490E+03 -0.86313869488E+03 -0.16688811538E+04  0.20687765102E+04  0.50400001928E-02 0. -1.
</event>
<event>
 5   0  0.3190112E-07  0.3503945E+04  0.7818609E-02  0.8112856E-01
       -2   -1    0    0    0  501  0.00000000000E+00  0.00000000000E+00  0.14253626223E+04  0.14253626223E+04  0.25500000920E-02 0.  1.
        2   -1    0    0  501    0  0.00000000000E+00  0.00000000000E+00 -0.21534225370E+04  0.21534225370E+04  0.25500000920E-02 0. -1.
    10030    2    1    2    0    0  0.00000000000E+00  0.00000000000E+00 -0.72805991471E+03  0.35787851592E+04  0.35039452017E+04 0.  0.
        5    1    3    3  502    0 -0.12346726019E+04  0.97951918362E+03  0.41750082522E+03  0.16303997344E+04  0.46999998093E+01 0.  1.
       -5    1    3    3    0  502  0.12346726019E+04 -0.97951918362E+03 -0.11455607399E+04  0.19483854248E+04  0.46999998093E+01 0. -1.
</event>
<event>
 5   0  0.1013863E-07  0.3494156E+04  0.7818609E-02  0.8115176E-01
        1   -1    0    0  501    0  0.00000000000E+00  0.00000000000E+00  0.10454303039E+04  0.10454303040E+04  0.50400001928E-02 0.  1.
       -1   -1    0    0    0  501  0.00000000000E+00  0.00000000000E+00 -0.29196408621E+04  0.29196408621E+04  0.50400001928E-02 0. -1.
    10030    2    1    2    0    0  0.00000000000E+00  0.00000000000E+00 -0.18742105581E+04  0.39650711661E+04  0.34941557114E+04 0.  0.
        2    1    3    3  502    0  0.69206922967E+03  0.31624896936E+03 -0.27217337443E+04  0.28260940897E+04  0.25500000920E-02 0. -1.
       -2    1    3    3    0  502 -0.69206922967E+03 -0.31624896936E+03  0.84752318615E+03  0.11389770763E+04  0.25500000920E-02 0.  1.
</event>
<event>
 5   0  0.2180451E-07  0.3492260E+04  0.7818609E-02  0.8115627E-01
        2   -1    0    0  501    0  0.00000000000E+00  0.00000000000E+00  0.24991233765E+04  0.24991233765E+04  0.25500000920E-02 0.  1.
       -2   -1    0    0    0  501  0.00000000000E+00  0.00000000000E+00 -0.12200158411E+04  0.12200158411E+04  0.25500000920E-02 0. -1.
    10030    2    1    2    0    0  0.00000000000E+00  0.00000000000E+00  0.12791075354E+04  0.37191392177E+04  0.34922600753E+04 0.  0.
        4    1    3    3  502    0  0.14051779421E+04  0.69624723670E+03  0.14573502643E+04  0.21408308362E+04  0.12699999809E+01 0.  1.
       -4    1    3    3    0  502 -0.14051779421E+04 -0.69624723670E+03 -0.17824272892E+03  0.15783083814E+04  0.12699999809E+01 0. -1.
</event>
<event>
 5   0  0.3219205E-07  0.3493964E+04  0.7818609E-02  0.8115222E-01
        2   -1    0    0  501    0  0.00000000000E+00  0.00000000000E+00  0.12230787262E+04  0.12230787262E+04  0.25500000920E-02 0.  1.
       -2   -1    0    0    0  501  0.00000000000E+00  0.00000000000E+00 -0.24952984381E+04  0.24952984381E+04  0.25500000920E-02 0. -1.
    10030    2    1    2    0    0  0.00000000000E+00  0.00000000000E+00 -0.12722197118E+04  0.37183771643E+04  0.34939641871E+04 0.  0.
        2    1    3    3  502    0 -0.57439023352E+03 -0.26863526569E+03  0.10962824285E+04  0.12664612940E+04  0.25500000920E-02 0.  1.
       -2    1    3    3    0  502  0.57439023352E+03  0.26863526569E+03 -0.23685021403E+04  0.24519158703E+04  0.25500000920E-02 0. -1.
</event>
<event>
 5   0  0.1072381E-07  0.3501879E+04  0.7818609E-02  0.8113345E-01
       -1   -1    0    0    0  501  0.00000000000E+00  0.00000000000E+00  0.18057044285E+04  0.18057044285E+04  0.50400001928E-02 0.  1.
        1   -1    0    0  501    0  0.00000000000E+00  0.00000000000E+00 -0.16978359247E+04  0.16978359247E+04  0.50400001928E-02 0. -1.
    10030    2    1    2    0    0  0.00000000000E+00  0.00000000000E+00  0.10786850379E+03  0.35035403532E+04  0.35018794086E+04 0.  0.
        1    1    3    3  502    0 -0.99297040431E+02  0.48776647551E+03 -0.16255560333E+04  0.17000613090E+04  0.50400001928E-02 0. -1.
       -1    1    3    3    0  502  0.99297040431E+02 -0.48776647551E+03  0.17334245371E+04  0.18034790442E+04  0.50400001928E-02 0.  1.
</event>
<event>
 5   0  0.3219205E-07  0.3478290E+04  0.7818609E-02  0.8118954E-01
        2   -1    0    0  501    0  0.00000000000E+00  0.00000000000E+00  0.18696949320E+04  0.18696949320E+04  0.25500000920E-02 0. -1.
       -2   -1    0    0    0  501  0.00000000000E+00  0.00000000000E+00 -0.16177110176E+04  0.16177110176E+04  0.25500000920E-02 0.  1.
    10030    2    1    2    0    0  0.00000000000E+00  0.00000000000E+00  0.25198391438E+03  0.34874059496E+04  0.34782904370E+04 0.  0.
        2    1    3    3  502    0 -0.59251097062E+03  0.99449767954E+03  0.14272882476E+04  0.18377286597E+04  0.25500000920E-02 0. -1.
       -2    1    3    3    0  502  0.59251097062E+03 -0.99449767954E+03 -0.11753043333E+04  0.16496772899E+04  0.25500000920E-02 0.  1.
</event>
<event>
 5   0  0.1013863E-07  0.3515018E+04  0.7818609E-02  0.8110240E-01
        1   -1    0    0  501    0  0.00000000000E+00  0.00000000000E+00  0.12117224027E+04  0.12117224027E+04  0.50400001928E-02 0. -1.
       -1   -1    0    0    0  501  0.00000000000E+00  0.00000000000E+00 -0.25491303531E+04  0.25491303531E+04  0.50400001928E-02 0.  1.
    10030    2    1    2    0    0  0.00000000000E+00  0.00000000000E+00 -0.13374079504E+04  0.37608527558E+04  0.35150182681E+04 0.  0.
        2    1    3    3  502    0  0.62909710689E+02 -0.14378938687E+03 -0.25416172860E+04  0.25464586091E+04  0.25500000920E-02 0.  1.
       -2    1    3    3    0  502 -0.62909710689E+02  0.14378938687E+03  0.12042093356E+04  0.12143941467E+04  0.25500000920E-02 0. -1.
</event>
<event>
 5   0  0.1098171E-07  0.3454066E+04  0.7818609E-02  0.8124763E-01
        1   -1    0    0  501    0  0.00000000000E+00  0.00000000000E+00  0.19347356709E+04  0.19347356709E+04  0.50400001928E-02 0.  1.
       -1   -1    0    0    0  501  0.00000000000E+00  0.00000000000E+00 -0.15416281815E+04  0.15416281815E+04  0.50400001928E-02 0. -1.
    10030    2    1    2    0    0  0.00000000000E+00  0.00000000000E+00  0.39310748938E+03  0.34763638524E+04  0.34540660294E+04 0.  0.
        4    1    3    3  502    0  0.64620905202E+02  0.11595742162E+04 -0.10899205297E+04  0.15927073172E+04  0.12699999809E+01 0. -1.
       -4    1    3    3    0  502 -0.64620905202E+02 -0.11595742162E+04  0.14830280191E+04  0.18836565352E+04  0.12699999809E+01 0.  1.
</event>
<event>
 5   0  0.2180451E-07  0.3476788E+04  0.7818609E-02  0.8119313E-01
        2   -1    0    0  501    0  0.00000000000E+00  0.00000000000E+00  0.23267264053E+04  0.23267264053E+04  0.25500000920E-02 0. -1.
       -2   -1    0    0    0  501  0.00000000000E+00  0.00000000000E+00 -0.12988265935E+04  0.12988265935E+04  0.25500000920E-02 0.  1.
    10030    2    1    2    0    0  0.00000000000E+00  0.00000000000E+00  0.10278998118E+04  0.36255529989E+04  0.34767882485E+04 0.  0.
        4    1    3    3  502    0  0.13824752662E+04  0.77588425080E+03 -0.22985716230E+03  0.16018958019E+04  0.12699999809E+01 0.  1.
       -4    1    3    3    0  502 -0.13824752662E+04 -0.77588425080E+03  0.12577569741E+04  0.20236571970E+04  0.12699999809E+01 0. -1.
</event>
<event>
 5   0  0.3219205E-07  0.3499614E+04  0.7818609E-02  0.8113882E-01
        2   -1    0    0  501    0  0.00000000000E+00  0.00000000000E+00  0.21871409321E+04  0.21871409321E+04  0.25500000920E-02 0.  1.
       -2   -1    0    0    0  501  0.00000000000E+00  0.00000000000E+00 -0.13999206164E+04  0.13999206164E+04  0.25500000920E-02 0. -1.
    10030    2    1    2    0    0  0.00000000000E+00  0.00000000000E+00  0.78722031573E+03  0.35870615485E+04  0.34996135111E+04 0.  0.
        2    1    3    3  502    0  0.61919709850E+03  0.43267472921E+03  0.20114071330E+04  0.21485742070E+04  0.25500000920E-02 0.  1.
       -2    1    3    3    0  502 -0.61919709850E+03 -0.43267472921E+03 -0.12241868173E+04  0.14384873415E+04  0.25500000920E-02 0. -1.
</event>
<event>
 5   0  0.1072381E-07  0.3496732E+04  0.7818609E-02  0.8114565E-01
        1   -1    0    0  501    0  0.00000000000E+00  0.00000000000E+00  0.18224553083E+04  0.18224553083E+04  0.50400001928E-02 0. -1.
       -1   -1    0    0    0  501  0.00000000000E+00  0.00000000000E+00 -0.16772882724E+04  0.16772882724E+04  0.50400001928E-02 0.  1.
    10030    2    1    2    0    0  0.00000000000E+00  0.00000000000E+00  0.14516703584E+03  0.34997435807E+04  0.34967315686E+04 0.  0.
        1    1    3    3  502    0  0.56651164696E+03  0.10628823019E+04 -0.11958394579E+04  0.16972584490E+04  0.50400001928E-02 0.  1.
       -1    1    3    3    0  502 -0.56651164696E+03 -0.10628823019E+04  0.13410064937E+04  0.18024851317E+04  0.50400001928E-02 0. -1.
</event>
<event>
 5   0  0.1013863E-07  0.3380135E+04  0.7818609E-02  0.8142799E-01
       -1   -1    0    0    0  501  0.00000000000E+00  0.00000000000E+00  0.13772181041E+04  0.13772181041E+04  0.50400001928E-02 0. -1.
        1   -1    0    0  501    0  0.00000000000E+00  0.00000000000E+00 -0.20739837975E+04  0.20739837975E+04  0.50400001928E-02 0.  1.
    10030    2    1    2    0    0  0.00000000000E+00  0.00000000000E+00 -0.69676569341E+03  0.34512019017E+04  0.33801349285E+04 0.  0.
        2    1    3    3  502    0  0.16836710372E+04  0.10622249525E+03 -0.45198872193E+03  0.17465180173E+04  0.25500000920E-02 0. -1.
       -2    1    3    3    0  502 -0.16836710372E+04 -0.10622249525E+03 -0.24477697147E+03  0.17046838844E+04  0.25500000920E-02 0.  1.
</event>
<event>
 5   0  0.3190185E-07  0.3496586E+04  0.7818609E-02  0.8114599E-01
       -2   -1    0    0    0  501  0.00000000000E+00  0.00000000000E+00  0.12250703445E+04  0.12250703445E+04  0.25500000920E-02 0.  1.
        2   -1    0    0  501    0  0.00000000000E+00  0.00000000000E+00 -0.24949820120E+04  0.24949820120E+04  0.25500000920E-02 0. -1.
    10030    2    1    2    0    0  0.00000000000E+00  0.00000000000E+00 -0.12699116675E+04  0.37200523565E+04  0.34965860338E+04 0.  0.
        1    1    3    3  502    0  0.16139388079E+03 -0.13591025537E+04  0.52237112922E+03  0.14649502834E+04  0.50400001928E-02 0.  1.
       -1    1    3    3    0  502 -0.16139388079E+03  0.13591025537E+04 -0.17922827968E+04  0.22551020730E+04  0.50400001928E-02 0. -1.
</event>
<event>
 5   0  0.3190112E-07  0.3550563E+04  0.7818609E-02  0.8101911E-01
        2   -1    0    0  501    0  0.00000000000E+00  0.00000000000E+00  0.23104685217E+04  0.23104685217E+04  0.25500000920E-02 0.  1.
       -2   -1    0    0    0  501  0.00000000000E+00  0.00000000000E+00 -0.13640627330E+04  0.13640627330E+04  0.25500000920E-02 0. -1.
    10030    2    1    2    0    0  0.00000000000E+00  0.00000000000E+00  0.94640578874E+03  0.36745312547E+04  0.35505627758E+04 0.  0.
        5    1    3    3  502    0  0.18007012817E+03  0.13455560126E+04  0.16571095109E+04  0.21421905273E+04  0.46999998093E+01 0.  1.
       -5    1    3    3    0  502 -0.18007012817E+03 -0.13455560126E+04 -0.71070372212E+03  0.15323407274E+04  0.46999998093E+01 0. -1.
</event>
<event>
 5   0  0.1072381E-07  0.3498459E+04  0.7818609E-02  0.8114155E-01
       -1   -1    0    0    0  501  0.00000000000E+00  0.00000000000E+00  0.15633544556E+04  0.15633544556E+04  0.50400001928E-02 0. -1.
        1   -1    0    0  501    0  0.00000000000E+00  0.00000000000E+00 -0.19572045891E+04  0.19572045891E+04  0.50400001928E-02 0.  1.
    10030    2    1    2    0    0  0.00000000000E+00  0.00000000000E+00 -0.39385013353E+03  0.35205590448E+04  0.34984593838E+04 0.  0.
        1    1    3    3  502    0  0.10370576373E+04  0.17454549512E+03  0.12097065936E+04  0.16029175636E+04  0.50400001928E-02 0. -1.
       -1    1    3    3    0  502 -0.10370576373E+04 -0.17454549512E+03 -0.16035567272E+04  0.19176414812E+04  0.50400001928E-02 0.  1.
</event>
<event>
 5   0  0.2180451E-07  0.3477685E+04  0.7818609E-02  0.8119099E-01
        2   -1    0    0  501    0  0.00000000000E+00  0.00000000000E+00  0.20653559156E+04  0.20653559156E+04  0.25500000920E-02 0. -1.
       -2   -1    0    0    0  501  0.00000000000E+00  0.00000000000E+00 -0.14639479271E+04  0.14639479271E+04  0.25500000920E-02 0.  1.
    10030    2    1    2    0    0  0.00000000000E+00  0.00000000000E+00  0.60140798853E+03  0.35293038427E+04  0.34776851561E+04 0.  0.
        4    1    3    3  502    0 -0.35727061969E+03  0.13629672825E+04  0.13347734572E+04  0.19408616396E+04  0.12699999809E+01 0. -1.
       -4    1    3    3    0  502  0.35727061969E+03 -0.13629672825E+04 -0.73336546871E+03  0.15884422031E+04  0.12699999809E+01 0.  1.
</event>
<event>
 5   0  0.2180451E-07  0.3471071E+04  0.7818609E-02  0.8120680E-01
        2   -1    0    0  501    0  0.00000000000E+00  0.00000000000E+00  0.28864769434E+04  0.28864769434E+04  0.25500000920E-02 0.  1.
       -2   -1    0    0    0  501  0.00000000000E+00  0.00000000000E+00 -0.10435153781E+04  0.10435153781E+04  0.25500000920E-02 0. -1.
    10030    2    1    2    0    0  0.00000000000E+00  0.00000000000E+00  0.18429615653E+04  0.39299923215E+04  0.34710707736E+04 0.  0.
        4    1    3    3  502    0  0.82116197843E+03 -0.72551138005E+03 -0.60234858374E+03  0.12503996108E+04  0.12699999809E+01 0. -1.
       -4    1    3    3    0  502 -0.82116197843E+03  0.72551138005E+03  0.24453101490E+04  0.26795927107E+04  0.12699999809E+01 0.  1.
</event>
<event>
 5   0  0.2180451E-07  0.3501123E+04  0.7818609E-02  0.8113524E-01
        2   -1    0    0  501    0  0.00000000000E+00  0.00000000000E+00  0.23009375284E+04  0.23009375284E+04  0.25500000920E-02 0. -1.
       -2   -1    0    0    0  501  0.00000000000E+00  0.00000000000E+00 -0.13318334954E+04  0.13318334954E+04  0.25500000920E-02 0.  1.
    10030    2    1    2    0    0  0.00000000000E+00  0.00000000000E+00  0.96910403299E+03  0.36327710237E+04  0.35011230604E+04 0.  0.
        4    1    3    3  502    0 -0.14738485031E+04 -0.70050752752E+03 -0.17293370124E+03  0.16409899099E+04  0.12699999809E+01 0.  1.
       -4    1    3    3    0  502  0.14738485031E+04  0.70050752752E+03  0.11420377342E+04  0.19917811139E+04  0.12699999809E+01 0. -1.
</event>
<event>
 5   0  0.3119048E-07  0.3496963E+04  0.7818609E-02  0.8114510E-01
        2   -1    0    0  501    0  0.00000000000E+00  0.00000000000E+00  0.30567177470E+04  0.30567177470E+04  0.25500000920E-02 0.  1.
       -2   -1    0    0    0  501  0.00000000000E+00  0.00000000000E+00 -0.10001534171E+04  0.10001534172E+04  0.25500000920E-02 0. -1.
    10030    2    1    2    0    0  0.00000000000E+00  0.00000000000E+00  0.20565643298E+04  0.40568711641E+04  0.34969625105E+04 0.  0.
        3    1    3    3  502    0  0.79712906301E+03  0.82415634026E+03 -0.50312756575E+03  0.12521125245E+04  0.10100000352E+00 0. -1.
       -3    1    3    3    0  502 -0.79712906301E+03 -0.82415634026E+03  0.25596918956E+04  0.28047586397E+04  0.10100000352E+00 0.  1.
</event>
<event>
 5   0  0.1072381E-07  0.3507385E+04  0.7818609E-02  0.8112042E-01
        1   -1    0    0  501    0  0.00000000000E+00  0.00000000000E+00  0.14373174842E+04  0.14373174842E+04  0.50400001928E-02 0. -1.
       -1   -1    0    0    0  501  0.00000000000E+00  0.00000000000E+00 -0.21397060268E+04  0.21397060268E+04  0.50400001928E-02 0.  1.
    10030    2    1    2    0    0  0.00000000000E+00  0.00000000000E+00 -0.70238854267E+03  0.35770235110E+04  0.35073847142E+04 0.  0.
        1    1    3    3  502    0  0.17246691894E+04 -0.30930717173E+03 -0.42531565353E+03  0.18030663173E+04  0.50400001928E-02 0. -1.
       -1    1    3    3    0  502 -0.17246691894E+04  0.30930717173E+03 -0.27707288915E+03  0.17739571937E+04  0.50400001928E-02 0.  1.
</event>
<event>
 5   0  0.3219205E-07  0.3503540E+04  0.7818609E-02  0.8112951E-01
       -2   -1    0    0    0  501  0.00000000000E+00  0.00000000000E+00  0.16532347641E+04  0.16532347641E+04  0.25500000920E-02 0. -1.
        2   -1    0    0  501    0  0.00000000000E+00  0.00000000000E+00 -0.18561783117E+04  0.18561783117E+04  0.25500000920E-02 0.  1.
    10030    2    1    2    0    0  0.00000000000E+00  0.00000000000E+00 -0.20294354766E+03  0.35094130758E+04  0.35035402171E+04 0.  0.
        2    1    3    3  502    0 -0.74512528777E+03 -0.88319060417E+03 -0.14202884873E+04  0.18309715249E+04  0.25500000920E-02 0.  1.
       -2    1    3    3    0  502  0.74512528777E+03  0.88319060417E+03  0.12173449396E+04  0.16784415509E+04  0.25500000920E-02 0. -1.
</event>
<event>
 5   0  0.3190185E-07  0.3511613E+04  0.7818609E-02  0.8111043E-01
        2   -1    0    0  501    0  0.00000000000E+00  0.00000000000E+00  0.18139950576E+04  0.18139950576E+04  0.25500000920E-02 0. -1.
       -2   -1    0    0    0  501  0.00000000000E+00  0.00000000000E+00 -0.16994840912E+04  0.16994840912E+04  0.25500000920E-02 0.  1.
    10030    2    1    2    0    0  0.00000000000E+00  0.00000000000E+00  0.11451096645E+03  0.35134791488E+04  0.35116125879E+04 0.  0.
        1    1    3    3  502    0  0.13363096954E+04  0.10463744098E+04  0.50719745806E+03  0.17714040389E+04  0.50400001928E-02 0. -1.
       -1    1    3    3    0  502 -0.13363096954E+04 -0.10463744098E+04 -0.39268649161E+03  0.17420751098E+04  0.50400001928E-02 0.  1.
</event>
<event>
 5   0  0.1013863E-07  0.3505712E+04  0.7818609E-02  0.8112438E-01
       -1   -1    0    0    0  501  0.00000000000E+00  0.00000000000E+00  0.89982347273E+03  0.89982347274E+03  0.50400001928E-02 0.  1.
        1   -1    0    0  501    0  0.00000000000E+00  0.00000000000E+00 -0.34145632070E+04  0.34145632070E+04  0.50400001928E-02 0. -1.
    10030    2    1    2    0    0  0.00000000000E+00  0.00000000000E+00 -0.25147397342E+04  0.43143866797E+04  0.35057119806E+04 0.  0.
        2    1    3    3  502    0  0.13657780127E+04 -0.10131961760E+04 -0.17803525879E+04  0.24620258748E+04  0.25500000920E-02 0. -1.
       -2    1    3    3    0  502 -0.13657780127E+04  0.10131961760E+04 -0.73438714633E+03  0.18523608049E+04  0.25500000920E-02 0.  1.
</event>
<event>
 5   0  0.1013863E-07  0.3495350E+04  0.7818609E-02  0.8114893E-01
       -1   -1    0    0    0  501  0.00000000000E+00  0.00000000000E+00  0.15158260582E+04  0.15158260582E+04  0.50400001928E-02 0.  1.
        1   -1    0    0  501    0  0.00000000000E+00  0.00000000000E+00 -0.20149856661E+04  0.20149856661E+04  0.50400001928E-02 0. -1.
    10030    2    1    2    0    0  0.00000000000E+00  0.00000000000E+00 -0.49915960794E+03  0.35308117243E+04  0.34953499278E+04 0.  0.
        2    1    3    3  502    0  0.36482546971E+02 -0.15392498760E+04  0.58569906850E+03  0.16473204169E+04  0.25500000920E-02 0.  1.
       -2    1    3    3    0  502 -0.36482546971E+02  0.15392498760E+04 -0.10848586764E+04  0.18834913074E+04  0.25500000920E-02 0. -1.
</event>
<event>
 5   0  0.2180451E-07  0.3748912E+04  0.7818609E-02  0.8057208E-01
       -2   -1    0    0    0  501  0.00000000000E+00  0.00000000000E+00  0.13960980543E+04  0.13960980543E+04  0.25500000920E-02 0. -1.
        2   -1    0    0  501    0  0.00000000000E+00  0.00000000000E+00 -0.25167174786E+04  0.25167174786E+04  0.25500000920E-02 0.  1.
    10030    2    1    2    0    0  0.00000000000E+00  0.00000000000E+00 -0.11206194244E+04  0.39128155329E+04  0.37489115088E+04 0.  0.
        4    1    3    3  502    0  0.16207420706E+04 -0.44045161401E+03  0.30841453350E+03  0.17076075724E+04  0.12699999809E+01 0. -1.
       -4    1    3    3    0  502 -0.16207420706E+04  0.44045161401E+03 -0.14290339579E+04  0.22052079606E+04  0.12699999809E+01 0.  1.
</event>
<event>
 5   0  0.2180451E-07  0.3570133E+04  0.7818609E-02  0.8097368E-01
        2   -1    0    0  501    0  0.00000000000E+00  0.00000000000E+00  0.17794674100E+04  0.17794674100E+04  0.25500000920E-02 0. -1.
       -2   -1    0    0    0  501  0.00000000000E+00  0.00000000000E+00 -0.17906829026E+04  0.17906829026E+04  0.25500000920E-02 0.  1.
    10030    2    1    2    0    0  0.00000000000E+00  0.00000000000E+00 -0.11215492542E+02  0.35701503126E+04  0.35701326960E+04 0.  0.
        4    1    3    3  502    0 -0.11711778935E+04  0.83396851749E+03 -0.10635822987E+04  0.17883987434E+04  0.12699999809E+01 0.  1.
       -4    1    3    3    0  502  0.11711778935E+04 -0.83396851749E+03  0.10523668062E+04  0.17817515691E+04  0.12699999809E+01 0. -1.
</event>
<event>
 5   0  0.2180451E-07  0.3506791E+04  0.7818609E-02  0.8112182E-01
       -2   -1    0    0    0  501  0.00000000000E+00  0.00000000000E+00  0.16067702573E+04  0.16067702573E+04  0.25500000920E-02 0. -1.
        2   -1    0    0  501    0  0.00000000000E+00  0.00000000000E+00 -0.19134014788E+04  0.19134014788E+04  0.25500000920E-02 0.  1.
    10030    2    1    2    0    0  0.00000000000E+00  0.00000000000E+00 -0.30663122149E+03  0.35201717361E+04  0.35067914603E+04 0.  0.
        4    1    3    3  502    0  0.15834771198E+04 -0.51901221439E+03  0.39431291994E+03  0.17123836484E+04  0.12699999809E+01 0. -1.
       -4    1    3    3    0  502 -0.15834771198E+04  0.51901221439E+03 -0.70094414142E+03  0.18077880877E+04  0.12699999809E+01 0.  1.
</event>
<event>
 5   0  0.1033796E-07  0.3502204E+04  0.7818609E-02  0.8113268E-01
        1   -1    0    0  501    0  0.00000000000E+00  0.00000000000E+00  0.23184915867E+04  0.23184915867E+04  0.50400001928E-02 0. -1.
       -1   -1    0    0    0  501  0.00000000000E+00  0.00000000000E+00 -0.13225657783E+04  0.13225657783E+04  0.50400001928E-02 0.  1.
    10030    2    1    2    0    0  0.00000000000E+00  0.00000000000E+00  0.99592580834E+03  0.36410573650E+04  0.35022036662E+04 0.  0.
        3    1    3    3  502    0 -0.53118813164E+03 -0.82168588987E+03  0.20077906696E+04  0.22335066411E+04  0.10100000352E+00 0. -1.
       -3    1    3    3    0  502  0.53118813164E+03  0.82168588987E+03 -0.10118648612E+04  0.14075507239E+04  0.10100000352E+00 0.  1.
</event>
<event>
 5   0  0.1013863E-07  0.3407217E+04  0.7818609E-02  0.8136137E-01
       -3   -1    0    0    0  501  0.00000000000E+00  0.00000000000E+00  0.13981222220E+04  0.13981222256E+04  0.10100000352E+00 0.  1.
        3   -1    0    0  501    0  0.00000000000E+00  0.00000000000E+00 -0.20758429092E+04  0.20758429117E+04  0.10100000352E+00 0. -1.
    10030    2    1    2    0    0  0.00000000000E+00  0.00000000000E+00 -0.67772068724E+03  0.34739651373E+04  0.34072171115E+04 0.  0.
        4    1    3    3  502    0 -0.66868175840E+03 -0.11156821142E+04  0.78287359112E+03  0.15181483941E+04  0.12699999809E+01 0. -1.
       -4    1    3    3    0  502  0.66868175840E+03  0.11156821142E+04 -0.14605942784E+04  0.19558167432E+04  0.12699999809E+01 0.  1.
</event>
<event>
 5   0  0.1033796E-07  0.3500798E+04  0.7818609E-02  0.8113601E-01
        1   -1    0    0  501    0  0.00000000000E+00  0.00000000000E+00  0.29070556988E+04  0.29070556988E+04  0.50400001928E-02 0.  1.
       -1   -1    0    0    0  501  0.00000000000E+00  0.00000000000E+00 -0.10539517219E+04  0.10539517219E+04  0.50400001928E-02 0. -1.
    10030    2    1    2    0    0  0.00000000000E+00  0.00000000000E+00  0.18531039770E+04  0.39610074207E+04  0.35007978287E+04 0.  0.
        3    1    3    3  502    0 -0.12175034811E+04 -0.97505184228E+03  0.18252288944E+04  0.24009375979E+04  0.10100000352E+00 0.  1.
       -3    1    3    3    0  502  0.12175034811E+04  0.97505184228E+03  0.27875082529E+02  0.15600698228E+04  0.10100000352E+00 0. -1.
</event>
<event>
 5   0  0.3219205E-07  0.3500151E+04  0.7818609E-02  0.8113754E-01
       -2   -1    0    0    0  501  0.00000000000E+00  0.00000000000E+00  0.18202639789E+04  0.18202639789E+04  0.25500000920E-02 0.  1.
        2   -1    0    0  501    0  0.00000000000E+00  0.00000000000E+00 -0.16825932676E+04  0.16825932676E+04  0.25500000920E-02 0. -1.
    10030    2    1    2    0    0  0.00000000000E+00  0.00000000000E+00  0.13767071130E+03  0.35028572464E+04  0.35001508059E+04 0.  0.
        2    1    3    3  502    0 -0.89964339909E+03  0.14779185039E+04 -0.19435576403E+03  0.17410845795E+04  0.25500000920E-02 0.  1.
       -2    1    3    3    0  502  0.89964339909E+03 -0.14779185039E+04  0.33202647533E+03  0.17617726670E+04  0.25500000920E-02 0. -1.
</event>
<event>
 5   0  0.3190112E-07  0.3487064E+04  0.7818609E-02  0.8116862E-01
        2   -1    0    0  501    0  0.00000000000E+00  0.00000000000E+00  0.12199865245E+04  0.12199865245E+04  0.25500000920E-02 0.  1.
       -2   -1    0    0    0  501  0.00000000000E+00  0.00000000000E+00 -0.24917520693E+04  0.24917520694E+04  0.25500000920E-02 0. -1.
    10030    2    1    2    0    0  0.00000000000E+00  0.00000000000E+00 -0.12717655448E+04  0.37117385939E+04  0.34870640643E+04 0.  0.
        5    1    3    3  502    0 -0.33848948844E+03 -0.64008759893E+03  0.10523712078E+04  0.12774171273E+04  0.46999998093E+01 0.  1.
       -5    1    3    3    0  502  0.33848948844E+03  0.64008759893E+03 -0.23241367526E+04  0.24343214666E+04  0.46999998093E+01 0. -1.
</event>
<event>
 5   0  0.1013863E-07  0.3491128E+04  0.7818609E-02  0.8115896E-01
       -1   -1    0    0    0  501  0.00000000000E+00  0.00000000000E+00  0.13911599641E+04  0.13911599641E+04  0.50400001928E-02 0.  1.
        1   -1    0    0  501    0  0.00000000000E+00  0.00000000000E+00 -0.21902537198E+04  0.21902537198E+04  0.50400001928E-02 0. -1.
    10030    2    1    2    0    0  0.00000000000E+00  0.00000000000E+00 -0.79909375568E+03  0.35814136840E+04  0.34911277756E+04 0.  0.
        2    1    3    3  502    0  0.13495035059E+03  0.84801965605E+02  0.13836797241E+04  0.13928289735E+04  0.25500000920E-02 0.  1.
       -2    1    3    3    0  502 -0.13495035059E+03 -0.84801965605E+02 -0.21827734798E+04  0.21885847104E+04  0.25500000920E-02 0. -1.
</event>
<event>
 5   0  0.1072381E-07  0.3581515E+04  0.7818609E-02  0.8094739E-01
        1   -1    0    0  501    0  0.00000000000E+00  0.00000000000E+00  0.18232043572E+04  0.18232043572E+04  0.50400001928E-02 0.  1.
       -1   -1    0    0    0  501  0.00000000000E+00  0.00000000000E+00 -0.17588885045E+04  0.17588885045E+04  0.50400001928E-02 0. -1.
    10030    2    1    2    0    0  0.00000000000E+00  0.00000000000E+00  0.64315852661E+02  0.35820928617E+04  0.35815154252E+04 0.  0.
        1    1    3    3  502    0 -0.58283302811E+02 -0.12791777610E+04  0.12842065924E+04  0.18135267463E+04  0.50400001928E-02 0.  1.
       -1    1    3    3    0  502  0.58283302811E+02  0.12791777610E+04 -0.12198907397E+04  0.17685661154E+04  0.50400001928E-02 0. -1.
</event>
<event>
 5   0  0.3219205E-07  0.3472455E+04  0.7818609E-02  0.8120349E-01
       -2   -1    0    0    0  501  0.00000000000E+00  0.00000000000E+00  0.13836328066E+04  0.13836328066E+04  0.25500000920E-02 0.  1.
        2   -1    0    0  501    0  0.00000000000E+00  0.00000000000E+00 -0.21786745763E+04  0.21786745763E+04  0.25500000920E-02 0. -1.
    10030    2    1    2    0    0  0.00000000000E+00  0.00000000000E+00 -0.79504176976E+03  0.35623073829E+04  0.34724548197E+04 0.  0.
        2    1    3    3  502    0 -0.10677523920E+04  0.32700781732E+03 -0.17613788170E+04  0.20855418050E+04  0.25500000920E-02 0. -1.
       -2    1    3    3    0  502  0.10677523920E+04 -0.32700781732E+03  0.96633704729E+03  0.14767655779E+04  0.25500000920E-02 0.  1.
</event>
<event>
 5   0  0.2180451E-07  0.3529222E+04  0.7818609E-02  0.8106899E-01
        2   -1    0    0  501    0  0.00000000000E+00  0.00000000000E+00  0.21205794440E+04  0.21205794440E+04  0.25500000920E-02 0. -1.
       -2   -1    0    0    0  501  0.00000000000E+00  0.00000000000E+00 -0.14683967520E+04  0.14683967520E+04  0.25500000920E-02 0.  1.
    10030    2    1    2    0    0  0.00000000000E+00  0.00000000000E+00  0.65218269202E+03  0.35889761959E+04  0.35292219924E+04 0.  0.
        4    1    3    3  502    0 -0.88680807209E+03  0.14792199495E+04 -0.53498106718E+02  0.17255097438E+04  0.12699999809E+01 0. -1.
       -4    1    3    3    0  502  0.88680807209E+03 -0.14792199495E+04  0.70568079874E+03  0.18634664521E+04  0.12699999809E+01 0.  1.
</event>
<event>
 5   0  0.1072381E-07  0.3486530E+04  0.7818609E-02  0.8116990E-01
        1   -1    0    0  501    0  0.00000000000E+00  0.00000000000E+00  0.11207611941E+04  0.11207611941E+04  0.50400001928E-02 0. -1.
       -1   -1    0    0    0  501  0.00000000000E+00  0.00000000000E+00 -0.27115254372E+04  0.27115254372E+04  0.50400001928E-02 0.  1.
    10030    2    1    2    0    0  0.00000000000E+00  0.00000000000E+00 -0.15907642432E+04  0.38322866313E+04  0.34865297858E+04 0.  0.
        1    1    3    3  502    0 -0.46586016084E+03 -0.16640827218E+04 -0.54287086042E+03  0.18113270731E+04  0.50400001928E-02 0.  1.
       -1    1    3    3    0  502  0.46586016084E+03  0.16640827218E+04 -0.10478933827E+04  0.20209595583E+04  0.50400001928E-02 0. -1.
</event>
<event>
 5   0  0.3190185E-07  0.3507550E+04  0.7818609E-02  0.8112003E-01
       -2   -1    0    0    0  501  0.00000000000E+00  0.00000000000E+00  0.17318157311E+04  0.17318157311E+04  0.25500000920E-02 0.  1.
        2   -1    0    0  501    0  0.00000000000E+00  0.00000000000E+00 -0.17760130232E+04  0.17760130232E+04  0.25500000920E-02 0. -1.
    10030    2    1    2    0    0  0.00000000000E+00  0.00000000000E+00 -0.44197292165E+02  0.35078287543E+04  0.35075503088E+04 0.  0.
        1    1    3    3  502    0  0.25211001753E+01  0.13485549440E+04 -0.11434015040E+04  0.17680423616E+04  0.50400001928E-02 0. -1.
       -1    1    3    3    0  502 -0.25211001753E+01 -0.13485549440E+04  0.10992042118E+04  0.17397863927E+04  0.50400001928E-02 0.  1.
</event>
<event>
 5   0  0.1013863E-07  0.3656167E+04  0.7818609E-02  0.8077746E-01
       -1   -1    0    0    0  501  0.00000000000E+00  0.00000000000E+00  0.14176278335E+04  0.14176278335E+04  0.50400001928E-02 0. -1.
        1   -1    0    0  501    0  0.00000000000E+00  0.00000000000E+00 -0.23573815485E+04  0.23573815485E+04  0.50400001928E-02 0.  1.
    10030    2    1    2    0    0  0.00000000000E+00  0.00000000000E+00 -0.93975371497E+03  0.37750093820E+04  0.36561672267E+04 0.  0.
        2    1    3    3  502    0 -0.21434432623E+03 -0.66791205367E+03 -0.22128961724E+04  0.23214132488E+04  0.25500000920E-02 0.  1.
       -2    1    3    3    0  502  0.21434432623E+03  0.66791205367E+03  0.12731424575E+04  0.14535961333E+04  0.25500000920E-02 0. -1.
</event>
<event>
 5   0  0.1098171E-07  0.3495878E+04  0.7818609E-02  0.8114768E-01
        1   -1    0    0  501    0  0.00000000000E+00  0.00000000000E+00  0.17490446123E+04  0.17490446123E+04  0.50400001928E-02 0. -1.
       -1   -1    0    0    0  501  0.00000000000E+00  0.00000000000E+00 -0.17468338058E+04  0.17468338058E+04  0.50400001928E-02 0.  1.
    10030    2    1    2    0    0  0.00000000000E+00  0.00000000000E+00  0.22108064924E+01  0.34958784181E+04  0.34958777190E+04 0.  0.
        4    1    3    3  502    0  0.99499939332E+03  0.84461552577E+03 -0.11616026449E+04  0.17472039082E+04  0.12699999809E+01 0.  1.
       -4    1    3    3    0  502 -0.99499939332E+03 -0.84461552577E+03  0.11638134514E+04  0.17486745099E+04  0.12699999809E+01 0. -1.
</event>
<event>
 5   0  0.1072381E-07  0.3505882E+04  0.7818609E-02  0.8112397E-01
        1   -1    0    0  501    0  0.00000000000E+00  0.00000000000E+00  0.17334375817E+04  0.17334375817E+04  0.50400001928E-02 0.  1.
       -1   -1    0    0    0  501  0.00000000000E+00  0.00000000000E+00 -0.17726634555E+04  0.17726634555E+04  0.50400001928E-02 0. -1.
    10030    2    1    2    0    0  0.00000000000E+00  0.00000000000E+00 -0.39225873845E+02  0.35061010372E+04  0.35058816029E+04 0.  0.
        1    1    3    3  502    0 -0.90456569507E+03 -0.61656890498E+03 -0.13887877938E+04  0.17683686967E+04  0.50400001928E-02 0. -1.
       -1    1    3    3    0  502  0.90456569507E+03  0.61656890498E+03  0.13495619199E+04  0.17377323405E+04  0.50400001928E-02 0.  1.
</event>
<event>
 5   0  0.1072381E-07  0.3536266E+04  0.7818609E-02  0.8105249E-01
        1   -1    0    0  501    0  0.00000000000E+00  0.00000000000E+00  0.16098376534E+04  0.16098376534E+04  0.50400001928E-02 0.  1.
       -1   -1    0    0    0  501  0.00000000000E+00  0.00000000000E+00 -0.19419931820E+04  0.19419931820E+04  0.50400001928E-02 0. -1.
    10030    2    1    2    0    0  0.00000000000E+00  0.00000000000E+00 -0.33215552857E+03  0.35518308354E+04  0.35362656840E+04 0.  0.
        1    1    3    3  502    0 -0.95424601078E+03 -0.23707236161E+02 -0.16609655399E+04  0.19157124019E+04  0.50400001928E-02 0. -1.
       -1    1    3    3    0  502  0.95424601078E+03  0.23707236161E+02  0.13288100113E+04  0.16361184335E+04  0.50400001928E-02 0.  1.
</event>
<event>
 5   0  0.1072381E-07  0.3324897E+04  0.7818609E-02  0.8156589E-01
        1   -1    0    0  501    0  0.00000000000E+00  0.00000000000E+00  0.10647565257E+04  0.10647565257E+04  0.50400001928E-02 0.  1.
       -1   -1    0    0    0  501  0.00000000000E+00  0.00000000000E+00 -0.25956493257E+04  0.25956493257E+04  0.50400001928E-02 0. -1.
    10030    2    1    2    0    0  0.00000000000E+00  0.00000000000E+00 -0.15308928000E+04  0.36604058513E+04  0.33248967249E+04 0.  0.
        1    1    3    3  502    0  0.11563796465E+04 -0.55270316203E+03 -0.19310788068E+04  0.23177057686E+04  0.50400001928E-02 0. -1.
       -1    1    3    3    0  502 -0.11563796465E+04  0.55270316203E+03  0.40018600673E+03  0.13427000827E+04  0.50400001928E-02 0.  1.
</event>
<event>
 5   0  0.1013863E-07  0.3512254E+04  0.7818609E-02  0.8110892E-01
       -1   -1    0    0    0  501  0.00000000000E+00  0.00000000000E+00  0.14306226885E+04  0.14306226885E+04  0.50400001928E-02 0.  1.
        1   -1    0    0  501    0  0.00000000000E+00  0.00000000000E+00 -0.21556917242E+04  0.21556917242E+04  0.50400001928E-02 0. -1.
    10030    2    1    2    0    0  0.00000000000E+00  0.00000000000E+00 -0.72506903573E+03  0.35863144127E+04  0.35122536867E+04 0.  0.
        2    1    3    3  502    0  0.22574815967E+03 -0.16632704566E+04  0.16463750576E+03  0.16865753323E+04  0.25500000920E-02 0. -1.
       -2    1    3    3    0  502 -0.22574815967E+03  0.16632704566E+04 -0.88970654149E+03  0.18997390803E+04  0.25500000920E-02 0.  1.
</event>
<event>
 5   0  0.1098171E-07  0.3482992E+04  0.7818609E-02  0.8117833E-01
        1   -1    0    0  501    0  0.00000000000E+00  0.00000000000E+00  0.10578870261E+04  0.10578870261E+04  0.50400001928E-02 0.  1.
       -1   -1    0    0    0  501  0.00000000000E+00  0.00000000000E+00 -0.28668540437E+04  0.28668540437E+04  0.50400001928E-02 0. -1.
    10030    2    1    2    0    0  0.00000000000E+00  0.00000000000E+00 -0.18089670176E+04  0.39247410698E+04  0.34829916443E+04 0.  0.
        4    1    3    3  502    0  0.71118684622E+03  0.15740011882E+04 -0.65367925944E+03  0.18467714146E+04  0.12699999809E+01 0. -1.
       -4    1    3    3    0  502 -0.71118684622E+03 -0.15740011882E+04 -0.11552877582E+04  0.20779696552E+04  0.12699999809E+01 0.  1.
</event>
<event>
 5   0  0.3219205E-07  0.3505254E+04  0.7818609E-02  0.8112546E-01
        2   -1    0    0  501    0  0.00000000000E+00  0.00000000000E+00  0.20763458356E+04  0.20763458356E+04  0.25500000920E-02 0.  1.
       -2   -1    0    0    0  501  0.00000000000E+00  0.00000000000E+00 -0.14793785494E+04  0.14793785494E+04  0.25500000920E-02 0. -1.
    10030    2    1    2    0    0  0.00000000000E+00  0.00000000000E+00  0.59696728615E+03  0.35557243850E+04  0.35052540509E+04 0.  0.
        2    1    3    3  502    0  0.12656140361E+04  0.69873234007E+03  0.13035553294E+04  0.19466027505E+04  0.25500000920E-02 0.  1.
       -2    1    3    3    0  502 -0.12656140361E+04 -0.69873234007E+03 -0.70658804328E+03  0.16091216344E+04  0.25500000920E-02 0. -1.
</event>
<event>
 5   0  0.3190112E-07  0.3511778E+04  0.7818609E-02  0.8111004E-01
       -2   -1    0    0    0  501  0.00000000000E+00  0.00000000000E+00  0.16511567556E+04  0.16511567556E+04  0.25500000920E-02 0. -1.
        2   -1    0    0  501    0  0.00000000000E+00  0.00000000000E+00 -0.18672646444E+04  0.18672646444E+04  0.25500000920E-02 0.  1.
    10030    2    1    2    0    0  0.00000000000E+00  0.00000000000E+00 -0.21610788886E+03  0.35184214000E+04  0.35117782573E+04 0.  0.
        5    1    3    3  502    0  0.15207125154E+04  0.52661691450E+02  0.76983686858E+03  0.17052890378E+04  0.46999998093E+01 0.  1.
       -5    1    3    3    0  502 -0.15207125154E+04 -0.52661691450E+02 -0.98594475744E+03  0.18131323622E+04  0.46999998093E+01 0. -1.
</event>
<event>
 5   0  0.1033796E-07  0.3497297E+04  0.7818609E-02  0.8114431E-01
       -1   -1    0    0    0  501  0.00000000000E+00  0.00000000000E+00  0.12435269691E+04  0.12435269691E+04  0.50400001928E-02 0.  1.
        1   -1    0    0  501    0  0.00000000000E+00  0.00000000000E+00 -0.24589500821E+04  0.24589500821E+04  0.50400001928E-02 0. -1.
    10030    2    1    2    0    0  0.00000000000E+00  0.00000000000E+00 -0.12154231130E+04  0.37024770512E+04  0.34972965231E+04 0.  0.
        3    1    3    3  502    0  0.10608266109E+04 -0.13880463220E+04 -0.52746867233E+03  0.18248969562E+04  0.10100000352E+00 0. -1.
       -3    1    3    3    0  502 -0.10608266109E+04  0.13880463220E+04 -0.68795444070E+03  0.18775800950E+04  0.10100000352E+00 0.  1.
</event>
<event>
 5   0  0.2180451E-07  0.3510647E+04  0.7818609E-02  0.8111271E-01
        2   -1    0    0  501    0  0.00000000000E+00  0.00000000000E+00  0.31834772314E+04  0.31834772314E+04  0.25500000920E-02 0. -1.
       -2   -1    0    0    0  501  0.00000000000E+00  0.00000000000E+00 -0.96786029111E+03  0.96786029112E+03  0.25500000920E-02 0.  1.
    10030    2    1    2    0    0  0.00000000000E+00  0.00000000000E+00  0.22156169403E+04  0.41513375225E+04  0.35106473477E+04 0.  0.
        4    1    3    3  502    0  0.11995562104E+03  0.13792881912E+04 -0.16815925386E+03  0.13946700014E+04  0.12699999809E+01 0.  1.
       -4    1    3    3    0  502 -0.11995562104E+03 -0.13792881912E+04  0.23837761942E+04  0.27566675211E+04  0.12699999809E+01 0. -1.
</event>
<event>
 5   0  0.2180451E-07  0.3506226E+04  0.7818609E-02  0.8112316E-01
       -2   -1    0    0    0  501  0.00000000000E+00  0.00000000000E+00  0.13132314677E+04  0.13132314677E+04  0.25500000920E-02 0. -1.
        2   -1    0    0  501    0  0.00000000000E+00  0.00000000000E+00 -0.23403382544E+04  0.23403382544E+04  0.25500000920E-02 0.  1.
    10030    2    1    2    0    0  0.00000000000E+00  0.00000000000E+00 -0.10271067867E+04  0.36535697222E+04  0.35062263708E+04 0.  0.
        4    1    3    3  502    0 -0.17063083655E+03 -0.17156662540E+04 -0.18275627569E+03  0.17337897931E+04  0.12699999809E+01 0. -1.
       -4    1    3    3    0  502  0.17063083655E+03  0.17156662540E+04 -0.84435051103E+03  0.19197799290E+04  0.12699999809E+01 0.  1.
</event>
<event>
 5   0  0.3219205E-07  0.3501164E+04  0.7818609E-02  0.8113514E-01
        2   -1    0    0  501    0  0.00000000000E+00  0.00000000000E+00  0.27060383296E+04  0.27060383296E+04  0.25500000920E-02 0. -1.
       -2   -1    0    0    0  501  0.00000000000E+00  0.00000000000E+00 -0.11324812039E+04  0.11324812039E+04  0.25500000920E-02 0.  1.
    10030    2    1    2    0    0  0.00000000000E+00  0.00000000000E+00  0.15735571257E+04  0.38385195335E+04  0.35011641180E+04 0.  0.
        2    1    3    3  502    0  0.44910316568E+03 -0.16918961292E+04  0.76682068262E+03  0.19110782623E+04  0.25500000920E-02 0.  1.
       -2    1    3    3    0  502 -0.44910316568E+03  0.16918961292E+04  0.80673644310E+03  0.19274412712E+04  0.25500000920E-02 0. -1.
</event>
<event>
 5   0  0.3190112E-07  0.3467251E+04  0.7818609E-02  0.8121595E-01
       -2   -1    0    0    0  501  0.00000000000E+00  0.00000000000E+00  0.16271638550E+04  0.16271638550E+04  0.25500000920E-02 0. -1.
        2   -1    0    0  501    0  0.00000000000E+00  0.00000000000E+00 -0.18470529224E+04  0.18470529224E+04  0.25500000920E-02 0.  1.
    10030    2    1    2    0    0  0.00000000000E+00  0.00000000000E+00 -0.21988906744E+03  0.34742167774E+04  0.34672512188E+04 0.  0.
        5    1    3    3  502    0 -0.11427908997E+04 -0.10770507119E+04  0.62598748301E+03  0.16905300042E+04  0.46999998093E+01 0. -1.
       -5    1    3    3    0  502  0.11427908997E+04  0.10770507119E+04 -0.84587655045E+03  0.17836867732E+04  0.46999998093E+01 0.  1.
</event>
<event>
 5   0  0.1013863E-07  0.3498996E+04  0.7818609E-02  0.8114028E-01
       -1   -1    0    0    0  501  0.00000000000E+00  0.00000000000E+00  0.27510867933E+04  0.27510867933E+04  0.50400001928E-02 0.  1.
        1   -1    0    0  501    0  0.00000000000E+00  0.00000000000E+00 -0.11125576532E+04  0.11125576532E+04  0.50400001928E-02 0. -1.
    10030    2    1    2    0    0  0.00000000000E+00  0.00000000000E+00  0.16385291401E+04  0.38636444465E+04  0.34989956653E+04 0.  0.
        2    1    3    3  502    0 -0.26144004086E+03 -0.12286449390E+04  0.21638811507E+04  0.25020593349E+04  0.25500000920E-02 0.  1.
       -2    1    3    3    0  502  0.26144004086E+03  0.12286449390E+04 -0.52535201059E+03  0.13615851116E+04  0.25500000920E-02 0. -1.
</event>
<event>
 5   0  0.3190185E-07  0.3506726E+04  0.7818609E-02  0.8112198E-01
       -2   -1    0    0    0  501  0.00000000000E+00  0.00000000000E+00  0.11071989062E+04  0.11071989062E+04  0.25500000920E-02 0. -1.
        2   -1    0    0  501    0  0.00000000000E+00  0.00000000000E+00 -0.27766307118E+04  0.27766307118E+04  0.25500000920E-02 0.  1.
    10030    2    1    2    0    0  0.00000000000E+00  0.00000000000E+00 -0.16694318056E+04  0.38838296180E+04  0.35067263862E+04 0.  0.
        1    1    3    3  502    0 -0.36433498211E+03 -0.13245021074E+04 -0.20414926689E+04  0.24606377484E+04  0.50400001928E-02 0. -1.
       -1    1    3    3    0  502  0.36433498211E+03  0.13245021074E+04  0.37206086325E+03  0.14231918696E+04  0.50400001928E-02 0.  1.
</event>
<event>
 5   0  0.1098171E-07  0.3523767E+04  0.7818609E-02  0.8108180E-01
       -1   -1    0    0    0  501  0.00000000000E+00  0.00000000000E+00  0.14889026290E+04  0.14889026290E+04  0.50400001928E-02 0. -1.
        1   -1    0    0  501    0  0.00000000000E+00  0.00000000000E+00 -0.20849139385E+04  0.20849139385E+04  0.50400001928E-02 0.  1.
    10030    2    1    2    0    0  0.00000000000E+00  0.00000000000E+00 -0.59601130947E+03  0.35738165675E+04  0.35237672138E+04 0.  0.
        4    1    3    3  502    0 -0.12452965994E+04 -0.12358930162E+04 -0.46165755374E+03  0.18142007821E+04  0.12699999809E+01 0.  1.
       -4    1    3    3    0  502  0.12452965994E+04  0.12358930162E+04 -0.13435375573E+03  0.17596157854E+04  0.12699999809E+01 0. -1.
</event>
<event>
 5   0  0.3190112E-07  0.3499279E+04  0.7818609E-02  0.8113961E-01
        2   -1    0    0  501    0  0.00000000000E+00  0.00000000000E+00  0.20322677437E+04  0.20322677437E+04  0.25500000920E-02 0.  1.
       -2   -1    0    0    0  501  0.00000000000E+00  0.00000000000E+00 -0.15063161480E+04  0.15063161480E+04  0.25500000920E-02 0. -1.
    10030    2    1    2    0    0  0.00000000000E+00  0.00000000000E+00  0.52595159566E+03  0.35385838917E+04  0.34992786225E+04 0.  0.
        5    1    3    3  502    0 -0.12744884633E+03  0.16328717110E+04 -0.35932448632E+03  0.16767973668E+04  0.46999998093E+01 0. -1.
       -5    1    3    3    0  502  0.12744884633E+03 -0.16328717110E+04  0.88527608197E+03  0.18617865249E+04  0.46999998093E+01 0.  1.
</event>
<event>
 5   0  0.1072381E-07  0.3498804E+04  0.7818609E-02  0.8114073E-01
       -1   -1    0    0    0  501  0.00000000000E+00  0.00000000000E+00  0.16545788018E+04  0.16545788018E+04  0.50400001928E-02 0.  1.
        1   -1    0    0  501    0  0.00000000000E+00  0.00000000000E+00 -0.18496594458E+04  0.18496594458E+04  0.50400001928E-02 0. -1.
    10030    2    1    2    0    0  0.00000000000E+00  0.00000000000E+00 -0.19508064402E+03  0.35042382477E+04  0.34988039726E+04 0.  0.
        1    1    3    3  502    0  0.81843555183E+03  0.11653054746E+04  0.92022386129E+03  0.16954602787E+04  0.50400001928E-02 0.  1.
       -1    1    3    3    0  502 -0.81843555183E+03 -0.11653054746E+04 -0.11153045053E+04  0.18087779690E+04  0.50400001928E-02 0. -1.
</event>
<event>
 5   0  0.1013863E-07  0.3557918E+04  0.7818609E-02  0.8100200E-01
       -1   -1    0    0    0  501  0.00000000000E+00  0.00000000000E+00  0.15357493871E+04  0.15357493871E+04  0.50400001928E-02 0. -1.
        1   -1    0    0  501    0  0.00000000000E+00  0.00000000000E+00 -0.20606843440E+04  0.20606843440E+04  0.50400001928E-02 0.  1.
    10030    2    1    2    0    0  0.00000000000E+00  0.00000000000E+00 -0.52493495698E+03  0.35964337311E+04  0.35579177721E+04 0.  0.
        5    1    3    3  502    0 -0.10022952481E+04  0.18539226167E+03 -0.17362310358E+04  0.20133271852E+04  0.46999998093E+01 0.  1.
       -5    1    3    3    0  502  0.10022952481E+04 -0.18539226167E+03  0.12112960788E+04  0.15831065459E+04  0.46999998093E+01 0. -1.
</event>
<event>
 5   0  0.3190112E-07  0.3501440E+04  0.7818609E-02  0.8113449E-01
       -2   -1    0    0    0  501  0.00000000000E+00  0.00000000000E+00  0.12680565301E+04  0.12680565301E+04  0.25500000920E-02 0. -1.
        2   -1    0    0  501    0  0.00000000000E+00  0.00000000000E+00 -0.24171004292E+04  0.24171004292E+04  0.25500000920E-02 0.  1.
    10030    2    1    2    0    0  0.00000000000E+00  0.00000000000E+00 -0.11490438991E+04  0.36851569593E+04  0.35014396943E+04 0.  0.
        5    1    3    3  502    0 -0.40895435977E+03 -0.17022716010E+04 -0.57984926298E+03  0.18442395533E+04  0.46999998093E+01 0.  1.
       -5    1    3    3    0  502  0.40895435977E+03  0.17022716010E+04 -0.56919463610E+03  0.18409174060E+04  0.46999998093E+01 0. -1.
</event>
<event>
 5   0  0.2180451E-07  0.3482608E+04  0.7818609E-02  0.8117924E-01
        2   -1    0    0  501    0  0.00000000000E+00  0.00000000000E+00  0.28395816461E+04  0.28395816461E+04  0.25500000920E-02 0.  1.
       -2   -1    0    0    0  501  0.00000000000E+00  0.00000000000E+00 -0.10678119148E+04  0.10678119148E+04  0.25500000920E-02 0. -1.
    10030    2    1    2    0    0  0.00000000000E+00  0.00000000000E+00  0.17717697313E+04  0.39073935609E+04  0.34826077096E+04 0.  0.
        4    1    3    3  502    0 -0.32519770993E+03 -0.17050833737E+04  0.10408417144E+04  0.20239604613E+04  0.12699999809E+01 0. -1.
       -4    1    3    3    0  502  0.32519770993E+03  0.17050833737E+04  0.73092801693E+03  0.18834330995E+04  0.12699999809E+01 0.  1.
</event>
<event>
 5   0  0.3119048E-07  0.3493433E+04  0.7818609E-02  0.8115348E-01
       -2   -1    0    0    0  501  0.00000000000E+00  0.00000000000E+00  0.12194959056E+04  0.12194959056E+04  0.25500000920E-02 0. -1.
        2   -1    0    0  501    0  0.00000000000E+00  0.00000000000E+00 -0.25018688617E+04  0.25018688617E+04  0.25500000920E-02 0.  1.
    10030    2    1    2    0    0  0.00000000000E+00  0.00000000000E+00 -0.12823729561E+04  0.37213647673E+04  0.34934331728E+04 0.  0.
        3    1    3    3  502    0 -0.15575578262E+04  0.37725391593E+03  0.98919334563E+02  0.16056437787E+04  0.10100000352E+00 0. -1.
       -3    1    3    3    0  502  0.15575578262E+04 -0.37725391593E+03 -0.13812922906E+04  0.21157209886E+04  0.10100000352E+00 0.  1.
</event>
<event>
 5   0  0.1072381E-07  0.3323818E+04  0.7818609E-02  0.8156861E-01
        1   -1    0    0  501    0  0.00000000000E+00  0.00000000000E+00  0.22752030444E+04  0.22752030444E+04  0.50400001928E-02 0.  1.
       -1   -1    0    0    0  501  0.00000000000E+00  0.00000000000E+00 -0.12139319731E+04  0.12139319731E+04  0.50400001928E-02 0. -1.
    10030    2    1    2    0    0  0.00000000000E+00  0.00000000000E+00  0.10612710713E+04  0.34891350175E+04  0.33238181183E+04 0.  0.
        1    1    3    3  502    0 -0.45821459353E+03  0.15052984101E+04 -0.30809730633E+02  0.15737957798E+04  0.50400001928E-02 0.  1.
       -1    1    3    3    0  502  0.45821459353E+03 -0.15052984101E+04  0.10920808020E+04  0.19153392376E+04  0.50400001928E-02 0. -1.
</event>
<event>
 5   0  0.1013863E-07  0.3494554E+04  0.7818609E-02  0.8115082E-01
       -1   -1    0    0    0  501  0.00000000000E+00  0.00000000000E+00  0.23982885342E+04  0.23982885342E+04  0.50400001928E-02 0.  1.
        1   -1    0    0  501    0  0.00000000000E+00  0.00000000000E+00 -0.12729816298E+04  0.12729816298E+04  0.50400001928E-02 0. -1.
    10030    2    1    2    0    0  0.00000000000E+00  0.00000000000E+00  0.11253069044E+04  0.36712701640E+04  0.34945541902E+04 0.  0.
        2    1    3    3  502    0 -0.16065465899E+04  0.68635086230E+03  0.53100018320E+03  0.18259328153E+04  0.25500000920E-02 0.  1.
       -2    1    3    3    0  502  0.16065465899E+04 -0.68635086230E+03  0.59430672117E+03  0.18453373487E+04  0.25500000920E-02 0. -1.
</event>
<event>
 5   0  0.1013863E-07  0.3482892E+04  0.7818609E-02  0.8117856E-01
        1   -1    0    0  501    0  0.00000000000E+00  0.00000000000E+00  0.22114475464E+04  0.22114475464E+04  0.50400001928E-02 0.  1.
       -1   -1    0    0    0  501  0.00000000000E+00  0.00000000000E+00 -0.13713346112E+04  0.13713346112E+04  0.50400001928E-02 0. -1.
    10030    2    1    2    0    0  0.00000000000E+00  0.00000000000E+00  0.84011293520E+03  0.35827821576E+04  0.34828922241E+04 0.  0.
        5    1    3    3  502    0 -0.53961849462E+03 -0.79685338309E+03 -0.10729299104E+04  0.14413063923E+04  0.46999998093E+01 0. -1.
       -5    1    3    3    0  502  0.53961849462E+03  0.79685338309E+03  0.19130428456E+04  0.21414757652E+04  0.46999998093E+01 0.  1.
</event>
<event>
 5   0  0.1098171E-07  0.3507182E+04  0.7818609E-02  0.8112090E-01
       -1   -1    0    0    0  501  0.00000000000E+00  0.00000000000E+00  0.12156293617E+04  0.12156293618E+04  0.50400001928E-02 0. -1.
        1   -1    0    0  501    0  0.00000000000E+00  0.00000000000E+00 -0.25296207214E+04  0.25296207214E+04  0.50400001928E-02 0.  1.
    10030    2    1    2    0    0  0.00000000000E+00  0.00000000000E+00 -0.13139913596E+04  0.37452500831E+04  0.35071819018E+04 0.  0.
        4    1    3    3  502    0 -0.16833981140E+04 -0.48238452736E+03 -0.75577065953E+03  0.19072794617E+04  0.12699999809E+01 0.  1.
       -4    1    3    3    0  502  0.16833981140E+04  0.48238452736E+03 -0.55822070012E+03  0.18379706214E+04  0.12699999809E+01 0. -1.
</event>
<event>
 5   0  0.1013863E-07  0.3491960E+04  0.7818609E-02  0.8115698E-01
       -1   -1    0    0    0  501  0.00000000000E+00  0.00000000000E+00  0.15976246001E+04  0.15976246002E+04  0.50400001928E-02 0.  1.
        1   -1    0    0  501    0  0.00000000000E+00  0.00000000000E+00 -0.19081117121E+04  0.19081117121E+04  0.50400001928E-02 0. -1.
    10030    2    1    2    0    0  0.00000000000E+00  0.00000000000E+00 -0.31048711191E+03  0.35057363122E+04  0.34919600290E+04 0.  0.
        2    1    3    3  502    0 -0.10401597489E+04  0.11784184965E+04  0.60791573375E+03  0.16852786107E+04  0.25500000920E-02 0.  1.
       -2    1    3    3    0  502  0.10401597489E+04 -0.11784184965E+04 -0.91840284565E+03  0.18204577016E+04  0.25500000920E-02 0. -1.
</event>
<event>
 5   0  0.1033796E-07  0.3483477E+04  0.7818609E-02  0.8117717E-01
        1   -1    0    0  501    0  0.00000000000E+00  0.00000000000E+00  0.20405594518E+04  0.20405594518E+04  0.50400001928E-02 0. -1.
       -1   -1    0    0    0  501  0.00000000000E+00  0.00000000000E+00 -0.14866771088E+04  0.14866771088E+04  0.50400001928E-02 0.  1.
    10030    2    1    2    0    0  0.00000000000E+00  0.00000000000E+00  0.55388234303E+03  0.35272365606E+04  0.34834770136E+04 0.  0.
        3    1    3    3  502    0 -0.53984470900E+03  0.13445463523E+04  0.12557361393E+04  0.19173185612E+04  0.10100000352E+00 0. -1.
       -3    1    3    3    0  502  0.53984470900E+03 -0.13445463523E+04 -0.70185379625E+03  0.16099179994E+04  0.10100000352E+00 0.  1.
</event>
<event>
 5   0  0.2180451E-07  0.3488358E+04  0.7818609E-02  0.8116554E-01
       -2   -1    0    0    0  501  0.00000000000E+00  0.00000000000E+00  0.14145534538E+04  0.14145534538E+04  0.25500000920E-02 0.  1.
        2   -1    0    0  501    0  0.00000000000E+00  0.00000000000E+00 -0.21506159458E+04  0.21506159458E+04  0.25500000920E-02 0. -1.
    10030    2    1    2    0    0  0.00000000000E+00  0.00000000000E+00 -0.73606249208E+03  0.35651693996E+04  0.34883584758E+04 0.  0.
        4    1    3    3  502    0 -0.83361121205E+03  0.34471605142E+03 -0.18936915902E+04  0.20975715150E+04  0.12699999809E+01 0. -1.
       -4    1    3    3    0  502  0.83361121205E+03 -0.34471605142E+03  0.11576290981E+04  0.14675978845E+04  0.12699999809E+01 0.  1.
</event>
<event>
 5   0  0.1013863E-07  0.3374074E+04  0.7818609E-02  0.8144299E-01
        1   -1    0    0  501    0  0.00000000000E+00  0.00000000000E+00  0.10310727470E+04  0.10310727470E+04  0.50400001928E-02 0.  1.
       -1   -1    0    0    0  501  0.00000000000E+00  0.00000000000E+00 -0.27603233433E+04  0.27603233433E+04  0.50400001928E-02 0. -1.
    10030    2    1    2    0    0  0.00000000000E+00  0.00000000000E+00 -0.17292505963E+04  0.37913960903E+04  0.33740741973E+04 0.  0.
        5    1    3    3  502    0 -0.14056652376E+04  0.91734249926E+03 -0.67439351198E+03  0.18089335864E+04  0.46999998093E+01 0.  1.
       -5    1    3    3    0  502  0.14056652376E+04 -0.91734249926E+03 -0.10548570843E+04  0.19824625039E+04  0.46999998093E+01 0. -1.
</event>
<event>
 5   0  0.3219205E-07  0.3519435E+04  0.7818609E-02  0.8109200E-01
       -2   -1    0    0    0  501  0.00000000000E+00  0.00000000000E+00  0.15239269257E+04  0.15239269257E+04  0.25500000920E-02 0. -1.
        2   -1    0    0  501    0  0.00000000000E+00  0.00000000000E+00 -0.20319907305E+04  0.20319907305E+04  0.25500000920E-02 0.  1.
    10030    2    1    2    0    0  0.00000000000E+00  0.00000000000E+00 -0.50806380476E+03  0.35559176562E+04  0.35194348336E+04 0.  0.
        2    1    3    3  502    0  0.64570925627E+03  0.87178227534E+03  0.11458486942E+04  0.15779461364E+04  0.25500000920E-02 0. -1.
       -2    1    3    3    0  502 -0.64570925627E+03 -0.87178227534E+03 -0.16539124990E+04  0.19779715199E+04  0.25500000920E-02 0.  1.
</event>
<event>
 5   0  0.1013863E-07  0.3525166E+04  0.7818609E-02  0.8107852E-01
       -1   -1    0    0    0  501  0.00000000000E+00  0.00000000000E+00  0.11020908137E+04  0.11020908138E+04  0.50400001928E-02 0.  1.
        1   -1    0    0  501    0  0.00000000000E+00  0.00000000000E+00 -0.28189138364E+04  0.28189138364E+04  0.50400001928E-02 0. -1.
    10030    2    1    2    0    0  0.00000000000E+00  0.00000000000E+00 -0.17168230227E+04  0.39210046502E+04  0.35251661203E+04 0.  0.
        2    1    3    3  502    0 -0.23091672759E+03  0.16567715395E+04 -0.14761924386E+04  0.22309994587E+04  0.25500000920E-02 0. -1.
       -2    1    3    3    0  502  0.23091672759E+03 -0.16567715395E+04 -0.24063058411E+03  0.16900051915E+04  0.25500000920E-02 0.  1.
</event>
<event>
 5   0  0.3119048E-07  0.3487971E+04  0.7818609E-02  0.8116646E-01
       -2   -1    0    0    0  501  0.00000000000E+00  0.00000000000E+00  0.29686958876E+04  0.29686958876E+04  0.25500000920E-02 0.  1.
        2   -1    0    0  501    0  0.00000000000E+00  0.00000000000E+00 -0.10245192897E+04  0.10245192897E+04  0.25500000920E-02 0. -1.
    10030    2    1    2    0    0  0.00000000000E+00  0.00000000000E+00  0.19441765979E+04  0.39932151773E+04  0.34879714460E+04 0.  0.
        3    1    3    3  502    0  0.33516100781E+03  0.17018241547E+04  0.11798967699E+04  0.20977832950E+04  0.10100000352E+00 0.  1.
       -3    1    3    3    0  502 -0.33516100781E+03 -0.17018241547E+04  0.76427982793E+03  0.18954318823E+04  0.10100000352E+00 0. -1.
</event>
<event>
 5   0  0.1098171E-07  0.3513023E+04  0.7818609E-02  0.8110711E-01
       -1   -1    0    0    0  501  0.00000000000E+00  0.00000000000E+00  0.11569795576E+04  0.11569795576E+04  0.50400001928E-02 0.  1.
        1   -1    0    0  501    0  0.00000000000E+00  0.00000000000E+00 -0.26667136458E+04  0.26667136458E+04  0.50400001928E-02 0. -1.
    10030    2    1    2    0    0  0.00000000000E+00  0.00000000000E+00 -0.15097340882E+04  0.38236932034E+04  0.35130232986E+04 0.  0.
        4    1    3    3  502    0  0.99357473658E+03 -0.11057201080E+03 -0.23268588378E+04  0.25325265232E+04  0.12699999809E+01 0.  1.
       -4    1    3    3    0  502 -0.99357473658E+03  0.11057201080E+03  0.81712474957E+03  0.12911666802E+04  0.12699999809E+01 0. -1.
</event>
<event>
 5   0  0.3190185E-07  0.3501581E+04  0.7818609E-02  0.8113415E-01
        2   -1    0    0  501    0  0.00000000000E+00  0.00000000000E+00  0.27847889181E+04  0.27847889181E+04  0.25500000920E-02 0. -1.
       -2   -1    0    0    0  501  0.00000000000E+00  0.00000000000E+00 -0.11007180333E+04  0.11007180333E+04  0.25500000920E-02 0.  1.
    10030    2    1    2    0    0  0.00000000000E+00  0.00000000000E+00  0.16840708848E+04  0.38855069514E+04  0.35015810036E+04 0.  0.
        1    1    3    3  502    0 -0.11062573398E+04 -0.13565798748E+04  0.80435454212E+03  0.19264216797E+04  0.50400001928E-02 0. -1.
       -1    1    3    3    0  502  0.11062573398E+04  0.13565798748E+04  0.87971634264E+03  0.19590852718E+04  0.50400001928E-02 0.  1.
</event>
<event>
 5   0  0.1033796E-07  0.3513179E+04  0.7818609E-02  0.8110674E-01
       -1   -1    0    0    0  501  0.00000000000E+00  0.00000000000E+00  0.14977675206E+04  0.14977675206E+04  0.50400001928E-02 0. -1.
        1   -1    0    0  501    0  0.00000000000E+00  0.00000000000E+00 -0.20601373923E+04  0.20601373923E+04  0.50400001928E-02 0.  1.
    10030    2    1    2    0    0  0.00000000000E+00  0.00000000000E+00 -0.56236987170E+03  0.35579049130E+04  0.35131791155E+04 0.  0.
        3    1    3    3  502    0  0.14678161576E+04 -0.95557395950E+03 -0.14530906078E+03  0.17574756323E+04  0.10100000352E+00 0.  1.
       -3    1    3    3    0  502 -0.14678161576E+04  0.95557395950E+03 -0.41706081092E+03  0.18004292807E+04  0.10100000352E+00 0. -1.
</event>
<event>
 5   0  0.1013863E-07  0.3497312E+04  0.7818609E-02  0.8114427E-01
       -1   -1    0    0    0  501  0.00000000000E+00  0.00000000000E+00  0.23056110421E+04  0.23056110421E+04  0.50400001928E-02 0. -1.
        1   -1    0    0  501    0  0.00000000000E+00  0.00000000000E+00 -0.13262418466E+04  0.13262418466E+04  0.50400001928E-02 0.  1.
    10030    2    1    2    0    0  0.00000000000E+00  0.00000000000E+00  0.97936919549E+03  0.36318528887E+04  0.34973120227E+04 0.  0.
        5    1    3    3  502    0 -0.99108755435E+03  0.12388091453E+04  0.12534176147E+04  0.20218754773E+04  0.46999998093E+01 0. -1.
       -5    1    3    3    0  502  0.99108755435E+03 -0.12388091453E+04 -0.27404841923E+03  0.16099774113E+04  0.46999998093E+01 0.  1.
</event>
<event>
 5   0  0.1072381E-07  0.3500340E+04  0.7818609E-02  0.8113709E-01
       -1   -1    0    0    0  501  0.00000000000E+00  0.00000000000E+00  0.27826890805E+04  0.27826890805E+04  0.50400001928E-02 0.  1.
        1   -1    0    0  501    0  0.00000000000E+00  0.00000000000E+00 -0.11007677218E+04  0.11007677218E+04  0.50400001928E-02 0. -1.
    10030    2    1    2    0    0  0.00000000000E+00  0.00000000000E+00  0.16819213588E+04  0.38834568023E+04  0.35003395947E+04 0.  0.
        1    1    3    3  502    0 -0.97245749061E+03 -0.13969796707E+04  0.38911480677E+03  0.17460343938E+04  0.50400001928E-02 0. -1.
       -1    1    3    3    0  502  0.97245749061E+03  0.13969796707E+04  0.12928065520E+04  0.21374224085E+04  0.50400001928E-02 0.  1.
</event>
<event>
 5   0  0.3119048E-07  0.3511595E+04  0.7818609E-02  0.8111048E-01
        2   -1    0    0  501    0  0.00000000000E+00  0.00000000000E+00  0.22388086511E+04  0.22388086511E+04  0.25500000920E-02 0. -1.
       -2   -1    0    0    0  501  0.00000000000E+00  0.00000000000E+00 -0.13769933763E+04  0.13769933763E+04  0.25500000920E-02 0.  1.
    10030    2    1    2    0    0  0.00000000000E+00  0.00000000000E+00  0.86181527474E+03  0.36158020274E+04  0.35115948988E+04 0.  0.
        3    1    3    3  502    0 -0.34985134329E+03  0.13469203570E+04 -0.67148658253E+03  0.15451487473E+04  0.10100000352E+00 0.  1.
       -3    1    3    3    0  502  0.34985134329E+03 -0.13469203570E+04  0.15333018573E+04  0.20706532801E+04  0.10100000352E+00 0. -1.
</event>
<event>
 5   0  0.3190185E-07  0.3493210E+04  0.7818609E-02  0.8115401E-01
        2   -1    0    0  501    0  0.00000000000E+00  0.00000000000E+00  0.20851774399E+04  0.20851774399E+04  0.25500000920E-02 0. -1.
       -2   -1    0    0    0  501  0.00000000000E+00  0.00000000000E+00 -0.14630065847E+04  0.14630065847E+04  0.25500000920E-02 0.  1.
    10030    2    1    2    0    0  0.00000000000E+00  0.00000000000E+00  0.62217085520E+03  0.35481840245E+04  0.34932095985E+04 0.  0.
        1    1    3    3  502    0 -0.74294499300E+03  0.15025284934E+04  0.80980032840E+03  0.18615412184E+04  0.50400001928E-02 0. -1.
       -1    1    3    3    0  502  0.74294499300E+03 -0.15025284934E+04 -0.18762947320E+03  0.16866428061E+04  0.50400001928E-02 0.  1.
</event>
<event>
 5   0  0.2180451E-07  0.3579605E+04  0.7818609E-02  0.8095179E-01
       -2   -1    0    0    0  501  0.00000000000E+00  0.00000000000E+00  0.24634287862E+04  0.24634287862E+04  0.25500000920E-02 0. -1.
        2   -1    0    0  501    0  0.00000000000E+00  0.00000000000E+00 -0.13003797891E+04  0.13003797891E+04  0.25500000920E-02 0.  1.
    10030    2    1    2    0    0  0.00000000000E+00  0.00000000000E+00  0.11630489972E+04  0.37638085753E+04  0.35796050091E+04 0.  0.
        4    1    3    3  502    0 -0.12644964125E+04 -0.12544209692E+04  0.76625916736E+03  0.19389888781E+04  0.12699999809E+01 0.  1.
       -4    1    3    3    0  502  0.12644964125E+04  0.12544209692E+04  0.39678982979E+03  0.18248196971E+04  0.12699999809E+01 0. -1.
</event>
<event>
 5   0  0.1013863E-07  0.3482809E+04  0.7818609E-02  0.8117876E-01
        1   -1    0    0  501    0  0.00000000000E+00  0.00000000000E+00  0.22394531520E+04  0.22394531520E+04  0.50400001928E-02 0. -1.
       -1   -1    0    0    0  501  0.00000000000E+00  0.00000000000E+00 -0.13541205564E+04  0.13541205564E+04  0.50400001928E-02 0.  1.
    10030    2    1    2    0    0  0.00000000000E+00  0.00000000000E+00  0.88533259557E+03  0.35935737084E+04  0.34828089516E+04 0.  0.
        2    1    3    3  502    0 -0.59770557505E+03  0.13435385578E+04 -0.51981412705E+03  0.15596648799E+04  0.25500000920E-02 0.  1.
       -2    1    3    3    0  502  0.59770557505E+03 -0.13435385578E+04  0.14051467226E+04  0.20339088286E+04  0.25500000920E-02 0. -1.
</event>
<event>
 5   0  0.3190112E-07  0.3502347E+04  0.7818609E-02  0.8113234E-01
        2   -1    0    0  501    0  0.00000000000E+00  0.00000000000E+00  0.28645128804E+04  0.28645128804E+04  0.25500000920E-02 0. -1.
       -2   -1    0    0    0  501  0.00000000000E+00  0.00000000000E+00 -0.10705515053E+04  0.10705515053E+04  0.25500000920E-02 0.  1.
    10030    2    1    2    0    0  0.00000000000E+00  0.00000000000E+00  0.17939613751E+04  0.39350643858E+04  0.35023469709E+04 0.  0.
        5    1    3    3  502    0  0.85479349930E+03  0.13359842050E+04  0.17310313257E+04  0.23477685710E+04  0.46999998093E+01 0.  1.
       -5    1    3    3    0  502 -0.85479349930E+03 -0.13359842050E+04  0.62930049445E+02  0.15872958148E+04  0.46999998093E+01 0. -1.
</event>
<event>
 5   0  0.3219205E-07  0.3511712E+04  0.7818609E-02  0.8111020E-01
        2   -1    0    0  501    0  0.00000000000E+00  0.00000000000E+00  0.18120932251E+04  0.18120932251E+04  0.25500000920E-02 0.  1.
       -2   -1    0    0    0  501  0.00000000000E+00  0.00000000000E+00 -0.17013641571E+04  0.17013641571E+04  0.25500000920E-02 0. -1.
    10030    2    1    2    0    0  0.00000000000E+00  0.00000000000E+00  0.11072906795E+03  0.35134573822E+04  0.35117120967E+04 0.  0.
        2    1    3    3  502    0 -0.10910021760E+04 -0.13385476149E+04  0.37338253473E+03  0.17667512509E+04  0.25500000920E-02 0. -1.
       -2    1    3    3    0  502  0.10910021760E+04  0.13385476149E+04 -0.26265346678E+03  0.17467061313E+04  0.25500000920E-02 0.  1.
</event>
<event>
 5   0  0.1013863E-07  0.3541908E+04  0.7818609E-02  0.8103929E-01
        1   -1    0    0  501    0  0.00000000000E+00  0.00000000000E+00  0.14187836048E+04  0.14187836048E+04  0.50400001928E-02 0. -1.
       -1   -1    0    0    0  501  0.00000000000E+00  0.00000000000E+00 -0.22105402945E+04  0.22105402945E+04  0.50400001928E-02 0.  1.
    10030    2    1    2    0    0  0.00000000000E+00  0.00000000000E+00 -0.79175668964E+03  0.36293238993E+04  0.35419081454E+04 0.  0.
        5    1    3    3  502    0  0.12833635365E+04  0.11539894718E+04 -0.80259072947E+03  0.19033884619E+04  0.46999998093E+01 0.  1.
       -5    1    3    3    0  502 -0.12833635365E+04 -0.11539894718E+04  0.10834039835E+02  0.17259354374E+04  0.46999998093E+01 0. -1.
</event>
<event>
 5   0  0.1098171E-07  0.3502319E+04  0.7818609E-02  0.8113241E-01
       -1   -1    0    0    0  501  0.00000000000E+00  0.00000000000E+00  0.19094905108E+04  0.19094905108E+04  0.50400001928E-02 0.  1.
        1   -1    0    0  501    0  0.00000000000E+00  0.00000000000E+00 -0.16059566385E+04  0.16059566385E+04  0.50400001928E-02 0. -1.
    10030    2    1    2    0    0  0.00000000000E+00  0.00000000000E+00  0.30353387231E+03  0.35154471493E+04  0.35023186388E+04 0.  0.
        4    1    3    3  502    0  0.27726117301E+03 -0.10868599025E+04 -0.11980487341E+04  0.16411765865E+04  0.12699999809E+01 0. -1.
       -4    1    3    3    0  502 -0.27726117301E+03  0.10868599025E+04  0.15015826064E+04  0.18742705628E+04  0.12699999809E+01 0.  1.
</event>
<event>
 5   0  0.1033796E-07  0.3515800E+04  0.7818609E-02  0.8110056E-01
        1   -1    0    0  501    0  0.00000000000E+00  0.00000000000E+00  0.13548583375E+04  0.13548583375E+04  0.50400001928E-02 0.  1.
       -1   -1    0    0    0  501  0.00000000000E+00  0.00000000000E+00 -0.22808386057E+04  0.22808386057E+04  0.50400001928E-02 0. -1.
    10030    2    1    2    0    0  0.00000000000E+00  0.00000000000E+00 -0.92598026824E+03  0.36356969432E+04  0.35158004502E+04 0.  0.
        3    1    3    3  502    0 -0.35299227758E+03 -0.12860092361E+03 -0.22388394188E+04  0.22701417795E+04  0.10100000352E+00 0. -1.
       -3    1    3    3    0  502  0.35299227758E+03  0.12860092361E+03  0.13128591506E+04  0.13655551637E+04  0.10100000352E+00 0.  1.
</event>
<event>
 5   0  0.1033796E-07  0.3507162E+04  0.7818609E-02  0.8112095E-01
       -1   -1    0    0    0  501  0.00000000000E+00  0.00000000000E+00  0.16405869293E+04  0.16405869293E+04  0.50400001928E-02 0. -1.
        1   -1    0    0  501    0  0.00000000000E+00  0.00000000000E+00 -0.18743570666E+04  0.18743570666E+04  0.50400001928E-02 0.  1.
    10030    2    1    2    0    0  0.00000000000E+00  0.00000000000E+00 -0.23377013726E+03  0.35149439959E+04  0.35071616469E+04 0.  0.
        3    1    3    3  502    0  0.13816306300E+04 -0.36335100627E+03 -0.11360577858E+04  0.18252546273E+04  0.10100000352E+00 0.  1.
       -3    1    3    3    0  502 -0.13816306300E+04  0.36335100627E+03  0.90228764850E+03  0.16896893686E+04  0.10100000352E+00 0. -1.
</event>
<event>
 5   0  0.3219205E-07  0.3492261E+04  0.7818609E-02  0.8115626E-01
       -2   -1    0    0    0  501  0.00000000000E+00  0.00000000000E+00  0.14802668311E+04  0.14802668311E+04  0.25500000920E-02 0.  1.
        2   -1    0    0  501    0  0.00000000000E+00  0.00000000000E+00 -0.20597446876E+04  0.20597446876E+04  0.25500000920E-02 0. -1.
    10030    2    1    2    0    0  0.00000000000E+00  0.00000000000E+00 -0.57947785644E+03  0.35400115187E+04  0.34922610106E+04 0.  0.
        2    1    3    3  502    0  0.24584620956E+03 -0.84051571174E+03  0.12415669810E+04  0.15193405112E+04  0.25500000920E-02 0.  1.
       -2    1    3    3    0  502 -0.24584620956E+03  0.84051571174E+03 -0.18210448375E+04  0.20206710075E+04  0.25500000920E-02 0. -1.
</event>
<event>
 5   0  0.3219205E-07  0.3541115E+04  0.7818609E-02  0.8104115E-01
        2   -1    0    0  501    0  0.00000000000E+00  0.00000000000E+00  0.12136018064E+04  0.12136018064E+04  0.25500000920E-02 0. -1.
       -2   -1    0    0    0  501  0.00000000000E+00  0.00000000000E+00 -0.25831152732E+04  0.25831152732E+04  0.25500000920E-02 0.  1.
    10030    2    1    2    0    0  0.00000000000E+00  0.00000000000E+00 -0.13695134667E+04  0.37967170796E+04  0.35411147181E+04 0.  0.
        2    1    3    3  502    0  0.15737437389E+03 -0.13879150446E+04  0.48180340314E+03  0.14775687408E+04  0.25500000920E-02 0. -1.
       -2    1    3    3    0  502 -0.15737437389E+03  0.13879150446E+04 -0.18513168699E+04  0.23191483388E+04  0.25500000920E-02 0.  1.
</event>
<event>
 5   0  0.1098171E-07  0.3502333E+04  0.7818609E-02  0.8113237E-01
       -1   -1    0    0    0  501  0.00000000000E+00  0.00000000000E+00  0.13441584078E+04  0.13441584078E+04  0.50400001928E-02 0.  1.
        1   -1    0    0  501    0  0.00000000000E+00  0.00000000000E+00 -0.22814150992E+04  0.22814150992E+04  0.50400001928E-02 0. -1.
    10030    2    1    2    0    0  0.00000000000E+00  0.00000000000E+00 -0.93725669134E+03  0.36255735070E+04  0.35023325298E+04 0.  0.
        4    1    3    3  502    0  0.80251875882E+03 -0.15504652131E+04 -0.32743633613E+03  0.17762868300E+04  0.12699999809E+01 0.  1.
       -4    1    3    3    0  502 -0.80251875882E+03  0.15504652131E+04 -0.60982035520E+03  0.18492866770E+04  0.12699999809E+01 0. -1.
</event>
<event>
 5   0  0.1072381E-07  0.3499763E+04  0.7818609E-02  0.8113846E-01
       -1   -1    0    0    0  501  0.00000000000E+00  0.00000000000E+00  0.19671834032E+04  0.19671834032E+04  0.50400001928E-02 0. -1.
        1   -1    0    0  501    0  0.00000000000E+00  0.00000000000E+00 -0.15565834342E+04  0.15565834342E+04  0.50400001928E-02 0.  1.
    10030    2    1    2    0    0  0.00000000000E+00  0.00000000000E+00  0.41059996906E+03  0.35237668374E+04  0.34997629048E+04 0.  0.
        1    1    3    3  502    0  0.50277820986E+03  0.95663645292E+02  0.18901413066E+04  0.19582062251E+04  0.50400001928E-02 0. -1.
       -1    1    3    3    0  502 -0.50277820986E+03 -0.95663645292E+02 -0.14795413375E+04  0.15655606123E+04  0.50400001928E-02 0.  1.
</event>
<event>
 5   0  0.1098171E-07  0.3500806E+04  0.7818609E-02  0.8113599E-01
        1   -1    0    0  501    0  0.00000000000E+00  0.00000000000E+00  0.22587642875E+04  0.22587642875E+04  0.50400001928E-02 0.  1.
       -1   -1    0    0    0  501  0.00000000000E+00  0.00000000000E+00 -0.13564543835E+04  0.13564543836E+04  0.50400001928E-02 0. -1.
    10030    2    1    2    0    0  0.00000000000E+00  0.00000000000E+00  0.90230990391E+03  0.36152186710E+04  0.35008060324E+04 0.  0.
        4    1    3    3  502    0  0.96891794280E+03  0.93258292739E+03  0.16082177469E+04  0.20963966301E+04  0.12699999809E+01 0.  1.
       -4    1    3    3    0  502 -0.96891794280E+03 -0.93258292739E+03 -0.70590784296E+03  0.15188220409E+04  0.12699999809E+01 0. -1.
</event>
<event>
 5   0  0.1013863E-07  0.3500057E+04  0.7818609E-02  0.8113777E-01
       -3   -1    0    0    0  501  0.00000000000E+00  0.00000000000E+00  0.16261491927E+04  0.16261491958E+04  0.10100000352E+00 0. -1.
        3   -1    0    0  501    0  0.00000000000E+00  0.00000000000E+00 -0.18833445351E+04  0.18833445378E+04  0.10100000352E+00 0.  1.
    10030    2    1    2    0    0  0.00000000000E+00  0.00000000000E+00 -0.25719534239E+03  0.35094937336E+04  0.35000566884E+04 0.  0.
        2    1    3    3  502    0  0.10818951031E+04 -0.10181530109E+04  0.79881052870E+03  0.16867812035E+04  0.25500000920E-02 0. -1.
       -2    1    3    3    0  502 -0.10818951031E+04  0.10181530109E+04 -0.10560058711E+04  0.18227125301E+04  0.25500000920E-02 0.  1.
</event>
<event>
 5   0  0.1033796E-07  0.3494488E+04  0.7818609E-02  0.8115097E-01
       -1   -1    0    0    0  501  0.00000000000E+00  0.00000000000E+00  0.26889295031E+04  0.26889295031E+04  0.50400001928E-02 0. -1.
        1   -1    0    0  501    0  0.00000000000E+00  0.00000000000E+00 -0.11353447142E+04  0.11353447142E+04  0.50400001928E-02 0.  1.
    10030    2    1    2    0    0  0.00000000000E+00  0.00000000000E+00  0.15535847890E+04  0.38242742173E+04  0.34944881732E+04 0.  0.
        3    1    3    3  502    0  0.28943873896E+03  0.16178648952E+04  0.12787403754E+03  0.16485185418E+04  0.10100000352E+00 0.  1.
       -3    1    3    3    0  502 -0.28943873896E+03 -0.16178648952E+04  0.14257107514E+04  0.21757556756E+04  0.10100000352E+00 0. -1.
</event>
<event>
 5   0  0.2180451E-07  0.3472985E+04  0.7818609E-02  0.8120222E-01
       -2   -1    0    0    0  501  0.00000000000E+00  0.00000000000E+00  0.18479405105E+04  0.18479405105E+04  0.25500000920E-02 0.  1.
        2   -1    0    0  501    0  0.00000000000E+00  0.00000000000E+00 -0.16317659219E+04  0.16317659219E+04  0.25500000920E-02 0. -1.
    10030    2    1    2    0    0  0.00000000000E+00  0.00000000000E+00  0.21617458862E+03  0.34797064324E+04  0.34729850854E+04 0.  0.
        4    1    3    3  502    0 -0.14578939036E+04 -0.63352193865E+03  0.80843940898E+03  0.17833621539E+04  0.12699999809E+01 0.  1.
       -4    1    3    3    0  502  0.14578939036E+04  0.63352193865E+03 -0.59226482036E+03  0.16963442786E+04  0.12699999809E+01 0. -1.
</event>
<event>
 5   0  0.3190185E-07  0.3508614E+04  0.7818609E-02  0.8111752E-01
        2   -1    0    0  501    0  0.00000000000E+00  0.00000000000E+00  0.21256091795E+04  0.21256091795E+04  0.25500000920E-02 0. -1.
       -2   -1    0    0    0  501  0.00000000000E+00  0.00000000000E+00 -0.14478642534E+04  0.14478642534E+04  0.25500000920E-02 0.  1.
    10030    2    1    2    0    0  0.00000000000E+00  0.00000000000E+00  0.67774492611E+03  0.35734734329E+04  0.35086142835E+04 0.  0.
        1    1    3    3  502    0  0.42451735255E+03  0.12004053805E+04  0.15679975529E+04  0.20198525654E+04  0.50400001928E-02 0. -1.
       -1    1    3    3    0  502 -0.42451735255E+03 -0.12004053805E+04 -0.89025262677E+03  0.15536208674E+04  0.50400001928E-02 0.  1.
</event>
<event>
 5   0  0.3190185E-07  0.3498381E+04  0.7818609E-02  0.8114174E-01
       -2   -1    0    0    0  501  0.00000000000E+00  0.00000000000E+00  0.13929935581E+04  0.13929935581E+04  0.25500000920E-02 0.  1.
        2   -1    0    0  501    0  0.00000000000E+00  0.00000000000E+00 -0.21964695726E+04  0.21964695726E+04  0.25500000920E-02 0. -1.
    10030    2    1    2    0    0  0.00000000000E+00  0.00000000000E+00 -0.80347601456E+03  0.35894631307E+04  0.34983813201E+04 0.  0.
        1    1    3    3  502    0 -0.54481619105E+03  0.12147180526E+04 -0.15658715388E+04  0.20553146487E+04  0.50400001928E-02 0. -1.
       -1    1    3    3    0  502  0.54481619105E+03 -0.12147180526E+04  0.76239552419E+03  0.15341484820E+04  0.50400001928E-02 0.  1.
</event>
<event>
 5   0  0.3119048E-07  0.3500056E+04  0.7818609E-02  0.8113777E-01
       -2   -1    0    0    0  501  0.00000000000E+00  0.00000000000E+00  0.96471461564E+03  0.96471461564E+03  0.25500000920E-02 0. -1.
        2   -1    0    0  501    0  0.00000000000E+00  0.00000000000E+00 -0.31746162880E+04  0.31746162880E+04  0.25500000920E-02 0.  1.
    10030    2    1    2    0    0  0.00000000000E+00  0.00000000000E+00 -0.22099016723E+04  0.41393309036E+04  0.35000564179E+04 0.  0.
        3    1    3    3  502    0 -0.16294681483E+03  0.10471726775E+03 -0.31619003393E+04  0.31678275106E+04  0.10100000352E+00 0.  1.
       -3    1    3    3    0  502  0.16294681483E+03 -0.10471726775E+03  0.95199866698E+03  0.97150339307E+03  0.10100000352E+00 0. -1.
</event>
<event>
 5   0  0.3119048E-07  0.3498582E+04  0.7818609E-02  0.8114126E-01
        2   -1    0    0  501    0  0.00000000000E+00  0.00000000000E+00  0.17058661563E+04  0.17058661563E+04  0.25500000920E-02 0. -1.
       -2   -1    0    0    0  501  0.00000000000E+00  0.00000000000E+00 -0.17938209847E+04  0.17938209847E+04  0.25500000920E-02 0.  1.
    10030    2    1    2    0    0  0.00000000000E+00  0.00000000000E+00 -0.87954828401E+02  0.34996871410E+04  0.34985817173E+04 0.  0.
        3    1    3    3  502    0  0.90901666494E+03  0.14200262203E+04  0.42225217666E+03  0.17381261963E+04  0.10100000352E+00 0.  1.
       -3    1    3    3    0  502 -0.90901666494E+03 -0.14200262203E+04 -0.51020700506E+03  0.17615609446E+04  0.10100000352E+00 0. -1.
</event>
<event>
 5   0  0.3190112E-07  0.3499228E+04  0.7818609E-02  0.8113973E-01
       -2   -1    0    0    0  501  0.00000000000E+00  0.00000000000E+00  0.11360973636E+04  0.11360973636E+04  0.25500000920E-02 0. -1.
        2   -1    0    0  501    0  0.00000000000E+00  0.00000000000E+00 -0.26944422168E+04  0.26944422168E+04  0.25500000920E-02 0.  1.
    10030    2    1    2    0    0  0.00000000000E+00  0.00000000000E+00 -0.15583448533E+04  0.38305395804E+04  0.34992277427E+04 0.  0.
        5    1    3    3  502    0 -0.16424053554E+04 -0.25553142794E+03 -0.13770879239E+04  0.21585145129E+04  0.46999998093E+01 0.  1.
       -5    1    3    3    0  502  0.16424053554E+04  0.25553142794E+03 -0.18125692940E+03  0.16720250676E+04  0.46999998093E+01 0. -1.
</event>
<event>
 5   0  0.1072381E-07  0.3497323E+04  0.7818609E-02  0.8114425E-01
        1   -1    0    0  501    0  0.00000000000E+00  0.00000000000E+00  0.11787748085E+04  0.11787748085E+04  0.50400001928E-02 0.  1.
       -1   -1    0    0    0  501  0.00000000000E+00  0.00000000000E+00 -0.25940643416E+04  0.25940643416E+04  0.50400001928E-02 0. -1.
    10030    2    1    2    0    0  0.00000000000E+00  0.00000000000E+00 -0.14152895331E+04  0.37728391501E+04  0.34973233751E+04 0.  0.
        1    1    3    3  502    0  0.26732183832E+03  0.80605226094E+03  0.94138340943E+03  0.12678264614E+04  0.50400001928E-02 0.  1.
       -1    1    3    3    0  502 -0.26732183832E+03 -0.80605226094E+03 -0.23566729425E+04  0.25050126887E+04  0.50400001928E-02 0. -1.
</event>
<event>
 5   0  0.2180451E-07  0.3501829E+04  0.7818609E-02  0.8113357E-01
       -2   -1    0    0    0  501  0.00000000000E+00  0.00000000000E+00  0.16848643041E+04  0.16848643041E+04  0.25500000920E-02 0.  1.
        2   -1    0    0  501    0  0.00000000000E+00  0.00000000000E+00 -0.18195544633E+04  0.18195544633E+04  0.25500000920E-02 0. -1.
    10030    2    1    2    0    0  0.00000000000E+00  0.00000000000E+00 -0.13469015917E+03  0.35044187674E+04  0.35018294445E+04 0.  0.
        4    1    3    3  502    0 -0.10165451533E+04  0.10746032030E+04  0.87013180912E+03  0.17161780416E+04  0.12699999809E+01 0.  1.
       -4    1    3    3    0  502  0.10165451533E+04 -0.10746032030E+04 -0.10048219683E+04  0.17882407258E+04  0.12699999809E+01 0. -1.
</event>
<event>
 5   0  0.1033796E-07  0.3503432E+04  0.7818609E-02  0.8112977E-01
        1   -1    0    0  501    0  0.00000000000E+00  0.00000000000E+00  0.21367628199E+04  0.21367628199E+04  0.50400001928E-02 0. -1.
       -1   -1    0    0    0  501  0.00000000000E+00  0.00000000000E+00 -0.14360549862E+04  0.14360549862E+04  0.50400001928E-02 0.  1.
    10030    2    1    2    0    0  0.00000000000E+00  0.00000000000E+00  0.70070783371E+03  0.35728178060E+04  0.35034319755E+04 0.  0.
        3    1    3    3  502    0 -0.94731452385E+03 -0.22163542339E+03  0.18359064372E+04  0.20777582930E+04  0.10100000352E+00 0. -1.
       -3    1    3    3    0  502  0.94731452385E+03  0.22163542339E+03 -0.11351986034E+04  0.14950595130E+04  0.10100000352E+00 0.  1.
</event>
<event>
 5   0  0.1013863E-07  0.3489840E+04  0.7818609E-02  0.8116202E-01
       -1   -1    0    0    0  501  0.00000000000E+00  0.00000000000E+00  0.19815188715E+04  0.19815188715E+04  0.50400001928E-02 0.  1.
        1   -1    0    0  501    0  0.00000000000E+00  0.00000000000E+00 -0.15365720584E+04  0.15365720584E+04  0.50400001928E-02 0. -1.
    10030    2    1    2    0    0  0.00000000000E+00  0.00000000000E+00  0.44494681309E+03  0.35180909299E+04  0.34898404153E+04 0.  0.
        2    1    3    3  502    0  0.60370990602E+03  0.47888943955E+03  0.18006963213E+04  0.19586495315E+04  0.25500000920E-02 0.  1.
       -2    1    3    3    0  502 -0.60370990602E+03 -0.47888943955E+03 -0.13557495082E+04  0.15594413984E+04  0.25500000920E-02 0. -1.
</event>
<event>
 5   0  0.1098171E-07  0.3426870E+04  0.7818609E-02  0.8131343E-01
        1   -1    0    0  501    0  0.00000000000E+00  0.00000000000E+00  0.13305207530E+04  0.13305207530E+04  0.50400001928E-02 0. -1.
       -1   -1    0    0    0  501  0.00000000000E+00  0.00000000000E+00 -0.22065490528E+04  0.22065490528E+04  0.50400001928E-02 0.  1.
    10030    2    1    2    0    0  0.00000000000E+00  0.00000000000E+00 -0.87602829983E+03  0.35370698058E+04  0.34268698879E+04 0.  0.
        4    1    3    3  502    0  0.11231952298E+04 -0.49540206888E+03 -0.16718060439E+04  0.20741089160E+04  0.12699999809E+01 0.  1.
       -4    1    3    3    0  502 -0.11231952298E+04  0.49540206888E+03  0.79577774409E+03  0.14629608898E+04  0.12699999809E+01 0. -1.
</event>
<event>
 5   0  0.2180451E-07  0.3511597E+04  0.7818609E-02  0.8111047E-01
        2   -1    0    0  501    0  0.00000000000E+00  0.00000000000E+00  0.10721258693E+04  0.10721258693E+04  0.25500000920E-02 0. -1.
       -2   -1    0    0    0  501  0.00000000000E+00  0.00000000000E+00 -0.28754354114E+04  0.28754354114E+04  0.25500000920E-02 0.  1.
    10030    2    1    2    0    0  0.00000000000E+00  0.00000000000E+00 -0.18033095421E+04  0.39475612807E+04  0.35115971808E+04 0.  0.
        4    1    3    3  502    0 -0.14217422921E+04 -0.14195688040E+03 -0.20487967284E+04  0.24978135536E+04  0.12699999809E+01 0.  1.
       -4    1    3    3    0  502  0.14217422921E+04  0.14195688040E+03  0.24548718632E+03  0.14497477272E+04  0.12699999809E+01 0. -1.
</event>
<event>
 5   0  0.1013863E-07  0.3488762E+04  0.7818609E-02  0.8116458E-01
       -1   -1    0    0    0  501  0.00000000000E+00  0.00000000000E+00  0.12354556084E+04  0.12354556084E+04  0.50400001928E-02 0. -1.
        1   -1    0    0  501    0  0.00000000000E+00  0.00000000000E+00 -0.24629497361E+04  0.24629497361E+04  0.50400001928E-02 0.  1.
    10030    2    1    2    0    0  0.00000000000E+00  0.00000000000E+00 -0.12274941277E+04  0.36984053446E+04  0.34887619952E+04 0.  0.
        5    1    3    3  502    0  0.37900457179E+03 -0.58896027665E+03  0.10798539037E+04  0.12870995363E+04  0.46999998093E+01 0. -1.
       -5    1    3    3    0  502 -0.37900457179E+03  0.58896027665E+03 -0.23073480314E+04  0.24113058083E+04  0.46999998093E+01 0.  1.
</event>
<event>
 5   0  0.1033796E-07  0.3493784E+04  0.7818609E-02  0.8115265E-01
       -1   -1    0    0    0  501  0.00000000000E+00  0.00000000000E+00  0.20097277636E+04  0.20097277636E+04  0.50400001928E-02 0. -1.
        1   -1    0    0  501    0  0.00000000000E+00  0.00000000000E+00 -0.15184304648E+04  0.15184304648E+04  0.50400001928E-02 0.  1.
    10030    2    1    2    0    0  0.00000000000E+00  0.00000000000E+00  0.49129729873E+03  0.35281582284E+04  0.34937841159E+04 0.  0.
        3    1    3    3  502    0  0.11091963142E+04 -0.52592480890E+03 -0.10094465241E+04  0.15893066611E+04  0.10100000352E+00 0.  1.
       -3    1    3    3    0  502 -0.11091963142E+04  0.52592480890E+03  0.15007438228E+04  0.19388515673E+04  0.10100000352E+00 0. -1.
</event>
<event>
 5   0  0.1013863E-07  0.3521443E+04  0.7818609E-02  0.8108727E-01
       -1   -1    0    0    0  501  0.00000000000E+00  0.00000000000E+00  0.13325501614E+04  0.13325501614E+04  0.50400001928E-02 0. -1.
        1   -1    0    0  501    0  0.00000000000E+00  0.00000000000E+00 -0.23264720550E+04  0.23264720551E+04  0.50400001928E-02 0.  1.
    10030    2    1    2    0    0  0.00000000000E+00  0.00000000000E+00 -0.99392189365E+03  0.36590222165E+04  0.35214432907E+04 0.  0.
        5    1    3    3  502    0  0.13932117936E+04  0.58121717613E+03 -0.14386039845E+04  0.20852951882E+04  0.46999998093E+01 0. -1.
       -5    1    3    3    0  502 -0.13932117936E+04 -0.58121717613E+03  0.44468209082E+03  0.15737270283E+04  0.46999998093E+01 0.  1.
</event>
<event>
 5   0  0.3119048E-07  0.3531358E+04  0.7818609E-02  0.8106398E-01
       -2   -1    0    0    0  501  0.00000000000E+00  0.00000000000E+00  0.16658078933E+04  0.16658078933E+04  0.25500000920E-02 0. -1.
        2   -1    0    0  501    0  0.00000000000E+00  0.00000000000E+00 -0.18715379955E+04  0.18715379955E+04  0.25500000920E-02 0.  1.
    10030    2    1    2    0    0  0.00000000000E+00  0.00000000000E+00 -0.20573010218E+03  0.35373458889E+04  0.35313582461E+04 0.  0.
        3    1    3    3  502    0  0.14807741040E+04 -0.87039873676E+03  0.30689681747E+03  0.17448414183E+04  0.10100000352E+00 0. -1.
       -3    1    3    3    0  502 -0.14807741040E+04  0.87039873676E+03 -0.51262691965E+03  0.17925044706E+04  0.10100000352E+00 0.  1.
</event>
<event>
 5   0  0.3190185E-07  0.3472821E+04  0.7818609E-02  0.8120261E-01
       -2   -1    0    0    0  501  0.00000000000E+00  0.00000000000E+00  0.12383636845E+04  0.12383636845E+04  0.25500000920E-02 0.  1.
        2   -1    0    0  501    0  0.00000000000E+00  0.00000000000E+00 -0.24347626974E+04  0.24347626974E+04  0.25500000920E-02 0. -1.
    10030    2    1    2    0    0  0.00000000000E+00  0.00000000000E+00 -0.11963990129E+04  0.36731263818E+04  0.34728211614E+04 0.  0.
        1    1    3    3  502    0  0.52561204408E+03  0.77441378006E+03 -0.21451369446E+04  0.23404267207E+04  0.50400001928E-02 0. -1.
       -1    1    3    3    0  502 -0.52561204408E+03 -0.77441378006E+03  0.94873793175E+03  0.13326996611E+04  0.50400001928E-02 0.  1.
</event>
<event>
 5   0  0.3190112E-07  0.3535849E+04  0.7818609E-02  0.8105346E-01
        2   -1    0    0  501    0  0.00000000000E+00  0.00000000000E+00  0.27418249755E+04  0.27418249755E+04  0.25500000920E-02 0.  1.
       -2   -1    0    0    0  501  0.00000000000E+00  0.00000000000E+00 -0.11399552213E+04  0.11399552213E+04  0.25500000920E-02 0. -1.
    10030    2    1    2    0    0  0.00000000000E+00  0.00000000000E+00  0.16018697542E+04  0.38817801968E+04  0.35358493727E+04 0.  0.
        5    1    3    3  502    0 -0.92558465038E+03  0.62423372132E+03 -0.70400507148E+03  0.13198560204E+04  0.46999998093E+01 0. -1.
       -5    1    3    3    0  502  0.92558465038E+03 -0.62423372132E+03  0.23058748257E+04  0.25619241764E+04  0.46999998093E+01 0.  1.
</event>
<event>
 5   0  0.3190112E-07  0.3496396E+04  0.7818609E-02  0.8114645E-01
        2   -1    0    0  501    0  0.00000000000E+00  0.00000000000E+00  0.20526918333E+04  0.20526918333E+04  0.25500000920E-02 0.  1.
       -2   -1    0    0    0  501  0.00000000000E+00  0.00000000000E+00 -0.14888725285E+04  0.14888725285E+04  0.25500000920E-02 0. -1.
    10030    2    1    2    0    0  0.00000000000E+00  0.00000000000E+00  0.56381930477E+03  0.35415643619E+04  0.34963961333E+04 0.  0.
        5    1    3    3  502    0  0.88161556420E+02 -0.89875149538E+03  0.17981264165E+04  0.20121648566E+04  0.46999998093E+01 0.  1.
       -5    1    3    3    0  502 -0.88161556420E+02  0.89875149538E+03 -0.12343071117E+04  0.15293995052E+04  0.46999998093E+01 0. -1.
</event>
<event>
 5   0  0.3190185E-07  0.3497115E+04  0.7818609E-02  0.8114474E-01
       -2   -1    0    0    0  501  0.00000000000E+00  0.00000000000E+00  0.12654014558E+04  0.12654014558E+04  0.25500000920E-02 0. -1.
        2   -1    0    0  501    0  0.00000000000E+00  0.00000000000E+00 -0.24161928968E+04  0.24161928968E+04  0.25500000920E-02 0.  1.
    10030    2    1    2    0    0  0.00000000000E+00  0.00000000000E+00 -0.11507914410E+04  0.36815943527E+04  0.34971153880E+04 0.  0.
        1    1    3    3  502    0  0.16351626989E+04 -0.54352106046E+03 -0.88819201333E+03  0.19385709292E+04  0.50400001928E-02 0.  1.
       -1    1    3    3    0  502 -0.16351626989E+04  0.54352106046E+03 -0.26259942764E+03  0.17430234234E+04  0.50400001928E-02 0. -1.
</event>
<event>
 5   0  0.1013863E-07  0.3483651E+04  0.7818609E-02  0.8117675E-01
       -1   -1    0    0    0  501  0.00000000000E+00  0.00000000000E+00  0.12716324967E+04  0.12716324967E+04  0.50400001928E-02 0.  1.
        1   -1    0    0  501    0  0.00000000000E+00  0.00000000000E+00 -0.23858745158E+04  0.23858745158E+04  0.50400001928E-02 0. -1.
    10030    2    1    2    0    0  0.00000000000E+00  0.00000000000E+00 -0.11142420191E+04  0.36575070125E+04  0.34836507100E+04 0.  0.
        5    1    3    3  502    0 -0.27249652734E+03 -0.15451227925E+04 -0.13513629705E+04  0.20707155211E+04  0.46999998093E+01 0. -1.
       -5    1    3    3    0  502  0.27249652734E+03  0.15451227925E+04  0.23712095146E+03  0.15867914913E+04  0.46999998093E+01 0.  1.
</event>
<event>
 5   0  0.3190185E-07  0.3508729E+04  0.7818609E-02  0.8111724E-01
       -2   -1    0    0    0  501  0.00000000000E+00  0.00000000000E+00  0.15545573640E+04  0.15545573640E+04  0.25500000920E-02 0. -1.
        2   -1    0    0  501    0  0.00000000000E+00  0.00000000000E+00 -0.19798533659E+04  0.19798533659E+04  0.25500000920E-02 0.  1.
    10030    2    1    2    0    0  0.00000000000E+00  0.00000000000E+00 -0.42529600184E+03  0.35344107299E+04  0.35087294735E+04 0.  0.
        1    1    3    3  502    0  0.60792337717E+03 -0.15494887859E+04 -0.77106031050E+03  0.18343991748E+04  0.50400001928E-02 0. -1.
       -1    1    3    3    0  502 -0.60792337717E+03  0.15494887859E+04  0.34576430866E+03  0.17000115551E+04  0.50400001928E-02 0.  1.
</event>
<event>
 5   0  0.3119048E-07  0.3496355E+04  0.7818609E-02  0.8114654E-01
       -2   -1    0    0    0  501  0.00000000000E+00  0.00000000000E+00  0.10873099999E+04  0.10873099999E+04  0.25500000920E-02 0.  1.
        2   -1    0    0  501    0  0.00000000000E+00  0.00000000000E+00 -0.28107201152E+04  0.28107201152E+04  0.25500000920E-02 0. -1.
    10030    2    1    2    0    0  0.00000000000E+00  0.00000000000E+00 -0.17234101153E+04  0.38980301151E+04  0.34963547235E+04 0.  0.
        3    1    3    3  502    0  0.57414698890E+02  0.32877123290E+03  0.10514623198E+04  0.11031590961E+04  0.10100000352E+00 0.  1.
       -3    1    3    3    0  502 -0.57414698890E+02 -0.32877123290E+03 -0.27748724351E+04  0.27948710190E+04  0.10100000352E+00 0. -1.
</event>
<event>
 5   0  0.1098171E-07  0.3465756E+04  0.7818609E-02  0.8121953E-01
        1   -1    0    0  501    0  0.00000000000E+00  0.00000000000E+00  0.15054834147E+04  0.15054834147E+04  0.50400001928E-02 0.  1.
       -1   -1    0    0    0  501  0.00000000000E+00  0.00000000000E+00 -0.19946197086E+04  0.19946197086E+04  0.50400001928E-02 0. -1.
    10030    2    1    2    0    0  0.00000000000E+00  0.00000000000E+00 -0.48913629387E+03  0.35001031233E+04  0.34657564195E+04 0.  0.
        4    1    3    3  502    0  0.16484566722E+03 -0.13318201935E+04 -0.13517661914E+04  0.19047815021E+04  0.12699999809E+01 0. -1.
       -4    1    3    3    0  502 -0.16484566722E+03  0.13318201935E+04  0.86262989753E+03  0.15953216211E+04  0.12699999809E+01 0.  1.
</event>
<event>
 5   0  0.1013863E-07  0.3522743E+04  0.7818609E-02  0.8108421E-01
       -1   -1    0    0    0  501  0.00000000000E+00  0.00000000000E+00  0.92853643443E+03  0.92853643444E+03  0.50400001928E-02 0.  1.
        1   -1    0    0  501    0  0.00000000000E+00  0.00000000000E+00 -0.33412040068E+04  0.33412040068E+04  0.50400001928E-02 0. -1.
    10030    2    1    2    0    0  0.00000000000E+00  0.00000000000E+00 -0.24126675723E+04  0.42697404412E+04  0.35227430535E+04 0.  0.
        2    1    3    3  502    0  0.30833739761E+03  0.20030751722E+03  0.88150254310E+03  0.95511349363E+03  0.25500000920E-02 0.  1.
       -2    1    3    3    0  502 -0.30833739761E+03 -0.20030751722E+03 -0.32941701154E+04  0.33146269476E+04  0.25500000920E-02 0. -1.
</event>
<event>
 5   0  0.1072381E-07  0.3496929E+04  0.7818609E-02  0.8114518E-01
        1   -1    0    0  501    0  0.00000000000E+00  0.00000000000E+00  0.22381057054E+04  0.22381057054E+04  0.50400001928E-02 0.  1.
       -1   -1    0    0    0  501  0.00000000000E+00  0.00000000000E+00 -0.13659446191E+04  0.13659446191E+04  0.50400001928E-02 0. -1.
    10030    2    1    2    0    0  0.00000000000E+00  0.00000000000E+00  0.87216108630E+03  0.36040503244E+04  0.34969291930E+04 0.  0.
        1    1    3    3  502    0 -0.94729818941E+03  0.67569824675E+03  0.17811202535E+04  0.21275176469E+04  0.50400001928E-02 0.  1.
       -1    1    3    3    0  502  0.94729818941E+03 -0.67569824675E+03 -0.90895916718E+03  0.14765326776E+04  0.50400001928E-02 0. -1.
</event>
<event>
 5   0  0.3119048E-07  0.3549128E+04  0.7818609E-02  0.8102245E-01
       -2   -1    0    0    0  501  0.00000000000E+00  0.00000000000E+00  0.16055766669E+04  0.16055766669E+04  0.25500000920E-02 0. -1.
        2   -1    0    0  501    0  0.00000000000E+00  0.00000000000E+00 -0.19613373751E+04  0.19613373751E+04  0.25500000920E-02 0.  1.
    10030    2    1    2    0    0  0.00000000000E+00  0.00000000000E+00 -0.35576070819E+03  0.35669140420E+04  0.35491280762E+04 0.  0.
        3    1    3    3  502    0  0.16322324245E+04  0.10470130933E+02 -0.87763477312E+03  0.18532498797E+04  0.10100000352E+00 0. -1.
       -3    1    3    3    0  502 -0.16322324245E+04 -0.10470130933E+02  0.52187406493E+03  0.17136641623E+04  0.10100000352E+00 0.  1.
</event>
<event>
 5   0  0.1072381E-07  0.3499604E+04  0.7818609E-02  0.8113884E-01
       -1   -1    0    0    0  501  0.00000000000E+00  0.00000000000E+00  0.10500860197E+04  0.10500860197E+04  0.50400001928E-02 0. -1.
        1   -1    0    0  501    0  0.00000000000E+00  0.00000000000E+00 -0.29157686332E+04  0.29157686332E+04  0.50400001928E-02 0.  1.
    10030    2    1    2    0    0  0.00000000000E+00  0.00000000000E+00 -0.18656826135E+04  0.39658546530E+04  0.34996044797E+04 0.  0.
        1    1    3    3  502    0 -0.16715078681E+04 -0.27396635880E+03 -0.14304461384E+04  0.22170187807E+04  0.50400001928E-02 0.  1.
       -1    1    3    3    0  502  0.16715078681E+04  0.27396635880E+03 -0.43523647506E+03  0.17488358723E+04  0.50400001928E-02 0. -1.
</event>
<event>
 5   0  0.1013863E-07  0.3501904E+04  0.7818609E-02  0.8113339E-01
        1   -1    0    0  501    0  0.00000000000E+00  0.00000000000E+00  0.11509442702E+04  0.11509442702E+04  0.50400001928E-02 0.  1.
       -1   -1    0    0    0  501  0.00000000000E+00  0.00000000000E+00 -0.26637538939E+04  0.26637538939E+04  0.50400001928E-02 0. -1.
    10030    2    1    2    0    0  0.00000000000E+00  0.00000000000E+00 -0.15128096237E+04  0.38146981641E+04  0.35019036431E+04 0.  0.
        5    1    3    3  502    0  0.43452579228E+03  0.88863918142E+03 -0.23302075276E+04  0.25314781197E+04  0.46999998093E+01 0. -1.
       -5    1    3    3    0  502 -0.43452579228E+03 -0.88863918142E+03  0.81739790395E+03  0.12832200444E+04  0.46999998093E+01 0.  1.
</event>
<event>
 5   0  0.3190112E-07  0.3443893E+04  0.7818609E-02  0.8127217E-01
       -2   -1    0    0    0  501  0.00000000000E+00  0.00000000000E+00  0.15891060066E+04  0.15891060066E+04  0.25500000920E-02 0.  1.
        2   -1    0    0  501    0  0.00000000000E+00  0.00000000000E+00 -0.18658917128E+04  0.18658917128E+04  0.25500000920E-02 0. -1.
    10030    2    1    2    0    0  0.00000000000E+00  0.00000000000E+00 -0.27678570620E+03  0.34549977195E+04  0.34438929882E+04 0.  0.
        5    1    3    3  502    0 -0.80387492828E+03 -0.10758276434E+04 -0.12195773274E+04  0.18141143751E+04  0.46999998093E+01 0. -1.
       -5    1    3    3    0  502  0.80387492828E+03  0.10758276434E+04  0.94279162122E+03  0.16408833443E+04  0.46999998093E+01 0.  1.
</event>
<event>
 5   0  0.2180451E-07  0.3499538E+04  0.7818609E-02  0.8113899E-01
        2   -1    0    0  501    0  0.00000000000E+00  0.00000000000E+00  0.99322567022E+03  0.99322567022E+03  0.25500000920E-02 0. -1.
       -2   -1    0    0    0  501  0.00000000000E+00  0.00000000000E+00 -0.30825744528E+04  0.30825744528E+04  0.25500000920E-02 0.  1.
    10030    2    1    2    0    0  0.00000000000E+00  0.00000000000E+00 -0.20893487826E+04  0.40758001231E+04  0.34995382992E+04 0.  0.
        4    1    3    3  502    0  0.48394598233E+03  0.14481813789E+04 -0.20399425812E+04  0.25480974015E+04  0.12699999809E+01 0.  1.
       -4    1    3    3    0  502 -0.48394598233E+03 -0.14481813789E+04 -0.49406201435E+02  0.15277027216E+04  0.12699999809E+01 0. -1.
</event>
<event>
 5   0  0.2180451E-07  0.3487911E+04  0.7818609E-02  0.8116661E-01
       -2   -1    0    0    0  501  0.00000000000E+00  0.00000000000E+00  0.24884097420E+04  0.24884097420E+04  0.25500000920E-02 0.  1.
        2   -1    0    0  501    0  0.00000000000E+00  0.00000000000E+00 -0.12222186545E+04  0.12222186545E+04  0.25500000920E-02 0. -1.
    10030    2    1    2    0    0  0.00000000000E+00  0.00000000000E+00  0.12661910875E+04  0.37106283965E+04  0.34879110119E+04 0.  0.
        4    1    3    3  502    0 -0.16941919599E+04  0.41261130100E+03  0.60217577785E+03  0.18447633352E+04  0.12699999809E+01 0.  1.
       -4    1    3    3    0  502  0.16941919599E+04 -0.41261130100E+03  0.66401530962E+03  0.18658650613E+04  0.12699999809E+01 0. -1.
</event>
<event>
 5   0  0.3190112E-07  0.3492869E+04  0.7818609E-02  0.8115482E-01
        2   -1    0    0  501    0  0.00000000000E+00  0.00000000000E+00  0.89390657845E+03  0.89390657846E+03  0.25500000920E-02 0. -1.
       -2   -1    0    0    0  501  0.00000000000E+00  0.00000000000E+00 -0.34120268324E+04  0.34120268324E+04  0.25500000920E-02 0.  1.
    10030    2    1    2    0    0  0.00000000000E+00  0.00000000000E+00 -0.25181202540E+04  0.43059334109E+04  0.34928688675E+04 0.  0.
        5    1    3    3  502    0 -0.10329014267E+04  0.99002619967E+03 -0.24449969498E+02  0.14309637048E+04  0.46999998093E+01 0. -1.
       -5    1    3    3    0  502  0.10329014267E+04 -0.99002619967E+03 -0.24936702845E+04  0.28749697061E+04  0.46999998093E+01 0.  1.
</event>
<event>
 5   0  0.1098171E-07  0.3516610E+04  0.7818609E-02  0.8109865E-01
       -1   -1    0    0    0  501  0.00000000000E+00  0.00000000000E+00  0.19842997647E+04  0.19842997647E+04  0.50400001928E-02 0.  1.
        1   -1    0    0  501    0  0.00000000000E+00  0.00000000000E+00 -0.15580491595E+04  0.15580491595E+04  0.50400001928E-02 0. -1.
    10030    2    1    2    0    0  0.00000000000E+00  0.00000000000E+00  0.42625060517E+03  0.35423489242E+04  0.35166100611E+04 0.  0.
        4    1    3    3  502    0 -0.15339193312E+02 -0.16458819573E+04 -0.40984464081E+03  0.16962125312E+04  0.12699999809E+01 0. -1.
       -4    1    3    3    0  502  0.15339193312E+02  0.16458819573E+04  0.83609524597E+03  0.18461363930E+04  0.12699999809E+01 0.  1.
</event>
<event>
 5   0  0.2180451E-07  0.3471538E+04  0.7818609E-02  0.8120568E-01
        2   -1    0    0  501    0  0.00000000000E+00  0.00000000000E+00  0.20151342159E+04  0.20151342159E+04  0.25500000920E-02 0.  1.
       -2   -1    0    0    0  501  0.00000000000E+00  0.00000000000E+00 -0.14951330947E+04  0.14951330947E+04  0.25500000920E-02 0. -1.
    10030    2    1    2    0    0  0.00000000000E+00  0.00000000000E+00  0.52000112121E+03  0.35102673107E+04  0.34715379051E+04 0.  0.
        4    1    3    3  502    0 -0.93861011724E+03  0.35823862928E+03  0.16912665856E+04  0.19671573766E+04  0.12699999809E+01 0.  1.
       -4    1    3    3    0  502  0.93861011724E+03 -0.35823862928E+03 -0.11712654644E+04  0.15431099341E+04  0.12699999809E+01 0. -1.
</event>
<event>
 5   0  0.1098171E-07  0.3493778E+04  0.7818609E-02  0.8115266E-01
        1   -1    0    0  501    0  0.00000000000E+00  0.00000000000E+00  0.12005578796E+04  0.12005578796E+04  0.50400001928E-02 0. -1.
       -1   -1    0    0    0  501  0.00000000000E+00  0.00000000000E+00 -0.25418365047E+04  0.25418365047E+04  0.50400001928E-02 0.  1.
    10030    2    1    2    0    0  0.00000000000E+00  0.00000000000E+00 -0.13412786251E+04  0.37423943843E+04  0.34937783813E+04 0.  0.
        4    1    3    3  502    0 -0.87398439488E+03  0.99152669257E+02 -0.22873241474E+04  0.24506189713E+04  0.12699999809E+01 0.  1.
       -4    1    3    3    0  502  0.87398439488E+03 -0.99152669257E+02  0.94604552238E+03  0.12917754130E+04  0.12699999809E+01 0. -1.
</event>
<event>
 5   0  0.1013863E-07  0.3492368E+04  0.7818609E-02  0.8115601E-01
        1   -1    0    0  501    0  0.00000000000E+00  0.00000000000E+00  0.20362118258E+04  0.20362118258E+04  0.50400001928E-02 0.  1.
       -1   -1    0    0    0  501  0.00000000000E+00  0.00000000000E+00 -0.14974660499E+04  0.14974660499E+04  0.50400001928E-02 0. -1.
    10030    2    1    2    0    0  0.00000000000E+00  0.00000000000E+00  0.53874577590E+03  0.35336778757E+04  0.34923677238E+04 0.  0.
        2    1    3    3  502    0 -0.12853783073E+04 -0.52121267191E+03  0.13427214338E+04  0.19304820359E+04  0.25500000920E-02 0.  1.
       -2    1    3    3    0  502  0.12853783073E+04  0.52121267191E+03 -0.80397565790E+03  0.16031958398E+04  0.25500000920E-02 0. -1.
</event>
<event>
 5   0  0.3190112E-07  0.3544457E+04  0.7818609E-02  0.8103334E-01
        2   -1    0    0  501    0  0.00000000000E+00  0.00000000000E+00  0.19230998920E+04  0.19230998920E+04  0.25500000920E-02 0.  1.
       -2   -1    0    0    0  501  0.00000000000E+00  0.00000000000E+00 -0.16331929588E+04  0.16331929588E+04  0.25500000920E-02 0. -1.
    10030    2    1    2    0    0  0.00000000000E+00  0.00000000000E+00  0.28990693325E+03  0.35562928508E+04  0.35444566313E+04 0.  0.
        5    1    3    3  502    0 -0.13793542045E+04 -0.96926980526E+03 -0.40337781514E+03  0.17334467770E+04  0.46999998093E+01 0.  1.
       -5    1    3    3    0  502  0.13793542045E+04  0.96926980526E+03  0.69328474839E+03  0.18228460739E+04  0.46999998093E+01 0. -1.
</event>
<event>
 5   0  0.1098171E-07  0.3504992E+04  0.7818609E-02  0.8112608E-01
       -1   -1    0    0    0  501  0.00000000000E+00  0.00000000000E+00  0.17315317293E+04  0.17315317293E+04  0.50400001928E-02 0. -1.
        1   -1    0    0  501    0  0.00000000000E+00  0.00000000000E+00 -0.17737140732E+04  0.17737140732E+04  0.50400001928E-02 0.  1.
    10030    2    1    2    0    0  0.00000000000E+00  0.00000000000E+00 -0.42182343880E+02  0.35052458025E+04  0.35049919808E+04 0.  0.
        4    1    3    3  502    0  0.14788239710E+04  0.80772767448E+03  0.46049977261E+03  0.17468274062E+04  0.12699999809E+01 0. -1.
       -4    1    3    3    0  502 -0.14788239710E+04 -0.80772767448E+03 -0.50268211649E+03  0.17584183963E+04  0.12699999809E+01 0.  1.
</event>
<event>
 5   0  0.1098171E-07  0.3497042E+04  0.7818609E-02  0.8114491E-01
       -1   -1    0    0    0  501  0.00000000000E+00  0.00000000000E+00  0.19334621162E+04  0.19334621162E+04  0.50400001928E-02 0. -1.
        1   -1    0    0  501    0  0.00000000000E+00  0.00000000000E+00 -0.15812704057E+04  0.15812704057E+04  0.50400001928E-02 0.  1.
    10030    2    1    2    0    0  0.00000000000E+00  0.00000000000E+00  0.35219171052E+03  0.35147325219E+04  0.34970424218E+04 0.  0.
        4    1    3    3  502    0 -0.11182218869E+04 -0.13063559665E+04  0.49446109303E+03  0.17892678628E+04  0.12699999809E+01 0.  1.
       -4    1    3    3    0  502  0.11182218869E+04  0.13063559665E+04 -0.14226938251E+03  0.17254646591E+04  0.12699999809E+01 0. -1.
</event>
<event>
 5   0  0.2180451E-07  0.3489365E+04  0.7818609E-02  0.8116315E-01
        2   -1    0    0  501    0  0.00000000000E+00  0.00000000000E+00  0.30639316759E+04  0.30639316759E+04  0.25500000920E-02 0. -1.
       -2   -1    0    0    0  501  0.00000000000E+00  0.00000000000E+00 -0.99346769337E+03  0.99346769337E+03  0.25500000920E-02 0.  1.
    10030    2    1    2    0    0  0.00000000000E+00  0.00000000000E+00  0.20704639825E+04  0.40573993692E+04  0.34893650624E+04 0.  0.
        4    1    3    3  502    0  0.26229345126E+03 -0.17170572702E+04  0.84476143303E+03  0.19315038223E+04  0.12699999809E+01 0.  1.
       -4    1    3    3    0  502 -0.26229345126E+03  0.17170572702E+04  0.12257025495E+04  0.21258955469E+04  0.12699999809E+01 0. -1.
</event>
<event>
 5   0  0.2180451E-07  0.3497257E+04  0.7818609E-02  0.8114440E-01
       -2   -1    0    0    0  501  0.00000000000E+00  0.00000000000E+00  0.19152631015E+04  0.19152631015E+04  0.25500000920E-02 0. -1.
        2   -1    0    0  501    0  0.00000000000E+00  0.00000000000E+00 -0.15964920078E+04  0.15964920078E+04  0.25500000920E-02 0.  1.
    10030    2    1    2    0    0  0.00000000000E+00  0.00000000000E+00  0.31877109367E+03  0.35117551092E+04  0.34972573450E+04 0.  0.
        4    1    3    3  502    0 -0.38230884747E+02 -0.13226656176E+04  0.13072756504E+04  0.18600745081E+04  0.12699999809E+01 0. -1.
       -4    1    3    3    0  502  0.38230884747E+02  0.13226656176E+04 -0.98850455674E+03  0.16516806011E+04  0.12699999809E+01 0.  1.
</event>
<event>
 5   0  0.1033796E-07  0.3521816E+04  0.7818609E-02  0.8108639E-01
       -1   -1    0    0    0  501  0.00000000000E+00  0.00000000000E+00  0.17613105744E+04  0.17613105744E+04  0.50400001928E-02 0.  1.
        1   -1    0    0  501    0  0.00000000000E+00  0.00000000000E+00 -0.17605056792E+04  0.17605056792E+04  0.50400001928E-02 0. -1.
    10030    2    1    2    0    0  0.00000000000E+00  0.00000000000E+00  0.80489523376E+00  0.35218162537E+04  0.35218161617E+04 0.  0.
        3    1    3    3  502    0  0.14723062500E+04 -0.86491557818E+02  0.96249954456E+03  0.17611280098E+04  0.10100000352E+00 0.  1.
       -3    1    3    3    0  502 -0.14723062500E+04  0.86491557818E+02 -0.96169464932E+03  0.17606882439E+04  0.10100000352E+00 0. -1.
</event>
<event>
 5   0  0.3219205E-07  0.3508039E+04  0.7818609E-02  0.8111887E-01
       -2   -1    0    0    0  501  0.00000000000E+00  0.00000000000E+00  0.13488838152E+04  0.13488838152E+04  0.25500000920E-02 0.  1.
        2   -1    0    0  501    0  0.00000000000E+00  0.00000000000E+00 -0.22808370774E+04  0.22808370774E+04  0.25500000920E-02 0. -1.
    10030    2    1    2    0    0  0.00000000000E+00  0.00000000000E+00 -0.93195326216E+03  0.36297208926E+04  0.35080388931E+04 0.  0.
        2    1    3    3  502    0  0.10106276778E+04  0.14149723434E+04 -0.70433479628E+03  0.18760603777E+04  0.25500000920E-02 0.  1.
       -2    1    3    3    0  502 -0.10106276778E+04 -0.14149723434E+04 -0.22761846588E+03  0.17536605149E+04  0.25500000920E-02 0. -1.
</event>
<event>
 5   0  0.1013863E-07  0.3516213E+04  0.7818609E-02  0.8109958E-01
       -1   -1    0    0    0  501  0.00000000000E+00  0.00000000000E+00  0.18230974104E+04  0.18230974104E+04  0.50400001928E-02 0. -1.
        1   -1    0    0  501    0  0.00000000000E+00  0.00000000000E+00 -0.16954320718E+04  0.16954320718E+04  0.50400001928E-02 0.  1.
    10030    2    1    2    0    0  0.00000000000E+00  0.00000000000E+00  0.12766533865E+03  0.35185294822E+04  0.35162126327E+04 0.  0.
        5    1    3    3  502    0  0.79772810842E+03  0.13219984922E+04  0.90513963032E+03  0.17897904873E+04  0.46999998093E+01 0. -1.
       -5    1    3    3    0  502 -0.79772810842E+03 -0.13219984922E+04 -0.77747429167E+03  0.17287389949E+04  0.46999998093E+01 0.  1.
</event>
<event>
 5   0  0.2180451E-07  0.3346343E+04  0.7818609E-02  0.8151202E-01
        2   -1    0    0  501    0  0.00000000000E+00  0.00000000000E+00  0.23079222232E+04  0.23079222232E+04  0.25500000920E-02 0.  1.
       -2   -1    0    0    0  501  0.00000000000E+00  0.00000000000E+00 -0.12129973589E+04  0.12129973589E+04  0.25500000920E-02 0. -1.
    10030    2    1    2    0    0  0.00000000000E+00  0.00000000000E+00  0.10949248643E+04  0.35209195822E+04  0.33463434142E+04 0.  0.
        4    1    3    3  502    0  0.11959108775E+04  0.11576753197E+04  0.36801597741E+03  0.17046560783E+04  0.12699999809E+01 0.  1.
       -4    1    3    3    0  502 -0.11959108775E+04 -0.11576753197E+04  0.72690888688E+03  0.18162635039E+04  0.12699999809E+01 0. -1.
</event>
<event>
 5   0  0.2180451E-07  0.3458700E+04  0.7818609E-02  0.8123648E-01
        2   -1    0    0  501    0  0.00000000000E+00  0.00000000000E+00  0.18275439706E+04  0.18275439706E+04  0.25500000920E-02 0.  1.
       -2   -1    0    0    0  501  0.00000000000E+00  0.00000000000E+00 -0.16364322891E+04  0.16364322891E+04  0.25500000920E-02 0. -1.
    10030    2    1    2    0    0  0.00000000000E+00  0.00000000000E+00  0.19111168156E+03  0.34639762597E+04  0.34587003127E+04 0.  0.
        4    1    3    3  502    0 -0.49321367817E+03  0.15722133342E+04 -0.43015995984E+03  0.17029837652E+04  0.12699999809E+01 0. -1.
       -4    1    3    3    0  502  0.49321367817E+03 -0.15722133342E+04  0.62127164140E+03  0.17609924945E+04  0.12699999809E+01 0.  1.
</event>
<event>
 5   0  0.1033796E-07  0.3501087E+04  0.7818609E-02  0.8113532E-01
        1   -1    0    0  501    0  0.00000000000E+00  0.00000000000E+00  0.25067801729E+04  0.25067801729E+04  0.50400001928E-02 0. -1.
       -1   -1    0    0    0  501  0.00000000000E+00  0.00000000000E+00 -0.12224454530E+04  0.12224454530E+04  0.50400001928E-02 0.  1.
    10030    2    1    2    0    0  0.00000000000E+00  0.00000000000E+00  0.12843347199E+04  0.37292256258E+04  0.35010867021E+04 0.  0.
        3    1    3    3  502    0 -0.10550923305E+04  0.24119000298E+03  0.21076888755E+04  0.23693342629E+04  0.10100000352E+00 0. -1.
       -3    1    3    3    0  502  0.10550923305E+04 -0.24119000298E+03 -0.82335415557E+03  0.13598913630E+04  0.10100000352E+00 0.  1.
</event>
<event>
 5   0  0.2180451E-07  0.3507411E+04  0.7818609E-02  0.8112036E-01
        2   -1    0    0  501    0  0.00000000000E+00  0.00000000000E+00  0.21468031451E+04  0.21468031451E+04  0.25500000920E-02 0. -1.
       -2   -1    0    0    0  501  0.00000000000E+00  0.00000000000E+00 -0.14325869976E+04  0.14325869976E+04  0.25500000920E-02 0.  1.
    10030    2    1    2    0    0  0.00000000000E+00  0.00000000000E+00  0.71421614751E+03  0.35793901427E+04  0.35074105959E+04 0.  0.
        4    1    3    3  502    0 -0.22805431486E+03  0.14303824741E+04 -0.65185644516E+03  0.15883706214E+04  0.12699999809E+01 0.  1.
       -4    1    3    3    0  502  0.22805431486E+03 -0.14303824741E+04  0.13660725927E+04  0.19910195213E+04  0.12699999809E+01 0. -1.
</event>
<event>
 5   0  0.3190112E-07  0.3496880E+04  0.7818609E-02  0.8114530E-01
        2   -1    0    0  501    0  0.00000000000E+00  0.00000000000E+00  0.12382453286E+04  0.12382453286E+04  0.25500000920E-02 0. -1.
       -2   -1    0    0    0  501  0.00000000000E+00  0.00000000000E+00 -0.24688508070E+04  0.24688508070E+04  0.25500000920E-02 0.  1.
    10030    2    1    2    0    0  0.00000000000E+00  0.00000000000E+00 -0.12306054784E+04  0.37070961356E+04  0.34968803118E+04 0.  0.
        5    1    3    3  502    0  0.53978176703E+02 -0.33165101581E+03  0.12036878601E+04  0.12497170057E+04  0.46999998093E+01 0. -1.
       -5    1    3    3    0  502 -0.53978176703E+02  0.33165101581E+03 -0.24342933385E+04  0.24573791299E+04  0.46999998093E+01 0.  1.
</event>
<event>
 5   0  0.3190185E-07  0.3504661E+04  0.7818609E-02  0.8112686E-01
        2   -1    0    0  501    0  0.00000000000E+00  0.00000000000E+00  0.14176103622E+04  0.14176103622E+04  0.25500000920E-02 0. -1.
       -2   -1    0    0    0  501  0.00000000000E+00  0.00000000000E+00 -0.21660833660E+04  0.21660833660E+04  0.25500000920E-02 0.  1.
    10030    2    1    2    0    0  0.00000000000E+00  0.00000000000E+00 -0.74847300381E+03  0.35836937283E+04  0.35046610251E+04 0.  0.
        1    1    3    3  502    0 -0.28036241664E+03  0.14803979501E+04 -0.12891086269E+04  0.19829226478E+04  0.50400001928E-02 0.  1.
       -1    1    3    3    0  502  0.28036241664E+03 -0.14803979501E+04  0.54063562304E+03  0.16007710805E+04  0.50400001928E-02 0. -1.
</event>
<event>
 5   0  0.1098171E-07  0.3514845E+04  0.7818609E-02  0.8110281E-01
       -1   -1    0    0    0  501  0.00000000000E+00  0.00000000000E+00  0.10493949284E+04  0.10493949284E+04  0.50400001928E-02 0.  1.
        1   -1    0    0  501    0  0.00000000000E+00  0.00000000000E+00 -0.29431560329E+04  0.29431560329E+04  0.50400001928E-02 0. -1.
    10030    2    1    2    0    0  0.00000000000E+00  0.00000000000E+00 -0.18937611045E+04  0.39925509613E+04  0.35148445283E+04 0.  0.
        4    1    3    3  502    0  0.15558754632E+04 -0.77191905724E+03 -0.12515163978E+04  0.21407714485E+04  0.12699999809E+01 0.  1.
       -4    1    3    3    0  502 -0.15558754632E+04  0.77191905724E+03 -0.64224470667E+03  0.18517795128E+04  0.12699999809E+01 0. -1.
</event>
<event>
 5   0  0.2180451E-07  0.3510520E+04  0.7818609E-02  0.8111301E-01
       -2   -1    0    0    0  501  0.00000000000E+00  0.00000000000E+00  0.17349736929E+04  0.17349736929E+04  0.25500000920E-02 0.  1.
        2   -1    0    0  501    0  0.00000000000E+00  0.00000000000E+00 -0.17757833781E+04  0.17757833781E+04  0.25500000920E-02 0. -1.
    10030    2    1    2    0    0  0.00000000000E+00  0.00000000000E+00 -0.40809685235E+02  0.35107570710E+04  0.35105198733E+04 0.  0.
        4    1    3    3  502    0 -0.10347289509E+04  0.60455275194E+03 -0.13029843049E+04  0.17702874748E+04  0.12699999809E+01 0. -1.
       -4    1    3    3    0  502  0.10347289509E+04 -0.60455275194E+03  0.12621746197E+04  0.17404695962E+04  0.12699999809E+01 0.  1.
</event>
<event>
 5   0  0.1013863E-07  0.3505306E+04  0.7818609E-02  0.8112534E-01
        1   -1    0    0  501    0  0.00000000000E+00  0.00000000000E+00  0.10797899805E+04  0.10797899806E+04  0.50400001928E-02 0. -1.
       -1   -1    0    0    0  501  0.00000000000E+00  0.00000000000E+00 -0.28448056608E+04  0.28448056608E+04  0.50400001928E-02 0.  1.
    10030    2    1    2    0    0  0.00000000000E+00  0.00000000000E+00 -0.17650156802E+04  0.39245956413E+04  0.35053060632E+04 0.  0.
        2    1    3    3  502    0  0.17460871868E+03 -0.13084109330E+04 -0.21734034927E+04  0.25428547179E+04  0.25500000920E-02 0.  1.
       -2    1    3    3    0  502 -0.17460871868E+03  0.13084109330E+04  0.40838781250E+03  0.13817409234E+04  0.25500000920E-02 0. -1.
</event>
<event>
 5   0  0.3190185E-07  0.3492562E+04  0.7818609E-02  0.8115555E-01
        2   -1    0    0  501    0  0.00000000000E+00  0.00000000000E+00  0.27644835699E+04  0.27644835699E+04  0.25500000920E-02 0. -1.
       -2   -1    0    0    0  501  0.00000000000E+00  0.00000000000E+00 -0.11030982533E+04  0.11030982533E+04  0.25500000920E-02 0.  1.
    10030    2    1    2    0    0  0.00000000000E+00  0.00000000000E+00  0.16613853166E+04  0.38675818231E+04  0.34925618088E+04 0.  0.
        1    1    3    3  502    0  0.37256589928E+03 -0.16199196057E+04  0.23790763608E+03  0.16791500593E+04  0.50400001928E-02 0.  1.
       -1    1    3    3    0  502 -0.37256589928E+03  0.16199196057E+04  0.14234776805E+04  0.21884317639E+04  0.50400001928E-02 0. -1.
</event>
<event>
 5   0  0.1098171E-07  0.3493882E+04  0.7818609E-02  0.8115241E-01
        1   -1    0    0  501    0  0.00000000000E+00  0.00000000000E+00  0.22823636433E+04  0.22823636433E+04  0.50400001928E-02 0. -1.
       -1   -1    0    0    0  501  0.00000000000E+00  0.00000000000E+00 -0.13371238090E+04  0.13371238090E+04  0.50400001928E-02 0.  1.
    10030    2    1    2    0    0  0.00000000000E+00  0.00000000000E+00  0.94523983429E+03  0.36194874523E+04  0.34938819490E+04 0.  0.
        4    1    3    3  502    0  0.98447765291E+03 -0.13512225112E+04  0.99759487010E+03  0.19468424851E+04  0.12699999809E+01 0. -1.
       -4    1    3    3    0  502 -0.98447765291E+03  0.13512225112E+04 -0.52355035811E+02  0.16726449673E+04  0.12699999809E+01 0.  1.
</event>
<event>
 5   0  0.1098171E-07  0.3500130E+04  0.7818609E-02  0.8113759E-01
       -1   -1    0    0    0  501  0.00000000000E+00  0.00000000000E+00  0.16742980092E+04  0.16742980092E+04  0.50400001928E-02 0.  1.
        1   -1    0    0  501    0  0.00000000000E+00  0.00000000000E+00 -0.18292609887E+04  0.18292609887E+04  0.50400001928E-02 0. -1.
    10030    2    1    2    0    0  0.00000000000E+00  0.00000000000E+00 -0.15496297955E+03  0.35035589979E+04  0.35001303014E+04 0.  0.
        4    1    3    3  502    0 -0.89606870767E+03  0.74734291690E+03  0.12281220399E+04  0.16940324443E+04  0.12699999809E+01 0.  1.
       -4    1    3    3    0  502  0.89606870767E+03 -0.74734291690E+03 -0.13830850195E+04  0.18095265536E+04  0.12699999809E+01 0. -1.
</event>
<event>
 5   0  0.3190185E-07  0.3609308E+04  0.7818609E-02  0.8088363E-01
        2   -1    0    0  501    0  0.00000000000E+00  0.00000000000E+00  0.16802038559E+04  0.16802038559E+04  0.25500000920E-02 0. -1.
       -2   -1    0    0    0  501  0.00000000000E+00  0.00000000000E+00 -0.19383223640E+04  0.19383223640E+04  0.25500000920E-02 0.  1.
    10030    2    1    2    0    0  0.00000000000E+00  0.00000000000E+00 -0.25811850806E+03  0.36185262199E+04  0.36093083604E+04 0.  0.
        1    1    3    3  502    0 -0.64384451394E+03  0.83522894432E+03 -0.15972560957E+04  0.19139932557E+04  0.50400001928E-02 0.  1.
       -1    1    3    3    0  502  0.64384451394E+03 -0.83522894432E+03  0.13391375876E+04  0.17045329642E+04  0.50400001928E-02 0. -1.
</event>
<event>
 5   0  0.2180451E-07  0.3398406E+04  0.7818609E-02  0.8138298E-01
       -2   -1    0    0    0  501  0.00000000000E+00  0.00000000000E+00  0.10529233652E+04  0.10529233652E+04  0.25500000920E-02 0. -1.
        2   -1    0    0  501    0  0.00000000000E+00  0.00000000000E+00 -0.27421659284E+04  0.27421659284E+04  0.25500000920E-02 0.  1.
    10030    2    1    2    0    0  0.00000000000E+00  0.00000000000E+00 -0.16892425633E+04  0.37950892936E+04  0.33984058482E+04 0.  0.
        4    1    3    3  502    0  0.99167294036E+03  0.12456914495E+04 -0.15072895057E+04  0.21925067104E+04  0.12699999809E+01 0.  1.
       -4    1    3    3    0  502 -0.99167294036E+03 -0.12456914495E+04 -0.18195305758E+03  0.16025825833E+04  0.12699999809E+01 0. -1.
</event>
<event>
 5   0  0.1013863E-07  0.3488538E+04  0.7818609E-02  0.8116512E-01
       -1   -1    0    0    0  501  0.00000000000E+00  0.00000000000E+00  0.12614904258E+04  0.12614904258E+04  0.50400001928E-02 0. -1.
        1   -1    0    0  501    0  0.00000000000E+00  0.00000000000E+00 -0.24118097712E+04  0.24118097712E+04  0.50400001928E-02 0.  1.
    10030    2    1    2    0    0  0.00000000000E+00  0.00000000000E+00 -0.11503193454E+04  0.36733001970E+04  0.34885383387E+04 0.  0.
        5    1    3    3  502    0  0.61147850706E+03 -0.26348601143E+03 -0.22727240562E+04  0.23682541182E+04  0.46999998093E+01 0.  1.
       -5    1    3    3    0  502 -0.61147850706E+03  0.26348601143E+03  0.11224047108E+04  0.13050460788E+04  0.46999998093E+01 0. -1.
</event>
<event>
 5   0  0.2180451E-07  0.3515768E+04  0.7818609E-02  0.8110063E-01
       -2   -1    0    0    0  501  0.00000000000E+00  0.00000000000E+00  0.16984443277E+04  0.16984443277E+04  0.25500000920E-02 0. -1.
        2   -1    0    0  501    0  0.00000000000E+00  0.00000000000E+00 -0.18194038863E+04  0.18194038863E+04  0.25500000920E-02 0.  1.
    10030    2    1    2    0    0  0.00000000000E+00  0.00000000000E+00 -0.12095955854E+03  0.35178482140E+04  0.35157680302E+04 0.  0.
        4    1    3    3  502    0 -0.69192654959E+03  0.14863047110E+04 -0.69511884450E+03  0.17807458732E+04  0.12699999809E+01 0.  1.
       -4    1    3    3    0  502  0.69192654959E+03 -0.14863047110E+04  0.57415928596E+03  0.17371023408E+04  0.12699999809E+01 0. -1.
</event>
<event>
 5   0  0.3190185E-07  0.3500238E+04  0.7818609E-02  0.8113734E-01
        2   -1    0    0  501    0  0.00000000000E+00  0.00000000000E+00  0.14504459528E+04  0.14504459528E+04  0.25500000920E-02 0.  1.
       -2   -1    0    0    0  501  0.00000000000E+00  0.00000000000E+00 -0.21117062437E+04  0.21117062437E+04  0.25500000920E-02 0. -1.
    10030    2    1    2    0    0  0.00000000000E+00  0.00000000000E+00 -0.66126029088E+03  0.35621521965E+04  0.35002375774E+04 0.  0.
        1    1    3    3  502    0 -0.66297450584E+03  0.37831285581E+03 -0.19333718937E+04  0.20786011382E+04  0.50400001928E-02 0. -1.
       -1    1    3    3    0  502  0.66297450584E+03 -0.37831285581E+03  0.12721116029E+04  0.14835510583E+04  0.50400001928E-02 0.  1.
</event>
<event>
 5   0  0.1098171E-07  0.3504687E+04  0.7818609E-02  0.8112680E-01
        1   -1    0    0  501    0  0.00000000000E+00  0.00000000000E+00  0.20947198783E+04  0.20947198783E+04  0.50400001928E-02 0.  1.
       -1   -1    0    0    0  501  0.00000000000E+00  0.00000000000E+00 -0.14659278410E+04  0.14659278410E+04  0.50400001928E-02 0. -1.
    10030    2    1    2    0    0  0.00000000000E+00  0.00000000000E+00  0.62879203733E+03  0.35606477193E+04  0.35046872549E+04 0.  0.
        4    1    3    3  502    0 -0.77372878857E+03 -0.10402977421E+04  0.15121309819E+04  0.19918376816E+04  0.12699999809E+01 0.  1.
       -4    1    3    3    0  502  0.77372878857E+03  0.10402977421E+04 -0.88333894453E+03  0.15688100377E+04  0.12699999809E+01 0. -1.
</event>
<event>
 5   0  0.1098171E-07  0.3502360E+04  0.7818609E-02  0.8113231E-01
        1   -1    0    0  501    0  0.00000000000E+00  0.00000000000E+00  0.28518769118E+04  0.28518769118E+04  0.50400001928E-02 0. -1.
       -1   -1    0    0    0  501  0.00000000000E+00  0.00000000000E+00 -0.10753027459E+04  0.10753027459E+04  0.50400001928E-02 0.  1.
    10030    2    1    2    0    0  0.00000000000E+00  0.00000000000E+00  0.17765741659E+04  0.39271796577E+04  0.35023598183E+04 0.  0.
        4    1    3    3  502    0  0.70476467293E+03 -0.91002780686E+03 -0.59156175788E+03  0.12941370792E+04  0.12699999809E+01 0.  1.
       -4    1    3    3    0  502 -0.70476467293E+03  0.91002780686E+03  0.23681359238E+04  0.26330425785E+04  0.12699999809E+01 0. -1.
</event>
<event>
 5   0  0.1072381E-07  0.3474594E+04  0.7818609E-02  0.8119837E-01
       -1   -1    0    0    0  501  0.00000000000E+00  0.00000000000E+00  0.17813870783E+04  0.17813870783E+04  0.50400001928E-02 0. -1.
        1   -1    0    0  501    0  0.00000000000E+00  0.00000000000E+00 -0.16942981720E+04  0.16942981720E+04  0.50400001928E-02 0.  1.
    10030    2    1    2    0    0  0.00000000000E+00  0.00000000000E+00  0.87088906358E+02  0.34756852503E+04  0.34745940024E+04 0.  0.
        1    1    3    3  502    0  0.75823432182E+03  0.34613558908E+03 -0.14812281228E+04  0.16996369861E+04  0.50400001928E-02 0.  1.
       -1    1    3    3    0  502 -0.75823432182E+03 -0.34613558908E+03  0.15683170291E+04  0.17760482642E+04  0.50400001928E-02 0. -1.
</event>
<event>
 5   0  0.1033796E-07  0.3504691E+04  0.7818609E-02  0.8112679E-01
        1   -1    0    0  501    0  0.00000000000E+00  0.00000000000E+00  0.11491416154E+04  0.11491416155E+04  0.50400001928E-02 0.  1.
       -1   -1    0    0    0  501  0.00000000000E+00  0.00000000000E+00 -0.26721813313E+04  0.26721813313E+04  0.50400001928E-02 0. -1.
    10030    2    1    2    0    0  0.00000000000E+00  0.00000000000E+00 -0.15230397158E+04  0.38213229467E+04  0.35046910117E+04 0.  0.
        3    1    3    3  502    0  0.59414265586E+01 -0.60001757184E+03 -0.25566725753E+04  0.26261437612E+04  0.10100000352E+00 0. -1.
       -3    1    3    3    0  502 -0.59414265586E+01  0.60001757184E+03  0.10336328595E+04  0.11951791855E+04  0.10100000352E+00 0.  1.
</event>
<event>
 5   0  0.1013863E-07  0.3496638E+04  0.7818609E-02  0.8114587E-01
        3   -1    0    0  501    0  0.00000000000E+00  0.00000000000E+00  0.14526500178E+04  0.14526500213E+04  0.10100000352E+00 0.  1.
       -3   -1    0    0    0  501  0.00000000000E+00  0.00000000000E+00 -0.21041680057E+04  0.21041680081E+04  0.10100000352E+00 0. -1.
    10030    2    1    2    0    0  0.00000000000E+00  0.00000000000E+00 -0.65151798791E+03  0.35568180294E+04  0.34966382148E+04 0.  0.
        1    1    3    3  502    0 -0.86010434680E+03 -0.13521624356E+04 -0.10367136136E+04  0.19086376964E+04  0.50400001928E-02 0.  1.
       -1    1    3    3    0  502  0.86010434680E+03  0.13521624356E+04  0.38519562564E+03  0.16481803329E+04  0.50400001928E-02 0. -1.
</event>
<event>
 5   0  0.1033796E-07  0.3512270E+04  0.7818609E-02  0.8110888E-01
       -1   -1    0    0    0  501  0.00000000000E+00  0.00000000000E+00  0.15608056011E+04  0.15608056011E+04  0.50400001928E-02 0. -1.
        1   -1    0    0  501    0  0.00000000000E+00  0.00000000000E+00 -0.19759088964E+04  0.19759088964E+04  0.50400001928E-02 0.  1.
    10030    2    1    2    0    0  0.00000000000E+00  0.00000000000E+00 -0.41510329527E+03  0.35367144975E+04  0.35122697349E+04 0.  0.
        3    1    3    3  502    0  0.31705116966E+03 -0.11503036498E+04 -0.15050418355E+04  0.19206433473E+04  0.10100000352E+00 0.  1.
       -3    1    3    3    0  502 -0.31705116966E+03  0.11503036498E+04  0.10899385402E+04  0.16160711502E+04  0.10100000352E+00 0. -1.
</event>
<event>
 5   0  0.2180451E-07  0.3515894E+04  0.7818609E-02  0.8110034E-01
        2   -1    0    0  501    0  0.00000000000E+00  0.00000000000E+00  0.26514575607E+04  0.26514575607E+04  0.25500000920E-02 0. -1.
       -2   -1    0    0    0  501  0.00000000000E+00  0.00000000000E+00 -0.11655388568E+04  0.11655388568E+04  0.25500000920E-02 0.  1.
    10030    2    1    2    0    0  0.00000000000E+00  0.00000000000E+00  0.14859187040E+04  0.38169964175E+04  0.35158935218E+04 0.  0.
        4    1    3    3  502    0  0.15165426283E+04 -0.87007320499E+03  0.54441391022E+03  0.18312064450E+04  0.12699999809E+01 0. -1.
       -4    1    3    3    0  502 -0.15165426283E+04  0.87007320499E+03  0.94150479377E+03  0.19857899726E+04  0.12699999809E+01 0.  1.
</event>
<event>
 5   0  0.3190185E-07  0.3480582E+04  0.7818609E-02  0.8118407E-01
       -2   -1    0    0    0  501  0.00000000000E+00  0.00000000000E+00  0.13947987476E+04  0.13947987476E+04  0.25500000920E-02 0. -1.
        2   -1    0    0  501    0  0.00000000000E+00  0.00000000000E+00 -0.21713616752E+04  0.21713616752E+04  0.25500000920E-02 0.  1.
    10030    2    1    2    0    0  0.00000000000E+00  0.00000000000E+00 -0.77656292764E+03  0.35661604228E+04  0.34805818738E+04 0.  0.
        1    1    3    3  502    0 -0.92288321059E+03 -0.59679800284E+03  0.99424020561E+03  0.14820239077E+04  0.50400001928E-02 0. -1.
       -1    1    3    3    0  502  0.92288321059E+03  0.59679800284E+03 -0.17708031333E+04  0.20841365150E+04  0.50400001928E-02 0.  1.
</event>
<event>
 5   0  0.1013863E-07  0.3503257E+04  0.7818609E-02  0.8113019E-01
        1   -1    0    0  501    0  0.00000000000E+00  0.00000000000E+00  0.11106068565E+04  0.11106068565E+04  0.50400001928E-02 0. -1.
       -1   -1    0    0    0  501  0.00000000000E+00  0.00000000000E+00 -0.27626354116E+04  0.27626354116E+04  0.50400001928E-02 0.  1.
    10030    2    1    2    0    0  0.00000000000E+00  0.00000000000E+00 -0.16520285551E+04  0.38732422681E+04  0.35032566735E+04 0.  0.
        2    1    3    3  502    0  0.75768490043E+03  0.13631991309E+04 -0.17075992514E+04  0.23126377758E+04  0.25500000920E-02 0. -1.
       -2    1    3    3    0  502 -0.75768490043E+03 -0.13631991309E+04  0.55570696298E+02  0.15606044922E+04  0.25500000920E-02 0.  1.
</event>
<event>
 5   0  0.3119048E-07  0.3502962E+04  0.7818609E-02  0.8113088E-01
        2   -1    0    0  501    0  0.00000000000E+00  0.00000000000E+00  0.20681433888E+04  0.20681433888E+04  0.25500000920E-02 0. -1.
       -2   -1    0    0    0  501  0.00000000000E+00  0.00000000000E+00 -0.14833043461E+04  0.14833043461E+04  0.25500000920E-02 0.  1.
    10030    2    1    2    0    0  0.00000000000E+00  0.00000000000E+00  0.58483904268E+03  0.35514477350E+04  0.35029622191E+04 0.  0.
        3    1    3    3  502    0  0.16040282060E+04  0.49649209727E+03 -0.21274940184E+03  0.16925345510E+04  0.10100000352E+00 0.  1.
       -3    1    3    3    0  502 -0.16040282060E+04 -0.49649209727E+03  0.79758844452E+03  0.18589131839E+04  0.10100000352E+00 0. -1.
</event>
<event>
 5   0  0.1013863E-07  0.3469082E+04  0.7818609E-02  0.8121156E-01
        1   -1    0    0  501    0  0.00000000000E+00  0.00000000000E+00  0.25512969348E+04  0.25512969348E+04  0.50400001928E-02 0.  1.
       -1   -1    0    0    0  501  0.00000000000E+00  0.00000000000E+00 -0.11792563563E+04  0.11792563563E+04  0.50400001928E-02 0. -1.
    10030    2    1    2    0    0  0.00000000000E+00  0.00000000000E+00  0.13720405786E+04  0.37305532911E+04  0.34690823727E+04 0.  0.
        2    1    3    3  502    0 -0.39575828665E+03  0.92583201658E+03 -0.83282332662E+03  0.13066691386E+04  0.25500000920E-02 0. -1.
       -2    1    3    3    0  502  0.39575828665E+03 -0.92583201658E+03  0.22048639052E+04  0.24238841525E+04  0.25500000920E-02 0.  1.
</event>
<event>
 5   0  0.3219205E-07  0.3506463E+04  0.7818609E-02  0.8112260E-01
        2   -1    0    0  501    0  0.00000000000E+00  0.00000000000E+00  0.18387413365E+04  0.18387413365E+04  0.25500000920E-02 0. -1.
       -2   -1    0    0    0  501  0.00000000000E+00  0.00000000000E+00 -0.16716984769E+04  0.16716984769E+04  0.25500000920E-02 0.  1.
    10030    2    1    2    0    0  0.00000000000E+00  0.00000000000E+00  0.16704285956E+03  0.35104398134E+04  0.35064632276E+04 0.  0.
        2    1    3    3  502    0 -0.14855787326E+04 -0.62106400638E+02 -0.84652065567E+03  0.17109642300E+04  0.25500000920E-02 0.  1.
       -2    1    3    3    0  502  0.14855787326E+04  0.62106400638E+02  0.10135635152E+04  0.17994755834E+04  0.25500000920E-02 0. -1.
</event>
<event>
 5   0  0.3190185E-07  0.3578808E+04  0.7818609E-02  0.8095363E-01
        2   -1    0    0  501    0  0.00000000000E+00  0.00000000000E+00  0.18170297090E+04  0.18170297090E+04  0.25500000920E-02 0.  1.
       -2   -1    0    0    0  501  0.00000000000E+00  0.00000000000E+00 -0.17621979664E+04  0.17621979664E+04  0.25500000920E-02 0. -1.
    10030    2    1    2    0    0  0.00000000000E+00  0.00000000000E+00  0.54831742582E+02  0.35792276755E+04  0.35788076552E+04 0.  0.
        1    1    3    3  502    0  0.90914006452E+03  0.15390272154E+04  0.11004294686E+03  0.17908796378E+04  0.50400001928E-02 0. -1.
       -1    1    3    3    0  502 -0.90914006452E+03 -0.15390272154E+04 -0.55211204281E+02  0.17883480377E+04  0.50400001928E-02 0.  1.
</event>
<event>
 5   0  0.1013863E-07  0.3508397E+04  0.7818609E-02  0.8111803E-01
       -1   -1    0    0    0  501  0.00000000000E+00  0.00000000000E+00  0.24985586476E+04  0.24985586476E+04  0.50400001928E-02 0.  1.
        1   -1    0    0  501    0  0.00000000000E+00  0.00000000000E+00 -0.12315946731E+04  0.12315946731E+04  0.50400001928E-02 0. -1.
    10030    2    1    2    0    0  0.00000000000E+00  0.00000000000E+00  0.12669639745E+04  0.37301533207E+04  0.35083965117E+04 0.  0.
        5    1    3    3  502    0 -0.54071116016E+03 -0.15709321926E+04  0.12320903676E+04  0.20683967889E+04  0.46999998093E+01 0.  1.
       -5    1    3    3    0  502  0.54071116016E+03  0.15709321926E+04  0.34873606841E+02  0.16617565318E+04  0.46999998093E+01 0. -1.
</event>
<event>
 5   0  0.2180451E-07  0.3394806E+04  0.7818609E-02  0.8139182E-01
       -2   -1    0    0    0  501  0.00000000000E+00  0.00000000000E+00  0.17385666896E+04  0.17385666896E+04  0.25500000920E-02 0. -1.
        2   -1    0    0  501    0  0.00000000000E+00  0.00000000000E+00 -0.16572141311E+04  0.16572141311E+04  0.25500000920E-02 0.  1.
    10030    2    1    2    0    0  0.00000000000E+00  0.00000000000E+00  0.81352558535E+02  0.33957808207E+04  0.33948062011E+04 0.  0.
        4    1    3    3  502    0 -0.23440173935E+03 -0.15574129424E+04 -0.59251131564E+03  0.16827211654E+04  0.12699999809E+01 0.  1.
       -4    1    3    3    0  502  0.23440173935E+03  0.15574129424E+04  0.67386387418E+03  0.17130596552E+04  0.12699999809E+01 0. -1.
</event>
<event>
 5   0  0.2180451E-07  0.3511619E+04  0.7818609E-02  0.8111042E-01
        2   -1    0    0  501    0  0.00000000000E+00  0.00000000000E+00  0.23943447515E+04  0.23943447515E+04  0.25500000920E-02 0.  1.
       -2   -1    0    0    0  501  0.00000000000E+00  0.00000000000E+00 -0.12875618878E+04  0.12875618878E+04  0.25500000920E-02 0. -1.
    10030    2    1    2    0    0  0.00000000000E+00  0.00000000000E+00  0.11067828638E+04  0.36819066393E+04  0.35116190273E+04 0.  0.
        4    1    3    3  502    0  0.83380779535E+03 -0.15449840604E+04  0.58021008098E+03  0.18490150182E+04  0.12699999809E+01 0.  1.
       -4    1    3    3    0  502 -0.83380779535E+03  0.15449840604E+04  0.52657278281E+03  0.18328916212E+04  0.12699999809E+01 0. -1.
</event>
<event>
 5   0  0.1013863E-07  0.3508038E+04  0.7818609E-02  0.8111888E-01
        1   -1    0    0  501    0  0.00000000000E+00  0.00000000000E+00  0.14702416937E+04  0.14702416938E+04  0.50400001928E-02 0.  1.
       -1   -1    0    0    0  501  0.00000000000E+00  0.00000000000E+00 -0.20925698138E+04  0.20925698138E+04  0.50400001928E-02 0. -1.
    10030    2    1    2    0    0  0.00000000000E+00  0.00000000000E+00 -0.62232812009E+03  0.35628115076E+04  0.35080384191E+04 0.  0.
        5    1    3    3  502    0  0.24114046894E+03 -0.43965966285E+02  0.14527551875E+04  0.14732961199E+04  0.46999998093E+01 0.  1.
       -5    1    3    3    0  502 -0.24114046894E+03  0.43965966285E+02 -0.20750833076E+04  0.20895153877E+04  0.46999998093E+01 0. -1.
</event>
<event>
 5   0  0.1013863E-07  0.3511135E+04  0.7818609E-02  0.8111156E-01
        1   -1    0    0  501    0  0.00000000000E+00  0.00000000000E+00  0.13169372759E+04  0.13169372760E+04  0.50400001928E-02 0. -1.
       -1   -1    0    0    0  501  0.00000000000E+00  0.00000000000E+00 -0.23402919264E+04  0.23402919264E+04  0.50400001928E-02 0.  1.
    10030    2    1    2    0    0  0.00000000000E+00  0.00000000000E+00 -0.10233546505E+04  0.36572292024E+04  0.35111352435E+04 0.  0.
        2    1    3    3  502    0 -0.96195740698E+03  0.13868260158E+04 -0.10148608483E+04  0.19694138702E+04  0.25500000920E-02 0.  1.
       -2    1    3    3    0  502  0.96195740698E+03 -0.13868260158E+04 -0.84938021830E+01  0.16878153322E+04  0.25500000920E-02 0. -1.
</event>
<event>
 5   0  0.1013863E-07  0.3498534E+04  0.7818609E-02  0.8114137E-01
        1   -1    0    0  501    0  0.00000000000E+00  0.00000000000E+00  0.15440445938E+04  0.15440445938E+04  0.50400001928E-02 0.  1.
       -1   -1    0    0    0  501  0.00000000000E+00  0.00000000000E+00 -0.19817658061E+04  0.19817658061E+04  0.50400001928E-02 0. -1.
    10030    2    1    2    0    0  0.00000000000E+00  0.00000000000E+00 -0.43772121230E+03  0.35258103999E+04  0.34985338524E+04 0.  0.
        5    1    3    3  502    0 -0.53630326078E+03  0.53937002024E+03 -0.18063790048E+04  0.19599919401E+04  0.46999998093E+01 0. -1.
       -5    1    3    3    0  502  0.53630326078E+03 -0.53937002024E+03  0.13686577925E+04  0.15658184598E+04  0.46999998093E+01 0.  1.
</event>
<event>
 5   0  0.3190185E-07  0.3512238E+04  0.7818609E-02  0.8110896E-01
        2   -1    0    0  501    0  0.00000000000E+00  0.00000000000E+00  0.85798355900E+03  0.85798355901E+03  0.25500000920E-02 0. -1.
       -2   -1    0    0    0  501  0.00000000000E+00  0.00000000000E+00 -0.35944203836E+04  0.35944203836E+04  0.25500000920E-02 0.  1.
    10030    2    1    2    0    0  0.00000000000E+00  0.00000000000E+00 -0.27364368246E+04  0.44524039427E+04  0.35122378014E+04 0.  0.
        1    1    3    3  502    0  0.14915075380E+04 -0.81697711457E+03 -0.19235550656E+04  0.25675105515E+04  0.50400001928E-02 0.  1.
       -1    1    3    3    0  502 -0.14915075380E+04  0.81697711457E+03 -0.81288175905E+03  0.18848933911E+04  0.50400001928E-02 0. -1.
</event>
<event>
 5   0  0.3219205E-07  0.3505543E+04  0.7818609E-02  0.8112478E-01
        2   -1    0    0  501    0  0.00000000000E+00  0.00000000000E+00  0.16658995264E+04  0.16658995264E+04  0.25500000920E-02 0. -1.
       -2   -1    0    0    0  501  0.00000000000E+00  0.00000000000E+00 -0.18441731738E+04  0.18441731738E+04  0.25500000920E-02 0.  1.
    10030    2    1    2    0    0  0.00000000000E+00  0.00000000000E+00 -0.17827364740E+03  0.35100727002E+04  0.35055425924E+04 0.  0.
        2    1    3    3  502    0 -0.40908593054E+03 -0.16815111166E+04  0.18938856864E+03  0.17408902791E+04  0.25500000920E-02 0.  1.
       -2    1    3    3    0  502  0.40908593054E+03  0.16815111166E+04 -0.36766221604E+03  0.17691824211E+04  0.25500000920E-02 0. -1.
</event>
<event>
 5   0  0.3190112E-07  0.3496071E+04  0.7818609E-02  0.8114722E-01
       -2   -1    0    0    0  501  0.00000000000E+00  0.00000000000E+00  0.10770945580E+04  0.10770945580E+04  0.25500000920E-02 0.  1.
        2   -1    0    0  501    0  0.00000000000E+00  0.00000000000E+00 -0.28369164313E+04  0.28369164313E+04  0.25500000920E-02 0. -1.
    10030    2    1    2    0    0  0.00000000000E+00  0.00000000000E+00 -0.17598218733E+04  0.39140109893E+04  0.34960705082E+04 0.  0.
        5    1    3    3  502    0  0.16384923425E+04  0.25917425698E+03 -0.14969591417E+04  0.22344433790E+04  0.46999998093E+01 0. -1.
       -5    1    3    3    0  502 -0.16384923425E+04 -0.25917425698E+03 -0.26286273165E+03  0.16795676103E+04  0.46999998093E+01 0.  1.
</event>
<event>
 5   0  0.1098171E-07  0.3458049E+04  0.7818609E-02  0.8123804E-01
       -1   -1    0    0    0  501  0.00000000000E+00  0.00000000000E+00  0.10005939511E+04  0.10005939511E+04  0.50400001928E-02 0. -1.
        1   -1    0    0  501    0  0.00000000000E+00  0.00000000000E+00 -0.29877504214E+04  0.29877504214E+04  0.50400001928E-02 0.  1.
    10030    2    1    2    0    0  0.00000000000E+00  0.00000000000E+00 -0.19871564703E+04  0.39883443725E+04  0.34580485821E+04 0.  0.
        4    1    3    3  502    0  0.13462912950E+04  0.29737411221E+03  0.20977764301E+03  0.13946110160E+04  0.12699999809E+01 0. -1.
       -4    1    3    3    0  502 -0.13462912950E+04 -0.29737411221E+03 -0.21969341133E+04  0.25937333565E+04  0.12699999809E+01 0.  1.
</event>
<event>
 5   0  0.1072381E-07  0.3511301E+04  0.7818609E-02  0.8111117E-01
        1   -1    0    0  501    0  0.00000000000E+00  0.00000000000E+00  0.27249315932E+04  0.27249315932E+04  0.50400001928E-02 0.  1.
       -1   -1    0    0    0  501  0.00000000000E+00  0.00000000000E+00 -0.11311509562E+04  0.11311509562E+04  0.50400001928E-02 0. -1.
    10030    2    1    2    0    0  0.00000000000E+00  0.00000000000E+00  0.15937806370E+04  0.38560825495E+04  0.35113011704E+04 0.  0.
        1    1    3    3  502    0  0.16621668953E+04  0.34633045644E+03  0.12874827789E+04  0.21308109909E+04  0.50400001928E-02 0.  1.
       -1    1    3    3    0  502 -0.16621668953E+04 -0.34633045644E+03  0.30629785813E+03  0.17252715586E+04  0.50400001928E-02 0. -1.
</event>
<event>
 5   0  0.3219205E-07  0.3494604E+04  0.7818609E-02  0.8115070E-01
       -2   -1    0    0    0  501  0.00000000000E+00  0.00000000000E+00  0.11432352397E+04  0.11432352397E+04  0.25500000920E-02 0. -1.
        2   -1    0    0  501    0  0.00000000000E+00  0.00000000000E+00 -0.26705470761E+04  0.26705470761E+04  0.25500000920E-02 0.  1.
    10030    2    1    2    0    0  0.00000000000E+00  0.00000000000E+00 -0.15273118364E+04  0.38137823158E+04  0.34946035693E+04 0.  0.
        2    1    3    3  502    0 -0.73358742859E+03 -0.52797293124E+03  0.86830287346E+03  0.12533378681E+04  0.25500000920E-02 0. -1.
       -2    1    3    3    0  502  0.73358742859E+03  0.52797293124E+03 -0.23956147099E+04  0.25604444477E+04  0.25500000920E-02 0.  1.
</event>
<event>
 5   0  0.1013863E-07  0.3500256E+04  0.7818609E-02  0.8113729E-01
        1   -1    0    0  501    0  0.00000000000E+00  0.00000000000E+00  0.14527886201E+04  0.14527886201E+04  0.50400001928E-02 0.  1.
       -1   -1    0    0    0  501  0.00000000000E+00  0.00000000000E+00 -0.21083236058E+04  0.21083236058E+04  0.50400001928E-02 0. -1.
    10030    2    1    2    0    0  0.00000000000E+00  0.00000000000E+00 -0.65553498575E+03  0.35611122259E+04  0.35002563004E+04 0.  0.
        5    1    3    3  502    0  0.37888995055E+03  0.10669823670E+04  0.10299446850E+04  0.15306263785E+04  0.46999998093E+01 0.  1.
       -5    1    3    3    0  502 -0.37888995055E+03 -0.10669823670E+04 -0.16854796708E+04  0.20304858475E+04  0.46999998093E+01 0. -1.
</event>
<event>
 5   0  0.1098171E-07  0.3505847E+04  0.7818609E-02  0.8112406E-01
        1   -1    0    0  501    0  0.00000000000E+00  0.00000000000E+00  0.24549767178E+04  0.24549767178E+04  0.50400001928E-02 0.  1.
       -1   -1    0    0    0  501  0.00000000000E+00  0.00000000000E+00 -0.12516373758E+04  0.12516373758E+04  0.50400001928E-02 0. -1.
    10030    2    1    2    0    0  0.00000000000E+00  0.00000000000E+00  0.12033393420E+04  0.37066140936E+04  0.35058468972E+04 0.  0.
        4    1    3    3  502    0  0.10932003276E+04 -0.13525718012E+04  0.36954835751E+03  0.17779496717E+04  0.12699999809E+01 0. -1.
       -4    1    3    3    0  502 -0.10932003276E+04  0.13525718012E+04  0.83379098451E+03  0.19286644219E+04  0.12699999809E+01 0.  1.
</event>
<event>
 5   0  0.2180451E-07  0.3464385E+04  0.7818609E-02  0.8122282E-01
       -2   -1    0    0    0  501  0.00000000000E+00  0.00000000000E+00  0.11461636109E+04  0.11461636109E+04  0.25500000920E-02 0. -1.
        2   -1    0    0  501    0  0.00000000000E+00  0.00000000000E+00 -0.26178554552E+04  0.26178554552E+04  0.25500000920E-02 0.  1.
    10030    2    1    2    0    0  0.00000000000E+00  0.00000000000E+00 -0.14716918444E+04  0.37640190661E+04  0.34643848870E+04 0.  0.
        4    1    3    3  502    0 -0.31919094477E+03  0.11888381496E+04 -0.20599691075E+04  0.23997277642E+04  0.12699999809E+01 0.  1.
       -4    1    3    3    0  502  0.31919094477E+03 -0.11888381496E+04  0.58827726315E+03  0.13642913019E+04  0.12699999809E+01 0. -1.
</event>
<event>
 5   0  0.1013863E-07  0.3500096E+04  0.7818609E-02  0.8113767E-01
       -1   -1    0    0    0  501  0.00000000000E+00  0.00000000000E+00  0.16654639170E+04  0.16654639170E+04  0.50400001928E-02 0.  1.
        1   -1    0    0  501    0  0.00000000000E+00  0.00000000000E+00 -0.18389281253E+04  0.18389281253E+04  0.50400001928E-02 0. -1.
    10030    2    1    2    0    0  0.00000000000E+00  0.00000000000E+00 -0.17346420828E+03  0.35043920422E+04  0.35000962493E+04 0.  0.
        5    1    3    3  502    0 -0.40415822039E+03  0.97520395949E+02 -0.17887573969E+04  0.18364447200E+04  0.46999998093E+01 0. -1.
       -5    1    3    3    0  502  0.40415822039E+03 -0.97520395949E+02  0.16152931886E+04  0.16679473223E+04  0.46999998093E+01 0.  1.
</event>
<event>
 5   0  0.3119048E-07  0.3434666E+04  0.7818609E-02  0.8129450E-01
        2   -1    0    0  501    0  0.00000000000E+00  0.00000000000E+00  0.20671815603E+04  0.20671815603E+04  0.25500000920E-02 0. -1.
       -2   -1    0    0    0  501  0.00000000000E+00  0.00000000000E+00 -0.14266928877E+04  0.14266928877E+04  0.25500000920E-02 0.  1.
    10030    2    1    2    0    0  0.00000000000E+00  0.00000000000E+00  0.64048867259E+03  0.34938744480E+04  0.34346663475E+04 0.  0.
        3    1    3    3  502    0  0.10060257849E+04  0.53763820449E+03  0.16261543971E+04  0.19863335199E+04  0.10100000352E+00 0. -1.
       -3    1    3    3    0  502 -0.10060257849E+04 -0.53763820449E+03 -0.98566572455E+03  0.15075409280E+04  0.10100000352E+00 0.  1.
</event>
<event>
 5   0  0.3190185E-07  0.3350029E+04  0.7818609E-02  0.8150281E-01
        2   -1    0    0  501    0  0.00000000000E+00  0.00000000000E+00  0.29654821626E+04  0.29654821626E+04  0.25500000920E-02 0.  1.
       -2   -1    0    0    0  501  0.00000000000E+00  0.00000000000E+00 -0.94611055241E+03  0.94611055242E+03  0.25500000920E-02 0. -1.
    10030    2    1    2    0    0  0.00000000000E+00  0.00000000000E+00  0.20193716102E+04  0.39115927150E+04  0.33500292339E+04 0.  0.
        1    1    3    3  502    0  0.13044510363E+04 -0.27509263426E+03  0.21937826604E+04  0.25670899526E+04  0.50400001928E-02 0.  1.
       -1    1    3    3    0  502 -0.13044510363E+04  0.27509263426E+03 -0.17441105024E+03  0.13445027624E+04  0.50400001928E-02 0. -1.
</event>
<event>
 5   0  0.1072381E-07  0.3510472E+04  0.7818609E-02  0.8111313E-01
        1   -1    0    0  501    0  0.00000000000E+00  0.00000000000E+00  0.17051566232E+04  0.17051566232E+04  0.50400001928E-02 0. -1.
       -1   -1    0    0    0  501  0.00000000000E+00  0.00000000000E+00 -0.18067865011E+04  0.18067865011E+04  0.50400001928E-02 0.  1.
    10030    2    1    2    0    0  0.00000000000E+00  0.00000000000E+00 -0.10162987798E+03  0.35119431243E+04  0.35104723153E+04 0.  0.
        1    1    3    3  502    0 -0.27457840484E+03  0.85977605202E+03 -0.15568511998E+04  0.17995537832E+04  0.50400001928E-02 0.  1.
       -1    1    3    3    0  502  0.27457840484E+03 -0.85977605202E+03  0.14552213219E+04  0.17123893411E+04  0.50400001928E-02 0. -1.
</event>
<event>
 5   0  0.1013863E-07  0.3480720E+04  0.7818609E-02  0.8118374E-01
       -3   -1    0    0    0  501  0.00000000000E+00  0.00000000000E+00  0.11935921840E+04  0.11935921883E+04  0.10100000352E+00 0.  1.
        3   -1    0    0  501    0  0.00000000000E+00  0.00000000000E+00 -0.25375944708E+04  0.25375944728E+04  0.10100000352E+00 0. -1.
    10030    2    1    2    0    0  0.00000000000E+00  0.00000000000E+00 -0.13440022868E+04  0.37311866611E+04  0.34807200050E+04 0.  0.
        1    1    3    3  502    0 -0.89867509162E+03  0.10188383105E+04 -0.18380259662E+04  0.22856044880E+04  0.50400001928E-02 0. -1.
       -1    1    3    3    0  502  0.89867509162E+03 -0.10188383105E+04  0.49402367936E+03  0.14455821731E+04  0.50400001928E-02 0.  1.
</event>
<event>
 5   0  0.1013863E-07  0.3489908E+04  0.7818609E-02  0.8116186E-01
       -1   -1    0    0    0  501  0.00000000000E+00  0.00000000000E+00  0.18971883858E+04  0.18971883858E+04  0.50400001928E-02 0. -1.
        1   -1    0    0  501    0  0.00000000000E+00  0.00000000000E+00 -0.16049350677E+04  0.16049350677E+04  0.50400001928E-02 0.  1.
    10030    2    1    2    0    0  0.00000000000E+00  0.00000000000E+00  0.29225331817E+03  0.35021234535E+04  0.34899078328E+04 0.  0.
        2    1    3    3  502    0  0.82024085844E+03 -0.69672086014E+03 -0.12322346239E+04  0.16360370385E+04  0.25500000920E-02 0.  1.
       -2    1    3    3    0  502 -0.82024085844E+03  0.69672086014E+03  0.15244879421E+04  0.18660864150E+04  0.25500000920E-02 0. -1.
</event>
<event>
 5   0  0.1098171E-07  0.3503380E+04  0.7818609E-02  0.8112989E-01
       -1   -1    0    0    0  501  0.00000000000E+00  0.00000000000E+00  0.19403224823E+04  0.19403224823E+04  0.50400001928E-02 0. -1.
        1   -1    0    0  501    0  0.00000000000E+00  0.00000000000E+00 -0.15813954251E+04  0.15813954251E+04  0.50400001928E-02 0.  1.
    10030    2    1    2    0    0  0.00000000000E+00  0.00000000000E+00  0.35892705722E+03  0.35217179075E+04  0.35033795666E+04 0.  0.
        4    1    3    3  502    0  0.29428954930E+03  0.10983148318E+04  0.15189224028E+04  0.18973741559E+04  0.12699999809E+01 0. -1.
       -4    1    3    3    0  502 -0.29428954930E+03 -0.10983148318E+04 -0.11599953456E+04  0.16243437516E+04  0.12699999809E+01 0.  1.
</event>
<event>
 5   0  0.1013863E-07  0.3499574E+04  0.7818609E-02  0.8113891E-01
        1   -1    0    0  501    0  0.00000000000E+00  0.00000000000E+00  0.23949766269E+04  0.23949766269E+04  0.50400001928E-02 0. -1.
       -1   -1    0    0    0  501  0.00000000000E+00  0.00000000000E+00 -0.12784068924E+04  0.12784068924E+04  0.50400001928E-02 0.  1.
    10030    2    1    2    0    0  0.00000000000E+00  0.00000000000E+00  0.11165697345E+04  0.36733835193E+04  0.34995740466E+04 0.  0.
        2    1    3    3  502    0 -0.67904445531E+03  0.58124234186E+03 -0.10206898928E+04  0.13567431185E+04  0.25500000920E-02 0.  1.
       -2    1    3    3    0  502  0.67904445531E+03 -0.58124234186E+03  0.21372596273E+04  0.23166404008E+04  0.25500000920E-02 0. -1.
</event>
<event>
 5   0  0.1072381E-07  0.3505424E+04  0.7818609E-02  0.8112506E-01
       -1   -1    0    0    0  501  0.00000000000E+00  0.00000000000E+00  0.15022530588E+04  0.15022530588E+04  0.50400001928E-02 0. -1.
        1   -1    0    0  501    0  0.00000000000E+00  0.00000000000E+00 -0.20449277160E+04  0.20449277161E+04  0.50400001928E-02 0.  1.
    10030    2    1    2    0    0  0.00000000000E+00  0.00000000000E+00 -0.54267465728E+03  0.35471807748E+04  0.35054237498E+04 0.  0.
        1    1    3    3  502    0  0.69259431605E+03  0.45485211950E+03  0.12915417194E+04  0.15344892799E+04  0.50400001928E-02 0. -1.
       -1    1    3    3    0  502 -0.69259431605E+03 -0.45485211950E+03 -0.18342163767E+04  0.20126914949E+04  0.50400001928E-02 0.  1.
</event>
<event>
 5   0  0.3119048E-07  0.3502195E+04  0.7818609E-02  0.8113270E-01
       -2   -1    0    0    0  501  0.00000000000E+00  0.00000000000E+00  0.20393808964E+04  0.20393808964E+04  0.25500000920E-02 0. -1.
        2   -1    0    0  501    0  0.00000000000E+00  0.00000000000E+00 -0.15035652929E+04  0.15035652929E+04  0.25500000920E-02 0.  1.
    10030    2    1    2    0    0  0.00000000000E+00  0.00000000000E+00  0.53581560355E+03  0.35429461893E+04  0.35021949317E+04 0.  0.
        3    1    3    3  502    0 -0.11185133827E+03  0.14904840976E+04 -0.65500624337E+03  0.16318966744E+04  0.10100000352E+00 0.  1.
       -3    1    3    3    0  502  0.11185133827E+03 -0.14904840976E+04  0.11908218469E+04  0.19110495149E+04  0.10100000352E+00 0. -1.
</event>
<event>
 5   0  0.3219205E-07  0.3487574E+04  0.7818609E-02  0.8116741E-01
        2   -1    0    0  501    0  0.00000000000E+00  0.00000000000E+00  0.27944028699E+04  0.27944028699E+04  0.25500000920E-02 0. -1.
       -2   -1    0    0    0  501  0.00000000000E+00  0.00000000000E+00 -0.10881729888E+04  0.10881729888E+04  0.25500000920E-02 0.  1.
    10030    2    1    2    0    0  0.00000000000E+00  0.00000000000E+00  0.17062298811E+04  0.38825758587E+04  0.34875743564E+04 0.  0.
        2    1    3    3  502    0  0.93268534865E+03 -0.13482324613E+04  0.19153422241E+03  0.16505508437E+04  0.25500000920E-02 0. -1.
       -2    1    3    3    0  502 -0.93268534865E+03  0.13482324613E+04  0.15146956587E+04  0.22320250150E+04  0.25500000920E-02 0.  1.
</event>
<event>
 5   0  0.1013863E-07  0.3570230E+04  0.7818609E-02  0.8097345E-01
       -1   -1    0    0    0  501  0.00000000000E+00  0.00000000000E+00  0.14484219791E+04  0.14484219792E+04  0.50400001928E-02 0. -1.
        1   -1    0    0  501    0  0.00000000000E+00  0.00000000000E+00 -0.22000737115E+04  0.22000737115E+04  0.50400001928E-02 0.  1.
    10030    2    1    2    0    0  0.00000000000E+00  0.00000000000E+00 -0.75165173231E+03  0.36484956906E+04  0.35702297514E+04 0.  0.
        2    1    3    3  502    0  0.40790807848E+02 -0.13541595637E+04  0.81207774986E+03  0.15795196377E+04  0.25500000920E-02 0. -1.
       -2    1    3    3    0  502 -0.40790807848E+02  0.13541595637E+04 -0.15637294822E+04  0.20689760529E+04  0.25500000920E-02 0.  1.
</event>
<event>
 5   0  0.1098171E-07  0.3502878E+04  0.7818609E-02  0.8113108E-01
        1   -1    0    0  501    0  0.00000000000E+00  0.00000000000E+00  0.12026458239E+04  0.12026458239E+04  0.50400001928E-02 0.  1.
       -1   -1    0    0    0  501  0.00000000000E+00  0.00000000000E+00 -0.25506581203E+04  0.25506581203E+04  0.50400001928E-02 0. -1.
    10030    2    1    2    0    0  0.00000000000E+00  0.00000000000E+00 -0.13480122964E+04  0.37533039442E+04  0.35028778663E+04 0.  0.
        4    1    3    3  502    0 -0.37262449202E+03  0.16876673568E+04 -0.37006004653E+03  0.17674886620E+04  0.12699999809E+01 0. -1.
       -4    1    3    3    0  502  0.37262449202E+03 -0.16876673568E+04 -0.97795224988E+03  0.19858152822E+04  0.12699999809E+01 0.  1.
</event>
<event>
 5   0  0.1072381E-07  0.3488507E+04  0.7818609E-02  0.8116519E-01
       -1   -1    0    0    0  501  0.00000000000E+00  0.00000000000E+00  0.22366068908E+04  0.22366068908E+04  0.50400001928E-02 0.  1.
        1   -1    0    0  501    0  0.00000000000E+00  0.00000000000E+00 -0.13602840470E+04  0.13602840471E+04  0.50400001928E-02 0. -1.
    10030    2    1    2    0    0  0.00000000000E+00  0.00000000000E+00  0.87632284375E+03  0.35968909379E+04  0.34885072298E+04 0.  0.
        1    1    3    3  502    0 -0.77510340994E+03  0.14539404935E+04  0.10283908228E+04  0.19422450770E+04  0.50400001928E-02 0.  1.
       -1    1    3    3    0  502  0.77510340994E+03 -0.14539404935E+04 -0.15206797902E+03  0.16546458609E+04  0.50400001928E-02 0. -1.
</event>
<event>
 5   0  0.1072381E-07  0.3491769E+04  0.7818609E-02  0.8115743E-01
        1   -1    0    0  501    0  0.00000000000E+00  0.00000000000E+00  0.16066211280E+04  0.16066211280E+04  0.50400001928E-02 0.  1.
       -1   -1    0    0    0  501  0.00000000000E+00  0.00000000000E+00 -0.18972191852E+04  0.18972191852E+04  0.50400001928E-02 0. -1.
    10030    2    1    2    0    0  0.00000000000E+00  0.00000000000E+00 -0.29059805720E+03  0.35038403132E+04  0.34917688511E+04 0.  0.
        1    1    3    3  502    0 -0.28912160283E+03  0.13940563903E+04 -0.11593012146E+04  0.18360184713E+04  0.50400001928E-02 0. -1.
       -1    1    3    3    0  502  0.28912160283E+03 -0.13940563903E+04  0.86870315742E+03  0.16678218419E+04  0.50400001928E-02 0.  1.
</event>
<event>
 5   0  0.1013863E-07  0.3483073E+04  0.7818609E-02  0.8117813E-01
        1   -1    0    0  501    0  0.00000000000E+00  0.00000000000E+00  0.28974661804E+04  0.28974661804E+04  0.50400001928E-02 0.  1.
       -1   -1    0    0    0  501  0.00000000000E+00  0.00000000000E+00 -0.10467593558E+04  0.10467593558E+04  0.50400001928E-02 0. -1.
    10030    2    1    2    0    0  0.00000000000E+00  0.00000000000E+00  0.18507068246E+04  0.39442255361E+04  0.34830732593E+04 0.  0.
        2    1    3    3  502    0  0.11025191217E+04 -0.12918515853E+04  0.48894519652E+03  0.17673416018E+04  0.25500000920E-02 0.  1.
       -2    1    3    3    0  502 -0.11025191217E+04  0.12918515853E+04  0.13617616281E+04  0.21768839344E+04  0.25500000920E-02 0. -1.
</event>
<event>
 5   0  0.1098171E-07  0.3496856E+04  0.7818609E-02  0.8114535E-01
        1   -1    0    0  501    0  0.00000000000E+00  0.00000000000E+00  0.19837433232E+04  0.19837433232E+04  0.50400001928E-02 0. -1.
       -1   -1    0    0    0  501  0.00000000000E+00  0.00000000000E+00 -0.15410264269E+04  0.15410264269E+04  0.50400001928E-02 0.  1.
    10030    2    1    2    0    0  0.00000000000E+00  0.00000000000E+00  0.44271689638E+03  0.35247697501E+04  0.34968562368E+04 0.  0.
        4    1    3    3  502    0 -0.72325288312E+03 -0.14544843637E+04  0.87334451652E+03  0.18442754010E+04  0.12699999809E+01 0. -1.
       -4    1    3    3    0  502  0.72325288312E+03  0.14544843637E+04 -0.43062762014E+03  0.16804943491E+04  0.12699999809E+01 0.  1.
</event>
<event>
 5   0  0.1033796E-07  0.3480732E+04  0.7818609E-02  0.8118372E-01
       -1   -1    0    0    0  501  0.00000000000E+00  0.00000000000E+00  0.14913154479E+04  0.14913154479E+04  0.50400001928E-02 0. -1.
        1   -1    0    0  501    0  0.00000000000E+00  0.00000000000E+00 -0.20310076014E+04  0.20310076014E+04  0.50400001928E-02 0.  1.
    10030    2    1    2    0    0  0.00000000000E+00  0.00000000000E+00 -0.53969215349E+03  0.35223230493E+04  0.34807315385E+04 0.  0.
        3    1    3    3  502    0 -0.97919157619E+03  0.14369218233E+04 -0.19608802979E+03  0.17498602787E+04  0.10100000352E+00 0. -1.
       -3    1    3    3    0  502  0.97919157619E+03 -0.14369218233E+04 -0.34360412370E+03  0.17724627706E+04  0.10100000352E+00 0.  1.
</event>
<event>
 5   0  0.3219205E-07  0.3471365E+04  0.7818609E-02  0.8120610E-01
       -2   -1    0    0    0  501  0.00000000000E+00  0.00000000000E+00  0.16870358943E+04  0.16870358943E+04  0.25500000920E-02 0.  1.
        2   -1    0    0  501    0  0.00000000000E+00  0.00000000000E+00 -0.17857318858E+04  0.17857318858E+04  0.25500000920E-02 0. -1.
    10030    2    1    2    0    0  0.00000000000E+00  0.00000000000E+00 -0.98695991454E+02  0.34727677801E+04  0.34713650277E+04 0.  0.
        2    1    3    3  502    0 -0.71652638450E+03  0.13868931253E+04  0.70971495516E+03  0.17148113360E+04  0.25500000920E-02 0.  1.
       -2    1    3    3    0  502  0.71652638450E+03 -0.13868931253E+04 -0.80841094662E+03  0.17579564441E+04  0.25500000920E-02 0. -1.
</event>
<event>
 5   0  0.1013863E-07  0.3517148E+04  0.7818609E-02  0.8109738E-01
       -1   -1    0    0    0  501  0.00000000000E+00  0.00000000000E+00  0.20112738216E+04  0.20112738216E+04  0.50400001928E-02 0.  1.
        1   -1    0    0  501    0  0.00000000000E+00  0.00000000000E+00 -0.15376234751E+04  0.15376234751E+04  0.50400001928E-02 0. -1.
    10030    2    1    2    0    0  0.00000000000E+00  0.00000000000E+00  0.47365034643E+03  0.35488972967E+04  0.35171476187E+04 0.  0.
        5    1    3    3  502    0 -0.14857215595E+04  0.75034738223E+03 -0.33589883351E+03  0.16980105603E+04  0.46999998093E+01 0. -1.
       -5    1    3    3    0  502  0.14857215595E+04 -0.75034738223E+03  0.80954917994E+03  0.18508867364E+04  0.46999998093E+01 0.  1.
</event>
<event>
 5   0  0.3190185E-07  0.3503290E+04  0.7818609E-02  0.8113011E-01
       -2   -1    0    0    0  501  0.00000000000E+00  0.00000000000E+00  0.23324886680E+04  0.23324886680E+04  0.25500000920E-02 0. -1.
        2   -1    0    0  501    0  0.00000000000E+00  0.00000000000E+00 -0.13154449905E+04  0.13154449905E+04  0.25500000920E-02 0.  1.
    10030    2    1    2    0    0  0.00000000000E+00  0.00000000000E+00  0.10170436775E+04  0.36479336585E+04  0.35032901870E+04 0.  0.
        1    1    3    3  502    0 -0.14437950058E+03 -0.16496072314E+04  0.11032522822E+04  0.19897776400E+04  0.50400001928E-02 0. -1.
       -1    1    3    3    0  502  0.14437950058E+03  0.16496072314E+04 -0.86208604688E+02  0.16581560185E+04  0.50400001928E-02 0.  1.
</event>
<event>
 5   0  0.1033796E-07  0.3501941E+04  0.7818609E-02  0.8113330E-01
        1   -1    0    0  501    0  0.00000000000E+00  0.00000000000E+00  0.13189098034E+04  0.13189098034E+04  0.50400001928E-02 0. -1.
       -1   -1    0    0    0  501  0.00000000000E+00  0.00000000000E+00 -0.23245691107E+04  0.23245691107E+04  0.50400001928E-02 0.  1.
    10030    2    1    2    0    0  0.00000000000E+00  0.00000000000E+00 -0.10056593073E+04  0.36434789141E+04  0.35019405985E+04 0.  0.
        3    1    3    3  502    0 -0.39212711038E+03  0.16596309375E+04 -0.89588263754E+02  0.17076781273E+04  0.10100000352E+00 0. -1.
       -3    1    3    3    0  502  0.39212711038E+03 -0.16596309375E+04 -0.91607104356E+03  0.19358007868E+04  0.10100000352E+00 0.  1.
</event>
<event>
 5   0  0.3190185E-07  0.3499320E+04  0.7818609E-02  0.8113951E-01
       -2   -1    0    0    0  501  0.00000000000E+00  0.00000000000E+00  0.14122413084E+04  0.14122413084E+04  0.25500000920E-02 0.  1.
        2   -1    0    0  501    0  0.00000000000E+00  0.00000000000E+00 -0.21676962251E+04  0.21676962251E+04  0.25500000920E-02 0. -1.
    10030    2    1    2    0    0  0.00000000000E+00  0.00000000000E+00 -0.75545491663E+03  0.35799375335E+04  0.34993200215E+04 0.  0.
        1    1    3    3  502    0 -0.27109158818E+03 -0.83281759622E+03  0.11718406748E+04  0.14629717580E+04  0.50400001928E-02 0.  1.
       -1    1    3    3    0  502  0.27109158818E+03  0.83281759622E+03 -0.19272955914E+04  0.21169657755E+04  0.50400001928E-02 0. -1.
</event>
<event>
 5   0  0.1072381E-07  0.3420889E+04  0.7818609E-02  0.8132798E-01
        1   -1    0    0  501    0  0.00000000000E+00  0.00000000000E+00  0.15331209387E+04  0.15331209387E+04  0.50400001928E-02 0.  1.
       -1   -1    0    0    0  501  0.00000000000E+00  0.00000000000E+00 -0.19082775117E+04  0.19082775117E+04  0.50400001928E-02 0. -1.
    10030    2    1    2    0    0  0.00000000000E+00  0.00000000000E+00 -0.37515657306E+03  0.34413984504E+04  0.34208888962E+04 0.  0.
        1    1    3    3  502    0 -0.12897315234E+04 -0.86453402369E+03 -0.90937119956E+03  0.17993839110E+04  0.50400001928E-02 0.  1.
       -1    1    3    3    0  502  0.12897315234E+04  0.86453402369E+03  0.53421462650E+03  0.16420145394E+04  0.50400001928E-02 0. -1.
</event>
<event>
 5   0  0.3190112E-07  0.3518210E+04  0.7818609E-02  0.8109488E-01
       -2   -1    0    0    0  501  0.00000000000E+00  0.00000000000E+00  0.19085640994E+04  0.19085640994E+04  0.25500000920E-02 0.  1.
        2   -1    0    0  501    0  0.00000000000E+00  0.00000000000E+00 -0.16213497539E+04  0.16213497539E+04  0.25500000920E-02 0. -1.
    10030    2    1    2    0    0  0.00000000000E+00  0.00000000000E+00  0.28721434551E+03  0.35299138532E+04  0.35182097338E+04 0.  0.
        5    1    3    3  502    0 -0.38405102988E+03  0.17028073776E+04 -0.74785699532E+02  0.17471872108E+04  0.46999998093E+01 0. -1.
       -5    1    3    3    0  502  0.38405102988E+03 -0.17028073776E+04  0.36200004504E+03  0.17827266424E+04  0.46999998093E+01 0.  1.
</event>
<event>
 5   0  0.3190112E-07  0.3500969E+04  0.7818609E-02  0.8113560E-01
       -2   -1    0    0    0  501  0.00000000000E+00  0.00000000000E+00  0.18110628962E+04  0.18110628962E+04  0.25500000920E-02 0. -1.
        2   -1    0    0  501    0  0.00000000000E+00  0.00000000000E+00 -0.16919319227E+04  0.16919319227E+04  0.25500000920E-02 0.  1.
    10030    2    1    2    0    0  0.00000000000E+00  0.00000000000E+00  0.11913097348E+03  0.35029948189E+04  0.35009685106E+04 0.  0.
        5    1    3    3  502    0 -0.19453630010E+03  0.15780317075E+04  0.79220823772E+03  0.17764133595E+04  0.46999998093E+01 0. -1.
       -5    1    3    3    0  502  0.19453630010E+03 -0.15780317075E+04 -0.67307726424E+03  0.17265814593E+04  0.46999998093E+01 0.  1.
</event>
<event>
 5   0  0.3119048E-07  0.3478061E+04  0.7818609E-02  0.8119009E-01
        2   -1    0    0  501    0  0.00000000000E+00  0.00000000000E+00  0.21560569433E+04  0.21560569433E+04  0.25500000920E-02 0.  1.
       -2   -1    0    0    0  501  0.00000000000E+00  0.00000000000E+00 -0.14026656350E+04  0.14026656350E+04  0.25500000920E-02 0. -1.
    10030    2    1    2    0    0  0.00000000000E+00  0.00000000000E+00  0.75339130830E+03  0.35587225784E+04  0.34780609434E+04 0.  0.
        3    1    3    3  502    0 -0.13219823304E+04 -0.78177852202E+03  0.12113415668E+04  0.19560581129E+04  0.10100000352E+00 0.  1.
       -3    1    3    3    0  502  0.13219823304E+04  0.78177852202E+03 -0.45795025854E+03  0.16026644655E+04  0.10100000352E+00 0. -1.
</event>
<event>
 5   0  0.3219205E-07  0.3511796E+04  0.7818609E-02  0.8111000E-01
       -2   -1    0    0    0  501  0.00000000000E+00  0.00000000000E+00  0.12825862815E+04  0.12825862815E+04  0.25500000920E-02 0. -1.
        2   -1    0    0  501    0  0.00000000000E+00  0.00000000000E+00 -0.24038754897E+04  0.24038754897E+04  0.25500000920E-02 0.  1.
    10030    2    1    2    0    0  0.00000000000E+00  0.00000000000E+00 -0.11212892082E+04  0.36864617712E+04  0.35117959653E+04 0.  0.
        2    1    3    3  502    0  0.13870820004E+04 -0.14142281788E+03  0.55976492613E+03  0.15024425652E+04  0.25500000920E-02 0. -1.
       -2    1    3    3    0  502 -0.13870820004E+04  0.14142281788E+03 -0.16810541344E+04  0.21840192060E+04  0.25500000920E-02 0.  1.
</event>
<event>
 5   0  0.3190112E-07  0.3533207E+04  0.7818609E-02  0.8105965E-01
        2   -1    0    0  501    0  0.00000000000E+00  0.00000000000E+00  0.15526501703E+04  0.15526501703E+04  0.25500000920E-02 0.  1.
       -2   -1    0    0    0  501  0.00000000000E+00  0.00000000000E+00 -0.20100398423E+04  0.20100398423E+04  0.25500000920E-02 0. -1.
    10030    2    1    2    0    0  0.00000000000E+00  0.00000000000E+00 -0.45738967196E+03  0.35626900126E+04  0.35332074399E+04 0.  0.
        5    1    3    3  502    0 -0.10199060790E+04 -0.68565947124E+03 -0.15083507679E+04  0.19456313755E+04  0.46999998093E+01 0. -1.
       -5    1    3    3    0  502  0.10199060790E+04  0.68565947124E+03  0.10509610959E+04  0.16170586370E+04  0.46999998093E+01 0.  1.
</event>
<event>
 5   0  0.3190112E-07  0.3495102E+04  0.7818609E-02  0.8114952E-01
        2   -1    0    0  501    0  0.00000000000E+00  0.00000000000E+00  0.18591101553E+04  0.18591101553E+04  0.25500000920E-02 0. -1.
       -2   -1    0    0    0  501  0.00000000000E+00  0.00000000000E+00 -0.16426857836E+04  0.16426857836E+04  0.25500000920E-02 0.  1.
    10030    2    1    2    0    0  0.00000000000E+00  0.00000000000E+00  0.21642437174E+03  0.35017959389E+04  0.34951016135E+04 0.  0.
        5    1    3    3  502    0  0.66915129484E+03  0.13921449629E+04  0.92713974066E+03  0.18015108220E+04  0.46999998093E+01 0. -1.
       -5    1    3    3    0  502 -0.66915129484E+03 -0.13921449629E+04 -0.71071536892E+03  0.17002851169E+04  0.46999998093E+01 0.  1.
</event>
<event>
 5   0  0.3119048E-07  0.3497776E+04  0.7818609E-02  0.8114317E-01
       -2   -1    0    0    0  501  0.00000000000E+00  0.00000000000E+00  0.17622677754E+04  0.17622677754E+04  0.25500000920E-02 0.  1.
        2   -1    0    0  501    0  0.00000000000E+00  0.00000000000E+00 -0.17356093140E+04  0.17356093140E+04  0.25500000920E-02 0. -1.
    10030    2    1    2    0    0  0.00000000000E+00  0.00000000000E+00  0.26658461357E+02  0.34978770894E+04  0.34977755015E+04 0.  0.
        3    1    3    3  502    0 -0.11538467488E+04 -0.14434422618E+03  0.13196637595E+04  0.17588945459E+04  0.10100000352E+00 0.  1.
       -3    1    3    3    0  502  0.11538467488E+04  0.14434422618E+03 -0.12930052981E+04  0.17389825435E+04  0.10100000352E+00 0. -1.
</event>
<event>
 5   0  0.3119048E-07  0.3497531E+04  0.7818609E-02  0.8114375E-01
        2   -1    0    0  501    0  0.00000000000E+00  0.00000000000E+00  0.22437513021E+04  0.22437513021E+04  0.25500000920E-02 0. -1.
       -2   -1    0    0    0  501  0.00000000000E+00  0.00000000000E+00 -0.13629768826E+04  0.13629768826E+04  0.25500000920E-02 0.  1.
    10030    2    1    2    0    0  0.00000000000E+00  0.00000000000E+00  0.88077441949E+03  0.36067281847E+04  0.34975312180E+04 0.  0.
        3    1    3    3  502    0 -0.61280590064E+03  0.10075260682E+04 -0.89126284987E+03  0.14781709400E+04  0.10100000352E+00 0.  1.
       -3    1    3    3    0  502  0.61280590064E+03 -0.10075260682E+04  0.17720372694E+04  0.21285572448E+04  0.10100000352E+00 0. -1.
</event>
<event>
 5   0  0.2180451E-07  0.3515460E+04  0.7818609E-02  0.8110136E-01
        2   -1    0    0  501    0  0.00000000000E+00  0.00000000000E+00  0.21908241124E+04  0.21908241124E+04  0.25500000920E-02 0. -1.
       -2   -1    0    0    0  501  0.00000000000E+00  0.00000000000E+00 -0.14102526609E+04  0.14102526609E+04  0.25500000920E-02 0.  1.
    10030    2    1    2    0    0  0.00000000000E+00  0.00000000000E+00  0.78057145144E+03  0.36010767733E+04  0.35154604444E+04 0.  0.
        4    1    3    3  502    0 -0.51287744536E+03  0.16736268212E+04  0.55400275589E+03  0.18360257833E+04  0.12699999809E+01 0. -1.
       -4    1    3    3    0  502  0.51287744536E+03 -0.16736268212E+04  0.22656869555E+03  0.17650509900E+04  0.12699999809E+01 0.  1.
</event>
<event>
 5   0  0.1013863E-07  0.3502997E+04  0.7818609E-02  0.8113080E-01
        1   -1    0    0  501    0  0.00000000000E+00  0.00000000000E+00  0.21585971160E+04  0.21585971160E+04  0.50400001928E-02 0. -1.
       -1   -1    0    0    0  501  0.00000000000E+00  0.00000000000E+00 -0.14211759782E+04  0.14211759782E+04  0.50400001928E-02 0.  1.
    10030    2    1    2    0    0  0.00000000000E+00  0.00000000000E+00  0.73742113778E+03  0.35797730942E+04  0.35029966417E+04 0.  0.
        5    1    3    3  502    0 -0.37804772878E+03  0.47524974887E+02 -0.13783035883E+04  0.14300075454E+04  0.46999998093E+01 0.  1.
       -5    1    3    3    0  502  0.37804772878E+03 -0.47524974887E+02  0.21157247260E+04  0.21497655488E+04  0.46999998093E+01 0. -1.
</event>
<event>
 5   0  0.1072381E-07  0.3489556E+04  0.7818609E-02  0.8116270E-01
       -1   -1    0    0    0  501  0.00000000000E+00  0.00000000000E+00  0.16184834011E+04  0.16184834011E+04  0.50400001928E-02 0.  1.
        1   -1    0    0  501    0  0.00000000000E+00  0.00000000000E+00 -0.18809272842E+04  0.18809272842E+04  0.50400001928E-02 0. -1.
    10030    2    1    2    0    0  0.00000000000E+00  0.00000000000E+00 -0.26244388311E+03  0.34994106853E+04  0.34895556096E+04 0.  0.
        1    1    3    3  502    0  0.16466130831E+03 -0.59518557812E+03  0.15052231336E+04  0.16269775354E+04  0.50400001928E-02 0.  1.
       -1    1    3    3    0  502 -0.16466130831E+03  0.59518557812E+03 -0.17676670167E+04  0.18724331499E+04  0.50400001928E-02 0. -1.
</event>
<event>
 5   0  0.1013863E-07  0.3508805E+04  0.7818609E-02  0.8111707E-01
        3   -1    0    0  501    0  0.00000000000E+00  0.00000000000E+00  0.19976611602E+04  0.19976611627E+04  0.10100000352E+00 0. -1.
       -3   -1    0    0    0  501  0.00000000000E+00  0.00000000000E+00 -0.15407655331E+04  0.15407655364E+04  0.10100000352E+00 0.  1.
    10030    2    1    2    0    0  0.00000000000E+00  0.00000000000E+00  0.45689562704E+03  0.35384266992E+04  0.35088046243E+04 0.  0.
        2    1    3    3  502    0  0.11206615211E+04  0.13907239515E+02 -0.11327070575E+04  0.15934556581E+04  0.25500000920E-02 0.  1.
       -2    1    3    3    0  502 -0.11206615211E+04 -0.13907239515E+02  0.15896026845E+04  0.19449710411E+04  0.25500000920E-02 0. -1.
</event>
<event>
 5   0  0.3219205E-07  0.3485955E+04  0.7818609E-02  0.8117127E-01
        2   -1    0    0  501    0  0.00000000000E+00  0.00000000000E+00  0.21366741734E+04  0.21366741734E+04  0.25500000920E-02 0.  1.
       -2   -1    0    0    0  501  0.00000000000E+00  0.00000000000E+00 -0.14218217811E+04  0.14218217811E+04  0.25500000920E-02 0. -1.
    10030    2    1    2    0    0  0.00000000000E+00  0.00000000000E+00  0.71485239238E+03  0.35584959545E+04  0.34859546060E+04 0.  0.
        2    1    3    3  502    0 -0.16566555268E+04  0.47257820578E+03  0.62776191367E+03  0.18335546666E+04  0.25500000920E-02 0. -1.
       -2    1    3    3    0  502  0.16566555268E+04 -0.47257820578E+03  0.87090478710E+02  0.17249412879E+04  0.25500000920E-02 0.  1.
</event>
<event>
 5   0  0.3190112E-07  0.3310404E+04  0.7818609E-02  0.8160253E-01
       -2   -1    0    0    0  501  0.00000000000E+00  0.00000000000E+00  0.14937351683E+04  0.14937351683E+04  0.25500000920E-02 0. -1.
        2   -1    0    0  501    0  0.00000000000E+00  0.00000000000E+00 -0.18341232805E+04  0.18341232805E+04  0.25500000920E-02 0.  1.
    10030    2    1    2    0    0  0.00000000000E+00  0.00000000000E+00 -0.34038811221E+03  0.33278584488E+04  0.33104044750E+04 0.  0.
        5    1    3    3  502    0 -0.89387106936E+03  0.10017847172E+04 -0.11433342731E+04  0.17634663190E+04  0.46999998093E+01 0.  1.
       -5    1    3    3    0  502  0.89387106936E+03 -0.10017847172E+04  0.80294616087E+03  0.15643921297E+04  0.46999998093E+01 0. -1.
</event>
<event>
 5   0  0.3190185E-07  0.3509120E+04  0.7818609E-02  0.8111632E-01
        2   -1    0    0  501    0  0.00000000000E+00  0.00000000000E+00  0.10818549418E+04  0.10818549418E+04  0.25500000920E-02 0.  1.
       -2   -1    0    0    0  501  0.00000000000E+00  0.00000000000E+00 -0.28455577189E+04  0.28455577189E+04  0.25500000920E-02 0. -1.
    10030    2    1    2    0    0  0.00000000000E+00  0.00000000000E+00 -0.17637027771E+04  0.39274126606E+04  0.35091199354E+04 0.  0.
        1    1    3    3  502    0  0.26070301867E+03 -0.16106388036E+04 -0.16040246343E+04  0.22880162690E+04  0.50400001928E-02 0. -1.
       -1    1    3    3    0  502 -0.26070301867E+03  0.16106388036E+04 -0.15967814279E+03  0.16393963917E+04  0.50400001928E-02 0.  1.
</event>
<event>
 5   0  0.3190112E-07  0.3497115E+04  0.7818609E-02  0.8114474E-01
        2   -1    0    0  501    0  0.00000000000E+00  0.00000000000E+00  0.12831745596E+04  0.12831745596E+04  0.25500000920E-02 0. -1.
       -2   -1    0    0    0  501  0.00000000000E+00  0.00000000000E+00 -0.23827258373E+04  0.23827258373E+04  0.25500000920E-02 0.  1.
    10030    2    1    2    0    0  0.00000000000E+00  0.00000000000E+00 -0.10995512777E+04  0.36659003969E+04  0.34971149119E+04 0.  0.
        5    1    3    3  502    0  0.60898741878E+03  0.97628248354E+02 -0.22649082808E+04  0.23473876036E+04  0.46999998093E+01 0.  1.
       -5    1    3    3    0  502 -0.60898741878E+03 -0.97628248354E+02  0.11653570031E+04  0.13185127932E+04  0.46999998093E+01 0. -1.
</event>
<event>
 5   0  0.1013863E-07  0.3537944E+04  0.7818609E-02  0.8104856E-01
        3   -1    0    0  501    0  0.00000000000E+00  0.00000000000E+00  0.17993383368E+04  0.17993383396E+04  0.10100000352E+00 0. -1.
       -3   -1    0    0    0  501  0.00000000000E+00  0.00000000000E+00 -0.17391178520E+04  0.17391178549E+04  0.10100000352E+00 0.  1.
    10030    2    1    2    0    0  0.00000000000E+00  0.00000000000E+00  0.60220484826E+02  0.35384561945E+04  0.35379437155E+04 0.  0.
        4    1    3    3  502    0 -0.11375315168E+02  0.14919176744E+04  0.98067522602E+03  0.17854056281E+04  0.12699999809E+01 0. -1.
       -4    1    3    3    0  502  0.11375315168E+02 -0.14919176744E+04 -0.92045474120E+03  0.17530505664E+04  0.12699999809E+01 0.  1.
</event>
<event>
 5   0  0.1033796E-07  0.3499721E+04  0.7818609E-02  0.8113856E-01
       -1   -1    0    0    0  501  0.00000000000E+00  0.00000000000E+00  0.13066490260E+04  0.13066490260E+04  0.50400001928E-02 0. -1.
        1   -1    0    0  501    0  0.00000000000E+00  0.00000000000E+00 -0.23434081573E+04  0.23434081573E+04  0.50400001928E-02 0.  1.
    10030    2    1    2    0    0  0.00000000000E+00  0.00000000000E+00 -0.10367591313E+04  0.36500571834E+04  0.34997211240E+04 0.  0.
        3    1    3    3  502    0 -0.64115300347E+03 -0.14723890444E+04 -0.12432196121E+04  0.20309115407E+04  0.10100000352E+00 0.  1.
       -3    1    3    3    0  502  0.64115300347E+03  0.14723890444E+04  0.20646048075E+03  0.16191456427E+04  0.10100000352E+00 0. -1.
</event>
<event>
 5   0  0.1013863E-07  0.3489858E+04  0.7818609E-02  0.8116198E-01
        1   -1    0    0  501    0  0.00000000000E+00  0.00000000000E+00  0.14869526639E+04  0.14869526639E+04  0.50400001928E-02 0.  1.
       -1   -1    0    0    0  501  0.00000000000E+00  0.00000000000E+00 -0.20476627346E+04  0.20476627346E+04  0.50400001928E-02 0. -1.
    10030    2    1    2    0    0  0.00000000000E+00  0.00000000000E+00 -0.56071007065E+03  0.35346153985E+04  0.34898581966E+04 0.  0.
        5    1    3    3  502    0  0.22075335044E+03  0.19185377397E+02  0.14726384717E+04  0.14892233811E+04  0.46999998093E+01 0.  1.
       -5    1    3    3    0  502 -0.22075335044E+03 -0.19185377397E+02 -0.20333485423E+04  0.20453920175E+04  0.46999998093E+01 0. -1.
</event>
<event>
 5   0  0.2180451E-07  0.3512003E+04  0.7818609E-02  0.8110951E-01
        2   -1    0    0  501    0  0.00000000000E+00  0.00000000000E+00  0.15280293341E+04  0.15280293341E+04  0.25500000920E-02 0.  1.
       -2   -1    0    0    0  501  0.00000000000E+00  0.00000000000E+00 -0.20179853996E+04  0.20179853996E+04  0.25500000920E-02 0. -1.
    10030    2    1    2    0    0  0.00000000000E+00  0.00000000000E+00 -0.48995606548E+03  0.35460147336E+04  0.35120027826E+04 0.  0.
        4    1    3    3  502    0 -0.67243733196E+03 -0.67164076781E+03  0.12458941935E+04  0.15670122018E+04  0.12699999809E+01 0.  1.
       -4    1    3    3    0  502  0.67243733196E+03  0.67164076781E+03 -0.17358502590E+04  0.19790025318E+04  0.12699999809E+01 0. -1.
</event>
<event>
 5   0  0.2180451E-07  0.3499118E+04  0.7818609E-02  0.8113999E-01
       -2   -1    0    0    0  501  0.00000000000E+00  0.00000000000E+00  0.17953250014E+04  0.17953250014E+04  0.25500000920E-02 0. -1.
        2   -1    0    0  501    0  0.00000000000E+00  0.00000000000E+00 -0.17049593166E+04  0.17049593166E+04  0.25500000920E-02 0.  1.
    10030    2    1    2    0    0  0.00000000000E+00  0.00000000000E+00  0.90365684852E+02  0.35002843180E+04  0.34991176531E+04 0.  0.
        4    1    3    3  502    0  0.43840238047E+03  0.16625606371E+04  0.36878715487E+03  0.17584965447E+04  0.12699999809E+01 0.  1.
       -4    1    3    3    0  502 -0.43840238047E+03 -0.16625606371E+04 -0.27842147002E+03  0.17417877733E+04  0.12699999809E+01 0. -1.
</event>
<event>
 5   0  0.3190112E-07  0.3488636E+04  0.7818609E-02  0.8116488E-01
        2   -1    0    0  501    0  0.00000000000E+00  0.00000000000E+00  0.16141382863E+04  0.16141382863E+04  0.25500000920E-02 0.  1.
       -2   -1    0    0    0  501  0.00000000000E+00  0.00000000000E+00 -0.18849967589E+04  0.18849967589E+04  0.25500000920E-02 0. -1.
    10030    2    1    2    0    0  0.00000000000E+00  0.00000000000E+00 -0.27085847257E+03  0.34991350452E+04  0.34886360877E+04 0.  0.
        5    1    3    3  502    0 -0.13002060957E+04 -0.13614284779E+03  0.10228415619E+04  0.16599089484E+04  0.46999998093E+01 0.  1.
       -5    1    3    3    0  502  0.13002060957E+04  0.13614284779E+03 -0.12937000344E+04  0.18392260969E+04  0.46999998093E+01 0. -1.
</event>
<event>
 5   0  0.1013863E-07  0.3497959E+04  0.7818609E-02  0.8114274E-01
        1   -1    0    0  501    0  0.00000000000E+00  0.00000000000E+00  0.21150162503E+04  0.21150162503E+04  0.50400001928E-02 0. -1.
       -1   -1    0    0    0  501  0.00000000000E+00  0.00000000000E+00 -0.14462913598E+04  0.14462913598E+04  0.50400001928E-02 0.  1.
    10030    2    1    2    0    0  0.00000000000E+00  0.00000000000E+00  0.66872489057E+03  0.35613076101E+04  0.34979592500E+04 0.  0.
        2    1    3    3  502    0  0.77911519596E+03  0.13337489479E+04 -0.50087448745E+03  0.16238171070E+04  0.25500000920E-02 0.  1.
       -2    1    3    3    0  502 -0.77911519596E+03 -0.13337489479E+04  0.11695993780E+04  0.19374905031E+04  0.25500000920E-02 0. -1.
</event>
<event>
 5   0  0.3119048E-07  0.3446541E+04  0.7818609E-02  0.8126577E-01
        2   -1    0    0  501    0  0.00000000000E+00  0.00000000000E+00  0.19592426959E+04  0.19592426959E+04  0.25500000920E-02 0.  1.
       -2   -1    0    0    0  501  0.00000000000E+00  0.00000000000E+00 -0.15157186581E+04  0.15157186581E+04  0.25500000920E-02 0. -1.
    10030    2    1    2    0    0  0.00000000000E+00  0.00000000000E+00  0.44352403782E+03  0.34749613540E+04  0.34465407063E+04 0.  0.
        3    1    3    3  502    0 -0.51943286252E+03 -0.35056302095E+02  0.18780564258E+04  0.19488805484E+04  0.10100000352E+00 0.  1.
       -3    1    3    3    0  502  0.51943286252E+03  0.35056302095E+02 -0.14345323880E+04  0.15260808057E+04  0.10100000352E+00 0. -1.
</event>
<event>
 5   0  0.1098171E-07  0.3488672E+04  0.7818609E-02  0.8116480E-01
       -1   -1    0    0    0  501  0.00000000000E+00  0.00000000000E+00  0.14602560363E+04  0.14602560363E+04  0.50400001928E-02 0.  1.
        1   -1    0    0  501    0  0.00000000000E+00  0.00000000000E+00 -0.20836813082E+04  0.20836813082E+04  0.50400001928E-02 0. -1.
    10030    2    1    2    0    0  0.00000000000E+00  0.00000000000E+00 -0.62342527190E+03  0.35439373445E+04  0.34886720729E+04 0.  0.
        4    1    3    3  502    0  0.15396785599E+04  0.35157950850E+03  0.44061947835E+03  0.16396235410E+04  0.12699999809E+01 0.  1.
       -4    1    3    3    0  502 -0.15396785599E+04 -0.35157950850E+03 -0.10640447503E+04  0.19043138035E+04  0.12699999809E+01 0. -1.
</event>
<event>
 5   0  0.3119048E-07  0.3498237E+04  0.7818609E-02  0.8114208E-01
       -2   -1    0    0    0  501  0.00000000000E+00  0.00000000000E+00  0.21419574607E+04  0.21419574607E+04  0.25500000920E-02 0.  1.
        2   -1    0    0  501    0  0.00000000000E+00  0.00000000000E+00 -0.14283266041E+04  0.14283266041E+04  0.25500000920E-02 0. -1.
    10030    2    1    2    0    0  0.00000000000E+00  0.00000000000E+00  0.71363085652E+03  0.35702840648E+04  0.34982365992E+04 0.  0.
        3    1    3    3  502    0  0.10654083528E+04  0.75690136680E+03 -0.82963279971E+03  0.15479939372E+04  0.10100000352E+00 0. -1.
       -3    1    3    3    0  502 -0.10654083528E+04 -0.75690136680E+03  0.15432636562E+04  0.20222901276E+04  0.10100000352E+00 0.  1.
</event>
<event>
 5   0  0.1013863E-07  0.3492356E+04  0.7818609E-02  0.8115604E-01
        1   -1    0    0  501    0  0.00000000000E+00  0.00000000000E+00  0.23824774689E+04  0.23824774689E+04  0.50400001928E-02 0.  1.
       -1   -1    0    0    0  501  0.00000000000E+00  0.00000000000E+00 -0.12798179376E+04  0.12798179377E+04  0.50400001928E-02 0. -1.
    10030    2    1    2    0    0  0.00000000000E+00  0.00000000000E+00  0.11026595313E+04  0.36622954066E+04  0.34923558815E+04 0.  0.
        2    1    3    3  502    0  0.87399837199E+03  0.14930177696E+04  0.79984721136E+03  0.19059723965E+04  0.25500000920E-02 0.  1.
       -2    1    3    3    0  502 -0.87399837199E+03 -0.14930177696E+04  0.30281231991E+03  0.17563230101E+04  0.25500000920E-02 0. -1.
</event>
<event>
 5   0  0.3190185E-07  0.3509833E+04  0.7818609E-02  0.8111464E-01
        2   -1    0    0  501    0  0.00000000000E+00  0.00000000000E+00  0.24390557365E+04  0.24390557365E+04  0.25500000920E-02 0.  1.
       -2   -1    0    0    0  501  0.00000000000E+00  0.00000000000E+00 -0.12626738152E+04  0.12626738152E+04  0.25500000920E-02 0. -1.
    10030    2    1    2    0    0  0.00000000000E+00  0.00000000000E+00  0.11763819214E+04  0.37017295517E+04  0.35098329375E+04 0.  0.
        1    1    3    3  502    0 -0.64103226180E+03 -0.57806928781E+02  0.23100792084E+04  0.23980679621E+04  0.50400001928E-02 0.  1.
       -1    1    3    3    0  502  0.64103226180E+03  0.57806928781E+02 -0.11336972870E+04  0.13036615896E+04  0.50400001928E-02 0. -1.
</event>
<event>
 5   0  0.3219205E-07  0.3492733E+04  0.7818609E-02  0.8115514E-01
        2   -1    0    0  501    0  0.00000000000E+00  0.00000000000E+00  0.28811123005E+04  0.28811123005E+04  0.25500000920E-02 0. -1.
       -2   -1    0    0    0  501  0.00000000000E+00  0.00000000000E+00 -0.10585482946E+04  0.10585482946E+04  0.25500000920E-02 0.  1.
    10030    2    1    2    0    0  0.00000000000E+00  0.00000000000E+00  0.18225640060E+04  0.39396605951E+04  0.34927333206E+04 0.  0.
        2    1    3    3  502    0 -0.28119685827E+03  0.88536574213E+03  0.25793091378E+04  0.27414922576E+04  0.25500000920E-02 0. -1.
       -2    1    3    3    0  502  0.28119685827E+03 -0.88536574213E+03 -0.75674513180E+03  0.11981683375E+04  0.25500000920E-02 0.  1.
</event>
<event>
 5   0  0.1013863E-07  0.3420873E+04  0.7818609E-02  0.8132802E-01
       -1   -1    0    0    0  501  0.00000000000E+00  0.00000000000E+00  0.15703909630E+04  0.15703909630E+04  0.50400001928E-02 0. -1.
        1   -1    0    0  501    0  0.00000000000E+00  0.00000000000E+00 -0.18629710906E+04  0.18629710906E+04  0.50400001928E-02 0.  1.
    10030    2    1    2    0    0  0.00000000000E+00  0.00000000000E+00 -0.29258012761E+03  0.34333620536E+04  0.34208729675E+04 0.  0.
        5    1    3    3  502    0  0.10661357905E+03 -0.18631204598E+03  0.15568117523E+04  0.15715481399E+04  0.46999998093E+01 0. -1.
       -5    1    3    3    0  502 -0.10661357905E+03  0.18631204598E+03 -0.18493918799E+04  0.18618139137E+04  0.46999998093E+01 0.  1.
</event>
<event>
 5   0  0.1098171E-07  0.3483472E+04  0.7818609E-02  0.8117718E-01
       -1   -1    0    0    0  501  0.00000000000E+00  0.00000000000E+00  0.16208205542E+04  0.16208205542E+04  0.50400001928E-02 0. -1.
        1   -1    0    0  501    0  0.00000000000E+00  0.00000000000E+00 -0.18716716008E+04  0.18716716008E+04  0.50400001928E-02 0.  1.
    10030    2    1    2    0    0  0.00000000000E+00  0.00000000000E+00 -0.25085104657E+03  0.34924921550E+04  0.34834717173E+04 0.  0.
        4    1    3    3  502    0  0.56573562870E+03 -0.22268855725E+03  0.15109759766E+04  0.16287102290E+04  0.12699999809E+01 0. -1.
       -4    1    3    3    0  502 -0.56573562870E+03  0.22268855725E+03 -0.17618270232E+04  0.18637819260E+04  0.12699999809E+01 0.  1.
</event>
<event>
 5   0  0.1013863E-07  0.3499048E+04  0.7818609E-02  0.8114016E-01
        1   -1    0    0  501    0  0.00000000000E+00  0.00000000000E+00  0.16796209558E+04  0.16796209558E+04  0.50400001928E-02 0. -1.
       -1   -1    0    0    0  501  0.00000000000E+00  0.00000000000E+00 -0.18223364303E+04  0.18223364303E+04  0.50400001928E-02 0.  1.
    10030    2    1    2    0    0  0.00000000000E+00  0.00000000000E+00 -0.14271547446E+03  0.35019573861E+04  0.34990481316E+04 0.  0.
        5    1    3    3  502    0  0.78177073892E+03  0.34064585732E+03  0.14575272841E+04  0.16886719522E+04  0.46999998093E+01 0. -1.
       -5    1    3    3    0  502 -0.78177073892E+03 -0.34064585732E+03 -0.16002427585E+04  0.18132854339E+04  0.46999998093E+01 0.  1.
</event>
<event>
 5   0  0.2180451E-07  0.3493812E+04  0.7818609E-02  0.8115258E-01
        2   -1    0    0  501    0  0.00000000000E+00  0.00000000000E+00  0.28320133432E+04  0.28320133432E+04  0.25500000920E-02 0. -1.
       -2   -1    0    0    0  501  0.00000000000E+00  0.00000000000E+00 -0.10775659146E+04  0.10775659146E+04  0.25500000920E-02 0.  1.
    10030    2    1    2    0    0  0.00000000000E+00  0.00000000000E+00  0.17544474287E+04  0.39095792578E+04  0.34938122722E+04 0.  0.
        4    1    3    3  502    0 -0.37338479866E+03  0.15424602340E+04  0.60215337158E+02  0.15881521593E+04  0.12699999809E+01 0.  1.
       -4    1    3    3    0  502  0.37338479866E+03 -0.15424602340E+04  0.16942320915E+04  0.23214270986E+04  0.12699999809E+01 0. -1.
</event>
<event>
 5   0  0.3190112E-07  0.3486563E+04  0.7818609E-02  0.8116982E-01
        2   -1    0    0  501    0  0.00000000000E+00  0.00000000000E+00  0.17387047958E+04  0.17387047958E+04  0.25500000920E-02 0. -1.
       -2   -1    0    0    0  501  0.00000000000E+00  0.00000000000E+00 -0.17478703644E+04  0.17478703644E+04  0.25500000920E-02 0.  1.
    10030    2    1    2    0    0  0.00000000000E+00  0.00000000000E+00 -0.91655685931E+01  0.34865751602E+04  0.34865631129E+04 0.  0.
        5    1    3    3  502    0 -0.42498590102E+03 -0.11807555432E+04 -0.12146331738E+04  0.17464685813E+04  0.46999998093E+01 0.  1.
       -5    1    3    3    0  502  0.42498590102E+03  0.11807555432E+04  0.12054676052E+04  0.17401065789E+04  0.46999998093E+01 0. -1.
</event>
<event>
 5   0  0.1098171E-07  0.3498450E+04  0.7818609E-02  0.8114157E-01
       -1   -1    0    0    0  501  0.00000000000E+00  0.00000000000E+00  0.22252298325E+04  0.22252298325E+04  0.50400001928E-02 0.  1.
        1   -1    0    0  501    0  0.00000000000E+00  0.00000000000E+00 -0.13750440006E+04  0.13750440006E+04  0.50400001928E-02 0. -1.
    10030    2    1    2    0    0  0.00000000000E+00  0.00000000000E+00  0.85018583189E+03  0.36002738331E+04  0.34984504748E+04 0.  0.
        4    1    3    3  502    0  0.93361106516E+03  0.14730248571E+04  0.56451851822E+03  0.18330615431E+04  0.12699999809E+01 0. -1.
       -4    1    3    3    0  502 -0.93361106516E+03 -0.14730248571E+04  0.28566731367E+03  0.17672122899E+04  0.12699999809E+01 0.  1.
</event>
<event>
 5   0  0.2180451E-07  0.3500387E+04  0.7818609E-02  0.8113698E-01
        2   -1    0    0  501    0  0.00000000000E+00  0.00000000000E+00  0.19445594131E+04  0.19445594131E+04  0.25500000920E-02 0. -1.
       -2   -1    0    0    0  501  0.00000000000E+00  0.00000000000E+00 -0.15752554391E+04  0.15752554391E+04  0.25500000920E-02 0.  1.
    10030    2    1    2    0    0  0.00000000000E+00  0.00000000000E+00  0.36930397404E+03  0.35198148522E+04  0.35003872883E+04 0.  0.
        4    1    3    3  502    0 -0.12263814984E+04  0.12285470043E+04 -0.39828733273E+02  0.17363545900E+04  0.12699999809E+01 0.  1.
       -4    1    3    3    0  502  0.12263814984E+04 -0.12285470043E+04  0.40913270731E+03  0.17834602621E+04  0.12699999809E+01 0. -1.
</event>
<event>
 5   0  0.1013863E-07  0.3581418E+04  0.7818609E-02  0.8094761E-01
        1   -1    0    0  501    0  0.00000000000E+00  0.00000000000E+00  0.15901771562E+04  0.15901771562E+04  0.50400001928E-02 0.  1.
       -1   -1    0    0    0  501  0.00000000000E+00  0.00000000000E+00 -0.20165297167E+04  0.20165297167E+04  0.50400001928E-02 0. -1.
    10030    2    1    2    0    0  0.00000000000E+00  0.00000000000E+00 -0.42635256048E+03  0.36067068729E+04  0.35814184287E+04 0.  0.
        5    1    3    3  502    0  0.67043335649E+03  0.95156456396E+03 -0.15835422635E+04  0.19653458207E+04  0.46999998093E+01 0. -1.
       -5    1    3    3    0  502 -0.67043335649E+03 -0.95156456396E+03  0.11571897030E+04  0.16413610522E+04  0.46999998093E+01 0.  1.
</event>
<event>
 5   0  0.1033796E-07  0.3492812E+04  0.7818609E-02  0.8115496E-01
        1   -1    0    0  501    0  0.00000000000E+00  0.00000000000E+00  0.17255281321E+04  0.17255281321E+04  0.50400001928E-02 0.  1.
       -1   -1    0    0    0  501  0.00000000000E+00  0.00000000000E+00 -0.17675364826E+04  0.17675364826E+04  0.50400001928E-02 0. -1.
    10030    2    1    2    0    0  0.00000000000E+00  0.00000000000E+00 -0.42008350555E+02  0.34930646147E+04  0.34928120048E+04 0.  0.
        3    1    3    3  502    0 -0.17147990460E+04 -0.17080495430E+03 -0.30426274770E+03  0.17499388362E+04  0.10100000352E+00 0. -1.
       -3    1    3    3    0  502  0.17147990460E+04  0.17080495430E+03  0.26225439714E+03  0.17431257785E+04  0.10100000352E+00 0.  1.
</event>
<event>
 5   0  0.1013863E-07  0.3495402E+04  0.7818609E-02  0.8114880E-01
        1   -1    0    0  501    0  0.00000000000E+00  0.00000000000E+00  0.16036864278E+04  0.16036864278E+04  0.50400001928E-02 0.  1.
       -1   -1    0    0    0  501  0.00000000000E+00  0.00000000000E+00 -0.19046483550E+04  0.19046483550E+04  0.50400001928E-02 0. -1.
    10030    2    1    2    0    0  0.00000000000E+00  0.00000000000E+00 -0.30096192717E+03  0.35083347828E+04  0.34954019606E+04 0.  0.
        2    1    3    3  502    0  0.13130316445E+03  0.35763300480E+03  0.15615019004E+04  0.16073052206E+04  0.25500000920E-02 0.  1.
       -2    1    3    3    0  502 -0.13130316445E+03 -0.35763300480E+03 -0.18624638276E+04  0.19010295622E+04  0.25500000920E-02 0. -1.
</event>
<event>
 5   0  0.1013863E-07  0.3523942E+04  0.7818609E-02  0.8108139E-01
        1   -1    0    0  501    0  0.00000000000E+00  0.00000000000E+00  0.17330342035E+04  0.17330342035E+04  0.50400001928E-02 0. -1.
       -1   -1    0    0    0  501  0.00000000000E+00  0.00000000000E+00 -0.17913908751E+04  0.17913908751E+04  0.50400001928E-02 0.  1.
    10030    2    1    2    0    0  0.00000000000E+00  0.00000000000E+00 -0.58356671620E+02  0.35244250787E+04  0.35239419169E+04 0.  0.
        2    1    3    3  502    0 -0.15749055036E+04 -0.78742223020E+03  0.35487661042E+02  0.17611418137E+04  0.25500000920E-02 0. -1.
       -2    1    3    3    0  502  0.15749055036E+04  0.78742223020E+03 -0.93844332662E+02  0.17632832650E+04  0.25500000920E-02 0.  1.
</event>
<event>
 5   0  0.1072381E-07  0.3495026E+04  0.7818609E-02  0.8114970E-01
        1   -1    0    0  501    0  0.00000000000E+00  0.00000000000E+00  0.18400944672E+04  0.18400944672E+04  0.50400001928E-02 0.  1.
       -1   -1    0    0    0  501  0.00000000000E+00  0.00000000000E+00 -0.16595892223E+04  0.16595892223E+04  0.50400001928E-02 0. -1.
    10030    2    1    2    0    0  0.00000000000E+00  0.00000000000E+00  0.18050524490E+03  0.34996836895E+04  0.34950255769E+04 0.  0.
        1    1    3    3  502    0 -0.55482924774E+03 -0.12212743218E+04 -0.10312644498E+04  0.16919966988E+04  0.50400001928E-02 0. -1.
       -1    1    3    3    0  502  0.55482924774E+03  0.12212743218E+04  0.12117696947E+04  0.18076869907E+04  0.50400001928E-02 0.  1.
</event>
<event>
 5   0  0.1013863E-07  0.3494694E+04  0.7818609E-02  0.8115049E-01
       -1   -1    0    0    0  501  0.00000000000E+00  0.00000000000E+00  0.10363650989E+04  0.10363650989E+04  0.50400001928E-02 0. -1.
        1   -1    0    0  501    0  0.00000000000E+00  0.00000000000E+00 -0.29460869812E+04  0.29460869812E+04  0.50400001928E-02 0.  1.
    10030    2    1    2    0    0  0.00000000000E+00  0.00000000000E+00 -0.19097218824E+04  0.39824520801E+04  0.34946941071E+04 0.  0.
        5    1    3    3  502    0  0.46943388627E+03 -0.92200881365E+02  0.96027296821E+03  0.10728538761E+04  0.46999998093E+01 0. -1.
       -5    1    3    3    0  502 -0.46943388627E+03  0.92200881365E+02 -0.28699948506E+04  0.29095982039E+04  0.46999998093E+01 0.  1.
</event>
<event>
 5   0  0.1013863E-07  0.3503402E+04  0.7818609E-02  0.8112984E-01
        1   -1    0    0  501    0  0.00000000000E+00  0.00000000000E+00  0.17367049340E+04  0.17367049340E+04  0.50400001928E-02 0. -1.
       -1   -1    0    0    0  501  0.00000000000E+00  0.00000000000E+00 -0.17668267230E+04  0.17668267230E+04  0.50400001928E-02 0.  1.
    10030    2    1    2    0    0  0.00000000000E+00  0.00000000000E+00 -0.30121789034E+02  0.35035316570E+04  0.35034021678E+04 0.  0.
        2    1    3    3  502    0  0.12876401783E+04  0.11433124025E+04 -0.33643893289E+03  0.17545288923E+04  0.25500000920E-02 0. -1.
       -2    1    3    3    0  502 -0.12876401783E+04 -0.11433124025E+04  0.30631714385E+03  0.17490027647E+04  0.25500000920E-02 0.  1.
</event>
<event>
 5   0  0.2180451E-07  0.3414546E+04  0.7818609E-02  0.8134345E-01
       -2   -1    0    0    0  501  0.00000000000E+00  0.00000000000E+00  0.26450319414E+04  0.26450319414E+04  0.25500000920E-02 0. -1.
        2   -1    0    0  501    0  0.00000000000E+00  0.00000000000E+00 -0.11019833020E+04  0.11019833020E+04  0.25500000920E-02 0.  1.
    10030    2    1    2    0    0  0.00000000000E+00  0.00000000000E+00  0.15430486395E+04  0.37470152434E+04  0.34145459626E+04 0.  0.
        4    1    3    3  502    0  0.10735391038E+04  0.98893548260E+03  0.17433616015E+04  0.22737174148E+04  0.12699999809E+01 0. -1.
       -4    1    3    3    0  502 -0.10735391038E+04 -0.98893548260E+03 -0.20031296203E+03  0.14732978286E+04  0.12699999809E+01 0.  1.
</event>
<event>
 5   0  0.2180451E-07  0.3554607E+04  0.7818609E-02  0.8100969E-01
        2   -1    0    0  501    0  0.00000000000E+00  0.00000000000E+00  0.17551085604E+04  0.17551085604E+04  0.25500000920E-02 0. -1.
       -2   -1    0    0    0  501  0.00000000000E+00  0.00000000000E+00 -0.17997786418E+04  0.17997786418E+04  0.25500000920E-02 0.  1.
    10030    2    1    2    0    0  0.00000000000E+00  0.00000000000E+00 -0.44670081467E+02  0.35548872022E+04  0.35546065330E+04 0.  0.
        4    1    3    3  502    0 -0.74910833503E+03  0.26776436209E+03 -0.16117824750E+04  0.17974163154E+04  0.12699999809E+01 0.  1.
       -4    1    3    3    0  502  0.74910833503E+03 -0.26776436209E+03  0.15671123935E+04  0.17574708868E+04  0.12699999809E+01 0. -1.
</event>
<event>
 5   0  0.2180451E-07  0.3504999E+04  0.7818609E-02  0.8112606E-01
       -2   -1    0    0    0  501  0.00000000000E+00  0.00000000000E+00  0.24184739888E+04  0.24184739888E+04  0.25500000920E-02 0. -1.
        2   -1    0    0  501    0  0.00000000000E+00  0.00000000000E+00 -0.12699141306E+04  0.12699141306E+04  0.25500000920E-02 0.  1.
    10030    2    1    2    0    0  0.00000000000E+00  0.00000000000E+00  0.11485598582E+04  0.36883881195E+04  0.35049988833E+04 0.  0.
        4    1    3    3  502    0  0.74874361876E+03 -0.68905912314E+03 -0.92720102129E+03  0.13766346024E+04  0.12699999809E+01 0.  1.
       -4    1    3    3    0  502 -0.74874361876E+03  0.68905912314E+03  0.20757608795E+04  0.23117535170E+04  0.12699999809E+01 0. -1.
</event>
<event>
 5   0  0.1098171E-07  0.3501998E+04  0.7818609E-02  0.8113317E-01
        1   -1    0    0  501    0  0.00000000000E+00  0.00000000000E+00  0.12716050122E+04  0.12716050123E+04  0.50400001928E-02 0.  1.
       -1   -1    0    0    0  501  0.00000000000E+00  0.00000000000E+00 -0.24111241139E+04  0.24111241139E+04  0.50400001928E-02 0. -1.
    10030    2    1    2    0    0  0.00000000000E+00  0.00000000000E+00 -0.11395191016E+04  0.36827291261E+04  0.35019980059E+04 0.  0.
        4    1    3    3  502    0 -0.56940109475E+03  0.11963033445E+04  0.63415323675E+03  0.14688469080E+04  0.12699999809E+01 0.  1.
       -4    1    3    3    0  502  0.56940109475E+03 -0.11963033445E+04 -0.17736723384E+04  0.22138822181E+04  0.12699999809E+01 0. -1.
</event>
<event>
 5   0  0.1098171E-07  0.3524808E+04  0.7818609E-02  0.8107936E-01
       -1   -1    0    0    0  501  0.00000000000E+00  0.00000000000E+00  0.27335696830E+04  0.27335696830E+04  0.50400001928E-02 0. -1.
        1   -1    0    0  501    0  0.00000000000E+00  0.00000000000E+00 -0.11362677592E+04  0.11362677592E+04  0.50400001928E-02 0.  1.
    10030    2    1    2    0    0  0.00000000000E+00  0.00000000000E+00  0.15973019237E+04  0.38698374422E+04  0.35248075683E+04 0.  0.
        4    1    3    3  502    0 -0.21141572642E+01  0.42796525487E+02  0.27329972257E+04  0.27333333973E+04  0.12699999809E+01 0. -1.
       -4    1    3    3    0  502  0.21141572642E+01 -0.42796525487E+02 -0.11356953020E+04  0.11365040449E+04  0.12699999809E+01 0.  1.
</event>
<event>
 5   0  0.3119048E-07  0.3500522E+04  0.7818609E-02  0.8113666E-01
        2   -1    0    0  501    0  0.00000000000E+00  0.00000000000E+00  0.20293227451E+04  0.20293227451E+04  0.25500000920E-02 0. -1.
       -2   -1    0    0    0  501  0.00000000000E+00  0.00000000000E+00 -0.15095740585E+04  0.15095740585E+04  0.25500000920E-02 0.  1.
    10030    2    1    2    0    0  0.00000000000E+00  0.00000000000E+00  0.51974868669E+03  0.35388968036E+04  0.35005216596E+04 0.  0.
        3    1    3    3  502    0 -0.14737669623E+04 -0.57486820093E+03 -0.49730260105E+03  0.16582437682E+04  0.10100000352E+00 0.  1.
       -3    1    3    3    0  502  0.14737669623E+04  0.57486820093E+03  0.10170512877E+04  0.18806530354E+04  0.10100000352E+00 0. -1.
</event>
<event>
 5   0  0.1013863E-07  0.3483874E+04  0.7818609E-02  0.8117622E-01
        1   -1    0    0  501    0  0.00000000000E+00  0.00000000000E+00  0.18000158746E+04  0.18000158746E+04  0.50400001928E-02 0.  1.
       -1   -1    0    0    0  501  0.00000000000E+00  0.00000000000E+00 -0.16857316890E+04  0.16857316890E+04  0.50400001928E-02 0. -1.
    10030    2    1    2    0    0  0.00000000000E+00  0.00000000000E+00  0.11428418563E+03  0.34857475636E+04  0.34838735916E+04 0.  0.
        5    1    3    3  502    0  0.12699433315E+03  0.35839138726E+03  0.17579828809E+04  0.17986377753E+04  0.46999998093E+01 0.  1.
       -5    1    3    3    0  502 -0.12699433315E+03 -0.35839138726E+03 -0.16436986953E+04  0.16871097883E+04  0.46999998093E+01 0. -1.
</event>
<event>
 5   0  0.1013863E-07  0.3496355E+04  0.7818609E-02  0.8114654E-01
       -1   -1    0    0    0  501  0.00000000000E+00  0.00000000000E+00  0.14375568535E+04  0.14375568535E+04  0.50400001928E-02 0.  1.
        1   -1    0    0  501    0  0.00000000000E+00  0.00000000000E+00 -0.21259159979E+04  0.21259159979E+04  0.50400001928E-02 0. -1.
    10030    2    1    2    0    0  0.00000000000E+00  0.00000000000E+00 -0.68835914437E+03  0.35634728514E+04  0.34963553096E+04 0.  0.
        5    1    3    3  502    0  0.68789420375E+02  0.15363455512E+04 -0.11914091793E+04  0.19453965044E+04  0.46999998093E+01 0. -1.
       -5    1    3    3    0  502 -0.68789420375E+02 -0.15363455512E+04  0.50305003495E+03  0.16180763470E+04  0.46999998093E+01 0.  1.
</event>
<event>
 5   0  0.3219205E-07  0.3499475E+04  0.7818609E-02  0.8113914E-01
       -2   -1    0    0    0  501  0.00000000000E+00  0.00000000000E+00  0.11008712912E+04  0.11008712912E+04  0.25500000920E-02 0.  1.
        2   -1    0    0  501    0  0.00000000000E+00  0.00000000000E+00 -0.27810532533E+04  0.27810532533E+04  0.25500000920E-02 0. -1.
    10030    2    1    2    0    0  0.00000000000E+00  0.00000000000E+00 -0.16801819622E+04  0.38819245445E+04  0.34994752097E+04 0.  0.
        2    1    3    3  502    0  0.98771480451E+03  0.76254066354E+03  0.52055458515E+03  0.13520450713E+04  0.25500000920E-02 0.  1.
       -2    1    3    3    0  502 -0.98771480451E+03 -0.76254066354E+03 -0.22007365473E+04  0.25298794733E+04  0.25500000920E-02 0. -1.
</event>
<event>
 5   0  0.1033796E-07  0.3543257E+04  0.7818609E-02  0.8103614E-01
        1   -1    0    0  501    0  0.00000000000E+00  0.00000000000E+00  0.15402577854E+04  0.15402577854E+04  0.50400001928E-02 0.  1.
       -1   -1    0    0    0  501  0.00000000000E+00  0.00000000000E+00 -0.20377550654E+04  0.20377550654E+04  0.50400001928E-02 0. -1.
    10030    2    1    2    0    0  0.00000000000E+00  0.00000000000E+00 -0.49749728001E+03  0.35780128508E+04  0.35432573173E+04 0.  0.
        3    1    3    3  502    0 -0.11480330420E+04  0.11131823543E+04  0.52130152785E+03  0.16819364175E+04  0.10100000352E+00 0.  1.
       -3    1    3    3    0  502  0.11480330420E+04 -0.11131823543E+04 -0.10187988079E+04  0.18960764332E+04  0.10100000352E+00 0. -1.
</event>
<event>
 5   0  0.3119048E-07  0.3502086E+04  0.7818609E-02  0.8113296E-01
        2   -1    0    0  501    0  0.00000000000E+00  0.00000000000E+00  0.29564100365E+04  0.29564100365E+04  0.25500000920E-02 0.  1.
       -2   -1    0    0    0  501  0.00000000000E+00  0.00000000000E+00 -0.10371199912E+04  0.10371199912E+04  0.25500000920E-02 0. -1.
    10030    2    1    2    0    0  0.00000000000E+00  0.00000000000E+00  0.19192900452E+04  0.39935300277E+04  0.35020862074E+04 0.  0.
        3    1    3    3  502    0  0.10133048043E+04  0.72484114244E+03 -0.44345569677E+03  0.13224349789E+04  0.10100000352E+00 0. -1.
       -3    1    3    3    0  502 -0.10133048043E+04 -0.72484114244E+03  0.23627457420E+04  0.26710950488E+04  0.10100000352E+00 0.  1.
</event>
<event>
 5   0  0.1013863E-07  0.3499737E+04  0.7818609E-02  0.8113852E-01
        1   -1    0    0  501    0  0.00000000000E+00  0.00000000000E+00  0.25945702517E+04  0.25945702517E+04  0.50400001928E-02 0.  1.
       -1   -1    0    0    0  501  0.00000000000E+00  0.00000000000E+00 -0.11801718994E+04  0.11801718994E+04  0.50400001928E-02 0. -1.
    10030    2    1    2    0    0  0.00000000000E+00  0.00000000000E+00  0.14143983523E+04  0.37747421512E+04  0.34997365056E+04 0.  0.
        5    1    3    3  502    0  0.16246754225E+04  0.44838180309E+02  0.78373010938E+01  0.16253197237E+04  0.46999998093E+01 0. -1.
       -5    1    3    3    0  502 -0.16246754225E+04 -0.44838180309E+02  0.14065610512E+04  0.21494224275E+04  0.46999998093E+01 0.  1.
</event>
<event>
 5   0  0.2180451E-07  0.3504748E+04  0.7818609E-02  0.8112666E-01
        2   -1    0    0  501    0  0.00000000000E+00  0.00000000000E+00  0.20315579517E+04  0.20315579517E+04  0.25500000920E-02 0. -1.
       -2   -1    0    0    0  501  0.00000000000E+00  0.00000000000E+00 -0.15115562642E+04  0.15115562642E+04  0.25500000920E-02 0.  1.
    10030    2    1    2    0    0  0.00000000000E+00  0.00000000000E+00  0.52000168747E+03  0.35431142159E+04  0.35047477216E+04 0.  0.
        4    1    3    3  502    0 -0.13256647477E+03 -0.25246305730E+03 -0.14879440909E+04  0.15150216817E+04  0.12699999809E+01 0.  1.
       -4    1    3    3    0  502  0.13256647477E+03  0.25246305730E+03  0.20079457784E+04  0.20280925342E+04  0.12699999809E+01 0. -1.
</event>
<event>
 5   0  0.2180451E-07  0.3497893E+04  0.7818609E-02  0.8114289E-01
        2   -1    0    0  501    0  0.00000000000E+00  0.00000000000E+00  0.13314939277E+04  0.13314939277E+04  0.25500000920E-02 0.  1.
       -2   -1    0    0    0  501  0.00000000000E+00  0.00000000000E+00 -0.22972799146E+04  0.22972799146E+04  0.25500000920E-02 0. -1.
    10030    2    1    2    0    0  0.00000000000E+00  0.00000000000E+00 -0.96578598687E+03  0.36287738423E+04  0.34978932268E+04 0.  0.
        4    1    3    3  502    0 -0.74441297722E+03 -0.83149884759E+02 -0.21224543320E+04  0.22507506721E+04  0.12699999809E+01 0. -1.
       -4    1    3    3    0  502  0.74441297722E+03  0.83149884759E+02  0.11566683451E+04  0.13780231701E+04  0.12699999809E+01 0.  1.
</event>
<event>
 5   0  0.1013863E-07  0.3487546E+04  0.7818609E-02  0.8116748E-01
       -1   -1    0    0    0  501  0.00000000000E+00  0.00000000000E+00  0.16102667507E+04  0.16102667507E+04  0.50400001928E-02 0. -1.
        1   -1    0    0  501    0  0.00000000000E+00  0.00000000000E+00 -0.18883482791E+04  0.18883482791E+04  0.50400001928E-02 0.  1.
    10030    2    1    2    0    0  0.00000000000E+00  0.00000000000E+00 -0.27808152840E+03  0.34986150298E+04  0.34875460986E+04 0.  0.
        2    1    3    3  502    0  0.10481229456E+04 -0.85804324812E+03 -0.12406811924E+04  0.18368695505E+04  0.25500000920E-02 0.  1.
       -2    1    3    3    0  502 -0.10481229456E+04  0.85804324812E+03  0.96259966396E+03  0.16617454792E+04  0.25500000920E-02 0. -1.
</event>
<event>
 5   0  0.2180451E-07  0.3512989E+04  0.7818609E-02  0.8110719E-01
       -2   -1    0    0    0  501  0.00000000000E+00  0.00000000000E+00  0.21207087375E+04  0.21207087375E+04  0.25500000920E-02 0. -1.
        2   -1    0    0  501    0  0.00000000000E+00  0.00000000000E+00 -0.14548307037E+04  0.14548307037E+04  0.25500000920E-02 0.  1.
    10030    2    1    2    0    0  0.00000000000E+00  0.00000000000E+00  0.66587803386E+03  0.35755394412E+04  0.35129885766E+04 0.  0.
        4    1    3    3  502    0  0.76890234558E+03 -0.13857109376E+04  0.11039661943E+04  0.19313592599E+04  0.12699999809E+01 0. -1.
       -4    1    3    3    0  502 -0.76890234558E+03  0.13857109376E+04 -0.43808816046E+03  0.16441801813E+04  0.12699999809E+01 0.  1.
</event>
<event>
 5   0  0.1072381E-07  0.3507197E+04  0.7818609E-02  0.8112086E-01
       -1   -1    0    0    0  501  0.00000000000E+00  0.00000000000E+00  0.14419529321E+04  0.14419529321E+04  0.50400001928E-02 0. -1.
        1   -1    0    0  501    0  0.00000000000E+00  0.00000000000E+00 -0.21325991094E+04  0.21325991095E+04  0.50400001928E-02 0.  1.
    10030    2    1    2    0    0  0.00000000000E+00  0.00000000000E+00 -0.69064617734E+03  0.35745520416E+04  0.35071969086E+04 0.  0.
        1    1    3    3  502    0  0.94713377276E+03  0.12331266029E+04 -0.11717240940E+04  0.19469465721E+04  0.50400001928E-02 0.  1.
       -1    1    3    3    0  502 -0.94713377276E+03 -0.12331266029E+04  0.48107791664E+03  0.16276054694E+04  0.50400001928E-02 0. -1.
</event>
<event>
 5   0  0.1013863E-07  0.3498261E+04  0.7818609E-02  0.8114202E-01
       -1   -1    0    0    0  501  0.00000000000E+00  0.00000000000E+00  0.18461584423E+04  0.18461584423E+04  0.50400001928E-02 0.  1.
        1   -1    0    0  501    0  0.00000000000E+00  0.00000000000E+00 -0.16572023419E+04  0.16572023419E+04  0.50400001928E-02 0. -1.
    10030    2    1    2    0    0  0.00000000000E+00  0.00000000000E+00  0.18895610041E+03  0.35033607841E+04  0.34982613362E+04 0.  0.
        5    1    3    3  502    0 -0.44328029244E+03  0.16656639019E+04  0.39240515797E+03  0.17677492893E+04  0.46999998093E+01 0.  1.
       -5    1    3    3    0  502  0.44328029244E+03 -0.16656639019E+04 -0.20344905756E+03  0.17356114948E+04  0.46999998093E+01 0. -1.
</event>
<event>
 5   0  0.2180451E-07  0.3507176E+04  0.7818609E-02  0.8112092E-01
       -2   -1    0    0    0  501  0.00000000000E+00  0.00000000000E+00  0.12738860794E+04  0.12738860794E+04  0.25500000920E-02 0. -1.
        2   -1    0    0  501    0  0.00000000000E+00  0.00000000000E+00 -0.24139288061E+04  0.24139288061E+04  0.25500000920E-02 0.  1.
    10030    2    1    2    0    0  0.00000000000E+00  0.00000000000E+00 -0.11400427266E+04  0.36878148855E+04  0.35071756744E+04 0.  0.
        4    1    3    3  502    0 -0.84198531762E+03 -0.21705253212E+03 -0.21712878575E+04  0.23389193338E+04  0.12699999809E+01 0.  1.
       -4    1    3    3    0  502  0.84198531762E+03  0.21705253212E+03  0.10312451309E+04  0.13488955518E+04  0.12699999809E+01 0. -1.
</event>
<event>
 5   0  0.1013863E-07  0.3506324E+04  0.7818609E-02  0.8112293E-01
       -1   -1    0    0    0  501  0.00000000000E+00  0.00000000000E+00  0.24455898653E+04  0.24455898653E+04  0.50400001928E-02 0. -1.
        1   -1    0    0  501    0  0.00000000000E+00  0.00000000000E+00 -0.12567836546E+04  0.12567836546E+04  0.50400001928E-02 0.  1.
    10030    2    1    2    0    0  0.00000000000E+00  0.00000000000E+00  0.11888062107E+04  0.37023735200E+04  0.35063242113E+04 0.  0.
        5    1    3    3  502    0 -0.14054632994E+04  0.99767164763E+02 -0.50712968102E+03  0.14974922960E+04  0.46999998093E+01 0.  1.
       -5    1    3    3    0  502  0.14054632994E+04 -0.99767164763E+02  0.16959358917E+04  0.22048812240E+04  0.46999998093E+01 0. -1.
</event>
<event>
 5   0  0.1033796E-07  0.3490572E+04  0.7818609E-02  0.8116028E-01
        1   -1    0    0  501    0  0.00000000000E+00  0.00000000000E+00  0.22930703338E+04  0.22930703338E+04  0.50400001928E-02 0. -1.
       -1   -1    0    0    0  501  0.00000000000E+00  0.00000000000E+00 -0.13283600364E+04  0.13283600365E+04  0.50400001928E-02 0.  1.
    10030    2    1    2    0    0  0.00000000000E+00  0.00000000000E+00  0.96471029732E+03  0.36214303702E+04  0.34905718684E+04 0.  0.
        3    1    3    3  502    0  0.79504769529E+02 -0.15159046845E+04 -0.41117236506E+03  0.15726890172E+04  0.10100000352E+00 0.  1.
       -3    1    3    3    0  502 -0.79504769529E+02  0.15159046845E+04  0.13758826624E+04  0.20487413530E+04  0.10100000352E+00 0. -1.
</event>
<event>
 5   0  0.1098171E-07  0.3479132E+04  0.7818609E-02  0.8118753E-01
        1   -1    0    0  501    0  0.00000000000E+00  0.00000000000E+00  0.18142805520E+04  0.18142805520E+04  0.50400001928E-02 0. -1.
       -1   -1    0    0    0  501  0.00000000000E+00  0.00000000000E+00 -0.16679284601E+04  0.16679284601E+04  0.50400001928E-02 0.  1.
    10030    2    1    2    0    0  0.00000000000E+00  0.00000000000E+00  0.14635209190E+03  0.34822090121E+04  0.34791321718E+04 0.  0.
        4    1    3    3  502    0 -0.89024523435E+02 -0.68663048320E+03 -0.15240741578E+04  0.16739744435E+04  0.12699999809E+01 0.  1.
       -4    1    3    3    0  502  0.89024523435E+02  0.68663048320E+03  0.16704262497E+04  0.18082345685E+04  0.12699999809E+01 0. -1.
</event>
<event>
 5   0  0.3119048E-07  0.3506803E+04  0.7818609E-02  0.8112180E-01
       -2   -1    0    0    0  501  0.00000000000E+00  0.00000000000E+00  0.12016380634E+04  0.12016380634E+04  0.25500000920E-02 0.  1.
        2   -1    0    0  501    0  0.00000000000E+00  0.00000000000E+00 -0.25585211378E+04  0.25585211378E+04  0.25500000920E-02 0. -1.
    10030    2    1    2    0    0  0.00000000000E+00  0.00000000000E+00 -0.13568830744E+04  0.37601592011E+04  0.35068027518E+04 0.  0.
        3    1    3    3  502    0  0.90053767620E+03 -0.61464102242E+03  0.79396293435E+03  0.13487508458E+04  0.10100000352E+00 0.  1.
       -3    1    3    3    0  502 -0.90053767620E+03  0.61464102242E+03 -0.21508460088E+04  0.24114083553E+04  0.10100000352E+00 0. -1.
</event>
<event>
 5   0  0.3190185E-07  0.3476222E+04  0.7818609E-02  0.8119448E-01
        2   -1    0    0  501    0  0.00000000000E+00  0.00000000000E+00  0.16518669478E+04  0.16518669478E+04  0.25500000920E-02 0.  1.
       -2   -1    0    0    0  501  0.00000000000E+00  0.00000000000E+00 -0.18288573720E+04  0.18288573720E+04  0.25500000920E-02 0. -1.
    10030    2    1    2    0    0  0.00000000000E+00  0.00000000000E+00 -0.17699042426E+03  0.34807243198E+04  0.34762215378E+04 0.  0.
        1    1    3    3  502    0 -0.15435279647E+04 -0.73799725363E+03  0.21834996837E+03  0.17247594710E+04  0.50400001928E-02 0. -1.
       -1    1    3    3    0  502  0.15435279647E+04  0.73799725363E+03 -0.39534039262E+03  0.17559648488E+04  0.50400001928E-02 0.  1.
</event>
<event>
 5   0  0.1013863E-07  0.3494934E+04  0.7818609E-02  0.8114992E-01
       -1   -1    0    0    0  501  0.00000000000E+00  0.00000000000E+00  0.26166747871E+04  0.26166747871E+04  0.50400001928E-02 0.  1.
        1   -1    0    0  501    0  0.00000000000E+00  0.00000000000E+00 -0.11669928338E+04  0.11669928338E+04  0.50400001928E-02 0. -1.
    10030    2    1    2    0    0  0.00000000000E+00  0.00000000000E+00  0.14496819533E+04  0.37836676209E+04  0.34949338906E+04 0.  0.
        2    1    3    3  502    0 -0.71386587882E+03 -0.73211069483E+03  0.22589679015E+04  0.24796222580E+04  0.25500000920E-02 0.  1.
       -2    1    3    3    0  502  0.71386587882E+03  0.73211069483E+03 -0.80928594821E+03  0.13040453629E+04  0.25500000920E-02 0. -1.
</event>
<event>
 5   0  0.1013863E-07  0.3521053E+04  0.7818609E-02  0.8108819E-01
       -1   -1    0    0    0  501  0.00000000000E+00  0.00000000000E+00  0.10974927703E+04  0.10974927703E+04  0.50400001928E-02 0. -1.
        1   -1    0    0  501    0  0.00000000000E+00  0.00000000000E+00 -0.28241220905E+04  0.28241220905E+04  0.50400001928E-02 0.  1.
    10030    2    1    2    0    0  0.00000000000E+00  0.00000000000E+00 -0.17266293202E+04  0.39216148608E+04  0.35210530111E+04 0.  0.
        5    1    3    3  502    0  0.13598470297E+04  0.79026504951E+03  0.17704617904E+02  0.15729076057E+04  0.46999998093E+01 0. -1.
       -5    1    3    3    0  502 -0.13598470297E+04 -0.79026504951E+03 -0.17443339382E+04  0.23487072551E+04  0.46999998093E+01 0.  1.
</event>
<event>
 5   0  0.3119048E-07  0.3488201E+04  0.7818609E-02  0.8116592E-01
       -2   -1    0    0    0  501  0.00000000000E+00  0.00000000000E+00  0.12266823577E+04  0.12266823577E+04  0.25500000920E-02 0. -1.
        2   -1    0    0  501    0  0.00000000000E+00  0.00000000000E+00 -0.24797670069E+04  0.24797670069E+04  0.25500000920E-02 0.  1.
    10030    2    1    2    0    0  0.00000000000E+00  0.00000000000E+00 -0.12530846491E+04  0.37064493646E+04  0.34882009337E+04 0.  0.
        3    1    3    3  502    0 -0.11582884555E+04  0.10333284292E+04  0.21850738226E+03  0.15675283969E+04  0.10100000352E+00 0. -1.
       -3    1    3    3    0  502  0.11582884555E+04 -0.10333284292E+04 -0.14715920314E+04  0.21389209677E+04  0.10100000352E+00 0.  1.
</event>
<event>
 5   0  0.3190185E-07  0.3511944E+04  0.7818609E-02  0.8110965E-01
       -2   -1    0    0    0  501  0.00000000000E+00  0.00000000000E+00  0.13434266625E+04  0.13434266625E+04  0.25500000920E-02 0.  1.
        2   -1    0    0  501    0  0.00000000000E+00  0.00000000000E+00 -0.22952038621E+04  0.22952038621E+04  0.25500000920E-02 0. -1.
    10030    2    1    2    0    0  0.00000000000E+00  0.00000000000E+00 -0.95177719959E+03  0.36386305247E+04  0.35119442275E+04 0.  0.
        1    1    3    3  502    0  0.17105566187E+04  0.37027689347E+03 -0.62361219152E+03  0.18579561591E+04  0.50400001928E-02 0. -1.
       -1    1    3    3    0  502 -0.17105566187E+04 -0.37027689347E+03 -0.32816500806E+03  0.17806743656E+04  0.50400001928E-02 0.  1.
</event>
<event>
 5   0  0.1013863E-07  0.3500880E+04  0.7818609E-02  0.8113581E-01
        3   -1    0    0  501    0  0.00000000000E+00  0.00000000000E+00  0.13079796214E+04  0.13079796253E+04  0.10100000352E+00 0.  1.
       -3   -1    0    0    0  501  0.00000000000E+00  0.00000000000E+00 -0.23425744886E+04  0.23425744908E+04  0.10100000352E+00 0. -1.
    10030    2    1    2    0    0  0.00000000000E+00  0.00000000000E+00 -0.10345948672E+04  0.36505541161E+04  0.35008797202E+04 0.  0.
        1    1    3    3  502    0 -0.10343413359E+04 -0.42380149558E+03  0.88735366684E+03  0.14271882276E+04  0.50400001928E-02 0.  1.
       -1    1    3    3    0  502  0.10343413359E+04  0.42380149558E+03 -0.19219485341E+04  0.22233658886E+04  0.50400001928E-02 0. -1.
</event>
<event>
 5   0  0.1013863E-07  0.3500287E+04  0.7818609E-02  0.8113722E-01
        1   -1    0    0  501    0  0.00000000000E+00  0.00000000000E+00  0.10293971678E+04  0.10293971679E+04  0.50400001928E-02 0.  1.
       -1   -1    0    0    0  501  0.00000000000E+00  0.00000000000E+00 -0.29755304474E+04  0.29755304474E+04  0.50400001928E-02 0. -1.
    10030    2    1    2    0    0  0.00000000000E+00  0.00000000000E+00 -0.19461332796E+04  0.40049276153E+04  0.35002871970E+04 0.  0.
        5    1    3    3  502    0  0.14535676907E+04 -0.48185646498E+03 -0.19425353775E+04  0.24735623031E+04  0.46999998093E+01 0. -1.
       -5    1    3    3    0  502 -0.14535676907E+04  0.48185646498E+03 -0.35979020433E+01  0.15313653122E+04  0.46999998093E+01 0.  1.
</event>
<event>
 5   0  0.1013863E-07  0.3465544E+04  0.7818609E-02  0.8122004E-01
       -1   -1    0    0    0  501  0.00000000000E+00  0.00000000000E+00  0.10930835827E+04  0.10930835827E+04  0.50400001928E-02 0. -1.
        1   -1    0    0  501    0  0.00000000000E+00  0.00000000000E+00 -0.27468150118E+04  0.27468150118E+04  0.50400001928E-02 0.  1.
    10030    2    1    2    0    0  0.00000000000E+00  0.00000000000E+00 -0.16537314291E+04  0.38398985946E+04  0.34655437635E+04 0.  0.
        2    1    3    3  502    0 -0.62027601339E+03 -0.55620942994E+03 -0.25103252823E+04  0.26449658383E+04  0.25500000920E-02 0.  1.
       -2    1    3    3    0  502  0.62027601339E+03  0.55620942994E+03  0.85659385319E+03  0.11949327563E+04  0.25500000920E-02 0. -1.
</event>
<event>
 5   0  0.1013863E-07  0.3507290E+04  0.7818609E-02  0.8112065E-01
       -1   -1    0    0    0  501  0.00000000000E+00  0.00000000000E+00  0.15206073682E+04  0.15206073682E+04  0.50400001928E-02 0.  1.
        1   -1    0    0  501    0  0.00000000000E+00  0.00000000000E+00 -0.20223961954E+04  0.20223961954E+04  0.50400001928E-02 0. -1.
    10030    2    1    2    0    0  0.00000000000E+00  0.00000000000E+00 -0.50178882726E+03  0.35430035636E+04  0.35072898689E+04 0.  0.
        5    1    3    3  502    0  0.84736953685E+03  0.92722227399E+03 -0.14870675771E+04  0.19465786258E+04  0.46999998093E+01 0. -1.
       -5    1    3    3    0  502 -0.84736953685E+03 -0.92722227399E+03  0.98527874985E+03  0.15964249379E+04  0.46999998093E+01 0.  1.
</event>
<event>
 5   0  0.1013863E-07  0.3507644E+04  0.7818609E-02  0.8111981E-01
       -1   -1    0    0    0  501  0.00000000000E+00  0.00000000000E+00  0.17990645743E+04  0.17990645743E+04  0.50400001928E-02 0.  1.
        1   -1    0    0  501    0  0.00000000000E+00  0.00000000000E+00 -0.17097176432E+04  0.17097176432E+04  0.50400001928E-02 0. -1.
    10030    2    1    2    0    0  0.00000000000E+00  0.00000000000E+00  0.89346931111E+02  0.35087822175E+04  0.35076444768E+04 0.  0.
        2    1    3    3  502    0  0.81416072223E+03  0.79024418753E+03  0.13824736536E+04  0.17884565861E+04  0.25500000920E-02 0.  1.
       -2    1    3    3    0  502 -0.81416072223E+03 -0.79024418753E+03 -0.12931267225E+04  0.17203256314E+04  0.25500000920E-02 0. -1.
</event>
<event>
 5   0  0.1013863E-07  0.3506655E+04  0.7818609E-02  0.8112215E-01
        1   -1    0    0  501    0  0.00000000000E+00  0.00000000000E+00  0.20640972199E+04  0.20640972199E+04  0.50400001928E-02 0. -1.
       -1   -1    0    0    0  501  0.00000000000E+00  0.00000000000E+00 -0.14893468464E+04  0.14893468464E+04  0.50400001928E-02 0.  1.
    10030    2    1    2    0    0  0.00000000000E+00  0.00000000000E+00  0.57475037348E+03  0.35534440663E+04  0.35066546366E+04 0.  0.
        5    1    3    3  502    0  0.12316508980E+03  0.54876717965E+03  0.19702019511E+04  0.20489101676E+04  0.46999998093E+01 0. -1.
       -5    1    3    3    0  502 -0.12316508980E+03 -0.54876717965E+03 -0.13954515776E+04  0.15045338987E+04  0.46999998093E+01 0.  1.
</event>
<event>
 5   0  0.3190112E-07  0.3524153E+04  0.7818609E-02  0.8108090E-01
        2   -1    0    0  501    0  0.00000000000E+00  0.00000000000E+00  0.28888003383E+04  0.28888003383E+04  0.25500000920E-02 0. -1.
       -2   -1    0    0    0  501  0.00000000000E+00  0.00000000000E+00 -0.10748105143E+04  0.10748105143E+04  0.25500000920E-02 0.  1.
    10030    2    1    2    0    0  0.00000000000E+00  0.00000000000E+00  0.18139898240E+04  0.39636108527E+04  0.35241526513E+04 0.  0.
        5    1    3    3  502    0 -0.91249621840E+03  0.45026665387E+03  0.25249600791E+04  0.27222848674E+04  0.46999998093E+01 0. -1.
       -5    1    3    3    0  502  0.91249621840E+03 -0.45026665387E+03 -0.71097025509E+03  0.12413259853E+04  0.46999998093E+01 0.  1.
</event>
<event>
 5   0  0.3119048E-07  0.3410541E+04  0.7818609E-02  0.8135324E-01
       -2   -1    0    0    0  501  0.00000000000E+00  0.00000000000E+00  0.15488063126E+04  0.15488063126E+04  0.25500000920E-02 0. -1.
        2   -1    0    0  501    0  0.00000000000E+00  0.00000000000E+00 -0.18775412069E+04  0.18775412069E+04  0.25500000920E-02 0.  1.
    10030    2    1    2    0    0  0.00000000000E+00  0.00000000000E+00 -0.32873489426E+03  0.34263475195E+04  0.34105411145E+04 0.  0.
        3    1    3    3  502    0 -0.14193850012E+04 -0.88552673299E+03 -0.49625633086E+03  0.17450162557E+04  0.10100000352E+00 0.  1.
       -3    1    3    3    0  502  0.14193850012E+04  0.88552673299E+03  0.16752143659E+03  0.16813312638E+04  0.10100000352E+00 0. -1.
</event>
<event>
 5   0  0.3219205E-07  0.3470644E+04  0.7818609E-02  0.8120782E-01
       -2   -1    0    0    0  501  0.00000000000E+00  0.00000000000E+00  0.16609060707E+04  0.16609060707E+04  0.25500000920E-02 0. -1.
        2   -1    0    0  501    0  0.00000000000E+00  0.00000000000E+00 -0.18130717054E+04  0.18130717054E+04  0.25500000920E-02 0.  1.
    10030    2    1    2    0    0  0.00000000000E+00  0.00000000000E+00 -0.15216563473E+03  0.34739777762E+04  0.34706436303E+04 0.  0.
        2    1    3    3  502    0  0.65821632359E+01  0.53965142515E+03  0.15747665154E+04  0.16646791173E+04  0.25500000920E-02 0. -1.
       -2    1    3    3    0  502 -0.65821632359E+01 -0.53965142515E+03 -0.17269321502E+04  0.18092986588E+04  0.25500000920E-02 0.  1.
</event>
<event>
 5   0  0.2180451E-07  0.3506134E+04  0.7818609E-02  0.8112338E-01
        2   -1    0    0  501    0  0.00000000000E+00  0.00000000000E+00  0.15956297081E+04  0.15956297081E+04  0.25500000920E-02 0. -1.
       -2   -1    0    0    0  501  0.00000000000E+00  0.00000000000E+00 -0.19260381316E+04  0.19260381316E+04  0.25500000920E-02 0.  1.
    10030    2    1    2    0    0  0.00000000000E+00  0.00000000000E+00 -0.33040842349E+03  0.35216678397E+04  0.35061338604E+04 0.  0.
        4    1    3    3  502    0 -0.67389392297E+03 -0.44619064499E+03  0.13973303761E+04  0.16142344638E+04  0.12699999809E+01 0. -1.
       -4    1    3    3    0  502  0.67389392297E+03  0.44619064499E+03 -0.17277387996E+04  0.19074333760E+04  0.12699999809E+01 0.  1.
</event>
<event>
 5   0  0.1013863E-07  0.3494171E+04  0.7818609E-02  0.8115173E-01
        1   -1    0    0  501    0  0.00000000000E+00  0.00000000000E+00  0.17466771741E+04  0.17466771741E+04  0.50400001928E-02 0.  1.
       -1   -1    0    0    0  501  0.00000000000E+00  0.00000000000E+00 -0.17474939575E+04  0.17474939576E+04  0.50400001928E-02 0. -1.
    10030    2    1    2    0    0  0.00000000000E+00  0.00000000000E+00 -0.81678342132E+00  0.34941711317E+04  0.34941710362E+04 0.  0.
        2    1    3    3  502    0 -0.77322349682E+03 -0.12989403756E+04  0.87548382433E+03  0.17468808208E+04  0.25500000920E-02 0.  1.
       -2    1    3    3    0  502  0.77322349682E+03  0.12989403756E+04 -0.87630060775E+03  0.17472903109E+04  0.25500000920E-02 0. -1.
</event>
<event>
 5   0  0.2180451E-07  0.3499009E+04  0.7818609E-02  0.8114025E-01
       -2   -1    0    0    0  501  0.00000000000E+00  0.00000000000E+00  0.19433653379E+04  0.19433653379E+04  0.25500000920E-02 0.  1.
        2   -1    0    0  501    0  0.00000000000E+00  0.00000000000E+00 -0.15749820166E+04  0.15749820166E+04  0.25500000920E-02 0. -1.
    10030    2    1    2    0    0  0.00000000000E+00  0.00000000000E+00  0.36838332127E+03  0.35183473545E+04  0.34990086933E+04 0.  0.
        4    1    3    3  502    0 -0.34713826959E+03  0.74340919106E+02  0.19067658590E+04  0.19395332440E+04  0.12699999809E+01 0.  1.
       -4    1    3    3    0  502  0.34713826959E+03 -0.74340919106E+02 -0.15383825377E+04  0.15788141106E+04  0.12699999809E+01 0. -1.
</event>
<event>
 5   0  0.1098171E-07  0.3690277E+04  0.7818609E-02  0.8070120E-01
        1   -1    0    0  501    0  0.00000000000E+00  0.00000000000E+00  0.17076486090E+04  0.17076486090E+04  0.50400001928E-02 0.  1.
       -1   -1    0    0    0  501  0.00000000000E+00  0.00000000000E+00 -0.19936985075E+04  0.19936985075E+04  0.50400001928E-02 0. -1.
    10030    2    1    2    0    0  0.00000000000E+00  0.00000000000E+00 -0.28604989853E+03  0.37013471166E+04  0.36902772162E+04 0.  0.
        4    1    3    3  502    0 -0.17801704380E+02  0.87796658987E+03  0.14846160922E+04  0.17248851520E+04  0.12699999809E+01 0.  1.
       -4    1    3    3    0  502  0.17801704380E+02 -0.87796658987E+03 -0.17706659907E+04  0.19764619645E+04  0.12699999809E+01 0. -1.
</event>
<event>
 5   0  0.1013863E-07  0.3504969E+04  0.7818609E-02  0.8112613E-01
       -1   -1    0    0    0  501  0.00000000000E+00  0.00000000000E+00  0.30104321387E+04  0.30104321387E+04  0.50400001928E-02 0. -1.
        1   -1    0    0  501    0  0.00000000000E+00  0.00000000000E+00 -0.10201863520E+04  0.10201863520E+04  0.50400001928E-02 0.  1.
    10030    2    1    2    0    0  0.00000000000E+00  0.00000000000E+00  0.19902457866E+04  0.40306184907E+04  0.35049689195E+04 0.  0.
        2    1    3    3  502    0 -0.13640910923E+04  0.96215417195E+03  0.16087350196E+04  0.23182997050E+04  0.25500000920E-02 0. -1.
       -2    1    3    3    0  502  0.13640910923E+04 -0.96215417195E+03  0.38151076698E+03  0.17123187857E+04  0.25500000920E-02 0.  1.
</event>
<event>
 5   0  0.3119048E-07  0.3505004E+04  0.7818609E-02  0.8112605E-01
       -2   -1    0    0    0  501  0.00000000000E+00  0.00000000000E+00  0.14739585193E+04  0.14739585193E+04  0.25500000920E-02 0.  1.
        2   -1    0    0  501    0  0.00000000000E+00  0.00000000000E+00 -0.20836832441E+04  0.20836832441E+04  0.25500000920E-02 0. -1.
    10030    2    1    2    0    0  0.00000000000E+00  0.00000000000E+00 -0.60972472474E+03  0.35576417634E+04  0.35050036629E+04 0.  0.
        3    1    3    3  502    0 -0.13320542808E+04 -0.86650050811E+03 -0.10549262627E+04  0.19073702230E+04  0.10100000352E+00 0. -1.
       -3    1    3    3    0  502  0.13320542808E+04  0.86650050811E+03  0.44520153793E+03  0.16502715404E+04  0.10100000352E+00 0.  1.
</event>
<event>
 5   0  0.1033796E-07  0.3502354E+04  0.7818609E-02  0.8113232E-01
        1   -1    0    0  501    0  0.00000000000E+00  0.00000000000E+00  0.18106845705E+04  0.18106845705E+04  0.50400001928E-02 0. -1.
       -1   -1    0    0    0  501  0.00000000000E+00  0.00000000000E+00 -0.16936255565E+04  0.16936255566E+04  0.50400001928E-02 0.  1.
    10030    2    1    2    0    0  0.00000000000E+00  0.00000000000E+00  0.11705901399E+03  0.35043101271E+04  0.35023544444E+04 0.  0.
        3    1    3    3  502    0  0.95647471909E+03  0.32752141514E+03  0.14891906806E+04  0.17999452934E+04  0.10100000352E+00 0. -1.
       -3    1    3    3    0  502 -0.95647471909E+03 -0.32752141514E+03 -0.13721316666E+04  0.17043648337E+04  0.10100000352E+00 0.  1.
</event>
<event>
 5   0  0.3119048E-07  0.3485863E+04  0.7818609E-02  0.8117148E-01
       -2   -1    0    0    0  501  0.00000000000E+00  0.00000000000E+00  0.15322516992E+04  0.15322516992E+04  0.25500000920E-02 0. -1.
        2   -1    0    0  501    0  0.00000000000E+00  0.00000000000E+00 -0.19825794709E+04  0.19825794709E+04  0.25500000920E-02 0.  1.
    10030    2    1    2    0    0  0.00000000000E+00  0.00000000000E+00 -0.45032777173E+03  0.35148311702E+04  0.34858633153E+04 0.  0.
        3    1    3    3  502    0  0.78391424759E+03 -0.11352573297E+04 -0.12991348437E+04  0.18950150671E+04  0.10100000352E+00 0.  1.
       -3    1    3    3    0  502 -0.78391424759E+03  0.11352573297E+04  0.84880707194E+03  0.16198161031E+04  0.10100000352E+00 0. -1.
</event>
<event>
 5   0  0.1013863E-07  0.3485541E+04  0.7818609E-02  0.8117225E-01
       -3   -1    0    0    0  501  0.00000000000E+00  0.00000000000E+00  0.16298009513E+04  0.16298009544E+04  0.10100000352E+00 0. -1.
        3   -1    0    0  501    0  0.00000000000E+00  0.00000000000E+00 -0.18635710521E+04  0.18635710548E+04  0.10100000352E+00 0.  1.
    10030    2    1    2    0    0  0.00000000000E+00  0.00000000000E+00 -0.23377010077E+03  0.34933720092E+04  0.34855414981E+04 0.  0.
        5    1    3    3  502    0  0.50362990877E+03 -0.77812103284E+03 -0.15960435684E+04  0.18456686022E+04  0.46999998093E+01 0.  1.
       -5    1    3    3    0  502 -0.50362990877E+03  0.77812103284E+03  0.13622734677E+04  0.16477034070E+04  0.46999998093E+01 0. -1.
</event>
<event>
 5   0  0.1098171E-07  0.3498064E+04  0.7818609E-02  0.8114249E-01
       -1   -1    0    0    0  501  0.00000000000E+00  0.00000000000E+00  0.13847902198E+04  0.13847902198E+04  0.50400001928E-02 0.  1.
        1   -1    0    0  501    0  0.00000000000E+00  0.00000000000E+00 -0.22090800832E+04  0.22090800832E+04  0.50400001928E-02 0. -1.
    10030    2    1    2    0    0  0.00000000000E+00  0.00000000000E+00 -0.82428986340E+03  0.35938703031E+04  0.34980637468E+04 0.  0.
        4    1    3    3  502    0  0.61500718069E+03  0.74442403466E+03 -0.19104105289E+04  0.21405772533E+04  0.12699999809E+01 0. -1.
       -4    1    3    3    0  502 -0.61500718069E+03 -0.74442403466E+03  0.10861206655E+04  0.14532930498E+04  0.12699999809E+01 0.  1.
</event>
<event>
 5   0  0.1013863E-07  0.3508329E+04  0.7818609E-02  0.8111819E-01
       -1   -1    0    0    0  501  0.00000000000E+00  0.00000000000E+00  0.19639252486E+04  0.19639252486E+04  0.50400001928E-02 0.  1.
        1   -1    0    0  501    0  0.00000000000E+00  0.00000000000E+00 -0.15668080589E+04  0.15668080590E+04  0.50400001928E-02 0. -1.
    10030    2    1    2    0    0  0.00000000000E+00  0.00000000000E+00  0.39711718968E+03  0.35307333076E+04  0.35083294639E+04 0.  0.
        5    1    3    3  502    0 -0.31804318914E+03 -0.88196762459E+03 -0.12934924077E+04  0.15975490790E+04  0.46999998093E+01 0. -1.
       -5    1    3    3    0  502  0.31804318914E+03  0.88196762459E+03  0.16906095974E+04  0.19331842286E+04  0.46999998093E+01 0.  1.
</event>
<event>
 5   0  0.3119048E-07  0.3496962E+04  0.7818609E-02  0.8114510E-01
        2   -1    0    0  501    0  0.00000000000E+00  0.00000000000E+00  0.24638989317E+04  0.24638989317E+04  0.25500000920E-02 0.  1.
       -2   -1    0    0    0  501  0.00000000000E+00  0.00000000000E+00 -0.12407922090E+04  0.12407922090E+04  0.25500000920E-02 0. -1.
    10030    2    1    2    0    0  0.00000000000E+00  0.00000000000E+00  0.12231067227E+04  0.37046911408E+04  0.34969624524E+04 0.  0.
        3    1    3    3  502    0 -0.79978811424E+03 -0.78592100375E+03  0.20328333606E+04  0.23215822911E+04  0.10100000352E+00 0.  1.
       -3    1    3    3    0  502  0.79978811424E+03  0.78592100375E+03 -0.80972663794E+03  0.13831088497E+04  0.10100000352E+00 0. -1.
</event>
<event>
 5   0  0.1072381E-07  0.3504422E+04  0.7818609E-02  0.8112743E-01
       -1   -1    0    0    0  501  0.00000000000E+00  0.00000000000E+00  0.24030027260E+04  0.24030027260E+04  0.50400001928E-02 0. -1.
        1   -1    0    0  501    0  0.00000000000E+00  0.00000000000E+00 -0.12776698756E+04  0.12776698756E+04  0.50400001928E-02 0.  1.
    10030    2    1    2    0    0  0.00000000000E+00  0.00000000000E+00  0.11253328504E+04  0.36806726016E+04  0.35044224596E+04 0.  0.
        1    1    3    3  502    0 -0.17251180957E+03 -0.30549108721E+03  0.23657361511E+04  0.23916088028E+04  0.50400001928E-02 0. -1.
       -1    1    3    3    0  502  0.17251180957E+03  0.30549108721E+03 -0.12404033007E+04  0.12890637988E+04  0.50400001928E-02 0.  1.
</event>
<event>
 5   0  0.3190112E-07  0.3500554E+04  0.7818609E-02  0.8113659E-01
        2   -1    0    0  501    0  0.00000000000E+00  0.00000000000E+00  0.20770918052E+04  0.20770918052E+04  0.25500000920E-02 0. -1.
       -2   -1    0    0    0  501  0.00000000000E+00  0.00000000000E+00 -0.14748844249E+04  0.14748844249E+04  0.25500000920E-02 0.  1.
    10030    2    1    2    0    0  0.00000000000E+00  0.00000000000E+00  0.60220738033E+03  0.35519762300E+04  0.35005544432E+04 0.  0.
        5    1    3    3  502    0 -0.40479750470E+03 -0.69519715113E+03 -0.12761718829E+04  0.15085744474E+04  0.46999998093E+01 0.  1.
       -5    1    3    3    0  502  0.40479750470E+03  0.69519715113E+03  0.18783792632E+04  0.20434017826E+04  0.46999998093E+01 0. -1.
</event>
<event>
 5   0  0.1013863E-07  0.3500449E+04  0.7818609E-02  0.8113684E-01
        1   -1    0    0  501    0  0.00000000000E+00  0.00000000000E+00  0.18875258122E+04  0.18875258122E+04  0.50400001928E-02 0. -1.
       -1   -1    0    0    0  501  0.00000000000E+00  0.00000000000E+00 -0.16229104399E+04  0.16229104399E+04  0.50400001928E-02 0.  1.
    10030    2    1    2    0    0  0.00000000000E+00  0.00000000000E+00  0.26461537230E+03  0.35104362520E+04  0.35004487404E+04 0.  0.
        2    1    3    3  502    0 -0.10188337004E+04  0.13980713433E+04 -0.13426977972E+03  0.17351236163E+04  0.25500000920E-02 0. -1.
       -2    1    3    3    0  502  0.10188337004E+04 -0.13980713433E+04  0.39888515202E+03  0.17753126357E+04  0.25500000920E-02 0.  1.
</event>
<event>
 5   0  0.1072381E-07  0.3507379E+04  0.7818609E-02  0.8112043E-01
       -1   -1    0    0    0  501  0.00000000000E+00  0.00000000000E+00  0.17977028613E+04  0.17977028613E+04  0.50400001928E-02 0.  1.
        1   -1    0    0  501    0  0.00000000000E+00  0.00000000000E+00 -0.17107537024E+04  0.17107537024E+04  0.50400001928E-02 0. -1.
    10030    2    1    2    0    0  0.00000000000E+00  0.00000000000E+00  0.86949158904E+02  0.35084565637E+04  0.35073789791E+04 0.  0.
        1    1    3    3  502    0  0.10785398693E+04  0.41467831368E+03  0.13630540370E+04  0.17869310735E+04  0.50400001928E-02 0.  1.
       -1    1    3    3    0  502 -0.10785398693E+04 -0.41467831368E+03 -0.12761048781E+04  0.17215254902E+04  0.50400001928E-02 0. -1.
</event>
<event>
 5   0  0.1013863E-07  0.3498619E+04  0.7818609E-02  0.8114117E-01
        3   -1    0    0  501    0  0.00000000000E+00  0.00000000000E+00  0.23225813332E+04  0.23225813354E+04  0.10100000352E+00 0.  1.
       -3   -1    0    0    0  501  0.00000000000E+00  0.00000000000E+00 -0.13175354154E+04  0.13175354193E+04  0.10100000352E+00 0. -1.
    10030    2    1    2    0    0  0.00000000000E+00  0.00000000000E+00  0.10050459178E+04  0.36401167547E+04  0.34986186833E+04 0.  0.
        3    1    3    3  502    0  0.44314326586E+03 -0.14905470460E+04  0.13361625650E+04  0.20502284899E+04  0.10100000352E+00 0.  1.
       -3    1    3    3    0  502 -0.44314326586E+03  0.14905470460E+04 -0.33111664725E+03  0.15898882648E+04  0.10100000352E+00 0. -1.
</event>
<event>
 5   0  0.1033796E-07  0.3493517E+04  0.7818609E-02  0.8115328E-01
        1   -1    0    0  501    0  0.00000000000E+00  0.00000000000E+00  0.24959544657E+04  0.24959544658E+04  0.50400001928E-02 0. -1.
       -1   -1    0    0    0  501  0.00000000000E+00  0.00000000000E+00 -0.12224440018E+04  0.12224440018E+04  0.50400001928E-02 0.  1.
    10030    2    1    2    0    0  0.00000000000E+00  0.00000000000E+00  0.12735104639E+04  0.37183984676E+04  0.34935166039E+04 0.  0.
        3    1    3    3  502    0 -0.47112194803E+03 -0.12624178991E+04 -0.54633044815E+03  0.14540054369E+04  0.10100000352E+00 0.  1.
       -3    1    3    3    0  502  0.47112194803E+03  0.12624178991E+04  0.18198409121E+04  0.22643930307E+04  0.10100000352E+00 0. -1.
</event>
<event>
 5   0  0.3219205E-07  0.3499432E+04  0.7818609E-02  0.8113925E-01
       -2   -1    0    0    0  501  0.00000000000E+00  0.00000000000E+00  0.12649430737E+04  0.12649430737E+04  0.25500000920E-02 0.  1.
        2   -1    0    0  501    0  0.00000000000E+00  0.00000000000E+00 -0.24202721599E+04  0.24202721599E+04  0.25500000920E-02 0. -1.
    10030    2    1    2    0    0  0.00000000000E+00  0.00000000000E+00 -0.11553290862E+04  0.36852152336E+04  0.34994322426E+04 0.  0.
        2    1    3    3  502    0  0.87823244012E+03 -0.15062260898E+04 -0.73206790417E+03  0.18910136617E+04  0.25500000920E-02 0.  1.
       -2    1    3    3    0  502 -0.87823244012E+03  0.15062260898E+04 -0.42326118201E+03  0.17942015719E+04  0.25500000920E-02 0. -1.
</event>
<event>
 5   0  0.3190185E-07  0.3488978E+04  0.7818609E-02  0.8116407E-01
        2   -1    0    0  501    0  0.00000000000E+00  0.00000000000E+00  0.11564735538E+04  0.11564735538E+04  0.25500000920E-02 0. -1.
       -2   -1    0    0    0  501  0.00000000000E+00  0.00000000000E+00 -0.26314836228E+04  0.26314836228E+04  0.25500000920E-02 0.  1.
    10030    2    1    2    0    0  0.00000000000E+00  0.00000000000E+00 -0.14750100690E+04  0.37879571767E+04  0.34889776251E+04 0.  0.
        1    1    3    3  502    0  0.57867148628E+03  0.77880190873E+03 -0.23115152298E+04  0.25068896585E+04  0.50400001928E-02 0.  1.
       -1    1    3    3    0  502 -0.57867148628E+03 -0.77880190873E+03  0.83650516083E+03  0.12810675182E+04  0.50400001928E-02 0. -1.
</event>
<event>
 5   0  0.1098171E-07  0.3491968E+04  0.7818609E-02  0.8115696E-01
       -1   -1    0    0    0  501  0.00000000000E+00  0.00000000000E+00  0.99682654429E+03  0.99682654430E+03  0.50400001928E-02 0. -1.
        1   -1    0    0  501    0  0.00000000000E+00  0.00000000000E+00 -0.30581648750E+04  0.30581648750E+04  0.50400001928E-02 0.  1.
    10030    2    1    2    0    0  0.00000000000E+00  0.00000000000E+00 -0.20613383307E+04  0.40549914193E+04  0.34919678832E+04 0.  0.
        4    1    3    3  502    0 -0.12989703352E+04 -0.93915929945E+03 -0.22688542690E+03  0.16188955282E+04  0.12699999809E+01 0. -1.
       -4    1    3    3    0  502  0.12989703352E+04  0.93915929945E+03 -0.18344529038E+04  0.24360958911E+04  0.12699999809E+01 0.  1.
</event>
<event>
 5   0  0.1033796E-07  0.3595414E+04  0.7818609E-02  0.8091543E-01
       -1   -1    0    0    0  501  0.00000000000E+00  0.00000000000E+00  0.12736960819E+04  0.12736960819E+04  0.50400001928E-02 0. -1.
        1   -1    0    0  501    0  0.00000000000E+00  0.00000000000E+00 -0.25373010967E+04  0.25373010967E+04  0.50400001928E-02 0.  1.
    10030    2    1    2    0    0  0.00000000000E+00  0.00000000000E+00 -0.12636050148E+04  0.38109971785E+04  0.35954140042E+04 0.  0.
        3    1    3    3  502    0 -0.20654573451E+03 -0.16442817574E+04 -0.13703043853E+04  0.21503622385E+04  0.10100000352E+00 0.  1.
       -3    1    3    3    0  502  0.20654573451E+03  0.16442817574E+04  0.10669937051E+03  0.16606349400E+04  0.10100000352E+00 0. -1.
</event>
<event>
 5   0  0.1072381E-07  0.3491644E+04  0.7818609E-02  0.8115773E-01
       -1   -1    0    0    0  501  0.00000000000E+00  0.00000000000E+00  0.22306962227E+04  0.22306962227E+04  0.50400001928E-02 0. -1.
        1   -1    0    0  501    0  0.00000000000E+00  0.00000000000E+00 -0.13663424575E+04  0.13663424575E+04  0.50400001928E-02 0.  1.
    10030    2    1    2    0    0  0.00000000000E+00  0.00000000000E+00  0.86435376511E+03  0.35970386802E+04  0.34916442882E+04 0.  0.
        1    1    3    3  502    0  0.97345110834E+03  0.14352992258E+04  0.63873863699E+03  0.18481552896E+04  0.50400001928E-02 0. -1.
       -1    1    3    3    0  502 -0.97345110834E+03 -0.14352992258E+04  0.22561512812E+03  0.17488833906E+04  0.50400001928E-02 0.  1.
</event>
<event>
 5   0  0.1013863E-07  0.3525968E+04  0.7818609E-02  0.8107663E-01
       -1   -1    0    0    0  501  0.00000000000E+00  0.00000000000E+00  0.14724155131E+04  0.14724155131E+04  0.50400001928E-02 0.  1.
        1   -1    0    0  501    0  0.00000000000E+00  0.00000000000E+00 -0.21108932535E+04  0.21108932535E+04  0.50400001928E-02 0. -1.
    10030    2    1    2    0    0  0.00000000000E+00  0.00000000000E+00 -0.63847774037E+03  0.35833087666E+04  0.35259676533E+04 0.  0.
        2    1    3    3  502    0  0.14413848327E+04  0.28731232669E+03 -0.13087119331E+04  0.19679597386E+04  0.25500000920E-02 0. -1.
       -2    1    3    3    0  502 -0.14413848327E+04 -0.28731232669E+03  0.67023419273E+03  0.16153490280E+04  0.25500000920E-02 0.  1.
</event>
<event>
 5   0  0.3190185E-07  0.3494271E+04  0.7818609E-02  0.8115149E-01
        2   -1    0    0  501    0  0.00000000000E+00  0.00000000000E+00  0.23961818717E+04  0.23961818717E+04  0.25500000920E-02 0.  1.
       -2   -1    0    0    0  501  0.00000000000E+00  0.00000000000E+00 -0.12738939555E+04  0.12738939555E+04  0.25500000920E-02 0. -1.
    10030    2    1    2    0    0  0.00000000000E+00  0.00000000000E+00  0.11222879162E+04  0.36700758272E+04  0.34942705119E+04 0.  0.
        1    1    3    3  502    0  0.91176737292E+02  0.10872159182E+04  0.19943990948E+04  0.22733190273E+04  0.50400001928E-02 0.  1.
       -1    1    3    3    0  502 -0.91176737292E+02 -0.10872159182E+04 -0.87211117861E+03  0.13967567999E+04  0.50400001928E-02 0. -1.
</event>
<event>
 5   0  0.3190185E-07  0.3584950E+04  0.7818609E-02  0.8093948E-01
       -2   -1    0    0    0  501  0.00000000000E+00  0.00000000000E+00  0.28538037602E+04  0.28538037602E+04  0.25500000920E-02 0. -1.
        2   -1    0    0  501    0  0.00000000000E+00  0.00000000000E+00 -0.11258539088E+04  0.11258539088E+04  0.25500000920E-02 0.  1.
    10030    2    1    2    0    0  0.00000000000E+00  0.00000000000E+00  0.17279498515E+04  0.39796576690E+04  0.35849497170E+04 0.  0.
        1    1    3    3  502    0  0.28559468970E+01  0.17862841144E+04  0.10291788428E+04  0.20615596485E+04  0.50400001928E-02 0.  1.
       -1    1    3    3    0  502 -0.28559468970E+01 -0.17862841144E+04  0.69877100863E+03  0.19180980205E+04  0.50400001928E-02 0. -1.
</event>
<event>
 5   0  0.1033796E-07  0.3481881E+04  0.7818609E-02  0.8118097E-01
        1   -1    0    0  501    0  0.00000000000E+00  0.00000000000E+00  0.27938689370E+04  0.27938689370E+04  0.50400001928E-02 0. -1.
       -1   -1    0    0    0  501  0.00000000000E+00  0.00000000000E+00 -0.10848303477E+04  0.10848303477E+04  0.50400001928E-02 0.  1.
    10030    2    1    2    0    0  0.00000000000E+00  0.00000000000E+00  0.17090385894E+04  0.38786992847E+04  0.34818809918E+04 0.  0.
        3    1    3    3  502    0  0.55895613974E+03 -0.44760807917E+03 -0.91317724254E+03  0.11604644093E+04  0.10100000352E+00 0.  1.
       -3    1    3    3    0  502 -0.55895613974E+03  0.44760807917E+03  0.26222158319E+04  0.27182348754E+04  0.10100000352E+00 0. -1.
</event>
<event>
 5   0  0.2180451E-07  0.3558205E+04  0.7818609E-02  0.8100133E-01
       -2   -1    0    0    0  501  0.00000000000E+00  0.00000000000E+00  0.15551986872E+04  0.15551986872E+04  0.25500000920E-02 0.  1.
        2   -1    0    0  501    0  0.00000000000E+00  0.00000000000E+00 -0.20352420196E+04  0.20352420196E+04  0.25500000920E-02 0. -1.
    10030    2    1    2    0    0  0.00000000000E+00  0.00000000000E+00 -0.48004333242E+03  0.35904407068E+04  0.35582050065E+04 0.  0.
        4    1    3    3  502    0  0.10128959103E+03 -0.12841957986E+04 -0.14782432588E+04  0.19607710666E+04  0.12699999809E+01 0. -1.
       -4    1    3    3    0  502 -0.10128959103E+03  0.12841957986E+04  0.99819992634E+03  0.16296696402E+04  0.12699999809E+01 0.  1.
</event>
<event>
 5   0  0.1033796E-07  0.3498862E+04  0.7818609E-02  0.8114060E-01
        1   -1    0    0  501    0  0.00000000000E+00  0.00000000000E+00  0.22211357158E+04  0.22211357158E+04  0.50400001928E-02 0. -1.
       -1   -1    0    0    0  501  0.00000000000E+00  0.00000000000E+00 -0.13779028117E+04  0.13779028117E+04  0.50400001928E-02 0.  1.
    10030    2    1    2    0    0  0.00000000000E+00  0.00000000000E+00  0.84323290413E+03  0.35990385275E+04  0.34988621853E+04 0.  0.
        3    1    3    3  502    0 -0.35016735574E+03  0.13680683321E+04  0.14837900309E+04  0.20483800928E+04  0.10100000352E+00 0. -1.
       -3    1    3    3    0  502  0.35016735574E+03 -0.13680683321E+04 -0.64055712681E+03  0.15506584347E+04  0.10100000352E+00 0.  1.
</event>
<event>
 5   0  0.1033796E-07  0.3506338E+04  0.7818609E-02  0.8112290E-01
       -1   -1    0    0    0  501  0.00000000000E+00  0.00000000000E+00  0.13042240405E+04  0.13042240405E+04  0.50400001928E-02 0.  1.
        1   -1    0    0  501    0  0.00000000000E+00  0.00000000000E+00 -0.23566508361E+04  0.23566508361E+04  0.50400001928E-02 0. -1.
    10030    2    1    2    0    0  0.00000000000E+00  0.00000000000E+00 -0.10524267955E+04  0.36608748766E+04  0.35063375055E+04 0.  0.
        3    1    3    3  502    0  0.10167356488E+04 -0.11977577997E+03  0.95971409796E+03  0.14032636163E+04  0.10100000352E+00 0.  1.
       -3    1    3    3    0  502 -0.10167356488E+04  0.11977577997E+03 -0.20121408935E+04  0.22576112602E+04  0.10100000352E+00 0. -1.
</event>
<event>
 5   0  0.3119048E-07  0.3567776E+04  0.7818609E-02  0.8097913E-01
       -2   -1    0    0    0  501  0.00000000000E+00  0.00000000000E+00  0.13952227429E+04  0.13952227429E+04  0.25500000920E-02 0. -1.
        2   -1    0    0  501    0  0.00000000000E+00  0.00000000000E+00 -0.22808237457E+04  0.22808237457E+04  0.25500000920E-02 0.  1.
    10030    2    1    2    0    0  0.00000000000E+00  0.00000000000E+00 -0.88560100278E+03  0.36760464886E+04  0.35677764295E+04 0.  0.
        3    1    3    3  502    0  0.33669258620E+03  0.16989514175E+04 -0.88291574187E+03  0.19440519628E+04  0.10100000352E+00 0.  1.
       -3    1    3    3    0  502 -0.33669258620E+03 -0.16989514175E+04 -0.26852609094E+01  0.17319945258E+04  0.10100000352E+00 0. -1.
</event>
<event>
 5   0  0.1098171E-07  0.3486831E+04  0.7818609E-02  0.8116918E-01
       -1   -1    0    0    0  501  0.00000000000E+00  0.00000000000E+00  0.15188552495E+04  0.15188552495E+04  0.50400001928E-02 0.  1.
        1   -1    0    0  501    0  0.00000000000E+00  0.00000000000E+00 -0.20011770050E+04  0.20011770051E+04  0.50400001928E-02 0. -1.
    10030    2    1    2    0    0  0.00000000000E+00  0.00000000000E+00 -0.48232175555E+03  0.35200322546E+04  0.34868313405E+04 0.  0.
        4    1    3    3  502    0 -0.13585884230E+04  0.10527962275E+04  0.53775346532E+02  0.17196033847E+04  0.12699999809E+01 0.  1.
       -4    1    3    3    0  502  0.13585884230E+04 -0.10527962275E+04 -0.53609710208E+03  0.18004288699E+04  0.12699999809E+01 0. -1.
</event>
<event>
 5   0  0.1033796E-07  0.3491298E+04  0.7818609E-02  0.8115855E-01
        1   -1    0    0  501    0  0.00000000000E+00  0.00000000000E+00  0.21910443217E+04  0.21910443217E+04  0.50400001928E-02 0.  1.
       -1   -1    0    0    0  501  0.00000000000E+00  0.00000000000E+00 -0.13907936986E+04  0.13907936986E+04  0.50400001928E-02 0. -1.
    10030    2    1    2    0    0  0.00000000000E+00  0.00000000000E+00  0.80025062313E+03  0.35818380204E+04  0.34912981174E+04 0.  0.
        3    1    3    3  502    0  0.15318774885E+03  0.15087083105E+03  0.21774079615E+04  0.21879976999E+04  0.10100000352E+00 0.  1.
       -3    1    3    3    0  502 -0.15318774885E+03 -0.15087083105E+03 -0.13771573383E+04  0.13938403204E+04  0.10100000352E+00 0. -1.
</event>
<event>
 5   0  0.3219205E-07  0.3476657E+04  0.7818609E-02  0.8119344E-01
        2   -1    0    0  501    0  0.00000000000E+00  0.00000000000E+00  0.13453672100E+04  0.13453672100E+04  0.25500000920E-02 0. -1.
       -2   -1    0    0    0  501  0.00000000000E+00  0.00000000000E+00 -0.22460672513E+04  0.22460672513E+04  0.25500000920E-02 0.  1.
    10030    2    1    2    0    0  0.00000000000E+00  0.00000000000E+00 -0.90070004128E+03  0.35914344612E+04  0.34766565728E+04 0.  0.
        2    1    3    3  502    0 -0.27018732035E+03  0.71313735810E+03 -0.20640417324E+04  0.22004168589E+04  0.25500000920E-02 0.  1.
       -2    1    3    3    0  502  0.27018732035E+03 -0.71313735810E+03  0.11633416912E+04  0.13910176023E+04  0.25500000920E-02 0. -1.
</event>
<event>
 5   0  0.1098171E-07  0.3617152E+04  0.7818609E-02  0.8086574E-01
       -1   -1    0    0    0  501  0.00000000000E+00  0.00000000000E+00  0.18245514656E+04  0.18245514656E+04  0.50400001928E-02 0. -1.
        1   -1    0    0  501    0  0.00000000000E+00  0.00000000000E+00 -0.17927405704E+04  0.17927405704E+04  0.50400001928E-02 0.  1.
    10030    2    1    2    0    0  0.00000000000E+00  0.00000000000E+00  0.31810895210E+02  0.36172920360E+04  0.36171521589E+04 0.  0.
        4    1    3    3  502    0  0.99730466783E+03 -0.11542164669E+04  0.98759808900E+03  0.18171911983E+04  0.12699999809E+01 0. -1.
       -4    1    3    3    0  502 -0.99730466783E+03  0.11542164669E+04 -0.95578719379E+03  0.18001008376E+04  0.12699999809E+01 0.  1.
</event>
<event>
 5   0  0.3190185E-07  0.3500571E+04  0.7818609E-02  0.8113655E-01
        2   -1    0    0  501    0  0.00000000000E+00  0.00000000000E+00  0.95270460427E+03  0.95270460427E+03  0.25500000920E-02 0. -1.
       -2   -1    0    0    0  501  0.00000000000E+00  0.00000000000E+00 -0.32155818074E+04  0.32155818074E+04  0.25500000920E-02 0.  1.
    10030    2    1    2    0    0  0.00000000000E+00  0.00000000000E+00 -0.22628772031E+04  0.41682864116E+04  0.35005711496E+04 0.  0.
        1    1    3    3  502    0 -0.86554839386E+03 -0.11279973666E+04  0.84023898740E+02  0.14242935430E+04  0.50400001928E-02 0. -1.
       -1    1    3    3    0  502  0.86554839386E+03  0.11279973666E+04 -0.23469011018E+04  0.27439928686E+04  0.50400001928E-02 0.  1.
</event>
<event>
 5   0  0.3190112E-07  0.3481255E+04  0.7818609E-02  0.8118247E-01
       -2   -1    0    0    0  501  0.00000000000E+00  0.00000000000E+00  0.21378846754E+04  0.21378846754E+04  0.25500000920E-02 0. -1.
        2   -1    0    0  501    0  0.00000000000E+00  0.00000000000E+00 -0.14171878261E+04  0.14171878261E+04  0.25500000920E-02 0.  1.
    10030    2    1    2    0    0  0.00000000000E+00  0.00000000000E+00  0.72069684926E+03  0.35550725015E+04  0.34812550241E+04 0.  0.
        5    1    3    3  502    0  0.76010526619E+02  0.45809368682E+03  0.20734576635E+04  0.21248238041E+04  0.46999998093E+01 0. -1.
       -5    1    3    3    0  502 -0.76010526619E+02 -0.45809368682E+03 -0.13527608142E+04  0.14302486975E+04  0.46999998093E+01 0.  1.
</event>
<event>
 5   0  0.1098171E-07  0.3505977E+04  0.7818609E-02  0.8112375E-01
       -1   -1    0    0    0  501  0.00000000000E+00  0.00000000000E+00  0.19030933288E+04  0.19030933288E+04  0.50400001928E-02 0.  1.
        1   -1    0    0  501    0  0.00000000000E+00  0.00000000000E+00 -0.16147234631E+04  0.16147234631E+04  0.50400001928E-02 0. -1.
    10030    2    1    2    0    0  0.00000000000E+00  0.00000000000E+00  0.28836986566E+03  0.35178167919E+04  0.35059774389E+04 0.  0.
        4    1    3    3  502    0 -0.32919688827E+03 -0.16415931538E+04 -0.37696208068E+03  0.17161878385E+04  0.12699999809E+01 0. -1.
       -4    1    3    3    0  502  0.32919688827E+03  0.16415931538E+04  0.66533194634E+03  0.18016289534E+04  0.12699999809E+01 0.  1.
</event>
<event>
 5   0  0.3190185E-07  0.3506733E+04  0.7818609E-02  0.8112196E-01
       -2   -1    0    0    0  501  0.00000000000E+00  0.00000000000E+00  0.17799104010E+04  0.17799104010E+04  0.25500000920E-02 0. -1.
        2   -1    0    0  501    0  0.00000000000E+00  0.00000000000E+00 -0.17272187337E+04  0.17272187337E+04  0.25500000920E-02 0.  1.
    10030    2    1    2    0    0  0.00000000000E+00  0.00000000000E+00  0.52691667312E+02  0.35071291348E+04  0.35067332884E+04 0.  0.
        1    1    3    3  502    0  0.40207798646E+03  0.87640526776E-01 -0.16804890958E+04  0.17279208073E+04  0.50400001928E-02 0.  1.
       -1    1    3    3    0  502 -0.40207798646E+03 -0.87640526776E-01  0.17331807632E+04  0.17792083275E+04  0.50400001928E-02 0. -1.
</event>
<event>
 5   0  0.1033796E-07  0.3423690E+04  0.7818609E-02  0.8132116E-01
       -1   -1    0    0    0  501  0.00000000000E+00  0.00000000000E+00  0.21308673068E+04  0.21308673068E+04  0.50400001928E-02 0.  1.
        1   -1    0    0  501    0  0.00000000000E+00  0.00000000000E+00 -0.13752207689E+04  0.13752207689E+04  0.50400001928E-02 0. -1.
    10030    2    1    2    0    0  0.00000000000E+00  0.00000000000E+00  0.75564653790E+03  0.35060880756E+04  0.34236898084E+04 0.  0.
        3    1    3    3  502    0  0.84559947110E+03 -0.81299211134E+03  0.16545923756E+04  0.20282185726E+04  0.10100000352E+00 0.  1.
       -3    1    3    3    0  502 -0.84559947110E+03  0.81299211134E+03 -0.89894583773E+03  0.14778695030E+04  0.10100000352E+00 0. -1.
</event>
<event>
 5   0  0.3219205E-07  0.3494454E+04  0.7818609E-02  0.8115106E-01
       -2   -1    0    0    0  501  0.00000000000E+00  0.00000000000E+00  0.16596090594E+04  0.16596090594E+04  0.25500000920E-02 0. -1.
        2   -1    0    0  501    0  0.00000000000E+00  0.00000000000E+00 -0.18394701635E+04  0.18394701635E+04  0.25500000920E-02 0.  1.
    10030    2    1    2    0    0  0.00000000000E+00  0.00000000000E+00 -0.17986110411E+03  0.34990792229E+04  0.34944535183E+04 0.  0.
        2    1    3    3  502    0  0.62501792628E+03 -0.15928953397E+04  0.26386190035E+03  0.17313538268E+04  0.25500000920E-02 0. -1.
       -2    1    3    3    0  502 -0.62501792628E+03  0.15928953397E+04 -0.44372300446E+03  0.17677253961E+04  0.25500000920E-02 0.  1.
</event>
<event>
 5   0  0.3190185E-07  0.3496996E+04  0.7818609E-02  0.8114502E-01
        2   -1    0    0  501    0  0.00000000000E+00  0.00000000000E+00  0.22124660227E+04  0.22124660227E+04  0.25500000920E-02 0.  1.
       -2   -1    0    0    0  501  0.00000000000E+00  0.00000000000E+00 -0.13818270289E+04  0.13818270289E+04  0.25500000920E-02 0. -1.
    10030    2    1    2    0    0  0.00000000000E+00  0.00000000000E+00  0.83063899383E+03  0.35942930516E+04  0.34969960542E+04 0.  0.
        1    1    3    3  502    0 -0.58920061576E+03  0.38083550105E+03  0.20614583059E+04  0.21775682289E+04  0.50400001928E-02 0.  1.
       -1    1    3    3    0  502  0.58920061576E+03 -0.38083550105E+03 -0.12308193121E+04  0.14167248228E+04  0.50400001928E-02 0. -1.
</event>
<event>
 5   0  0.3219205E-07  0.3497942E+04  0.7818609E-02  0.8114278E-01
        2   -1    0    0  501    0  0.00000000000E+00  0.00000000000E+00  0.32737919645E+04  0.32737919645E+04  0.25500000920E-02 0. -1.
       -2   -1    0    0    0  501  0.00000000000E+00  0.00000000000E+00 -0.93435987582E+03  0.93435987582E+03  0.25500000920E-02 0.  1.
    10030    2    1    2    0    0  0.00000000000E+00  0.00000000000E+00  0.23394320887E+04  0.42081518404E+04  0.34979421684E+04 0.  0.
        2    1    3    3  502    0 -0.12403655828E+04  0.12113043957E+04  0.14470276448E+04  0.22582413784E+04  0.25500000920E-02 0. -1.
       -2    1    3    3    0  502  0.12403655828E+04 -0.12113043957E+04  0.89240444392E+03  0.19499104620E+04  0.25500000920E-02 0.  1.
</event>
<event>
 5   0  0.3219205E-07  0.3510972E+04  0.7818609E-02  0.8111195E-01
       -2   -1    0    0    0  501  0.00000000000E+00  0.00000000000E+00  0.11627381567E+04  0.11627381567E+04  0.25500000920E-02 0.  1.
        2   -1    0    0  501    0  0.00000000000E+00  0.00000000000E+00 -0.26504082394E+04  0.26504082394E+04  0.25500000920E-02 0. -1.
    10030    2    1    2    0    0  0.00000000000E+00  0.00000000000E+00 -0.14876700827E+04  0.38131463962E+04  0.35109718261E+04 0.  0.
        2    1    3    3  502    0 -0.72413855958E+03 -0.14765521771E+04 -0.14108136838E+04  0.21667898457E+04  0.25500000920E-02 0. -1.
       -2    1    3    3    0  502  0.72413855958E+03  0.14765521771E+04 -0.76856398925E+02  0.16463565504E+04  0.25500000920E-02 0.  1.
</event>
<event>
 5   0  0.1013863E-07  0.3497765E+04  0.7818609E-02  0.8114320E-01
       -1   -1    0    0    0  501  0.00000000000E+00  0.00000000000E+00  0.16265507981E+04  0.16265507981E+04  0.50400001928E-02 0.  1.
        1   -1    0    0  501    0  0.00000000000E+00  0.00000000000E+00 -0.18804143057E+04  0.18804143057E+04  0.50400001928E-02 0. -1.
    10030    2    1    2    0    0  0.00000000000E+00  0.00000000000E+00 -0.25386350762E+03  0.35069651037E+04  0.34977646517E+04 0.  0.
        5    1    3    3  502    0 -0.11152987331E+04 -0.12991569567E+04 -0.48405292857E+03  0.17793339737E+04  0.46999998093E+01 0. -1.
       -5    1    3    3    0  502  0.11152987331E+04  0.12991569567E+04  0.23018942095E+03  0.17276311301E+04  0.46999998093E+01 0.  1.
</event>
<event>
 5   0  0.1098171E-07  0.3501513E+04  0.7818609E-02  0.8113431E-01
        1   -1    0    0  501    0  0.00000000000E+00  0.00000000000E+00  0.12284945570E+04  0.12284945570E+04  0.50400001928E-02 0. -1.
       -1   -1    0    0    0  501  0.00000000000E+00  0.00000000000E+00 -0.24950447802E+04  0.24950447802E+04  0.50400001928E-02 0.  1.
    10030    2    1    2    0    0  0.00000000000E+00  0.00000000000E+00 -0.12665502232E+04  0.37235393372E+04  0.35015133482E+04 0.  0.
        4    1    3    3  502    0  0.32717100096E+03  0.94203347801E+03 -0.21635046802E+04  0.23822724554E+04  0.12699999809E+01 0.  1.
       -4    1    3    3    0  502 -0.32717100096E+03 -0.94203347801E+03  0.89695445697E+03  0.13412668819E+04  0.12699999809E+01 0. -1.
</event>
<event>
 5   0  0.3219205E-07  0.3501622E+04  0.7818609E-02  0.8113406E-01
       -2   -1    0    0    0  501  0.00000000000E+00  0.00000000000E+00  0.16152021886E+04  0.16152021886E+04  0.25500000920E-02 0.  1.
        2   -1    0    0  501    0  0.00000000000E+00  0.00000000000E+00 -0.18978052213E+04  0.18978052213E+04  0.25500000920E-02 0. -1.
    10030    2    1    2    0    0  0.00000000000E+00  0.00000000000E+00 -0.28260303272E+03  0.35130074099E+04  0.35016219939E+04 0.  0.
        2    1    3    3  502    0  0.20199667913E+03 -0.16806556232E+04 -0.58989423990E+03  0.17925906383E+04  0.25500000920E-02 0.  1.
       -2    1    3    3    0  502 -0.20199667913E+03  0.16806556232E+04  0.30729120718E+03  0.17204167716E+04  0.25500000920E-02 0. -1.
</event>
<event>
 5   0  0.3219205E-07  0.3502262E+04  0.7818609E-02  0.8113254E-01
       -2   -1    0    0    0  501  0.00000000000E+00  0.00000000000E+00  0.17643529765E+04  0.17643529765E+04  0.25500000920E-02 0. -1.
        2   -1    0    0  501    0  0.00000000000E+00  0.00000000000E+00 -0.17380083586E+04  0.17380083586E+04  0.25500000920E-02 0.  1.
    10030    2    1    2    0    0  0.00000000000E+00  0.00000000000E+00  0.26344617862E+02  0.35023613351E+04  0.35022622521E+04 0.  0.
        2    1    3    3  502    0 -0.43123328881E+03 -0.12786602457E+04  0.11292352655E+04  0.17595756472E+04  0.25500000920E-02 0. -1.
       -2    1    3    3    0  502  0.43123328881E+03  0.12786602457E+04 -0.11028906477E+04  0.17427856879E+04  0.25500000920E-02 0.  1.
</event>
<event>
 5   0  0.1013863E-07  0.3548085E+04  0.7818609E-02  0.8102488E-01
       -1   -1    0    0    0  501  0.00000000000E+00  0.00000000000E+00  0.19511110309E+04  0.19511110309E+04  0.50400001928E-02 0. -1.
        1   -1    0    0  501    0  0.00000000000E+00  0.00000000000E+00 -0.16130437107E+04  0.16130437107E+04  0.50400001928E-02 0.  1.
    10030    2    1    2    0    0  0.00000000000E+00  0.00000000000E+00  0.33806732020E+03  0.35641547417E+04  0.35480853301E+04 0.  0.
        5    1    3    3  502    0 -0.11728254483E+04 -0.13134901920E+04 -0.47416756854E+02  0.17615466089E+04  0.46999998093E+01 0.  1.
       -5    1    3    3    0  502  0.11728254483E+04  0.13134901920E+04  0.38548407706E+03  0.18026081328E+04  0.46999998093E+01 0. -1.
</event>
<event>
 5   0  0.3190185E-07  0.3451544E+04  0.7818609E-02  0.8125370E-01
       -2   -1    0    0    0  501  0.00000000000E+00  0.00000000000E+00  0.15229047856E+04  0.15229047856E+04  0.25500000920E-02 0. -1.
        2   -1    0    0  501    0  0.00000000000E+00  0.00000000000E+00 -0.19556629482E+04  0.19556629482E+04  0.25500000920E-02 0.  1.
    10030    2    1    2    0    0  0.00000000000E+00  0.00000000000E+00 -0.43275816255E+03  0.34785677338E+04  0.34515436911E+04 0.  0.
        1    1    3    3  502    0 -0.12229346608E+03  0.11784421826E+03  0.15144623312E+04  0.15239550860E+04  0.50400001928E-02 0. -1.
       -1    1    3    3    0  502  0.12229346608E+03 -0.11784421826E+03 -0.19472204938E+04  0.19546126478E+04  0.50400001928E-02 0.  1.
</event>
<event>
 5   0  0.3190112E-07  0.3505964E+04  0.7818609E-02  0.8112378E-01
       -2   -1    0    0    0  501  0.00000000000E+00  0.00000000000E+00  0.24229404613E+04  0.24229404613E+04  0.25500000920E-02 0. -1.
        2   -1    0    0  501    0  0.00000000000E+00  0.00000000000E+00 -0.12682709957E+04  0.12682709957E+04  0.25500000920E-02 0.  1.
    10030    2    1    2    0    0  0.00000000000E+00  0.00000000000E+00  0.11546694655E+04  0.36912114570E+04  0.35059635545E+04 0.  0.
        5    1    3    3  502    0  0.65962399426E+03 -0.81702681225E+03  0.20551706157E+04  0.23078962228E+04  0.46999998093E+01 0. -1.
       -5    1    3    3    0  502 -0.65962399426E+03  0.81702681225E+03 -0.90050115013E+03  0.13833152342E+04  0.46999998093E+01 0.  1.
</event>
<event>
 5   0  0.1098171E-07  0.3502328E+04  0.7818609E-02  0.8113238E-01
       -1   -1    0    0    0  501  0.00000000000E+00  0.00000000000E+00  0.13307147439E+04  0.13307147439E+04  0.50400001928E-02 0. -1.
        1   -1    0    0  501    0  0.00000000000E+00  0.00000000000E+00 -0.23044572970E+04  0.23044572970E+04  0.50400001928E-02 0.  1.
    10030    2    1    2    0    0  0.00000000000E+00  0.00000000000E+00 -0.97374255308E+03  0.36351720408E+04  0.35023279696E+04 0.  0.
        4    1    3    3  502    0  0.16384010384E+04  0.55255355531E+03 -0.19904386060E+03  0.17404865600E+04  0.12699999809E+01 0.  1.
       -4    1    3    3    0  502 -0.16384010384E+04 -0.55255355531E+03 -0.77469869248E+03  0.18946854808E+04  0.12699999809E+01 0. -1.
</event>
<event>
 5   0  0.3219205E-07  0.3504888E+04  0.7818609E-02  0.8112633E-01
       -2   -1    0    0    0  501  0.00000000000E+00  0.00000000000E+00  0.18831932022E+04  0.18831932022E+04  0.25500000920E-02 0.  1.
        2   -1    0    0  501    0  0.00000000000E+00  0.00000000000E+00 -0.16307724585E+04  0.16307724585E+04  0.25500000920E-02 0. -1.
    10030    2    1    2    0    0  0.00000000000E+00  0.00000000000E+00  0.25242074371E+03  0.35139656606E+04  0.35048877917E+04 0.  0.
        2    1    3    3  502    0 -0.62552766915E+03 -0.62241799243E+03 -0.13917687841E+04  0.16479409487E+04  0.25500000920E-02 0. -1.
       -2    1    3    3    0  502  0.62552766915E+03  0.62241799243E+03  0.16441895278E+04  0.18660247119E+04  0.25500000920E-02 0.  1.
</event>
<event>
 5   0  0.3119048E-07  0.3507829E+04  0.7818609E-02  0.8111937E-01
       -2   -1    0    0    0  501  0.00000000000E+00  0.00000000000E+00  0.19205468501E+04  0.19205468501E+04  0.25500000920E-02 0.  1.
        2   -1    0    0  501    0  0.00000000000E+00  0.00000000000E+00 -0.16017392976E+04  0.16017392976E+04  0.25500000920E-02 0. -1.
    10030    2    1    2    0    0  0.00000000000E+00  0.00000000000E+00  0.31880755255E+03  0.35222861477E+04  0.35078285949E+04 0.  0.
        3    1    3    3  502    0 -0.14219114024E+04 -0.18781659772E+03 -0.85426583671E+03  0.16693942735E+04  0.10100000352E+00 0. -1.
       -3    1    3    3    0  502  0.14219114024E+04  0.18781659772E+03  0.11730733893E+04  0.18528918742E+04  0.10100000352E+00 0.  1.
</event>
<event>
 5   0  0.3190112E-07  0.3494225E+04  0.7818609E-02  0.8115160E-01
       -2   -1    0    0    0  501  0.00000000000E+00  0.00000000000E+00  0.34350868162E+04  0.34350868162E+04  0.25500000920E-02 0. -1.
        2   -1    0    0  501    0  0.00000000000E+00  0.00000000000E+00 -0.88859537821E+03  0.88859537822E+03  0.25500000920E-02 0.  1.
    10030    2    1    2    0    0  0.00000000000E+00  0.00000000000E+00  0.25464914380E+04  0.43236821944E+04  0.34942251036E+04 0.  0.
        5    1    3    3  502    0 -0.49443509624E+03  0.12998336383E+04  0.25817980665E+04  0.29325308009E+04  0.46999998093E+01 0. -1.
       -5    1    3    3    0  502  0.49443509624E+03 -0.12998336383E+04 -0.35306628571E+02  0.13911513935E+04  0.46999998093E+01 0.  1.
</event>
<event>
 5   0  0.1013863E-07  0.3494002E+04  0.7818609E-02  0.8115213E-01
        1   -1    0    0  501    0  0.00000000000E+00  0.00000000000E+00  0.22266706092E+04  0.22266706092E+04  0.50400001928E-02 0.  1.
       -1   -1    0    0    0  501  0.00000000000E+00  0.00000000000E+00 -0.13706618303E+04  0.13706618303E+04  0.50400001928E-02 0. -1.
    10030    2    1    2    0    0  0.00000000000E+00  0.00000000000E+00  0.85600877882E+03  0.35973324395E+04  0.34940019535E+04 0.  0.
        5    1    3    3  502    0 -0.70395622004E+03 -0.15872327734E+04  0.22961944430E+03  0.17514592247E+04  0.46999998093E+01 0.  1.
       -5    1    3    3    0  502  0.70395622004E+03  0.15872327734E+04  0.62638933452E+03  0.18458732148E+04  0.46999998093E+01 0. -1.
</event>
<event>
 5   0  0.2180451E-07  0.3496744E+04  0.7818609E-02  0.8114562E-01
       -2   -1    0    0    0  501  0.00000000000E+00  0.00000000000E+00  0.15170654017E+04  0.15170654017E+04  0.25500000920E-02 0. -1.
        2   -1    0    0  501    0  0.00000000000E+00  0.00000000000E+00 -0.20149460202E+04  0.20149460202E+04  0.25500000920E-02 0.  1.
    10030    2    1    2    0    0  0.00000000000E+00  0.00000000000E+00 -0.49788061850E+03  0.35320114219E+04  0.34967441391E+04 0.  0.
        4    1    3    3  502    0 -0.15857834875E+04 -0.56181343737E+03 -0.72961768501E+03  0.18337631218E+04  0.12699999809E+01 0.  1.
       -4    1    3    3    0  502  0.15857834875E+04  0.56181343737E+03  0.23173706652E+03  0.16982483001E+04  0.12699999809E+01 0. -1.
</event>
<event>
 5   0  0.1033796E-07  0.3457131E+04  0.7818609E-02  0.8124025E-01
        1   -1    0    0  501    0  0.00000000000E+00  0.00000000000E+00  0.22019264706E+04  0.22019264706E+04  0.50400001928E-02 0. -1.
       -1   -1    0    0    0  501  0.00000000000E+00  0.00000000000E+00 -0.13569658856E+04  0.13569658856E+04  0.50400001928E-02 0.  1.
    10030    2    1    2    0    0  0.00000000000E+00  0.00000000000E+00  0.84496058508E+03  0.35588923562E+04  0.34571312403E+04 0.  0.
        3    1    3    3  502    0 -0.49479626250E+03  0.18243629859E+03  0.21170921043E+04  0.21817848961E+04  0.10100000352E+00 0. -1.
       -3    1    3    3    0  502  0.49479626250E+03 -0.18243629859E+03 -0.12721315192E+04  0.13771074601E+04  0.10100000352E+00 0.  1.
</event>
<event>
 5   0  0.1013863E-07  0.3467295E+04  0.7818609E-02  0.8121585E-01
       -4   -1    0    0    0  501  0.00000000000E+00  0.00000000000E+00  0.18708059458E+04  0.18708063769E+04  0.12699999809E+01 0. -1.
        4   -1    0    0  501    0  0.00000000000E+00  0.00000000000E+00 -0.16065441202E+04  0.16065446221E+04  0.12699999809E+01 0.  1.
    10030    2    1    2    0    0  0.00000000000E+00  0.00000000000E+00  0.26426182565E+03  0.34773509990E+04  0.34672951501E+04 0.  0.
        3    1    3    3  502    0 -0.15234136928E+04  0.82151141261E+03  0.32527099452E+02  0.17311060924E+04  0.10100000352E+00 0. -1.
       -3    1    3    3    0  502  0.15234136928E+04 -0.82151141261E+03  0.23173472620E+03  0.17462449067E+04  0.10100000352E+00 0.  1.
</event>
<event>
 5   0  0.3219205E-07  0.3502913E+04  0.7818609E-02  0.8113100E-01
        2   -1    0    0  501    0  0.00000000000E+00  0.00000000000E+00  0.23590975818E+04  0.23590975818E+04  0.25500000920E-02 0.  1.
       -2   -1    0    0    0  501  0.00000000000E+00  0.00000000000E+00 -0.13003273090E+04  0.13003273090E+04  0.25500000920E-02 0. -1.
    10030    2    1    2    0    0  0.00000000000E+00  0.00000000000E+00  0.10587702729E+04  0.36594248908E+04  0.35029125083E+04 0.  0.
        2    1    3    3  502    0 -0.19371004557E+03  0.76931317802E+03  0.21606373725E+04  0.23016776931E+04  0.25500000920E-02 0.  1.
       -2    1    3    3    0  502  0.19371004557E+03 -0.76931317802E+03 -0.11018670996E+04  0.13577471977E+04  0.25500000920E-02 0. -1.
</event>
<event>
 5   0  0.3119048E-07  0.3493309E+04  0.7818609E-02  0.8115377E-01
        2   -1    0    0  501    0  0.00000000000E+00  0.00000000000E+00  0.23236107724E+04  0.23236107724E+04  0.25500000920E-02 0. -1.
       -2   -1    0    0    0  501  0.00000000000E+00  0.00000000000E+00 -0.13129572389E+04  0.13129572389E+04  0.25500000920E-02 0.  1.
    10030    2    1    2    0    0  0.00000000000E+00  0.00000000000E+00  0.10106535336E+04  0.36365680113E+04  0.34933087949E+04 0.  0.
        3    1    3    3  502    0 -0.15457528331E+03  0.11210228516E+04 -0.87973086920E+03  0.14333569564E+04  0.10100000352E+00 0.  1.
       -3    1    3    3    0  502  0.15457528331E+03 -0.11210228516E+04  0.18903844028E+04  0.22032110549E+04  0.10100000352E+00 0. -1.
</event>
<event>
 5   0  0.1098171E-07  0.3501904E+04  0.7818609E-02  0.8113339E-01
        1   -1    0    0  501    0  0.00000000000E+00  0.00000000000E+00  0.12472004011E+04  0.12472004011E+04  0.50400001928E-02 0.  1.
       -1   -1    0    0    0  501  0.00000000000E+00  0.00000000000E+00 -0.24581718548E+04  0.24581718548E+04  0.50400001928E-02 0. -1.
    10030    2    1    2    0    0  0.00000000000E+00  0.00000000000E+00 -0.12109714538E+04  0.37053722559E+04  0.35019040097E+04 0.  0.
        4    1    3    3  502    0 -0.11219916661E+04 -0.12589567436E+04 -0.10694785302E+03  0.16897564431E+04  0.12699999809E+01 0.  1.
       -4    1    3    3    0  502  0.11219916661E+04  0.12589567436E+04 -0.11040236008E+04  0.20156158128E+04  0.12699999809E+01 0. -1.
</event>
<event>
 5   0  0.3119048E-07  0.3511687E+04  0.7818609E-02  0.8111026E-01
       -2   -1    0    0    0  501  0.00000000000E+00  0.00000000000E+00  0.20645979127E+04  0.20645979127E+04  0.25500000920E-02 0. -1.
        2   -1    0    0  501    0  0.00000000000E+00  0.00000000000E+00 -0.14932620761E+04  0.14932620761E+04  0.25500000920E-02 0.  1.
    10030    2    1    2    0    0  0.00000000000E+00  0.00000000000E+00  0.57133583660E+03  0.35578599889E+04  0.35116866407E+04 0.  0.
        3    1    3    3  502    0  0.21458630909E+03  0.82127784248E+03  0.18429009233E+04  0.20289968954E+04  0.10100000352E+00 0. -1.
       -3    1    3    3    0  502 -0.21458630909E+03 -0.82127784248E+03 -0.12715650867E+04  0.15288630934E+04  0.10100000352E+00 0.  1.
</event>
<event>
 5   0  0.1072381E-07  0.3493858E+04  0.7818609E-02  0.8115247E-01
        1   -1    0    0  501    0  0.00000000000E+00  0.00000000000E+00  0.21480960284E+04  0.21480960284E+04  0.50400001928E-02 0.  1.
       -1   -1    0    0    0  501  0.00000000000E+00  0.00000000000E+00 -0.14206819261E+04  0.14206819261E+04  0.50400001928E-02 0. -1.
    10030    2    1    2    0    0  0.00000000000E+00  0.00000000000E+00  0.72741410233E+03  0.35687779545E+04  0.34938581558E+04 0.  0.
        1    1    3    3  502    0  0.28950934280E+03 -0.54733894388E+03 -0.13048341172E+04  0.14442948634E+04  0.50400001928E-02 0. -1.
       -1    1    3    3    0  502 -0.28950934280E+03  0.54733894388E+03  0.20322482195E+04  0.21244830912E+04  0.50400001928E-02 0.  1.
</event>
<event>
 5   0  0.3219205E-07  0.3574423E+04  0.7818609E-02  0.8096376E-01
        2   -1    0    0  501    0  0.00000000000E+00  0.00000000000E+00  0.24986844345E+04  0.24986844345E+04  0.25500000920E-02 0. -1.
       -2   -1    0    0    0  501  0.00000000000E+00  0.00000000000E+00 -0.12783225313E+04  0.12783225313E+04  0.25500000920E-02 0.  1.
    10030    2    1    2    0    0  0.00000000000E+00  0.00000000000E+00  0.12203619032E+04  0.37770069658E+04  0.35744228128E+04 0.  0.
        2    1    3    3  502    0  0.59849673284E+03 -0.16458068559E+04  0.98711384936E+03  0.20102915952E+04  0.25500000920E-02 0. -1.
       -2    1    3    3    0  502 -0.59849673284E+03  0.16458068559E+04  0.23324805383E+03  0.17667153706E+04  0.25500000920E-02 0.  1.
</event>
<event>
 5   0  0.3119048E-07  0.3443552E+04  0.7818609E-02  0.8127299E-01
       -2   -1    0    0    0  501  0.00000000000E+00  0.00000000000E+00  0.13871485445E+04  0.13871485445E+04  0.25500000920E-02 0.  1.
        2   -1    0    0  501    0  0.00000000000E+00  0.00000000000E+00 -0.21371265282E+04  0.21371265282E+04  0.25500000920E-02 0. -1.
    10030    2    1    2    0    0  0.00000000000E+00  0.00000000000E+00 -0.74997798365E+03  0.35242750727E+04  0.34435516277E+04 0.  0.
        3    1    3    3  502    0  0.15987531380E+04  0.44737375751E+03 -0.84215078626E+03  0.18615511898E+04  0.10100000352E+00 0. -1.
       -3    1    3    3    0  502 -0.15987531380E+04 -0.44737375751E+03  0.92172802614E+02  0.16627238830E+04  0.10100000352E+00 0.  1.
</event>
<event>
 5   0  0.3190185E-07  0.3497808E+04  0.7818609E-02  0.8114310E-01
        2   -1    0    0  501    0  0.00000000000E+00  0.00000000000E+00  0.14847693775E+04  0.14847693775E+04  0.25500000920E-02 0.  1.
       -2   -1    0    0    0  501  0.00000000000E+00  0.00000000000E+00 -0.20600267049E+04  0.20600267049E+04  0.25500000920E-02 0. -1.
    10030    2    1    2    0    0  0.00000000000E+00  0.00000000000E+00 -0.57525732737E+03  0.35447960825E+04  0.34978076382E+04 0.  0.
        1    1    3    3  502    0 -0.47546422647E+03 -0.72095477434E+03  0.12535979222E+04  0.15222843912E+04  0.50400001928E-02 0.  1.
       -1    1    3    3    0  502  0.47546422647E+03  0.72095477434E+03 -0.18288552495E+04  0.20225116912E+04  0.50400001928E-02 0. -1.
</event>
<event>
 5   0  0.1098171E-07  0.3499796E+04  0.7818609E-02  0.8113838E-01
        1   -1    0    0  501    0  0.00000000000E+00  0.00000000000E+00  0.20011165877E+04  0.20011165877E+04  0.50400001928E-02 0. -1.
       -1   -1    0    0    0  501  0.00000000000E+00  0.00000000000E+00 -0.15302174385E+04  0.15302174385E+04  0.50400001928E-02 0.  1.
    10030    2    1    2    0    0  0.00000000000E+00  0.00000000000E+00  0.47089914920E+03  0.35313340261E+04  0.34997962791E+04 0.  0.
        4    1    3    3  502    0  0.47109710237E+02 -0.14359119505E+04 -0.77259233144E+03  0.16312458361E+04  0.12699999809E+01 0.  1.
       -4    1    3    3    0  502 -0.47109710237E+02  0.14359119505E+04  0.12434914806E+04  0.19000881900E+04  0.12699999809E+01 0. -1.
</event>
<event>
 5   0  0.3190185E-07  0.3508630E+04  0.7818609E-02  0.8111748E-01
        2   -1    0    0  501    0  0.00000000000E+00  0.00000000000E+00  0.17713122923E+04  0.17713122923E+04  0.25500000920E-02 0.  1.
       -2   -1    0    0    0  501  0.00000000000E+00  0.00000000000E+00 -0.17374806843E+04  0.17374806843E+04  0.25500000920E-02 0. -1.
    10030    2    1    2    0    0  0.00000000000E+00  0.00000000000E+00  0.33831608044E+02  0.35087929766E+04  0.35086298715E+04 0.  0.
        1    1    3    3  502    0  0.60177635372E+03  0.11139898368E+04 -0.11974358137E+04  0.17426877702E+04  0.50400001928E-02 0. -1.
       -1    1    3    3    0  502 -0.60177635372E+03 -0.11139898368E+04  0.12312674218E+04  0.17661052064E+04  0.50400001928E-02 0.  1.
</event>
<event>
 5   0  0.1098171E-07  0.3589177E+04  0.7818609E-02  0.8092975E-01
       -1   -1    0    0    0  501  0.00000000000E+00  0.00000000000E+00  0.15872291919E+04  0.15872291919E+04  0.50400001928E-02 0. -1.
        1   -1    0    0  501    0  0.00000000000E+00  0.00000000000E+00 -0.20290382654E+04  0.20290382654E+04  0.50400001928E-02 0.  1.
    10030    2    1    2    0    0  0.00000000000E+00  0.00000000000E+00 -0.44180907355E+03  0.36162674573E+04  0.35891774915E+04 0.  0.
        4    1    3    3  502    0  0.12839985175E+04  0.10452376242E+04  0.47668910624E+03  0.17229068463E+04  0.12699999809E+01 0. -1.
       -4    1    3    3    0  502 -0.12839985175E+04 -0.10452376242E+04 -0.91849817980E+03  0.18933606110E+04  0.12699999809E+01 0.  1.
</event>
<event>
 5   0  0.3119048E-07  0.3446541E+04  0.7818609E-02  0.8126577E-01
        2   -1    0    0  501    0  0.00000000000E+00  0.00000000000E+00  0.17729408490E+04  0.17729408490E+04  0.25500000920E-02 0. -1.
       -2   -1    0    0    0  501  0.00000000000E+00  0.00000000000E+00 -0.16749915419E+04  0.16749915419E+04  0.25500000920E-02 0.  1.
    10030    2    1    2    0    0  0.00000000000E+00  0.00000000000E+00  0.97949307060E+02  0.34479323909E+04  0.34465408319E+04 0.  0.
        3    1    3    3  502    0  0.24285181942E+03 -0.16635822091E+04  0.42751630863E+03  0.17347198555E+04  0.10100000352E+00 0. -1.
       -3    1    3    3    0  502 -0.24285181942E+03  0.16635822091E+04 -0.32956700157E+03  0.17132125354E+04  0.10100000352E+00 0.  1.
</event>
<event>
 5   0  0.1013863E-07  0.3498149E+04  0.7818609E-02  0.8114229E-01
       -1   -1    0    0    0  501  0.00000000000E+00  0.00000000000E+00  0.25120628434E+04  0.25120628434E+04  0.50400001928E-02 0.  1.
        1   -1    0    0  501    0  0.00000000000E+00  0.00000000000E+00 -0.12178282810E+04  0.12178282810E+04  0.50400001928E-02 0. -1.
    10030    2    1    2    0    0  0.00000000000E+00  0.00000000000E+00  0.12942345624E+04  0.37298911243E+04  0.34981487528E+04 0.  0.
        2    1    3    3  502    0  0.10229738274E+04  0.13363318628E+04  0.13910576130E+03  0.16886706938E+04  0.25500000920E-02 0.  1.
       -2    1    3    3    0  502 -0.10229738274E+04 -0.13363318628E+04  0.11551288011E+04  0.20412204306E+04  0.25500000920E-02 0. -1.
</event>
<event>
 5   0  0.1033796E-07  0.3503611E+04  0.7818609E-02  0.8112935E-01
        1   -1    0    0  501    0  0.00000000000E+00  0.00000000000E+00  0.17717926906E+04  0.17717926906E+04  0.50400001928E-02 0.  1.
       -1   -1    0    0    0  501  0.00000000000E+00  0.00000000000E+00 -0.17320440777E+04  0.17320440777E+04  0.50400001928E-02 0. -1.
    10030    2    1    2    0    0  0.00000000000E+00  0.00000000000E+00  0.39748612916E+02  0.35038367682E+04  0.35036113007E+04 0.  0.
        3    1    3    3  502    0  0.61754371853E+02 -0.81517029874E+03  0.15693309135E+04  0.17694959013E+04  0.10100000352E+00 0.  1.
       -3    1    3    3    0  502 -0.61754371853E+02  0.81517029874E+03 -0.15295823006E+04  0.17343408670E+04  0.10100000352E+00 0. -1.
</event>
<event>
 5   0  0.3190185E-07  0.3480591E+04  0.7818609E-02  0.8118405E-01
       -2   -1    0    0    0  501  0.00000000000E+00  0.00000000000E+00  0.13905469224E+04  0.13905469224E+04  0.25500000920E-02 0. -1.
        2   -1    0    0  501    0  0.00000000000E+00  0.00000000000E+00 -0.21780120995E+04  0.21780120995E+04  0.25500000920E-02 0.  1.
    10030    2    1    2    0    0  0.00000000000E+00  0.00000000000E+00 -0.78746517713E+03  0.35685590219E+04  0.34805907671E+04 0.  0.
        1    1    3    3  502    0 -0.89097725307E+03  0.58866712547E+03  0.10151365396E+04  0.14733878119E+04  0.50400001928E-02 0. -1.
       -1    1    3    3    0  502  0.89097725307E+03 -0.58866712547E+03 -0.18026017168E+04  0.20951712100E+04  0.50400001928E-02 0.  1.
</event>
<event>
 5   0  0.2180451E-07  0.3515768E+04  0.7818609E-02  0.8110063E-01
       -2   -1    0    0    0  501  0.00000000000E+00  0.00000000000E+00  0.17996348039E+04  0.17996348039E+04  0.25500000920E-02 0.  1.
        2   -1    0    0  501    0  0.00000000000E+00  0.00000000000E+00 -0.17171015516E+04  0.17171015516E+04  0.25500000920E-02 0. -1.
    10030    2    1    2    0    0  0.00000000000E+00  0.00000000000E+00  0.82533252253E+02  0.35167363555E+04  0.35157677478E+04 0.  0.
        4    1    3    3  502    0 -0.51613537593E+03  0.10563632607E+04 -0.12659426944E+04  0.17276896663E+04  0.12699999809E+01 0. -1.
       -4    1    3    3    0  502  0.51613537593E+03 -0.10563632607E+04  0.13484759466E+04  0.17890466892E+04  0.12699999809E+01 0.  1.
</event>
<event>
 5   0  0.3190185E-07  0.3514019E+04  0.7818609E-02  0.8110476E-01
       -2   -1    0    0    0  501  0.00000000000E+00  0.00000000000E+00  0.15716898296E+04  0.15716898296E+04  0.25500000920E-02 0.  1.
        2   -1    0    0  501    0  0.00000000000E+00  0.00000000000E+00 -0.19641807839E+04  0.19641807839E+04  0.25500000920E-02 0. -1.
    10030    2    1    2    0    0  0.00000000000E+00  0.00000000000E+00 -0.39249095430E+03  0.35358706135E+04  0.35140193292E+04 0.  0.
        1    1    3    3  502    0 -0.24043924624E+03 -0.37142511227E+03  0.15147148799E+04  0.15780141991E+04  0.50400001928E-02 0.  1.
       -1    1    3    3    0  502  0.24043924624E+03  0.37142511227E+03 -0.19072058342E+04  0.19578564144E+04  0.50400001928E-02 0. -1.
</event>
<event>
 5   0  0.1013863E-07  0.3489715E+04  0.7818609E-02  0.8116232E-01
       -1   -1    0    0    0  501  0.00000000000E+00  0.00000000000E+00  0.23324367684E+04  0.23324367684E+04  0.50400001928E-02 0.  1.
        1   -1    0    0  501    0  0.00000000000E+00  0.00000000000E+00 -0.13052988000E+04  0.13052988000E+04  0.50400001928E-02 0. -1.
    10030    2    1    2    0    0  0.00000000000E+00  0.00000000000E+00  0.10271379685E+04  0.36377355684E+04  0.34897145527E+04 0.  0.
        2    1    3    3  502    0  0.72949578676E+03 -0.97416196810E+03 -0.78981471601E+03  0.14508490372E+04  0.25500000920E-02 0. -1.
       -2    1    3    3    0  502 -0.72949578676E+03  0.97416196810E+03  0.18169526845E+04  0.21868865313E+04  0.25500000920E-02 0.  1.
</event>
<event>
 5   0  0.1013863E-07  0.3499430E+04  0.7818609E-02  0.8113925E-01
       -1   -1    0    0    0  501  0.00000000000E+00  0.00000000000E+00  0.12339575752E+04  0.12339575752E+04  0.50400001928E-02 0. -1.
        1   -1    0    0  501    0  0.00000000000E+00  0.00000000000E+00 -0.24810431118E+04  0.24810431118E+04  0.50400001928E-02 0.  1.
    10030    2    1    2    0    0  0.00000000000E+00  0.00000000000E+00 -0.12470855366E+04  0.37150006870E+04  0.34994296347E+04 0.  0.
        2    1    3    3  502    0  0.11625916003E+04  0.35272500932E+03 -0.19602624530E+04  0.23062226791E+04  0.25500000920E-02 0.  1.
       -2    1    3    3    0  502 -0.11625916003E+04 -0.35272500932E+03  0.71317691637E+03  0.14087780078E+04  0.25500000920E-02 0. -1.
</event>
<event>
 5   0  0.3190112E-07  0.3507545E+04  0.7818609E-02  0.8112004E-01
       -2   -1    0    0    0  501  0.00000000000E+00  0.00000000000E+00  0.19262221138E+04  0.19262221138E+04  0.25500000920E-02 0. -1.
        2   -1    0    0  501    0  0.00000000000E+00  0.00000000000E+00 -0.15967615158E+04  0.15967615158E+04  0.25500000920E-02 0.  1.
    10030    2    1    2    0    0  0.00000000000E+00  0.00000000000E+00  0.32946059801E+03  0.35229836297E+04  0.35075446354E+04 0.  0.
        5    1    3    3  502    0 -0.34095596565E+03 -0.81484146795E+03  0.16864825554E+04  0.19038022713E+04  0.46999998093E+01 0. -1.
       -5    1    3    3    0  502  0.34095596565E+03  0.81484146795E+03 -0.13570219574E+04  0.16191813584E+04  0.46999998093E+01 0.  1.
</event>
<event>
 5   0  0.1072381E-07  0.3512740E+04  0.7818609E-02  0.8110777E-01
       -1   -1    0    0    0  501  0.00000000000E+00  0.00000000000E+00  0.12563602083E+04  0.12563602083E+04  0.50400001928E-02 0.  1.
        1   -1    0    0  501    0  0.00000000000E+00  0.00000000000E+00 -0.24553746317E+04  0.24553746317E+04  0.50400001928E-02 0. -1.
    10030    2    1    2    0    0  0.00000000000E+00  0.00000000000E+00 -0.11990144234E+04  0.37117348399E+04  0.35127396622E+04 0.  0.
        1    1    3    3  502    0  0.80373583938E+03  0.15637607855E+03 -0.22413618697E+04  0.23862413559E+04  0.50400001928E-02 0. -1.
       -1    1    3    3    0  502 -0.80373583938E+03 -0.15637607855E+03  0.10423474463E+04  0.13254934841E+04  0.50400001928E-02 0.  1.
</event>
<event>
 5   0  0.3190185E-07  0.3501027E+04  0.7818609E-02  0.8113547E-01
        2   -1    0    0  501    0  0.00000000000E+00  0.00000000000E+00  0.22053824625E+04  0.22053824625E+04  0.25500000920E-02 0.  1.
       -2   -1    0    0    0  501  0.00000000000E+00  0.00000000000E+00 -0.13894628328E+04  0.13894628328E+04  0.25500000920E-02 0. -1.
    10030    2    1    2    0    0  0.00000000000E+00  0.00000000000E+00  0.81591962967E+03  0.35948452953E+04  0.35010266858E+04 0.  0.
        1    1    3    3  502    0 -0.84071751419E+03  0.55903807506E+03 -0.10603847653E+04  0.14641534614E+04  0.50400001928E-02 0. -1.
       -1    1    3    3    0  502  0.84071751419E+03 -0.55903807506E+03  0.18763043950E+04  0.21306918338E+04  0.50400001928E-02 0.  1.
</event>
<event>
 5   0  0.3190112E-07  0.3490044E+04  0.7818609E-02  0.8116153E-01
        2   -1    0    0  501    0  0.00000000000E+00  0.00000000000E+00  0.16982139313E+04  0.16982139313E+04  0.25500000920E-02 0. -1.
       -2   -1    0    0    0  501  0.00000000000E+00  0.00000000000E+00 -0.17931204600E+04  0.17931204600E+04  0.25500000920E-02 0.  1.
    10030    2    1    2    0    0  0.00000000000E+00  0.00000000000E+00 -0.94906528674E+02  0.34913343912E+04  0.34900442092E+04 0.  0.
        5    1    3    3  502    0  0.22428458578E+03 -0.33456683234E+03 -0.17459741908E+04  0.17918388615E+04  0.46999998093E+01 0.  1.
       -5    1    3    3    0  502 -0.22428458578E+03  0.33456683234E+03  0.16510676621E+04  0.16994955297E+04  0.46999998093E+01 0. -1.
</event>
<event>
 5   0  0.1098171E-07  0.3505885E+04  0.7818609E-02  0.8112397E-01
        1   -1    0    0  501    0  0.00000000000E+00  0.00000000000E+00  0.22283633819E+04  0.22283633819E+04  0.50400001928E-02 0. -1.
       -1   -1    0    0    0  501  0.00000000000E+00  0.00000000000E+00 -0.13789527791E+04  0.13789527791E+04  0.50400001928E-02 0.  1.
    10030    2    1    2    0    0  0.00000000000E+00  0.00000000000E+00  0.84941060288E+03  0.36073161610E+04  0.35058852681E+04 0.  0.
        4    1    3    3  502    0  0.93403638958E+03  0.11317929826E+04  0.14113144056E+04  0.20359737957E+04  0.12699999809E+01 0.  1.
       -4    1    3    3    0  502 -0.93403638958E+03 -0.11317929826E+04 -0.56190380276E+03  0.15713423653E+04  0.12699999809E+01 0. -1.
</event>
<event>
 5   0  0.1013863E-07  0.3502805E+04  0.7818609E-02  0.8113126E-01
       -1   -1    0    0    0  501  0.00000000000E+00  0.00000000000E+00  0.15692941716E+04  0.15692941717E+04  0.50400001928E-02 0.  1.
        1   -1    0    0  501    0  0.00000000000E+00  0.00000000000E+00 -0.19546431810E+04  0.19546431810E+04  0.50400001928E-02 0. -1.
    10030    2    1    2    0    0  0.00000000000E+00  0.00000000000E+00 -0.38534900930E+03  0.35239373526E+04  0.35028046771E+04 0.  0.
        5    1    3    3  502    0 -0.88216857547E+03  0.90379677537E+03 -0.14133861201E+04  0.18954557292E+04  0.46999998093E+01 0. -1.
       -5    1    3    3    0  502  0.88216857547E+03 -0.90379677537E+03  0.10280371108E+04  0.16284816234E+04  0.46999998093E+01 0.  1.
</event>
<event>
 5   0  0.2180451E-07  0.3484677E+04  0.7818609E-02  0.8117431E-01
       -2   -1    0    0    0  501  0.00000000000E+00  0.00000000000E+00  0.18750157097E+04  0.18750157097E+04  0.25500000920E-02 0.  1.
        2   -1    0    0  501    0  0.00000000000E+00  0.00000000000E+00 -0.16190497653E+04  0.16190497653E+04  0.25500000920E-02 0. -1.
    10030    2    1    2    0    0  0.00000000000E+00  0.00000000000E+00  0.25596594439E+03  0.34940654750E+04  0.34846771700E+04 0.  0.
        4    1    3    3  502    0  0.74644541558E+03  0.15242769628E+04 -0.26695777344E+03  0.17181004288E+04  0.12699999809E+01 0.  1.
       -4    1    3    3    0  502 -0.74644541558E+03 -0.15242769628E+04  0.52292371783E+03  0.17759650462E+04  0.12699999809E+01 0. -1.
</event>
<event>
 5   0  0.1013863E-07  0.3506967E+04  0.7818609E-02  0.8112141E-01
        1   -1    0    0  501    0  0.00000000000E+00  0.00000000000E+00  0.17959971120E+04  0.17959971120E+04  0.50400001928E-02 0. -1.
       -1   -1    0    0    0  501  0.00000000000E+00  0.00000000000E+00 -0.17119758994E+04  0.17119758994E+04  0.50400001928E-02 0.  1.
    10030    2    1    2    0    0  0.00000000000E+00  0.00000000000E+00  0.84021212626E+02  0.35079730115E+04  0.35069666501E+04 0.  0.
        5    1    3    3  502    0  0.40670927052E+03 -0.52993004364E+03  0.16637233230E+04  0.17928289565E+04  0.46999998093E+01 0. -1.
       -5    1    3    3    0  502 -0.40670927052E+03  0.52993004364E+03 -0.15797021103E+04  0.17151440550E+04  0.46999998093E+01 0.  1.
</event>
<event>
 5   0  0.3219205E-07  0.3504158E+04  0.7818609E-02  0.8112805E-01
       -2   -1    0    0    0  501  0.00000000000E+00  0.00000000000E+00  0.94468774341E+03  0.94468774341E+03  0.25500000920E-02 0.  1.
        2   -1    0    0  501    0  0.00000000000E+00  0.00000000000E+00 -0.32495183717E+04  0.32495183717E+04  0.25500000920E-02 0. -1.
    10030    2    1    2    0    0  0.00000000000E+00  0.00000000000E+00 -0.23048306283E+04  0.41942061152E+04  0.35041576322E+04 0.  0.
        2    1    3    3  502    0  0.98594108296E+03  0.14481338243E+04 -0.11819476840E+04  0.21133319001E+04  0.25500000920E-02 0. -1.
       -2    1    3    3    0  502 -0.98594108296E+03 -0.14481338243E+04 -0.11228829444E+04  0.20808742151E+04  0.25500000920E-02 0.  1.
</event>
<event>
 5   0  0.1013863E-07  0.3466445E+04  0.7818609E-02  0.8121788E-01
       -1   -1    0    0    0  501  0.00000000000E+00  0.00000000000E+00  0.17843084598E+04  0.17843084598E+04  0.50400001928E-02 0. -1.
        1   -1    0    0  501    0  0.00000000000E+00  0.00000000000E+00 -0.16835991036E+04  0.16835991037E+04  0.50400001928E-02 0.  1.
    10030    2    1    2    0    0  0.00000000000E+00  0.00000000000E+00  0.10070935611E+03  0.34679075634E+04  0.34664449360E+04 0.  0.
        2    1    3    3  502    0 -0.98697242928E+03  0.84078647520E+03 -0.11003582992E+04  0.17005366387E+04  0.25500000920E-02 0.  1.
       -2    1    3    3    0  502  0.98697242928E+03 -0.84078647520E+03  0.12010676553E+04  0.17673709247E+04  0.25500000920E-02 0. -1.
</event>
<event>
 5   0  0.1098171E-07  0.3555932E+04  0.7818609E-02  0.8100661E-01
       -1   -1    0    0    0  501  0.00000000000E+00  0.00000000000E+00  0.20496957029E+04  0.20496957029E+04  0.50400001928E-02 0.  1.
        1   -1    0    0  501    0  0.00000000000E+00  0.00000000000E+00 -0.15422597406E+04  0.15422597406E+04  0.50400001928E-02 0. -1.
    10030    2    1    2    0    0  0.00000000000E+00  0.00000000000E+00  0.50743596233E+03  0.35919554435E+04  0.35559320371E+04 0.  0.
        4    1    3    3  502    0 -0.15309762139E+04  0.61342250442E+03 -0.41707729439E+03  0.17012143953E+04  0.12699999809E+01 0. -1.
       -4    1    3    3    0  502  0.15309762139E+04 -0.61342250442E+03  0.92451325671E+03  0.18907410482E+04  0.12699999809E+01 0.  1.
</event>
<event>
 5   0  0.3219205E-07  0.3537150E+04  0.7818609E-02  0.8105042E-01
       -2   -1    0    0    0  501  0.00000000000E+00  0.00000000000E+00  0.15025635886E+04  0.15025635886E+04  0.25500000920E-02 0.  1.
        2   -1    0    0  501    0  0.00000000000E+00  0.00000000000E+00 -0.20816805357E+04  0.20816805357E+04  0.25500000920E-02 0. -1.
    10030    2    1    2    0    0  0.00000000000E+00  0.00000000000E+00 -0.57911694709E+03  0.35842441244E+04  0.35371499127E+04 0.  0.
        2    1    3    3  502    0  0.14268412002E+04  0.96487859505E+03 -0.69613727251E+03  0.18578142039E+04  0.25500000920E-02 0. -1.
       -2    1    3    3    0  502 -0.14268412002E+04 -0.96487859505E+03  0.11702032543E+03  0.17264299205E+04  0.25500000920E-02 0.  1.
</event>
<event>
 5   0  0.2180451E-07  0.3529712E+04  0.7818609E-02  0.8106784E-01
       -2   -1    0    0    0  501  0.00000000000E+00  0.00000000000E+00  0.14856319782E+04  0.14856319782E+04  0.25500000920E-02 0. -1.
        2   -1    0    0  501    0  0.00000000000E+00  0.00000000000E+00 -0.20965604340E+04  0.20965604340E+04  0.25500000920E-02 0.  1.
    10030    2    1    2    0    0  0.00000000000E+00  0.00000000000E+00 -0.61092845576E+03  0.35821924122E+04  0.35297122971E+04 0.  0.
        4    1    3    3  502    0 -0.42760561992E+03  0.10458710271E+04  0.10704300156E+04  0.15564429969E+04  0.12699999809E+01 0. -1.
       -4    1    3    3    0  502  0.42760561992E+03 -0.10458710271E+04 -0.16813584713E+04  0.20257494153E+04  0.12699999809E+01 0.  1.
</event>
<event>
 5   0  0.3190112E-07  0.3507597E+04  0.7818609E-02  0.8111992E-01
        2   -1    0    0  501    0  0.00000000000E+00  0.00000000000E+00  0.19296817510E+04  0.19296817510E+04  0.25500000920E-02 0. -1.
       -2   -1    0    0    0  501  0.00000000000E+00  0.00000000000E+00 -0.15939461605E+04  0.15939461605E+04  0.25500000920E-02 0.  1.
    10030    2    1    2    0    0  0.00000000000E+00  0.00000000000E+00  0.33573559044E+03  0.35236279115E+04  0.35075967944E+04 0.  0.
        5    1    3    3  502    0 -0.15646455197E+04  0.49920321832E+03 -0.45014083829E+03  0.17029293349E+04  0.46999998093E+01 0.  1.
       -5    1    3    3    0  502  0.15646455197E+04 -0.49920321832E+03  0.78587642873E+03  0.18206985766E+04  0.46999998093E+01 0. -1.
</event>
<event>
 5   0  0.1072381E-07  0.3504628E+04  0.7818609E-02  0.8112694E-01
        1   -1    0    0  501    0  0.00000000000E+00  0.00000000000E+00  0.24255933036E+04  0.24255933036E+04  0.50400001928E-02 0.  1.
       -1   -1    0    0    0  501  0.00000000000E+00  0.00000000000E+00 -0.12659191531E+04  0.12659191531E+04  0.50400001928E-02 0. -1.
    10030    2    1    2    0    0  0.00000000000E+00  0.00000000000E+00  0.11596741505E+04  0.36915124567E+04  0.35046283801E+04 0.  0.
        1    1    3    3  502    0  0.16721740110E+04 -0.44965604496E+03  0.29671293641E+03  0.17568138913E+04  0.50400001928E-02 0.  1.
       -1    1    3    3    0  502 -0.16721740110E+04  0.44965604496E+03  0.86296121407E+03  0.19346985654E+04  0.50400001928E-02 0. -1.
</event>
<event>
 5   0  0.1098171E-07  0.3467874E+04  0.7818609E-02  0.8121446E-01
       -1   -1    0    0    0  501  0.00000000000E+00  0.00000000000E+00  0.16066386038E+04  0.16066386038E+04  0.50400001928E-02 0. -1.
        1   -1    0    0  501    0  0.00000000000E+00  0.00000000000E+00 -0.18713212348E+04  0.18713212348E+04  0.50400001928E-02 0.  1.
    10030    2    1    2    0    0  0.00000000000E+00  0.00000000000E+00 -0.26468263097E+03  0.34779598386E+04  0.34678736632E+04 0.  0.
        4    1    3    3  502    0 -0.32955731957E+03  0.37366774397E+03  0.15333020619E+04  0.16122197231E+04  0.12699999809E+01 0. -1.
       -4    1    3    3    0  502  0.32955731957E+03 -0.37366774397E+03 -0.17979846929E+04  0.18657401155E+04  0.12699999809E+01 0.  1.
</event>
<event>
 5   0  0.2180451E-07  0.3522458E+04  0.7818609E-02  0.8108488E-01
       -2   -1    0    0    0  501  0.00000000000E+00  0.00000000000E+00  0.13308903985E+04  0.13308903985E+04  0.25500000920E-02 0. -1.
        2   -1    0    0  501    0  0.00000000000E+00  0.00000000000E+00 -0.23307164588E+04  0.23307164588E+04  0.25500000920E-02 0.  1.
    10030    2    1    2    0    0  0.00000000000E+00  0.00000000000E+00 -0.99982606037E+03  0.36616068573E+04  0.35224583215E+04 0.  0.
        4    1    3    3  502    0 -0.37504290902E+02 -0.12119227330E+04 -0.18277795624E+04  0.21933862005E+04  0.12699999809E+01 0.  1.
       -4    1    3    3    0  502  0.37504290902E+02  0.12119227330E+04  0.82795350208E+03  0.14682206568E+04  0.12699999809E+01 0. -1.
</event>
<event>
 5   0  0.1033796E-07  0.3475085E+04  0.7818609E-02  0.8119720E-01
        1   -1    0    0  501    0  0.00000000000E+00  0.00000000000E+00  0.16446178475E+04  0.16446178475E+04  0.50400001928E-02 0.  1.
       -1   -1    0    0    0  501  0.00000000000E+00  0.00000000000E+00 -0.18357175909E+04  0.18357175909E+04  0.50400001928E-02 0. -1.
    10030    2    1    2    0    0  0.00000000000E+00  0.00000000000E+00 -0.19109974337E+03  0.34803354384E+04  0.34750849849E+04 0.  0.
        3    1    3    3  502    0  0.48138448576E+03  0.80379371991E+03 -0.15610578906E+04  0.18206364589E+04  0.10100000352E+00 0. -1.
       -3    1    3    3    0  502 -0.48138448576E+03 -0.80379371991E+03  0.13699581473E+04  0.16596989796E+04  0.10100000352E+00 0.  1.
</event>
<event>
 5   0  0.1072381E-07  0.3511339E+04  0.7818609E-02  0.8111108E-01
        1   -1    0    0  501    0  0.00000000000E+00  0.00000000000E+00  0.20603135180E+04  0.20603135180E+04  0.50400001928E-02 0.  1.
       -1   -1    0    0    0  501  0.00000000000E+00  0.00000000000E+00 -0.14960710014E+04  0.14960710015E+04  0.50400001928E-02 0. -1.
    10030    2    1    2    0    0  0.00000000000E+00  0.00000000000E+00  0.56424251650E+03  0.35563845194E+04  0.35113389515E+04 0.  0.
        1    1    3    3  502    0  0.15801031485E+04  0.65834738536E+03 -0.11304815803E+03  0.17154961748E+04  0.50400001928E-02 0.  1.
       -1    1    3    3    0  502 -0.15801031485E+04 -0.65834738536E+03  0.67729067453E+03  0.18408883446E+04  0.50400001928E-02 0. -1.
</event>
<event>
 5   0  0.1072381E-07  0.3457153E+04  0.7818609E-02  0.8124020E-01
        1   -1    0    0  501    0  0.00000000000E+00  0.00000000000E+00  0.14027516198E+04  0.14027516198E+04  0.50400001928E-02 0.  1.
       -1   -1    0    0    0  501  0.00000000000E+00  0.00000000000E+00 -0.21300827496E+04  0.21300827496E+04  0.50400001928E-02 0. -1.
    10030    2    1    2    0    0  0.00000000000E+00  0.00000000000E+00 -0.72733112984E+03  0.35328343695E+04  0.34571531799E+04 0.  0.
        1    1    3    3  502    0 -0.53767907124E+03  0.12809384095E+03  0.13100132078E+04  0.14218443728E+04  0.50400001928E-02 0.  1.
       -1    1    3    3    0  502  0.53767907124E+03 -0.12809384095E+03 -0.20373443377E+04  0.21109899967E+04  0.50400001928E-02 0. -1.
</event>
<event>
 5   0  0.2180451E-07  0.3480136E+04  0.7818609E-02  0.8118514E-01
       -2   -1    0    0    0  501  0.00000000000E+00  0.00000000000E+00  0.11168508504E+04  0.11168508504E+04  0.25500000920E-02 0. -1.
        2   -1    0    0  501    0  0.00000000000E+00  0.00000000000E+00 -0.27110489374E+04  0.27110489374E+04  0.25500000920E-02 0.  1.
    10030    2    1    2    0    0  0.00000000000E+00  0.00000000000E+00 -0.15941980870E+04  0.38278997878E+04  0.34801363830E+04 0.  0.
        4    1    3    3  502    0 -0.17359488740E+04 -0.10808743267E+03 -0.85355345885E+03  0.19374613560E+04  0.12699999809E+01 0. -1.
       -4    1    3    3    0  502  0.17359488740E+04  0.10808743267E+03 -0.74064462812E+03  0.18904384317E+04  0.12699999809E+01 0.  1.
</event>
<event>
 5   0  0.3190185E-07  0.3490134E+04  0.7818609E-02  0.8116132E-01
        2   -1    0    0  501    0  0.00000000000E+00  0.00000000000E+00  0.28768587318E+04  0.28768587318E+04  0.25500000920E-02 0. -1.
       -2   -1    0    0    0  501  0.00000000000E+00  0.00000000000E+00 -0.10585358611E+04  0.10585358611E+04  0.25500000920E-02 0.  1.
    10030    2    1    2    0    0  0.00000000000E+00  0.00000000000E+00  0.18183228707E+04  0.39353945929E+04  0.34901335991E+04 0.  0.
        1    1    3    3  502    0  0.13641916656E+04  0.76652730515E+03  0.38167363364E+02  0.15652602844E+04  0.50400001928E-02 0. -1.
       -1    1    3    3    0  502 -0.13641916656E+04 -0.76652730515E+03  0.17801555073E+04  0.23701343085E+04  0.50400001928E-02 0.  1.
</event>
<event>
 5   0  0.3190112E-07  0.3504211E+04  0.7818609E-02  0.8112793E-01
        2   -1    0    0  501    0  0.00000000000E+00  0.00000000000E+00  0.13753145818E+04  0.13753145818E+04  0.25500000920E-02 0. -1.
       -2   -1    0    0    0  501  0.00000000000E+00  0.00000000000E+00 -0.22321241548E+04  0.22321241548E+04  0.25500000920E-02 0.  1.
    10030    2    1    2    0    0  0.00000000000E+00  0.00000000000E+00 -0.85680957306E+03  0.36074387366E+04  0.35042105522E+04 0.  0.
        5    1    3    3  502    0 -0.59803043316E+03  0.15237447973E+04  0.21483139165E+03  0.16509431314E+04  0.46999998093E+01 0. -1.
       -5    1    3    3    0  502  0.59803043316E+03 -0.15237447973E+04 -0.10716409647E+04  0.19564956053E+04  0.46999998093E+01 0.  1.
</event>
<event>
 5   0  0.3119048E-07  0.3502400E+04  0.7818609E-02  0.8113221E-01
       -2   -1    0    0    0  501  0.00000000000E+00  0.00000000000E+00  0.16573294605E+04  0.16573294605E+04  0.25500000920E-02 0. -1.
        2   -1    0    0  501    0  0.00000000000E+00  0.00000000000E+00 -0.18503870303E+04  0.18503870303E+04  0.25500000920E-02 0.  1.
    10030    2    1    2    0    0  0.00000000000E+00  0.00000000000E+00 -0.19305756982E+03  0.35077164909E+04  0.35023997138E+04 0.  0.
        3    1    3    3  502    0 -0.98553822910E+03  0.13602316716E+04  0.39938460761E+03  0.17265641826E+04  0.10100000352E+00 0. -1.
       -3    1    3    3    0  502  0.98553822910E+03 -0.13602316716E+04 -0.59244217743E+03  0.17811523083E+04  0.10100000352E+00 0.  1.
</event>
<event>
 5   0  0.1033796E-07  0.3473916E+04  0.7818609E-02  0.8120000E-01
        1   -1    0    0  501    0  0.00000000000E+00  0.00000000000E+00  0.12127577660E+04  0.12127577660E+04  0.50400001928E-02 0.  1.
       -1   -1    0    0    0  501  0.00000000000E+00  0.00000000000E+00 -0.24877370164E+04  0.24877370164E+04  0.50400001928E-02 0. -1.
    10030    2    1    2    0    0  0.00000000000E+00  0.00000000000E+00 -0.12749792504E+04  0.37004947824E+04  0.34739155927E+04 0.  0.
        3    1    3    3  502    0  0.15664975391E+04 -0.72149470751E+03 -0.85722843315E+03  0.19259568401E+04  0.10100000352E+00 0. -1.
       -3    1    3    3    0  502 -0.15664975391E+04  0.72149470751E+03 -0.41775081722E+03  0.17745379423E+04  0.10100000352E+00 0.  1.
</event>
<event>
 5   0  0.3190112E-07  0.3400382E+04  0.7818609E-02  0.8137813E-01
        2   -1    0    0  501    0  0.00000000000E+00  0.00000000000E+00  0.21451226148E+04  0.21451226148E+04  0.25500000920E-02 0. -1.
       -2   -1    0    0    0  501  0.00000000000E+00  0.00000000000E+00 -0.13475448501E+04  0.13475448501E+04  0.25500000920E-02 0.  1.
    10030    2    1    2    0    0  0.00000000000E+00  0.00000000000E+00  0.79757776471E+03  0.34926674649E+04  0.34003817035E+04 0.  0.
        5    1    3    3  502    0 -0.62393725837E+03  0.15700997340E+04  0.20358916672E+03  0.17017583600E+04  0.46999998093E+01 0. -1.
       -5    1    3    3    0  502  0.62393725837E+03 -0.15700997340E+04  0.59398859799E+03  0.17909091048E+04  0.46999998093E+01 0.  1.
</event>
<event>
 5   0  0.3219205E-07  0.3496486E+04  0.7818609E-02  0.8114623E-01
        2   -1    0    0  501    0  0.00000000000E+00  0.00000000000E+00  0.18137158970E+04  0.18137158970E+04  0.25500000920E-02 0.  1.
       -2   -1    0    0    0  501  0.00000000000E+00  0.00000000000E+00 -0.16851333367E+04  0.16851333367E+04  0.25500000920E-02 0. -1.
    10030    2    1    2    0    0  0.00000000000E+00  0.00000000000E+00  0.12858256035E+03  0.34988492337E+04  0.34964857336E+04 0.  0.
        2    1    3    3  502    0 -0.52835015642E+03 -0.82665525857E+03 -0.13836976690E+04  0.16962110846E+04  0.25500000920E-02 0. -1.
       -2    1    3    3    0  502  0.52835015642E+03  0.82665525857E+03  0.15122802294E+04  0.18026381491E+04  0.25500000920E-02 0.  1.
</event>
<event>
 5   0  0.3119048E-07  0.3480942E+04  0.7818609E-02  0.8118321E-01
       -2   -1    0    0    0  501  0.00000000000E+00  0.00000000000E+00  0.11125577667E+04  0.11125577667E+04  0.25500000920E-02 0. -1.
        2   -1    0    0  501    0  0.00000000000E+00  0.00000000000E+00 -0.27227709436E+04  0.27227709436E+04  0.25500000920E-02 0.  1.
    10030    2    1    2    0    0  0.00000000000E+00  0.00000000000E+00 -0.16102131770E+04  0.38353287103E+04  0.34809423783E+04 0.  0.
        3    1    3    3  502    0 -0.77486725619E+03  0.14081107082E+04 -0.15409663501E+04  0.22266055631E+04  0.10100000352E+00 0.  1.
       -3    1    3    3    0  502  0.77486725619E+03 -0.14081107082E+04 -0.69246826890E+02  0.16087231472E+04  0.10100000352E+00 0. -1.
</event>
<event>
 5   0  0.1098171E-07  0.3526991E+04  0.7818609E-02  0.8107423E-01
       -1   -1    0    0    0  501  0.00000000000E+00  0.00000000000E+00  0.13566676622E+04  0.13566676622E+04  0.50400001928E-02 0. -1.
        1   -1    0    0  501    0  0.00000000000E+00  0.00000000000E+00 -0.22923194080E+04  0.22923194080E+04  0.50400001928E-02 0.  1.
    10030    2    1    2    0    0  0.00000000000E+00  0.00000000000E+00 -0.93565174579E+03  0.36489870701E+04  0.35269905654E+04 0.  0.
        4    1    3    3  502    0  0.65990728514E+03  0.14200839073E+04  0.37127529230E+03  0.16093361626E+04  0.12699999809E+01 0. -1.
       -4    1    3    3    0  502 -0.65990728514E+03 -0.14200839073E+04 -0.13069270381E+04  0.20396509075E+04  0.12699999809E+01 0.  1.
</event>
<event>
 5   0  0.3219205E-07  0.3515766E+04  0.7818609E-02  0.8110064E-01
        2   -1    0    0  501    0  0.00000000000E+00  0.00000000000E+00  0.11121811644E+04  0.11121811644E+04  0.25500000920E-02 0.  1.
       -2   -1    0    0    0  501  0.00000000000E+00  0.00000000000E+00 -0.27784609870E+04  0.27784609870E+04  0.25500000920E-02 0. -1.
    10030    2    1    2    0    0  0.00000000000E+00  0.00000000000E+00 -0.16662798226E+04  0.38906421514E+04  0.35157656212E+04 0.  0.
        2    1    3    3  502    0  0.84852761604E+03 -0.46349990415E+03  0.79150076492E+03  0.12495218034E+04  0.25500000920E-02 0.  1.
       -2    1    3    3    0  502 -0.84852761604E+03  0.46349990415E+03 -0.24577805875E+04  0.26411203480E+04  0.25500000920E-02 0. -1.
</event>
<event>
 5   0  0.1013863E-07  0.3509657E+04  0.7818609E-02  0.8111505E-01
       -1   -1    0    0    0  501  0.00000000000E+00  0.00000000000E+00  0.21409697955E+04  0.21409697955E+04  0.50400001928E-02 0.  1.
        1   -1    0    0  501    0  0.00000000000E+00  0.00000000000E+00 -0.14383310330E+04  0.14383310330E+04  0.50400001928E-02 0. -1.
    10030    2    1    2    0    0  0.00000000000E+00  0.00000000000E+00  0.70263876247E+03  0.35793008285E+04  0.35096571328E+04 0.  0.
        5    1    3    3  502    0 -0.15766197579E+04 -0.58755885261E+03  0.85965373755E+03  0.18894395742E+04  0.46999998093E+01 0.  1.
       -5    1    3    3    0  502  0.15766197579E+04  0.58755885261E+03 -0.15701497508E+03  0.16898612542E+04  0.46999998093E+01 0. -1.
</event>
<event>
 5   0  0.1033796E-07  0.3519200E+04  0.7818609E-02  0.8109255E-01
        1   -1    0    0  501    0  0.00000000000E+00  0.00000000000E+00  0.16157335026E+04  0.16157335026E+04  0.50400001928E-02 0.  1.
       -1   -1    0    0    0  501  0.00000000000E+00  0.00000000000E+00 -0.19162768171E+04  0.19162768171E+04  0.50400001928E-02 0. -1.
    10030    2    1    2    0    0  0.00000000000E+00  0.00000000000E+00 -0.30054331451E+03  0.35320103198E+04  0.35192002806E+04 0.  0.
        3    1    3    3  502    0 -0.49434174903E+03  0.64088596985E+03 -0.17183557420E+04  0.18994354575E+04  0.10100000352E+00 0. -1.
       -3    1    3    3    0  502  0.49434174903E+03 -0.64088596985E+03  0.14178124275E+04  0.16325748622E+04  0.10100000352E+00 0.  1.
</event>
<event>
 5   0  0.2180451E-07  0.3495986E+04  0.7818609E-02  0.8114742E-01
       -2   -1    0    0    0  501  0.00000000000E+00  0.00000000000E+00  0.20534701191E+04  0.20534701191E+04  0.25500000920E-02 0.  1.
        2   -1    0    0  501    0  0.00000000000E+00  0.00000000000E+00 -0.14879592274E+04  0.14879592274E+04  0.25500000920E-02 0. -1.
    10030    2    1    2    0    0  0.00000000000E+00  0.00000000000E+00  0.56551089171E+03  0.35414293464E+04  0.34959861623E+04 0.  0.
        4    1    3    3  502    0  0.49911452354E+03  0.42634971262E+03  0.19238723299E+04  0.20327753786E+04  0.12699999809E+01 0.  1.
       -4    1    3    3    0  502 -0.49911452354E+03 -0.42634971262E+03 -0.13583614382E+04  0.15086539679E+04  0.12699999809E+01 0. -1.
</event>
<event>
 5   0  0.1033796E-07  0.3505043E+04  0.7818609E-02  0.8112596E-01
        1   -1    0    0  501    0  0.00000000000E+00  0.00000000000E+00  0.25817814712E+04  0.25817814712E+04  0.50400001928E-02 0. -1.
       -1   -1    0    0    0  501  0.00000000000E+00  0.00000000000E+00 -0.11896174293E+04  0.11896174293E+04  0.50400001928E-02 0.  1.
    10030    2    1    2    0    0  0.00000000000E+00  0.00000000000E+00  0.13921640419E+04  0.37713989004E+04  0.35050433587E+04 0.  0.
        3    1    3    3  502    0  0.80781813285E+02 -0.31413992266E+03  0.25492023777E+04  0.25697553123E+04  0.10100000352E+00 0. -1.
       -3    1    3    3    0  502 -0.80781813285E+02  0.31413992266E+03 -0.11570383358E+04  0.12016435882E+04  0.10100000352E+00 0.  1.
</event>
<event>
 5   0  0.1098171E-07  0.3526917E+04  0.7818609E-02  0.8107440E-01
        1   -1    0    0  501    0  0.00000000000E+00  0.00000000000E+00  0.29296484584E+04  0.29296484584E+04  0.50400001928E-02 0.  1.
       -1   -1    0    0    0  501  0.00000000000E+00  0.00000000000E+00 -0.10614877387E+04  0.10614877387E+04  0.50400001928E-02 0. -1.
    10030    2    1    2    0    0  0.00000000000E+00  0.00000000000E+00  0.18681607197E+04  0.39911361971E+04  0.35269170204E+04 0.  0.
        4    1    3    3  502    0 -0.15962923263E+04 -0.49653964066E+03  0.15692856934E+04  0.22928933699E+04  0.12699999809E+01 0.  1.
       -4    1    3    3    0  502  0.15962923263E+04  0.49653964066E+03  0.29887502637E+03  0.16982428271E+04  0.12699999809E+01 0. -1.
</event>
<event>
 5   0  0.1033796E-07  0.3496278E+04  0.7818609E-02  0.8114672E-01
       -1   -1    0    0    0  501  0.00000000000E+00  0.00000000000E+00  0.12584348704E+04  0.12584348704E+04  0.50400001928E-02 0. -1.
        1   -1    0    0  501    0  0.00000000000E+00  0.00000000000E+00 -0.24284059403E+04  0.24284059403E+04  0.50400001928E-02 0.  1.
    10030    2    1    2    0    0  0.00000000000E+00  0.00000000000E+00 -0.11699710699E+04  0.36868408107E+04  0.34962784298E+04 0.  0.
        3    1    3    3  502    0  0.44793083484E+03 -0.14875102811E+04 -0.14303415171E+04  0.21116831521E+04  0.10100000352E+00 0.  1.
       -3    1    3    3    0  502 -0.44793083484E+03  0.14875102811E+04  0.26037044718E+03  0.15751576585E+04  0.10100000352E+00 0. -1.
</event>
<event>
 5   0  0.3119048E-07  0.3481653E+04  0.7818609E-02  0.8118152E-01
        2   -1    0    0  501    0  0.00000000000E+00  0.00000000000E+00  0.23519905586E+04  0.23519905586E+04  0.25500000920E-02 0. -1.
       -2   -1    0    0    0  501  0.00000000000E+00  0.00000000000E+00 -0.12884729130E+04  0.12884729130E+04  0.25500000920E-02 0.  1.
    10030    2    1    2    0    0  0.00000000000E+00  0.00000000000E+00  0.10635176455E+04  0.36404634716E+04  0.34816525538E+04 0.  0.
        3    1    3    3  502    0 -0.39118251471E+03  0.51766962183E+03 -0.11573103896E+04  0.13267904677E+04  0.10100000352E+00 0.  1.
       -3    1    3    3    0  502  0.39118251471E+03 -0.51766962183E+03  0.22208280351E+04  0.23136730039E+04  0.10100000352E+00 0. -1.
</event>
<event>
 5   0  0.1098171E-07  0.3598503E+04  0.7818609E-02  0.8090835E-01
       -1   -1    0    0    0  501  0.00000000000E+00  0.00000000000E+00  0.20718964991E+04  0.20718964992E+04  0.50400001928E-02 0.  1.
        1   -1    0    0  501    0  0.00000000000E+00  0.00000000000E+00 -0.15624841642E+04  0.15624841642E+04  0.50400001928E-02 0. -1.
    10030    2    1    2    0    0  0.00000000000E+00  0.00000000000E+00  0.50941233498E+03  0.36343806633E+04  0.35985027274E+04 0.  0.
        4    1    3    3  502    0  0.28955349620E+03 -0.14117780756E+04  0.13426392914E+04  0.19696802892E+04  0.12699999809E+01 0.  1.
       -4    1    3    3    0  502 -0.28955349620E+03  0.14117780756E+04 -0.83322695646E+03  0.16647003741E+04  0.12699999809E+01 0. -1.
</event>
<event>
 5   0  0.1013863E-07  0.3495310E+04  0.7818609E-02  0.8114902E-01
        1   -1    0    0  501    0  0.00000000000E+00  0.00000000000E+00  0.20952499923E+04  0.20952499923E+04  0.50400001928E-02 0. -1.
       -1   -1    0    0    0  501  0.00000000000E+00  0.00000000000E+00 -0.14577250265E+04  0.14577250265E+04  0.50400001928E-02 0.  1.
    10030    2    1    2    0    0  0.00000000000E+00  0.00000000000E+00  0.63752496575E+03  0.35529750188E+04  0.34953102012E+04 0.  0.
        5    1    3    3  502    0 -0.16353030484E+04  0.16990594922E+03  0.92115399098E+03  0.18845771029E+04  0.46999998093E+01 0. -1.
       -5    1    3    3    0  502  0.16353030484E+04 -0.16990594922E+03 -0.28362902523E+03  0.16683979159E+04  0.46999998093E+01 0.  1.
</event>
<event>
 5   0  0.3190112E-07  0.3487202E+04  0.7818609E-02  0.8116830E-01
        2   -1    0    0  501    0  0.00000000000E+00  0.00000000000E+00  0.13651476110E+04  0.13651476110E+04  0.25500000920E-02 0. -1.
       -2   -1    0    0    0  501  0.00000000000E+00  0.00000000000E+00 -0.22269708593E+04  0.22269708593E+04  0.25500000920E-02 0.  1.
    10030    2    1    2    0    0  0.00000000000E+00  0.00000000000E+00 -0.86182324837E+03  0.35921184703E+04  0.34872017139E+04 0.  0.
        5    1    3    3  502    0 -0.89017789136E+03  0.69037303613E+03  0.93995097643E+03  0.14671610462E+04  0.46999998093E+01 0. -1.
       -5    1    3    3    0  502  0.89017789136E+03 -0.69037303613E+03 -0.18017742248E+04  0.21249574241E+04  0.46999998093E+01 0.  1.
</event>
<event>
 5   0  0.1013863E-07  0.3489619E+04  0.7818609E-02  0.8116255E-01
       -1   -1    0    0    0  501  0.00000000000E+00  0.00000000000E+00  0.14067800497E+04  0.14067800497E+04  0.50400001928E-02 0. -1.
        1   -1    0    0  501    0  0.00000000000E+00  0.00000000000E+00 -0.21640627222E+04  0.21640627222E+04  0.50400001928E-02 0.  1.
    10030    2    1    2    0    0  0.00000000000E+00  0.00000000000E+00 -0.75728267249E+03  0.35708427719E+04  0.34896190416E+04 0.  0.
        5    1    3    3  502    0 -0.54232317638E+03 -0.14277931850E+04  0.48457558750E+03  0.16023555775E+04  0.46999998093E+01 0. -1.
       -5    1    3    3    0  502  0.54232317638E+03  0.14277931850E+04 -0.12418582600E+04  0.19684871944E+04  0.46999998093E+01 0.  1.
</event>
<event>
 5   0  0.2180451E-07  0.3537394E+04  0.7818609E-02  0.8104985E-01
       -2   -1    0    0    0  501  0.00000000000E+00  0.00000000000E+00  0.19240101902E+04  0.19240101902E+04  0.25500000920E-02 0.  1.
        2   -1    0    0  501    0  0.00000000000E+00  0.00000000000E+00 -0.16259215141E+04  0.16259215141E+04  0.25500000920E-02 0. -1.
    10030    2    1    2    0    0  0.00000000000E+00  0.00000000000E+00  0.29808867615E+03  0.35499317043E+04  0.35373942735E+04 0.  0.
        4    1    3    3  502    0 -0.96448519496E+03 -0.48049618084E+02 -0.13380130436E+04  0.16500972622E+04  0.12699999809E+01 0. -1.
       -4    1    3    3    0  502  0.96448519496E+03  0.48049618084E+02  0.16361017197E+04  0.18998344421E+04  0.12699999809E+01 0.  1.
</event>
<event>
 5   0  0.1013863E-07  0.3511568E+04  0.7818609E-02  0.8111054E-01
       -1   -1    0    0    0  501  0.00000000000E+00  0.00000000000E+00  0.13461931001E+04  0.13461931001E+04  0.50400001928E-02 0.  1.
        1   -1    0    0  501    0  0.00000000000E+00  0.00000000000E+00 -0.22899962005E+04  0.22899962005E+04  0.50400001928E-02 0. -1.
    10030    2    1    2    0    0  0.00000000000E+00  0.00000000000E+00 -0.94380310044E+03  0.36361893006E+04  0.35115677891E+04 0.  0.
        2    1    3    3  502    0 -0.10944791683E+04  0.13402504006E+04 -0.78015963905E+03  0.18981055947E+04  0.25500000920E-02 0.  1.
       -2    1    3    3    0  502  0.10944791683E+04 -0.13402504006E+04 -0.16364346139E+03  0.17380837059E+04  0.25500000920E-02 0. -1.
</event>
<event>
 5   0  0.3190112E-07  0.3471975E+04  0.7818609E-02  0.8120464E-01
       -2   -1    0    0    0  501  0.00000000000E+00  0.00000000000E+00  0.14994404955E+04  0.14994404955E+04  0.25500000920E-02 0. -1.
        2   -1    0    0  501    0  0.00000000000E+00  0.00000000000E+00 -0.20098519062E+04  0.20098519062E+04  0.25500000920E-02 0.  1.
    10030    2    1    2    0    0  0.00000000000E+00  0.00000000000E+00 -0.51041141063E+03  0.35092924017E+04  0.34719754251E+04 0.  0.
        5    1    3    3  502    0  0.62987134538E+03  0.15975627539E+04 -0.51227489093E+03  0.17920358027E+04  0.46999998093E+01 0. -1.
       -5    1    3    3    0  502 -0.62987134538E+03 -0.15975627539E+04  0.18634803021E+01  0.17172565990E+04  0.46999998093E+01 0.  1.
</event>
<event>
 5   0  0.1072381E-07  0.3421028E+04  0.7818609E-02  0.8132765E-01
        1   -1    0    0  501    0  0.00000000000E+00  0.00000000000E+00  0.17014108929E+04  0.17014108929E+04  0.50400001928E-02 0.  1.
       -1   -1    0    0    0  501  0.00000000000E+00  0.00000000000E+00 -0.17196660670E+04  0.17196660670E+04  0.50400001928E-02 0. -1.
    10030    2    1    2    0    0  0.00000000000E+00  0.00000000000E+00 -0.18255174099E+02  0.34210769599E+04  0.34210282539E+04 0.  0.
        1    1    3    3  502    0 -0.56487472264E+03 -0.87831282036E+03 -0.13638947171E+04  0.17177676391E+04  0.50400001928E-02 0. -1.
       -1    1    3    3    0  502  0.56487472264E+03  0.87831282036E+03  0.13456395430E+04  0.17033093208E+04  0.50400001928E-02 0.  1.
</event>
<event>
 5   0  0.3190185E-07  0.3440554E+04  0.7818609E-02  0.8128024E-01
        2   -1    0    0  501    0  0.00000000000E+00  0.00000000000E+00  0.19486426588E+04  0.19486426588E+04  0.25500000920E-02 0.  1.
       -2   -1    0    0    0  501  0.00000000000E+00  0.00000000000E+00 -0.15186740501E+04  0.15186740501E+04  0.25500000920E-02 0. -1.
    10030    2    1    2    0    0  0.00000000000E+00  0.00000000000E+00  0.42996860867E+03  0.34673167089E+04  0.34405540477E+04 0.  0.
        1    1    3    3  502    0  0.34385070336E+03  0.13380615528E+03  0.19082969587E+04  0.19436395437E+04  0.50400001928E-02 0.  1.
       -1    1    3    3    0  502 -0.34385070336E+03 -0.13380615528E+03 -0.14783283500E+04  0.15236771652E+04  0.50400001928E-02 0. -1.
</event>
<event>
 5   0  0.1013863E-07  0.3496950E+04  0.7818609E-02  0.8114513E-01
       -1   -1    0    0    0  501  0.00000000000E+00  0.00000000000E+00  0.16932564253E+04  0.16932564253E+04  0.50400001928E-02 0.  1.
        1   -1    0    0  501    0  0.00000000000E+00  0.00000000000E+00 -0.18054941473E+04  0.18054941473E+04  0.50400001928E-02 0. -1.
    10030    2    1    2    0    0  0.00000000000E+00  0.00000000000E+00 -0.11223772199E+03  0.34987505726E+04  0.34969498514E+04 0.  0.
        2    1    3    3  502    0  0.12878382294E+04 -0.32943948011E+02 -0.12389086310E+04  0.17873184396E+04  0.25500000920E-02 0. -1.
       -2    1    3    3    0  502 -0.12878382294E+04  0.32943948011E+02  0.11266709090E+04  0.17114321330E+04  0.25500000920E-02 0.  1.
</event>
<event>
 5   0  0.1013863E-07  0.3492006E+04  0.7818609E-02  0.8115687E-01
       -3   -1    0    0    0  501  0.00000000000E+00  0.00000000000E+00  0.11807371921E+04  0.11807371964E+04  0.10100000352E+00 0. -1.
        3   -1    0    0  501    0  0.00000000000E+00  0.00000000000E+00 -0.25818836377E+04  0.25818836396E+04  0.10100000352E+00 0.  1.
    10030    2    1    2    0    0  0.00000000000E+00  0.00000000000E+00 -0.14011464456E+04  0.37626208360E+04  0.34920057551E+04 0.  0.
        4    1    3    3  502    0  0.77235611813E+01  0.13550963177E+04 -0.18868849917E+04  0.23230760359E+04  0.12699999809E+01 0.  1.
       -4    1    3    3    0  502 -0.77235611813E+01 -0.13550963177E+04  0.48573854616E+03  0.14395448002E+04  0.12699999809E+01 0. -1.
</event>
<event>
 5   0  0.1013863E-07  0.3494049E+04  0.7818609E-02  0.8115202E-01
       -1   -1    0    0    0  501  0.00000000000E+00  0.00000000000E+00  0.10592073902E+04  0.10592073902E+04  0.50400001928E-02 0.  1.
        1   -1    0    0  501    0  0.00000000000E+00  0.00000000000E+00 -0.28814887939E+04  0.28814887939E+04  0.50400001928E-02 0. -1.
    10030    2    1    2    0    0  0.00000000000E+00  0.00000000000E+00 -0.18222814038E+04  0.39406961841E+04  0.34940487834E+04 0.  0.
        2    1    3    3  502    0  0.10847428919E+04  0.12780993633E+03 -0.24489213649E+04  0.26814582549E+04  0.25500000920E-02 0. -1.
       -2    1    3    3    0  502 -0.10847428919E+04 -0.12780993633E+03  0.62663996113E+03  0.12592379292E+04  0.25500000920E-02 0.  1.
</event>
<event>
 5   0  0.3190112E-07  0.3501223E+04  0.7818609E-02  0.8113500E-01
        2   -1    0    0  501    0  0.00000000000E+00  0.00000000000E+00  0.17428440544E+04  0.17428440544E+04  0.25500000920E-02 0. -1.
       -2   -1    0    0    0  501  0.00000000000E+00  0.00000000000E+00 -0.17584136512E+04  0.17584136512E+04  0.25500000920E-02 0.  1.
    10030    2    1    2    0    0  0.00000000000E+00  0.00000000000E+00 -0.15569596731E+02  0.35012577056E+04  0.35012230876E+04 0.  0.
        5    1    3    3  502    0  0.11008524472E+04  0.82715772502E+03 -0.10887916359E+04  0.17554359370E+04  0.46999998093E+01 0.  1.
       -5    1    3    3    0  502 -0.11008524472E+04 -0.82715772502E+03  0.10732220391E+04  0.17458217686E+04  0.46999998093E+01 0. -1.
</event>
<event>
 5   0  0.2180451E-07  0.3484371E+04  0.7818609E-02  0.8117504E-01
        2   -1    0    0  501    0  0.00000000000E+00  0.00000000000E+00  0.13610929807E+04  0.13610929807E+04  0.25500000920E-02 0. -1.
       -2   -1    0    0    0  501  0.00000000000E+00  0.00000000000E+00 -0.22299797204E+04  0.22299797204E+04  0.25500000920E-02 0.  1.
    10030    2    1    2    0    0  0.00000000000E+00  0.00000000000E+00 -0.86888673965E+03  0.35910727011E+04  0.34843706718E+04 0.  0.
        4    1    3    3  502    0  0.71289725728E+03 -0.15077634769E+04 -0.95348761421E+03  0.19211229646E+04  0.12699999809E+01 0. -1.
       -4    1    3    3    0  502 -0.71289725728E+03  0.15077634769E+04  0.84600874558E+02  0.16699497365E+04  0.12699999809E+01 0.  1.
</event>
<event>
 5   0  0.1013863E-07  0.3503274E+04  0.7818609E-02  0.8113014E-01
       -1   -1    0    0    0  501  0.00000000000E+00  0.00000000000E+00  0.10694194906E+04  0.10694194906E+04  0.50400001928E-02 0. -1.
        1   -1    0    0  501    0  0.00000000000E+00  0.00000000000E+00 -0.28690636021E+04  0.28690636021E+04  0.50400001928E-02 0.  1.
    10030    2    1    2    0    0  0.00000000000E+00  0.00000000000E+00 -0.17996441115E+04  0.39384830927E+04  0.35032742034E+04 0.  0.
        2    1    3    3  502    0 -0.70023580001E+02 -0.14631339248E+04  0.18000481543E+03  0.14758271977E+04  0.25500000920E-02 0. -1.
       -2    1    3    3    0  502  0.70023580001E+02  0.14631339248E+04 -0.19796489269E+04  0.24626558951E+04  0.25500000920E-02 0.  1.
</event>
<event>
 5   0  0.1072381E-07  0.3517541E+04  0.7818609E-02  0.8109645E-01
        1   -1    0    0  501    0  0.00000000000E+00  0.00000000000E+00  0.19998205443E+04  0.19998205443E+04  0.50400001928E-02 0. -1.
       -1   -1    0    0    0  501  0.00000000000E+00  0.00000000000E+00 -0.15467760562E+04  0.15467760562E+04  0.50400001928E-02 0.  1.
    10030    2    1    2    0    0  0.00000000000E+00  0.00000000000E+00  0.45304448810E+03  0.35465966005E+04  0.35175414907E+04 0.  0.
        1    1    3    3  502    0  0.16733581812E+04 -0.51803626993E+03  0.67788179136E+02  0.17530215106E+04  0.50400001928E-02 0. -1.
       -1    1    3    3    0  502 -0.16733581812E+04  0.51803626993E+03  0.38525630897E+03  0.17935750899E+04  0.50400001928E-02 0.  1.
</event>
<event>
 5   0  0.1033796E-07  0.3566536E+04  0.7818609E-02  0.8098200E-01
       -1   -1    0    0    0  501  0.00000000000E+00  0.00000000000E+00  0.18619576779E+04  0.18619576780E+04  0.50400001928E-02 0. -1.
        1   -1    0    0  501    0  0.00000000000E+00  0.00000000000E+00 -0.17079042952E+04  0.17079042952E+04  0.50400001928E-02 0.  1.
    10030    2    1    2    0    0  0.00000000000E+00  0.00000000000E+00  0.15405338273E+03  0.35698619732E+04  0.35665364239E+04 0.  0.
        3    1    3    3  502    0 -0.18248012041E+03  0.23775746094E+03 -0.16825139924E+04  0.17089999852E+04  0.10100000352E+00 0.  1.
       -3    1    3    3    0  502  0.18248012041E+03 -0.23775746094E+03  0.18365673752E+04  0.18608619880E+04  0.10100000352E+00 0. -1.
</event>
<event>
 5   0  0.3219205E-07  0.3513064E+04  0.7818609E-02  0.8110701E-01
       -2   -1    0    0    0  501  0.00000000000E+00  0.00000000000E+00  0.10175506857E+04  0.10175506857E+04  0.25500000920E-02 0. -1.
        2   -1    0    0  501    0  0.00000000000E+00  0.00000000000E+00 -0.30321881907E+04  0.30321881907E+04  0.25500000920E-02 0.  1.
    10030    2    1    2    0    0  0.00000000000E+00  0.00000000000E+00 -0.20146375050E+04  0.40497388764E+04  0.35130642878E+04 0.  0.
        2    1    3    3  502    0  0.15460419026E+03  0.11893381018E+04 -0.24867158752E+04  0.27608302049E+04  0.25500000920E-02 0.  1.
       -2    1    3    3    0  502 -0.15460419026E+03 -0.11893381018E+04  0.47207837021E+03  0.12889086715E+04  0.25500000920E-02 0. -1.
</event>
<event>
 5   0  0.1072381E-07  0.3498306E+04  0.7818609E-02  0.8114191E-01
       -1   -1    0    0    0  501  0.00000000000E+00  0.00000000000E+00  0.14599961778E+04  0.14599961778E+04  0.50400001928E-02 0.  1.
        1   -1    0    0  501    0  0.00000000000E+00  0.00000000000E+00 -0.20955783974E+04  0.20955783974E+04  0.50400001928E-02 0. -1.
    10030    2    1    2    0    0  0.00000000000E+00  0.00000000000E+00 -0.63558221966E+03  0.35555745752E+04  0.34983061332E+04 0.  0.
        1    1    3    3  502    0 -0.37599983758E+03  0.97453531162E+03 -0.17437704608E+04  0.20326904269E+04  0.50400001928E-02 0. -1.
       -1    1    3    3    0  502  0.37599983758E+03 -0.97453531162E+03  0.11081882411E+04  0.15228841483E+04  0.50400001928E-02 0.  1.
</event>
<event>
 5   0  0.3190112E-07  0.3560427E+04  0.7818609E-02  0.8099617E-01
       -2   -1    0    0    0  501  0.00000000000E+00  0.00000000000E+00  0.18241778830E+04  0.18241778830E+04  0.25500000920E-02 0.  1.
        2   -1    0    0  501    0  0.00000000000E+00  0.00000000000E+00 -0.17373082255E+04  0.17373082255E+04  0.25500000920E-02 0. -1.
    10030    2    1    2    0    0  0.00000000000E+00  0.00000000000E+00  0.86869657454E+02  0.35614861086E+04  0.35604265143E+04 0.  0.
        5    1    3    3  502    0  0.91973208435E+03  0.10549021755E+04  0.11439492520E+04  0.18075861496E+04  0.46999998093E+01 0.  1.
       -5    1    3    3    0  502 -0.91973208435E+03 -0.10549021755E+04 -0.10570795946E+04  0.17538999590E+04  0.46999998093E+01 0. -1.
</event>
<event>
 5   0  0.1072381E-07  0.3485763E+04  0.7818609E-02  0.8117172E-01
        1   -1    0    0  501    0  0.00000000000E+00  0.00000000000E+00  0.19537241829E+04  0.19537241829E+04  0.50400001928E-02 0.  1.
       -1   -1    0    0    0  501  0.00000000000E+00  0.00000000000E+00 -0.15547928790E+04  0.15547928790E+04  0.50400001928E-02 0. -1.
    10030    2    1    2    0    0  0.00000000000E+00  0.00000000000E+00  0.39893130395E+03  0.35085170619E+04  0.34857633007E+04 0.  0.
        1    1    3    3  502    0 -0.93101334015E+03  0.58147313782E+03 -0.11631584964E+04  0.15993231498E+04  0.50400001928E-02 0. -1.
       -1    1    3    3    0  502  0.93101334015E+03 -0.58147313782E+03  0.15620898004E+04  0.19091939121E+04  0.50400001928E-02 0.  1.
</event>
<event>
 5   0  0.3219205E-07  0.3493971E+04  0.7818609E-02  0.8115220E-01
       -2   -1    0    0    0  501  0.00000000000E+00  0.00000000000E+00  0.10997226561E+04  0.10997226561E+04  0.25500000920E-02 0.  1.
        2   -1    0    0  501    0  0.00000000000E+00  0.00000000000E+00 -0.27752078423E+04  0.27752078423E+04  0.25500000920E-02 0. -1.
    10030    2    1    2    0    0  0.00000000000E+00  0.00000000000E+00 -0.16754851862E+04  0.38749304983E+04  0.34939713447E+04 0.  0.
        2    1    3    3  502    0 -0.10080655610E+04  0.13046959324E+04 -0.14782333531E+04  0.22144077081E+04  0.25500000920E-02 0. -1.
       -2    1    3    3    0  502  0.10080655610E+04 -0.13046959324E+04 -0.19725183303E+03  0.16605227902E+04  0.25500000920E-02 0.  1.
</event>
<event>
 5   0  0.1013863E-07  0.3504998E+04  0.7818609E-02  0.8112606E-01
        1   -1    0    0  501    0  0.00000000000E+00  0.00000000000E+00  0.13053357792E+04  0.13053357792E+04  0.50400001928E-02 0.  1.
       -1   -1    0    0    0  501  0.00000000000E+00  0.00000000000E+00 -0.23528450343E+04  0.23528450343E+04  0.50400001928E-02 0. -1.
    10030    2    1    2    0    0  0.00000000000E+00  0.00000000000E+00 -0.10475092550E+04  0.36581808135E+04  0.35049980350E+04 0.  0.
        5    1    3    3  502    0 -0.61268963769E+03 -0.14127570297E+03  0.11835498267E+04  0.13402088265E+04  0.46999998093E+01 0.  1.
       -5    1    3    3    0  502  0.61268963769E+03  0.14127570297E+03 -0.22310590817E+04  0.23179719870E+04  0.46999998093E+01 0. -1.
</event>
<event>
 5   0  0.3119048E-07  0.3516019E+04  0.7818609E-02  0.8110004E-01
       -2   -1    0    0    0  501  0.00000000000E+00  0.00000000000E+00  0.10368371609E+04  0.10368371609E+04  0.25500000920E-02 0. -1.
        2   -1    0    0  501    0  0.00000000000E+00  0.00000000000E+00 -0.29807936718E+04  0.29807936718E+04  0.25500000920E-02 0.  1.
    10030    2    1    2    0    0  0.00000000000E+00  0.00000000000E+00 -0.19439565109E+04  0.40176308327E+04  0.35160191398E+04 0.  0.
        3    1    3    3  502    0  0.17210954066E+04 -0.16344224645E+03 -0.13364056568E+04  0.21851459577E+04  0.10100000352E+00 0. -1.
       -3    1    3    3    0  502 -0.17210954066E+04  0.16344224645E+03 -0.60755085406E+03  0.18324848750E+04  0.10100000352E+00 0.  1.
</event>
<event>
 5   0  0.1072381E-07  0.3521321E+04  0.7818609E-02  0.8108756E-01
        1   -1    0    0  501    0  0.00000000000E+00  0.00000000000E+00  0.10407869865E+04  0.10407869865E+04  0.50400001928E-02 0. -1.
       -1   -1    0    0    0  501  0.00000000000E+00  0.00000000000E+00 -0.29784441591E+04  0.29784441591E+04  0.50400001928E-02 0.  1.
    10030    2    1    2    0    0  0.00000000000E+00  0.00000000000E+00 -0.19376571726E+04  0.40192311456E+04  0.35213212979E+04 0.  0.
        1    1    3    3  502    0 -0.31398538785E+03 -0.11570081015E+04 -0.24406005864E+04  0.27191516679E+04  0.50400001928E-02 0.  1.
       -1    1    3    3    0  502  0.31398538785E+03  0.11570081015E+04  0.50294341376E+03  0.13000794777E+04  0.50400001928E-02 0. -1.
</event>
<event>
 5   0  0.1013863E-07  0.3502321E+04  0.7818609E-02  0.8113240E-01
        1   -1    0    0  501    0  0.00000000000E+00  0.00000000000E+00  0.19823321233E+04  0.19823321233E+04  0.50400001928E-02 0. -1.
       -1   -1    0    0    0  501  0.00000000000E+00  0.00000000000E+00 -0.15469474765E+04  0.15469474765E+04  0.50400001928E-02 0.  1.
    10030    2    1    2    0    0  0.00000000000E+00  0.00000000000E+00  0.43538464674E+03  0.35292795998E+04  0.35023213306E+04 0.  0.
        2    1    3    3  502    0 -0.36282073817E+03 -0.15947608274E+04 -0.41295445039E+03  0.16868409418E+04  0.25500000920E-02 0.  1.
       -2    1    3    3    0  502  0.36282073817E+03  0.15947608274E+04  0.84833909713E+03  0.18424386580E+04  0.25500000920E-02 0. -1.
</event>
<event>
 5   0  0.3119048E-07  0.3515106E+04  0.7818609E-02  0.8110219E-01
       -2   -1    0    0    0  501  0.00000000000E+00  0.00000000000E+00  0.13450614056E+04  0.13450614056E+04  0.25500000920E-02 0.  1.
        2   -1    0    0  501    0  0.00000000000E+00  0.00000000000E+00 -0.22965443543E+04  0.22965443543E+04  0.25500000920E-02 0. -1.
    10030    2    1    2    0    0  0.00000000000E+00  0.00000000000E+00 -0.95148294877E+03  0.36416057599E+04  0.35151063581E+04 0.  0.
        3    1    3    3  502    0  0.17131671290E+04  0.39051147234E+03 -0.51655917987E+03  0.18314677771E+04  0.10100000352E+00 0. -1.
       -3    1    3    3    0  502 -0.17131671290E+04 -0.39051147234E+03 -0.43492376890E+03  0.18101379828E+04  0.10100000352E+00 0.  1.
</event>
<event>
 5   0  0.1033796E-07  0.3512885E+04  0.7818609E-02  0.8110743E-01
        1   -1    0    0  501    0  0.00000000000E+00  0.00000000000E+00  0.15760206527E+04  0.15760206527E+04  0.50400001928E-02 0. -1.
       -1   -1    0    0    0  501  0.00000000000E+00  0.00000000000E+00 -0.19575188806E+04  0.19575188806E+04  0.50400001928E-02 0.  1.
    10030    2    1    2    0    0  0.00000000000E+00  0.00000000000E+00 -0.38149822791E+03  0.35335395334E+04  0.35128849591E+04 0.  0.
        3    1    3    3  502    0  0.12495246803E+04  0.10891156049E+04 -0.77520367069E+03  0.18298703421E+04  0.10100000352E+00 0.  1.
       -3    1    3    3    0  502 -0.12495246803E+04 -0.10891156049E+04  0.39370544278E+03  0.17036691913E+04  0.10100000352E+00 0. -1.
</event>
<event>
 5   0  0.2180451E-07  0.3506932E+04  0.7818609E-02  0.8112149E-01
        2   -1    0    0  501    0  0.00000000000E+00  0.00000000000E+00  0.23511573074E+04  0.23511573074E+04  0.25500000920E-02 0.  1.
       -2   -1    0    0    0  501  0.00000000000E+00  0.00000000000E+00 -0.13077147700E+04  0.13077147700E+04  0.25500000920E-02 0. -1.
    10030    2    1    2    0    0  0.00000000000E+00  0.00000000000E+00  0.10434425375E+04  0.36588720774E+04  0.35069320709E+04 0.  0.
        4    1    3    3  502    0 -0.17405316372E+04  0.20782585247E+03  0.56837507031E+03  0.18427408387E+04  0.12699999809E+01 0.  1.
       -4    1    3    3    0  502  0.17405316372E+04 -0.20782585247E+03  0.47506746715E+03  0.18161312387E+04  0.12699999809E+01 0. -1.
</event>
<event>
 5   0  0.1072381E-07  0.3492895E+04  0.7818609E-02  0.8115476E-01
        1   -1    0    0  501    0  0.00000000000E+00  0.00000000000E+00  0.13915514557E+04  0.13915514557E+04  0.50400001928E-02 0. -1.
       -1   -1    0    0    0  501  0.00000000000E+00  0.00000000000E+00 -0.21918552536E+04  0.21918552537E+04  0.50400001928E-02 0.  1.
    10030    2    1    2    0    0  0.00000000000E+00  0.00000000000E+00 -0.80030379799E+03  0.35834067093E+04  0.34928952855E+04 0.  0.
        1    1    3    3  502    0 -0.55114400871E+02  0.96972044490E+02 -0.21881973699E+04  0.21910383164E+04  0.50400001928E-02 0.  1.
       -1    1    3    3    0  502  0.55114400871E+02 -0.96972044490E+02  0.13878935719E+04  0.13923683929E+04  0.50400001928E-02 0. -1.
</event>
<event>
 5   0  0.3219205E-07  0.3501978E+04  0.7818609E-02  0.8113321E-01
       -2   -1    0    0    0  501  0.00000000000E+00  0.00000000000E+00  0.21129739421E+04  0.21129739421E+04  0.25500000920E-02 0. -1.
        2   -1    0    0  501    0  0.00000000000E+00  0.00000000000E+00 -0.14510172707E+04  0.14510172707E+04  0.25500000920E-02 0.  1.
    10030    2    1    2    0    0  0.00000000000E+00  0.00000000000E+00  0.66195667142E+03  0.35639912128E+04  0.35019775456E+04 0.  0.
        2    1    3    3  502    0 -0.32420785378E+02 -0.17005623176E+04  0.75427445269E+03  0.18606163638E+04  0.25500000920E-02 0. -1.
       -2    1    3    3    0  502  0.32420785378E+02  0.17005623176E+04 -0.92317781277E+02  0.17033748489E+04  0.25500000920E-02 0.  1.
</event>
<event>
 5   0  0.1072381E-07  0.3524773E+04  0.7818609E-02  0.8107944E-01
        1   -1    0    0  501    0  0.00000000000E+00  0.00000000000E+00  0.19836771354E+04  0.19836771354E+04  0.50400001928E-02 0.  1.
       -1   -1    0    0    0  501  0.00000000000E+00  0.00000000000E+00 -0.15657820101E+04  0.15657820101E+04  0.50400001928E-02 0. -1.
    10030    2    1    2    0    0  0.00000000000E+00  0.00000000000E+00  0.41789512534E+03  0.35494591455E+04  0.35247728848E+04 0.  0.
        1    1    3    3  502    0  0.61826350882E+03  0.92550057883E+03  0.15849747994E+04  0.19367359661E+04  0.50400001928E-02 0.  1.
       -1    1    3    3    0  502 -0.61826350882E+03 -0.92550057883E+03 -0.11670796740E+04  0.16127231794E+04  0.50400001928E-02 0. -1.
</event>
<event>
 5   0  0.2180451E-07  0.3503084E+04  0.7818609E-02  0.8113059E-01
       -2   -1    0    0    0  501  0.00000000000E+00  0.00000000000E+00  0.12115902069E+04  0.12115902069E+04  0.25500000920E-02 0. -1.
        2   -1    0    0  501    0  0.00000000000E+00  0.00000000000E+00 -0.25321265748E+04  0.25321265748E+04  0.25500000920E-02 0.  1.
    10030    2    1    2    0    0  0.00000000000E+00  0.00000000000E+00 -0.13205363679E+04  0.37437167817E+04  0.35030842186E+04 0.  0.
        4    1    3    3  502    0  0.37769024358E+02 -0.15986746194E+04 -0.14239985535E+04  0.21412520942E+04  0.12699999809E+01 0.  1.
       -4    1    3    3    0  502 -0.37769024358E+02  0.15986746194E+04  0.10346218564E+03  0.16024646875E+04  0.12699999809E+01 0. -1.
</event>
<event>
 5   0  0.3190185E-07  0.3494507E+04  0.7818609E-02  0.8115093E-01
       -2   -1    0    0    0  501  0.00000000000E+00  0.00000000000E+00  0.13041188195E+04  0.13041188196E+04  0.25500000920E-02 0. -1.
        2   -1    0    0  501    0  0.00000000000E+00  0.00000000000E+00 -0.23409631263E+04  0.23409631263E+04  0.25500000920E-02 0.  1.
    10030    2    1    2    0    0  0.00000000000E+00  0.00000000000E+00 -0.10368443068E+04  0.36450819459E+04  0.34945065854E+04 0.  0.
        1    1    3    3  502    0 -0.13082700901E+04  0.97356579592E+03  0.13589752731E+03  0.16364196056E+04  0.50400001928E-02 0. -1.
       -1    1    3    3    0  502  0.13082700901E+04 -0.97356579592E+03 -0.11727418341E+04  0.20086623402E+04  0.50400001928E-02 0.  1.
</event>
<event>
 5   0  0.1033796E-07  0.3507049E+04  0.7818609E-02  0.8112121E-01
       -1   -1    0    0    0  501  0.00000000000E+00  0.00000000000E+00  0.13151796590E+04  0.13151796590E+04  0.50400001928E-02 0.  1.
        1   -1    0    0  501    0  0.00000000000E+00  0.00000000000E+00 -0.23379683264E+04  0.23379683264E+04  0.50400001928E-02 0. -1.
    10030    2    1    2    0    0  0.00000000000E+00  0.00000000000E+00 -0.10227886674E+04  0.36531479854E+04  0.35070491221E+04 0.  0.
        3    1    3    3  502    0 -0.11734158431E+04  0.11949906149E+04  0.29808292588E+02  0.16750510007E+04  0.10100000352E+00 0.  1.
       -3    1    3    3    0  502  0.11734158431E+04 -0.11949906149E+04 -0.10525969600E+04  0.19780969847E+04  0.10100000352E+00 0. -1.
</event>
<event>
 5   0  0.1013863E-07  0.3529718E+04  0.7818609E-02  0.8106783E-01
        1   -1    0    0  501    0  0.00000000000E+00  0.00000000000E+00  0.12124462656E+04  0.12124462656E+04  0.50400001928E-02 0.  1.
       -1   -1    0    0    0  501  0.00000000000E+00  0.00000000000E+00 -0.25689607811E+04  0.25689607811E+04  0.50400001928E-02 0. -1.
    10030    2    1    2    0    0  0.00000000000E+00  0.00000000000E+00 -0.13565145155E+04  0.37814070467E+04  0.35297177822E+04 0.  0.
        5    1    3    3  502    0  0.68729309299E+03 -0.42773801799E+03  0.10018061200E+04  0.12880097824E+04  0.46999998093E+01 0.  1.
       -5    1    3    3    0  502 -0.68729309299E+03  0.42773801799E+03 -0.23583206355E+04  0.24933972643E+04  0.46999998093E+01 0. -1.
</event>
<event>
 5   0  0.1033796E-07  0.3503509E+04  0.7818609E-02  0.8112959E-01
       -1   -1    0    0    0  501  0.00000000000E+00  0.00000000000E+00  0.13457755757E+04  0.13457755757E+04  0.50400001928E-02 0. -1.
        1   -1    0    0  501    0  0.00000000000E+00  0.00000000000E+00 -0.22802045341E+04  0.22802045341E+04  0.50400001928E-02 0.  1.
    10030    2    1    2    0    0  0.00000000000E+00  0.00000000000E+00 -0.93442895846E+03  0.36259801098E+04  0.35035088523E+04 0.  0.
        3    1    3    3  502    0  0.65890798004E+03  0.78044791681E+03  0.10056947393E+04  0.14334157094E+04  0.10100000352E+00 0. -1.
       -3    1    3    3    0  502 -0.65890798004E+03 -0.78044791681E+03 -0.19401236978E+04  0.21925644004E+04  0.10100000352E+00 0.  1.
</event>
<event>
 5   0  0.1013863E-07  0.3540620E+04  0.7818609E-02  0.8104231E-01
        1   -1    0    0  501    0  0.00000000000E+00  0.00000000000E+00  0.24798340360E+04  0.24798340360E+04  0.50400001928E-02 0. -1.
       -1   -1    0    0    0  501  0.00000000000E+00  0.00000000000E+00 -0.12637929499E+04  0.12637929499E+04  0.50400001928E-02 0.  1.
    10030    2    1    2    0    0  0.00000000000E+00  0.00000000000E+00  0.12160410861E+04  0.37436269860E+04  0.35406195908E+04 0.  0.
        5    1    3    3  502    0 -0.11293894655E+04  0.85802249121E+03  0.17281246835E+04  0.22356565416E+04  0.46999998093E+01 0. -1.
       -5    1    3    3    0  502  0.11293894655E+04 -0.85802249121E+03 -0.51208359741E+03  0.15079704444E+04  0.46999998093E+01 0.  1.
</event>
<event>
 5   0  0.3219205E-07  0.3492919E+04  0.7818609E-02  0.8115470E-01
       -2   -1    0    0    0  501  0.00000000000E+00  0.00000000000E+00  0.11982303584E+04  0.11982303584E+04  0.25500000920E-02 0. -1.
        2   -1    0    0  501    0  0.00000000000E+00  0.00000000000E+00 -0.25455205174E+04  0.25455205174E+04  0.25500000920E-02 0.  1.
    10030    2    1    2    0    0  0.00000000000E+00  0.00000000000E+00 -0.13472901590E+04  0.37437508757E+04  0.34929185285E+04 0.  0.
        2    1    3    3  502    0  0.10821780292E+04  0.13018984489E+04 -0.21380026497E+03  0.17063878256E+04  0.25500000920E-02 0.  1.
       -2    1    3    3    0  502 -0.10821780292E+04 -0.13018984489E+04 -0.11334898941E+04  0.20373630501E+04  0.25500000920E-02 0. -1.
</event>
<event>
 5   0  0.1072381E-07  0.3451382E+04  0.7818609E-02  0.8125409E-01
        1   -1    0    0  501    0  0.00000000000E+00  0.00000000000E+00  0.22624386579E+04  0.22624386579E+04  0.50400001928E-02 0. -1.
       -1   -1    0    0    0  501  0.00000000000E+00  0.00000000000E+00 -0.13162828739E+04  0.13162828739E+04  0.50400001928E-02 0.  1.
    10030    2    1    2    0    0  0.00000000000E+00  0.00000000000E+00  0.94615578399E+03  0.35787215319E+04  0.34513819022E+04 0.  0.
        1    1    3    3  502    0 -0.69712326260E+03  0.21343235809E+03 -0.11487519371E+04  0.13605753296E+04  0.50400001928E-02 0.  1.
       -1    1    3    3    0  502  0.69712326260E+03 -0.21343235809E+03  0.20949077210E+04  0.22181462022E+04  0.50400001928E-02 0. -1.
</event>
<event>
 5   0  0.3190185E-07  0.3505502E+04  0.7818609E-02  0.8112487E-01
        2   -1    0    0  501    0  0.00000000000E+00  0.00000000000E+00  0.29916954690E+04  0.29916954690E+04  0.25500000920E-02 0.  1.
       -2   -1    0    0    0  501  0.00000000000E+00  0.00000000000E+00 -0.10268879195E+04  0.10268879195E+04  0.25500000920E-02 0. -1.
    10030    2    1    2    0    0  0.00000000000E+00  0.00000000000E+00  0.19648075496E+04  0.40185833885E+04  0.35055019247E+04 0.  0.
        1    1    3    3  502    0 -0.16932368688E+04  0.19643262084E+03  0.14501698027E+04  0.22379967214E+04  0.50400001928E-02 0. -1.
       -1    1    3    3    0  502  0.16932368688E+04 -0.19643262084E+03  0.51463774690E+03  0.17805866671E+04  0.50400001928E-02 0.  1.
</event>
<event>
 5   0  0.2180451E-07  0.3506399E+04  0.7818609E-02  0.8112275E-01
       -2   -1    0    0    0  501  0.00000000000E+00  0.00000000000E+00  0.95854245734E+03  0.95854245734E+03  0.25500000920E-02 0.  1.
        2   -1    0    0  501    0  0.00000000000E+00  0.00000000000E+00 -0.32066479338E+04  0.32066479338E+04  0.25500000920E-02 0. -1.
    10030    2    1    2    0    0  0.00000000000E+00  0.00000000000E+00 -0.22481054765E+04  0.41651903912E+04  0.35063988309E+04 0.  0.
        4    1    3    3  502    0  0.54556658331E+03  0.45983331993E+03  0.77827264663E+03  0.10558406624E+04  0.12699999809E+01 0.  1.
       -4    1    3    3    0  502 -0.54556658331E+03 -0.45983331993E+03 -0.30263781231E+04  0.31093497288E+04  0.12699999809E+01 0. -1.
</event>
<event>
 5   0  0.1033796E-07  0.3510522E+04  0.7818609E-02  0.8111301E-01
        1   -1    0    0  501    0  0.00000000000E+00  0.00000000000E+00  0.20603521634E+04  0.20603521634E+04  0.50400001928E-02 0.  1.
       -1   -1    0    0    0  501  0.00000000000E+00  0.00000000000E+00 -0.14953464990E+04  0.14953464990E+04  0.50400001928E-02 0. -1.
    10030    2    1    2    0    0  0.00000000000E+00  0.00000000000E+00  0.56500566443E+03  0.35556986624E+04  0.35105215534E+04 0.  0.
        3    1    3    3  502    0  0.17244965103E+04 -0.46506680785E+02  0.61053685918E+03  0.18299744129E+04  0.10100000352E+00 0.  1.
       -3    1    3    3    0  502 -0.17244965103E+04  0.46506680785E+02 -0.45531194746E+02  0.17257242495E+04  0.10100000352E+00 0. -1.
</event>
<event>
 5   0  0.3190185E-07  0.3523220E+04  0.7818609E-02  0.8108309E-01
       -2   -1    0    0    0  501  0.00000000000E+00  0.00000000000E+00  0.12067850379E+04  0.12067850379E+04  0.25500000920E-02 0.  1.
        2   -1    0    0  501    0  0.00000000000E+00  0.00000000000E+00 -0.25715186899E+04  0.25715186899E+04  0.25500000920E-02 0. -1.
    10030    2    1    2    0    0  0.00000000000E+00  0.00000000000E+00 -0.13647336520E+04  0.37783037278E+04  0.35232202768E+04 0.  0.
        1    1    3    3  502    0  0.92859671648E+03  0.10423656508E+03  0.91910948846E+03  0.13106942340E+04  0.50400001928E-02 0.  1.
       -1    1    3    3    0  502 -0.92859671648E+03 -0.10423656508E+03 -0.22838431405E+04  0.24676094938E+04  0.50400001928E-02 0. -1.
</event>
<event>
 5   0  0.3190185E-07  0.3499074E+04  0.7818609E-02  0.8114010E-01
        2   -1    0    0  501    0  0.00000000000E+00  0.00000000000E+00  0.19391086679E+04  0.19391086679E+04  0.25500000920E-02 0.  1.
       -2   -1    0    0    0  501  0.00000000000E+00  0.00000000000E+00 -0.15784978423E+04  0.15784978423E+04  0.25500000920E-02 0. -1.
    10030    2    1    2    0    0  0.00000000000E+00  0.00000000000E+00  0.36061082566E+03  0.35176065102E+04  0.34990735050E+04 0.  0.
        1    1    3    3  502    0 -0.17331276670E+04  0.23882806893E+03  0.16983430495E+03  0.17577297994E+04  0.50400001928E-02 0. -1.
       -1    1    3    3    0  502  0.17331276670E+04 -0.23882806893E+03  0.19077652071E+03  0.17598767108E+04  0.50400001928E-02 0.  1.
</event>
<event>
 5   0  0.1013863E-07  0.3418759E+04  0.7818609E-02  0.8133318E-01
       -1   -1    0    0    0  501  0.00000000000E+00  0.00000000000E+00  0.17833868270E+04  0.17833868270E+04  0.50400001928E-02 0.  1.
        1   -1    0    0  501    0  0.00000000000E+00  0.00000000000E+00 -0.16384429597E+04  0.16384429597E+04  0.50400001928E-02 0. -1.
    10030    2    1    2    0    0  0.00000000000E+00  0.00000000000E+00  0.14494386726E+03  0.34218297867E+04  0.34187585999E+04 0.  0.
        2    1    3    3  502    0  0.33089020864E+03 -0.68851148345E+03 -0.14580980541E+04  0.16460821147E+04  0.25500000920E-02 0. -1.
       -2    1    3    3    0  502 -0.33089020864E+03  0.68851148345E+03  0.16030419213E+04  0.17757476720E+04  0.25500000920E-02 0.  1.
</event>
<event>
 5   0  0.1033796E-07  0.3502537E+04  0.7818609E-02  0.8113189E-01
        1   -1    0    0  501    0  0.00000000000E+00  0.00000000000E+00  0.16124603177E+04  0.16124603177E+04  0.50400001928E-02 0.  1.
       -1   -1    0    0    0  501  0.00000000000E+00  0.00000000000E+00 -0.19020263519E+04  0.19020263520E+04  0.50400001928E-02 0. -1.
    10030    2    1    2    0    0  0.00000000000E+00  0.00000000000E+00 -0.28956603424E+03  0.35144866697E+04  0.35025373750E+04 0.  0.
        3    1    3    3  502    0 -0.17056284682E+04  0.38155214890E+03 -0.25557479790E+03  0.17663717054E+04  0.10100000352E+00 0.  1.
       -3    1    3    3    0  502  0.17056284682E+04 -0.38155214890E+03 -0.33991236340E+02  0.17481149643E+04  0.10100000352E+00 0. -1.
</event>
<event>
 5   0  0.1098171E-07  0.3498009E+04  0.7818609E-02  0.8114262E-01
        1   -1    0    0  501    0  0.00000000000E+00  0.00000000000E+00  0.27184202685E+04  0.27184202685E+04  0.50400001928E-02 0. -1.
       -1   -1    0    0    0  501  0.00000000000E+00  0.00000000000E+00 -0.11252918860E+04  0.11252918860E+04  0.50400001928E-02 0.  1.
    10030    2    1    2    0    0  0.00000000000E+00  0.00000000000E+00  0.15931283825E+04  0.38437121545E+04  0.34980087312E+04 0.  0.
        4    1    3    3  502    0  0.14263193144E+04  0.83579508916E+03  0.16910086616E+03  0.16617872708E+04  0.12699999809E+01 0. -1.
       -4    1    3    3    0  502 -0.14263193144E+04 -0.83579508916E+03  0.14240275164E+04  0.21819248837E+04  0.12699999809E+01 0.  1.
</event>
<event>
 5   0  0.3119048E-07  0.3530487E+04  0.7818609E-02  0.8106603E-01
       -2   -1    0    0    0  501  0.00000000000E+00  0.00000000000E+00  0.15970825309E+04  0.15970825309E+04  0.25500000920E-02 0. -1.
        2   -1    0    0  501    0  0.00000000000E+00  0.00000000000E+00 -0.19511104608E+04  0.19511104608E+04  0.25500000920E-02 0.  1.
    10030    2    1    2    0    0  0.00000000000E+00  0.00000000000E+00 -0.35402792987E+03  0.35481929917E+04  0.35304868972E+04 0.  0.
        3    1    3    3  502    0  0.12453074100E+04 -0.97557184494E+03 -0.96423888208E+03  0.18526434093E+04  0.10100000352E+00 0. -1.
       -3    1    3    3    0  502 -0.12453074100E+04  0.97557184494E+03  0.61021095221E+03  0.16955495824E+04  0.10100000352E+00 0.  1.
</event>
<event>
 5   0  0.3119048E-07  0.3499778E+04  0.7818609E-02  0.8113843E-01
        2   -1    0    0  501    0  0.00000000000E+00  0.00000000000E+00  0.19784725556E+04  0.19784725556E+04  0.25500000920E-02 0.  1.
       -2   -1    0    0    0  501  0.00000000000E+00  0.00000000000E+00 -0.15477146799E+04  0.15477146799E+04  0.25500000920E-02 0. -1.
    10030    2    1    2    0    0  0.00000000000E+00  0.00000000000E+00  0.43075787569E+03  0.35261872356E+04  0.34997777176E+04 0.  0.
        3    1    3    3  502    0  0.13916295824E+04 -0.62584503145E+03 -0.64770415630E+03  0.16576596702E+04  0.10100000352E+00 0.  1.
       -3    1    3    3    0  502 -0.13916295824E+04  0.62584503145E+03  0.10784620320E+04  0.18685275654E+04  0.10100000352E+00 0. -1.
</event>
<event>
 5   0  0.2180451E-07  0.3499547E+04  0.7818609E-02  0.8113897E-01
       -2   -1    0    0    0  501  0.00000000000E+00  0.00000000000E+00  0.14206190087E+04  0.14206190087E+04  0.25500000920E-02 0.  1.
        2   -1    0    0  501    0  0.00000000000E+00  0.00000000000E+00 -0.21551927480E+04  0.21551927480E+04  0.25500000920E-02 0. -1.
    10030    2    1    2    0    0  0.00000000000E+00  0.00000000000E+00 -0.73457373931E+03  0.35758117568E+04  0.34995472766E+04 0.  0.
        4    1    3    3  502    0 -0.14092020109E+04 -0.75032135350E+03  0.36447202636E+03  0.16375817268E+04  0.12699999809E+01 0.  1.
       -4    1    3    3    0  502  0.14092020109E+04  0.75032135350E+03 -0.10990457657E+04  0.19382300300E+04  0.12699999809E+01 0. -1.
</event>
<event>
 5   0  0.3119048E-07  0.3497629E+04  0.7818609E-02  0.8114352E-01
       -2   -1    0    0    0  501  0.00000000000E+00  0.00000000000E+00  0.15486934280E+04  0.15486934280E+04  0.25500000920E-02 0.  1.
        2   -1    0    0  501    0  0.00000000000E+00  0.00000000000E+00 -0.19747955070E+04  0.19747955070E+04  0.25500000920E-02 0. -1.
    10030    2    1    2    0    0  0.00000000000E+00  0.00000000000E+00 -0.42610207897E+03  0.35234889350E+04  0.34976293819E+04 0.  0.
        3    1    3    3  502    0  0.46269115376E+03 -0.60817729464E+03  0.13715984207E+04  0.15701098571E+04  0.10100000352E+00 0.  1.
       -3    1    3    3    0  502 -0.46269115376E+03  0.60817729464E+03 -0.17977004996E+04  0.19533790779E+04  0.10100000352E+00 0. -1.
</event>
<event>
 5   0  0.1013863E-07  0.3448629E+04  0.7818609E-02  0.8126073E-01
        1   -1    0    0  501    0  0.00000000000E+00  0.00000000000E+00  0.15617504541E+04  0.15617504541E+04  0.50400001928E-02 0.  1.
       -1   -1    0    0    0  501  0.00000000000E+00  0.00000000000E+00 -0.19038005084E+04  0.19038005084E+04  0.50400001928E-02 0. -1.
    10030    2    1    2    0    0  0.00000000000E+00  0.00000000000E+00 -0.34205005436E+03  0.34655509625E+04  0.34486294718E+04 0.  0.
        5    1    3    3  502    0  0.40312270947E+03 -0.16218593212E+04  0.25568024012E+03  0.16906596499E+04  0.46999998093E+01 0.  1.
       -5    1    3    3    0  502 -0.40312270947E+03  0.16218593212E+04 -0.59773029449E+03  0.17748913126E+04  0.46999998093E+01 0. -1.
</event>
<event>
 5   0  0.1098171E-07  0.3497277E+04  0.7818609E-02  0.8114435E-01
       -1   -1    0    0    0  501  0.00000000000E+00  0.00000000000E+00  0.20701954939E+04  0.20701954939E+04  0.50400001928E-02 0. -1.
        1   -1    0    0  501    0  0.00000000000E+00  0.00000000000E+00 -0.14770283527E+04  0.14770283527E+04  0.50400001928E-02 0.  1.
    10030    2    1    2    0    0  0.00000000000E+00  0.00000000000E+00  0.59316714113E+03  0.35472238466E+04  0.34972774784E+04 0.  0.
        4    1    3    3  502    0 -0.10494559504E+04 -0.79492472409E+03  0.14638769243E+04  0.19688068395E+04  0.12699999809E+01 0. -1.
       -4    1    3    3    0  502  0.10494559504E+04  0.79492472409E+03 -0.87070978318E+03  0.15784170071E+04  0.12699999809E+01 0.  1.
</event>
<event>
 5   0  0.1013863E-07  0.3496419E+04  0.7818609E-02  0.8114639E-01
       -1   -1    0    0    0  501  0.00000000000E+00  0.00000000000E+00  0.12932659615E+04  0.12932659615E+04  0.50400001928E-02 0. -1.
        1   -1    0    0  501    0  0.00000000000E+00  0.00000000000E+00 -0.23631931742E+04  0.23631931742E+04  0.50400001928E-02 0.  1.
    10030    2    1    2    0    0  0.00000000000E+00  0.00000000000E+00 -0.10699272128E+04  0.36564591357E+04  0.34964194786E+04 0.  0.
        5    1    3    3  502    0 -0.58944944744E+03 -0.14758628874E+02 -0.22560606550E+04  0.23318448141E+04  0.46999998093E+01 0.  1.
       -5    1    3    3    0  502  0.58944944744E+03  0.14758628874E+02  0.11861334422E+04  0.13246143216E+04  0.46999998093E+01 0. -1.
</event>
<event>
 5   0  0.1098171E-07  0.3509240E+04  0.7818609E-02  0.8111604E-01
        1   -1    0    0  501    0  0.00000000000E+00  0.00000000000E+00  0.16364854801E+04  0.16364854801E+04  0.50400001928E-02 0. -1.
       -1   -1    0    0    0  501  0.00000000000E+00  0.00000000000E+00 -0.18812820425E+04  0.18812820426E+04  0.50400001928E-02 0.  1.
    10030    2    1    2    0    0  0.00000000000E+00  0.00000000000E+00 -0.24479656244E+03  0.35177675227E+04  0.35092396593E+04 0.  0.
        4    1    3    3  502    0  0.74194805598E+03 -0.42970443894E+03 -0.16569862987E+04  0.18656736129E+04  0.12699999809E+01 0.  1.
       -4    1    3    3    0  502 -0.74194805598E+03  0.42970443894E+03  0.14121897363E+04  0.16520939098E+04  0.12699999809E+01 0. -1.
</event>
<event>
 5   0  0.3119048E-07  0.3509164E+04  0.7818609E-02  0.8111622E-01
       -2   -1    0    0    0  501  0.00000000000E+00  0.00000000000E+00  0.15740974022E+04  0.15740974022E+04  0.25500000920E-02 0. -1.
        2   -1    0    0  501    0  0.00000000000E+00  0.00000000000E+00 -0.19557610708E+04  0.19557610709E+04  0.25500000920E-02 0.  1.
    10030    2    1    2    0    0  0.00000000000E+00  0.00000000000E+00 -0.38166366860E+03  0.35298584731E+04  0.35091642430E+04 0.  0.
        3    1    3    3  502    0  0.15193356880E+03 -0.44164988083E+03  0.15104195806E+04  0.15809825256E+04  0.10100000352E+00 0. -1.
       -3    1    3    3    0  502 -0.15193356880E+03  0.44164988083E+03 -0.18920832492E+04  0.19488759475E+04  0.10100000352E+00 0.  1.
</event>
<event>
 5   0  0.1072381E-07  0.3512165E+04  0.7818609E-02  0.8110913E-01
       -1   -1    0    0    0  501  0.00000000000E+00  0.00000000000E+00  0.18283039391E+04  0.18283039391E+04  0.50400001928E-02 0. -1.
        1   -1    0    0  501    0  0.00000000000E+00  0.00000000000E+00 -0.16867141730E+04  0.16867141730E+04  0.50400001928E-02 0.  1.
    10030    2    1    2    0    0  0.00000000000E+00  0.00000000000E+00  0.14158976611E+03  0.35150181121E+04  0.35121652391E+04 0.  0.
        1    1    3    3  502    0  0.94628558626E+03 -0.43930990375E+02 -0.14090677063E+04  0.16978981547E+04  0.50400001928E-02 0.  1.
       -1    1    3    3    0  502 -0.94628558626E+03  0.43930990375E+02  0.15506574725E+04  0.18171199574E+04  0.50400001928E-02 0. -1.
</event>
<event>
 5   0  0.3190112E-07  0.3474410E+04  0.7818609E-02  0.8119881E-01
        2   -1    0    0  501    0  0.00000000000E+00  0.00000000000E+00  0.26174902487E+04  0.26174902487E+04  0.25500000920E-02 0.  1.
       -2   -1    0    0    0  501  0.00000000000E+00  0.00000000000E+00 -0.11529671855E+04  0.11529671855E+04  0.25500000920E-02 0. -1.
    10030    2    1    2    0    0  0.00000000000E+00  0.00000000000E+00  0.14645230632E+04  0.37704574342E+04  0.34744095125E+04 0.  0.
        5    1    3    3  502    0  0.11095496402E+04  0.73045971673E+03 -0.48258351190E+03  0.14133579652E+04  0.46999998093E+01 0. -1.
       -5    1    3    3    0  502 -0.11095496402E+04 -0.73045971673E+03  0.19471065751E+04  0.23570994690E+04  0.46999998093E+01 0.  1.
</event>
<event>
 5   0  0.3119048E-07  0.3496399E+04  0.7818609E-02  0.8114644E-01
       -2   -1    0    0    0  501  0.00000000000E+00  0.00000000000E+00  0.12489166386E+04  0.12489166386E+04  0.25500000920E-02 0. -1.
        2   -1    0    0  501    0  0.00000000000E+00  0.00000000000E+00 -0.24470818791E+04  0.24470818791E+04  0.25500000920E-02 0.  1.
    10030    2    1    2    0    0  0.00000000000E+00  0.00000000000E+00 -0.11981652405E+04  0.36959985177E+04  0.34963988759E+04 0.  0.
        3    1    3    3  502    0  0.12783622185E+04  0.60968417128E+03 -0.16824172937E+04  0.21991936501E+04  0.10100000352E+00 0.  1.
       -3    1    3    3    0  502 -0.12783622185E+04 -0.60968417128E+03  0.48425205317E+03  0.14968048676E+04  0.10100000352E+00 0. -1.
</event>
<event>
 5   0  0.1033796E-07  0.3506471E+04  0.7818609E-02  0.8112258E-01
        1   -1    0    0  501    0  0.00000000000E+00  0.00000000000E+00  0.24197886646E+04  0.24197886646E+04  0.50400001928E-02 0. -1.
       -1   -1    0    0    0  501  0.00000000000E+00  0.00000000000E+00 -0.12702906260E+04  0.12702906260E+04  0.50400001928E-02 0.  1.
    10030    2    1    2    0    0  0.00000000000E+00  0.00000000000E+00  0.11494980386E+04  0.36900792906E+04  0.35064710793E+04 0.  0.
        3    1    3    3  502    0 -0.43085099444E+03 -0.66165678918E+03  0.22220958394E+04  0.23582052955E+04  0.10100000352E+00 0. -1.
       -3    1    3    3    0  502  0.43085099444E+03  0.66165678918E+03 -0.10725978008E+04  0.13318739950E+04  0.10100000352E+00 0.  1.
</event>
<event>
 5   0  0.2180451E-07  0.3497382E+04  0.7818609E-02  0.8114411E-01
        2   -1    0    0  501    0  0.00000000000E+00  0.00000000000E+00  0.16334203978E+04  0.16334203978E+04  0.25500000920E-02 0.  1.
       -2   -1    0    0    0  501  0.00000000000E+00  0.00000000000E+00 -0.18720967226E+04  0.18720967226E+04  0.25500000920E-02 0. -1.
    10030    2    1    2    0    0  0.00000000000E+00  0.00000000000E+00 -0.23867632482E+03  0.35055171204E+04  0.34973824345E+04 0.  0.
        4    1    3    3  502    0 -0.11395800592E+03 -0.15073818948E+04  0.76175864831E+03  0.16927682816E+04  0.12699999809E+01 0.  1.
       -4    1    3    3    0  502  0.11395800592E+03  0.15073818948E+04 -0.10004349731E+04  0.18127488388E+04  0.12699999809E+01 0. -1.
</event>
<event>
 5   0  0.3190112E-07  0.3500324E+04  0.7818609E-02  0.8113713E-01
       -2   -1    0    0    0  501  0.00000000000E+00  0.00000000000E+00  0.13781723701E+04  0.13781723701E+04  0.25500000920E-02 0. -1.
        2   -1    0    0  501    0  0.00000000000E+00  0.00000000000E+00 -0.22225571950E+04  0.22225571950E+04  0.25500000920E-02 0.  1.
    10030    2    1    2    0    0  0.00000000000E+00  0.00000000000E+00 -0.84438482496E+03  0.36007295651E+04  0.35003239377E+04 0.  0.
        5    1    3    3  502    0  0.61736106523E+03 -0.38276718249E+02  0.12619767834E+04  0.14054206786E+04  0.46999998093E+01 0. -1.
       -5    1    3    3    0  502 -0.61736106523E+03  0.38276718249E+02 -0.21063616084E+04  0.21953088865E+04  0.46999998093E+01 0.  1.
</event>
<event>
 5   0  0.1013863E-07  0.3491528E+04  0.7818609E-02  0.8115801E-01
       -1   -1    0    0    0  501  0.00000000000E+00  0.00000000000E+00  0.21062452790E+04  0.21062452791E+04  0.50400001928E-02 0. -1.
        1   -1    0    0  501    0  0.00000000000E+00  0.00000000000E+00 -0.14469784933E+04  0.14469784933E+04  0.50400001928E-02 0.  1.
    10030    2    1    2    0    0  0.00000000000E+00  0.00000000000E+00  0.65926678572E+03  0.35532237724E+04  0.34915278149E+04 0.  0.
        2    1    3    3  502    0  0.83521564099E+02 -0.16057898501E+04  0.10214655621E+04  0.19049747476E+04  0.25500000920E-02 0.  1.
       -2    1    3    3    0  502 -0.83521564099E+02  0.16057898501E+04 -0.36219877638E+03  0.16482490248E+04  0.25500000920E-02 0. -1.
</event>
<event>
 5   0  0.1098171E-07  0.3515160E+04  0.7818609E-02  0.8110207E-01
        1   -1    0    0  501    0  0.00000000000E+00  0.00000000000E+00  0.18224079634E+04  0.18224079634E+04  0.50400001928E-02 0. -1.
       -1   -1    0    0    0  501  0.00000000000E+00  0.00000000000E+00 -0.16950580051E+04  0.16950580051E+04  0.50400001928E-02 0.  1.
    10030    2    1    2    0    0  0.00000000000E+00  0.00000000000E+00  0.12734995830E+03  0.35174659685E+04  0.35151598580E+04 0.  0.
        4    1    3    3  502    0 -0.62913458655E+03 -0.14775814806E+04 -0.65095615560E+03  0.17328597431E+04  0.12699999809E+01 0. -1.
       -4    1    3    3    0  502  0.62913458655E+03  0.14775814806E+04  0.77830611390E+03  0.17846062254E+04  0.12699999809E+01 0.  1.
</event>
<event>
 5   0  0.1072381E-07  0.3510235E+04  0.7818609E-02  0.8111369E-01
       -1   -1    0    0    0  501  0.00000000000E+00  0.00000000000E+00  0.18932798545E+04  0.18932798545E+04  0.50400001928E-02 0.  1.
        1   -1    0    0  501    0  0.00000000000E+00  0.00000000000E+00 -0.16270380066E+04  0.16270380066E+04  0.50400001928E-02 0. -1.
    10030    2    1    2    0    0  0.00000000000E+00  0.00000000000E+00  0.26624184786E+03  0.35203178612E+04  0.35102354796E+04 0.  0.
        1    1    3    3  502    0  0.56083410660E+03  0.54928463024E+03  0.17074035540E+04  0.18792220189E+04  0.50400001928E-02 0.  1.
       -1    1    3    3    0  502 -0.56083410660E+03 -0.54928463024E+03 -0.14411617061E+04  0.16410958422E+04  0.50400001928E-02 0. -1.
</event>
<event>
 5   0  0.1013863E-07  0.3482331E+04  0.7818609E-02  0.8117990E-01
        1   -1    0    0  501    0  0.00000000000E+00  0.00000000000E+00  0.11292238254E+04  0.11292238254E+04  0.50400001928E-02 0. -1.
       -1   -1    0    0    0  501  0.00000000000E+00  0.00000000000E+00 -0.26847263816E+04  0.26847263816E+04  0.50400001928E-02 0.  1.
    10030    2    1    2    0    0  0.00000000000E+00  0.00000000000E+00 -0.15555025562E+04  0.38139502070E+04  0.34823308257E+04 0.  0.
        5    1    3    3  502    0 -0.48315780262E+03  0.83397976596E+03 -0.23658981881E+04  0.25546937270E+04  0.46999998093E+01 0.  1.
       -5    1    3    3    0  502  0.48315780262E+03 -0.83397976596E+03  0.81039563193E+03  0.12592564800E+04  0.46999998093E+01 0. -1.
</event>
<event>
 5   0  0.3190185E-07  0.3509530E+04  0.7818609E-02  0.8111535E-01
        2   -1    0    0  501    0  0.00000000000E+00  0.00000000000E+00  0.15204929375E+04  0.15204929375E+04  0.25500000920E-02 0.  1.
       -2   -1    0    0    0  501  0.00000000000E+00  0.00000000000E+00 -0.20251334297E+04  0.20251334297E+04  0.25500000920E-02 0. -1.
    10030    2    1    2    0    0  0.00000000000E+00  0.00000000000E+00 -0.50464049216E+03  0.35456263672E+04  0.35095304971E+04 0.  0.
        1    1    3    3  502    0  0.26353787837E+03 -0.17348409153E+04 -0.24352075479E+03  0.17715607731E+04  0.50400001928E-02 0. -1.
       -1    1    3    3    0  502 -0.26353787837E+03  0.17348409153E+04 -0.26111973737E+03  0.17740655941E+04  0.50400001928E-02 0.  1.
</event>
<event>
 5   0  0.1072381E-07  0.3498746E+04  0.7818609E-02  0.8114087E-01
        1   -1    0    0  501    0  0.00000000000E+00  0.00000000000E+00  0.22558750051E+04  0.22558750051E+04  0.50400001928E-02 0.  1.
       -1   -1    0    0    0  501  0.00000000000E+00  0.00000000000E+00 -0.13565936718E+04  0.13565936718E+04  0.50400001928E-02 0. -1.
    10030    2    1    2    0    0  0.00000000000E+00  0.00000000000E+00  0.89928133335E+03  0.36124686769E+04  0.34987459217E+04 0.  0.
        1    1    3    3  502    0  0.94695158200E+01 -0.14837571399E+04  0.14064107113E+04  0.20444109203E+04  0.50400001928E-02 0.  1.
       -1    1    3    3    0  502 -0.94695158200E+01  0.14837571399E+04 -0.50712937795E+03  0.15680577566E+04  0.50400001928E-02 0. -1.
</event>
<event>
 5   0  0.3190185E-07  0.3481204E+04  0.7818609E-02  0.8118259E-01
       -2   -1    0    0    0  501  0.00000000000E+00  0.00000000000E+00  0.15507255423E+04  0.15507255423E+04  0.25500000920E-02 0.  1.
        2   -1    0    0  501    0  0.00000000000E+00  0.00000000000E+00 -0.19537273700E+04  0.19537273700E+04  0.25500000920E-02 0. -1.
    10030    2    1    2    0    0  0.00000000000E+00  0.00000000000E+00 -0.40300182771E+03  0.35044529123E+04  0.34812037776E+04 0.  0.
        1    1    3    3  502    0 -0.10372302425E+04  0.81880472549E+02 -0.16062210642E+04  0.19137651619E+04  0.50400001928E-02 0. -1.
       -1    1    3    3    0  502  0.10372302425E+04 -0.81880472549E+02  0.12032192365E+04  0.15906877503E+04  0.50400001928E-02 0.  1.
</event>
<event>
 5   0  0.1033796E-07  0.3498659E+04  0.7818609E-02  0.8114108E-01
        1   -1    0    0  501    0  0.00000000000E+00  0.00000000000E+00  0.16569882911E+04  0.16569882911E+04  0.50400001928E-02 0. -1.
       -1   -1    0    0    0  501  0.00000000000E+00  0.00000000000E+00 -0.18468171118E+04  0.18468171118E+04  0.50400001928E-02 0.  1.
    10030    2    1    2    0    0  0.00000000000E+00  0.00000000000E+00 -0.18982882070E+03  0.35038054029E+04  0.34986593604E+04 0.  0.
        3    1    3    3  502    0  0.50019058658E+03  0.16005374128E+04  0.40405902398E+03  0.17248693683E+04  0.10100000352E+00 0. -1.
       -3    1    3    3    0  502 -0.50019058658E+03 -0.16005374128E+04 -0.59388784467E+03  0.17789360345E+04  0.10100000352E+00 0.  1.
</event>
<event>
 5   0  0.1013863E-07  0.3500609E+04  0.7818609E-02  0.8113646E-01
       -4   -1    0    0    0  501  0.00000000000E+00  0.00000000000E+00  0.17110155463E+04  0.17110160177E+04  0.12699999809E+01 0.  1.
        4   -1    0    0  501    0  0.00000000000E+00  0.00000000000E+00 -0.17904945034E+04  0.17904949538E+04  0.12699999809E+01 0. -1.
    10030    2    1    2    0    0  0.00000000000E+00  0.00000000000E+00 -0.79478957037E+02  0.35015109714E+04  0.35006088297E+04 0.  0.
        2    1    3    3  502    0  0.10155564431E+04 -0.14255513942E+04 -0.43465738184E+02  0.17508400661E+04  0.25500000920E-02 0.  1.
       -2    1    3    3    0  502 -0.10155564431E+04  0.14255513942E+04 -0.36013218853E+02  0.17506709053E+04  0.25500000920E-02 0. -1.
</event>
<event>
 5   0  0.1013863E-07  0.3503776E+04  0.7818609E-02  0.8112896E-01
       -1   -1    0    0    0  501  0.00000000000E+00  0.00000000000E+00  0.12738471160E+04  0.12738471160E+04  0.50400001928E-02 0. -1.
        1   -1    0    0  501    0  0.00000000000E+00  0.00000000000E+00 -0.24093248227E+04  0.24093248227E+04  0.50400001928E-02 0.  1.
    10030    2    1    2    0    0  0.00000000000E+00  0.00000000000E+00 -0.11354777067E+04  0.36831719387E+04  0.35037759500E+04 0.  0.
        5    1    3    3  502    0 -0.16277467131E+03 -0.16868733434E+04 -0.10343726801E+04  0.19854435780E+04  0.46999998093E+01 0.  1.
       -5    1    3    3    0  502  0.16277467131E+03  0.16868733434E+04 -0.10110502654E+03  0.16977283607E+04  0.46999998093E+01 0. -1.
</event>
<event>
 5   0  0.3119048E-07  0.3644213E+04  0.7818609E-02  0.8080439E-01
       -2   -1    0    0    0  501  0.00000000000E+00  0.00000000000E+00  0.21286635573E+04  0.21286635573E+04  0.25500000920E-02 0. -1.
        2   -1    0    0  501    0  0.00000000000E+00  0.00000000000E+00 -0.15596981974E+04  0.15596981974E+04  0.25500000920E-02 0.  1.
    10030    2    1    2    0    0  0.00000000000E+00  0.00000000000E+00  0.56896535989E+03  0.36883617548E+04  0.36442133380E+04 0.  0.
        3    1    3    3  502    0  0.91209525003E+02  0.38083835835E+03  0.20855678585E+04  0.21220156303E+04  0.10100000352E+00 0. -1.
       -3    1    3    3    0  502 -0.91209525003E+02 -0.38083835835E+03 -0.15166024986E+04  0.15663461245E+04  0.10100000352E+00 0.  1.
</event>
<event>
 5   0  0.3119048E-07  0.3469521E+04  0.7818609E-02  0.8121051E-01
        2   -1    0    0  501    0  0.00000000000E+00  0.00000000000E+00  0.15619313559E+04  0.15619313559E+04  0.25500000920E-02 0.  1.
       -2   -1    0    0    0  501  0.00000000000E+00  0.00000000000E+00 -0.19267135426E+04  0.19267135426E+04  0.25500000920E-02 0. -1.
    10030    2    1    2    0    0  0.00000000000E+00  0.00000000000E+00 -0.36478218667E+03  0.34886448985E+04  0.34695211750E+04 0.  0.
        3    1    3    3  502    0  0.42448520633E+03  0.15848819523E+04  0.38405741605E+03  0.16850930545E+04  0.10100000352E+00 0. -1.
       -3    1    3    3    0  502 -0.42448520633E+03 -0.15848819523E+04 -0.74883960273E+03  0.18035518440E+04  0.10100000352E+00 0.  1.
</event>
<event>
 5   0  0.3190112E-07  0.3476029E+04  0.7818609E-02  0.8119494E-01
        2   -1    0    0  501    0  0.00000000000E+00  0.00000000000E+00  0.17373663686E+04  0.17373663686E+04  0.25500000920E-02 0.  1.
       -2   -1    0    0    0  501  0.00000000000E+00  0.00000000000E+00 -0.17386626777E+04  0.17386626777E+04  0.25500000920E-02 0. -1.
    10030    2    1    2    0    0  0.00000000000E+00  0.00000000000E+00 -0.12963091329E+01  0.34760290463E+04  0.34760288046E+04 0.  0.
        5    1    3    3  502    0  0.75007599771E+03  0.33471855857E+03 -0.15323210253E+04  0.17385857271E+04  0.46999998093E+01 0. -1.
       -5    1    3    3    0  502 -0.75007599771E+03 -0.33471855857E+03  0.15310247162E+04  0.17374433192E+04  0.46999998093E+01 0.  1.
</event>
<event>
 5   0  0.1013863E-07  0.3462942E+04  0.7818609E-02  0.8122629E-01
       -1   -1    0    0    0  501  0.00000000000E+00  0.00000000000E+00  0.14969440481E+04  0.14969440481E+04  0.50400001928E-02 0. -1.
        1   -1    0    0  501    0  0.00000000000E+00  0.00000000000E+00 -0.20027409853E+04  0.20027409853E+04  0.50400001928E-02 0.  1.
    10030    2    1    2    0    0  0.00000000000E+00  0.00000000000E+00 -0.50579693723E+03  0.34996850334E+04  0.34629416385E+04 0.  0.
        2    1    3    3  502    0 -0.22192214924E+03  0.22474802318E+02  0.14823631363E+04  0.14990513750E+04  0.25500000920E-02 0. -1.
       -2    1    3    3    0  502  0.22192214924E+03 -0.22474802318E+02 -0.19881600735E+04  0.20006336584E+04  0.25500000920E-02 0.  1.
</event>
<event>
 5   0  0.3219205E-07  0.3510495E+04  0.7818609E-02  0.8111307E-01
       -2   -1    0    0    0  501  0.00000000000E+00  0.00000000000E+00  0.14604003158E+04  0.14604003158E+04  0.25500000920E-02 0.  1.
        2   -1    0    0  501    0  0.00000000000E+00  0.00000000000E+00 -0.21096227190E+04  0.21096227190E+04  0.25500000920E-02 0. -1.
    10030    2    1    2    0    0  0.00000000000E+00  0.00000000000E+00 -0.64922240324E+03  0.35700230348E+04  0.35104949423E+04 0.  0.
        2    1    3    3  502    0  0.10003340891E+04 -0.10934853250E+04 -0.12810459066E+04  0.19589428427E+04  0.25500000920E-02 0.  1.
       -2    1    3    3    0  502 -0.10003340891E+04  0.10934853250E+04  0.63182350339E+03  0.16110801921E+04  0.25500000920E-02 0. -1.
</event>
<event>
 5   0  0.3119048E-07  0.3501954E+04  0.7818609E-02  0.8113327E-01
        2   -1    0    0  501    0  0.00000000000E+00  0.00000000000E+00  0.19128820099E+04  0.19128820099E+04  0.25500000920E-02 0. -1.
       -2   -1    0    0    0  501  0.00000000000E+00  0.00000000000E+00 -0.16027756025E+04  0.16027756025E+04  0.25500000920E-02 0.  1.
    10030    2    1    2    0    0  0.00000000000E+00  0.00000000000E+00  0.31010640745E+03  0.35156576124E+04  0.35019540922E+04 0.  0.
        3    1    3    3  502    0  0.70071255625E+03 -0.12474646433E+04  0.11683365169E+04  0.18472077170E+04  0.10100000352E+00 0. -1.
       -3    1    3    3    0  502 -0.70071255625E+03  0.12474646433E+04 -0.85823010941E+03  0.16684498955E+04  0.10100000352E+00 0.  1.
</event>
<event>
 5   0  0.1072381E-07  0.3509096E+04  0.7818609E-02  0.8111638E-01
       -1   -1    0    0    0  501  0.00000000000E+00  0.00000000000E+00  0.30345781386E+04  0.30345781387E+04  0.50400001928E-02 0. -1.
        1   -1    0    0  501    0  0.00000000000E+00  0.00000000000E+00 -0.10144533285E+04  0.10144533285E+04  0.50400001928E-02 0.  1.
    10030    2    1    2    0    0  0.00000000000E+00  0.00000000000E+00  0.20201248102E+04  0.40490314672E+04  0.35090955492E+04 0.  0.
        1    1    3    3  502    0  0.14187534355E+03 -0.90330221691E+03 -0.71779573469E+03  0.11624604187E+04  0.50400001928E-02 0.  1.
       -1    1    3    3    0  502 -0.14187534355E+03  0.90330221691E+03  0.27379205448E+04  0.28865710485E+04  0.50400001928E-02 0. -1.
</event>
<event>
 5   0  0.3190185E-07  0.3502848E+04  0.7818609E-02  0.8113115E-01
       -2   -1    0    0    0  501  0.00000000000E+00  0.00000000000E+00  0.17572756488E+04  0.17572756488E+04  0.25500000920E-02 0. -1.
        2   -1    0    0  501    0  0.00000000000E+00  0.00000000000E+00 -0.17455921832E+04  0.17455921832E+04  0.25500000920E-02 0.  1.
    10030    2    1    2    0    0  0.00000000000E+00  0.00000000000E+00  0.11683465633E+02  0.35028678319E+04  0.35028483474E+04 0.  0.
        1    1    3    3  502    0  0.95385744684E+03  0.82778577850E+03 -0.12075954072E+04  0.17473866176E+04  0.50400001928E-02 0.  1.
       -1    1    3    3    0  502 -0.95385744684E+03 -0.82778577850E+03  0.12192788728E+04  0.17554812143E+04  0.50400001928E-02 0. -1.
</event>
<event>
 5   0  0.1098171E-07  0.3420312E+04  0.7818609E-02  0.8132939E-01
        1   -1    0    0  501    0  0.00000000000E+00  0.00000000000E+00  0.10790727280E+04  0.10790727280E+04  0.50400001928E-02 0. -1.
       -1   -1    0    0    0  501  0.00000000000E+00  0.00000000000E+00 -0.27103214748E+04  0.27103214748E+04  0.50400001928E-02 0.  1.
    10030    2    1    2    0    0  0.00000000000E+00  0.00000000000E+00 -0.16312487468E+04  0.37893942028E+04  0.34203122592E+04 0.  0.
        4    1    3    3  502    0  0.53133531184E+03 -0.15926863813E+04 -0.45548539703E+03  0.17396653938E+04  0.12699999809E+01 0.  1.
       -4    1    3    3    0  502 -0.53133531184E+03  0.15926863813E+04 -0.11757633498E+04  0.20497288090E+04  0.12699999809E+01 0. -1.
</event>
<event>
 5   0  0.3119048E-07  0.3497055E+04  0.7818609E-02  0.8114488E-01
        2   -1    0    0  501    0  0.00000000000E+00  0.00000000000E+00  0.14630632540E+04  0.14630632540E+04  0.25500000920E-02 0. -1.
       -2   -1    0    0    0  501  0.00000000000E+00  0.00000000000E+00 -0.20896903496E+04  0.20896903497E+04  0.25500000920E-02 0.  1.
    10030    2    1    2    0    0  0.00000000000E+00  0.00000000000E+00 -0.62662709570E+03  0.35527536036E+04  0.34970554258E+04 0.  0.
        3    1    3    3  502    0  0.15715157130E+04  0.17931736134E+03  0.44389834434E+03  0.16428213849E+04  0.10100000352E+00 0. -1.
       -3    1    3    3    0  502 -0.15715157130E+04 -0.17931736134E+03 -0.10705254400E+04  0.19099322187E+04  0.10100000352E+00 0.  1.
</event>
<event>
 5   0  0.1033796E-07  0.3456416E+04  0.7818609E-02  0.8124197E-01
       -1   -1    0    0    0  501  0.00000000000E+00  0.00000000000E+00  0.13212409535E+04  0.13212409535E+04  0.50400001928E-02 0. -1.
        1   -1    0    0  501    0  0.00000000000E+00  0.00000000000E+00 -0.22605289457E+04  0.22605289457E+04  0.50400001928E-02 0.  1.
    10030    2    1    2    0    0  0.00000000000E+00  0.00000000000E+00 -0.93928799219E+03  0.35817698991E+04  0.34564163057E+04 0.  0.
        3    1    3    3  502    0  0.34590808531E+03  0.14418384700E+04  0.45033276560E+03  0.15496290482E+04  0.10100000352E+00 0.  1.
       -3    1    3    3    0  502 -0.34590808531E+03 -0.14418384700E+04 -0.13896207578E+04  0.20321408509E+04  0.10100000352E+00 0. -1.
</event>
<event>
 5   0  0.3219205E-07  0.3511256E+04  0.7818609E-02  0.8111128E-01
        2   -1    0    0  501    0  0.00000000000E+00  0.00000000000E+00  0.19781972068E+04  0.19781972068E+04  0.25500000920E-02 0. -1.
       -2   -1    0    0    0  501  0.00000000000E+00  0.00000000000E+00 -0.15580999497E+04  0.15580999497E+04  0.25500000920E-02 0.  1.
    10030    2    1    2    0    0  0.00000000000E+00  0.00000000000E+00  0.42009725718E+03  0.35362971565E+04  0.35112555979E+04 0.  0.
        2    1    3    3  502    0 -0.91785281993E+03  0.16160844057E+02  0.17172219490E+04  0.19471944418E+04  0.25500000920E-02 0. -1.
       -2    1    3    3    0  502  0.91785281993E+03 -0.16160844057E+02 -0.12971246918E+04  0.15891027148E+04  0.25500000920E-02 0.  1.
</event>
<event>
 5   0  0.1013863E-07  0.3494777E+04  0.7818609E-02  0.8115029E-01
        1   -1    0    0  501    0  0.00000000000E+00  0.00000000000E+00  0.19642407094E+04  0.19642407094E+04  0.50400001928E-02 0. -1.
       -1   -1    0    0    0  501  0.00000000000E+00  0.00000000000E+00 -0.15544766077E+04  0.15544766077E+04  0.50400001928E-02 0.  1.
    10030    2    1    2    0    0  0.00000000000E+00  0.00000000000E+00  0.40976410164E+03  0.35187173171E+04  0.34947768081E+04 0.  0.
        5    1    3    3  502    0 -0.12045758213E+04  0.12537010883E+04  0.38093644269E+03  0.17798606663E+04  0.46999998093E+01 0. -1.
       -5    1    3    3    0  502  0.12045758213E+04 -0.12537010883E+04  0.28827658947E+02  0.17388566508E+04  0.46999998093E+01 0.  1.
</event>
<event>
 5   0  0.1013863E-07  0.3588246E+04  0.7818609E-02  0.8093190E-01
        1   -1    0    0  501    0  0.00000000000E+00  0.00000000000E+00  0.26846146504E+04  0.26846146504E+04  0.50400001928E-02 0. -1.
       -1   -1    0    0    0  501  0.00000000000E+00  0.00000000000E+00 -0.11990087620E+04  0.11990087620E+04  0.50400001928E-02 0.  1.
    10030    2    1    2    0    0  0.00000000000E+00  0.00000000000E+00  0.14856058884E+04  0.38836234125E+04  0.35882455259E+04 0.  0.
        2    1    3    3  502    0  0.13142526938E+04  0.11121966987E+04  0.19665050379E+03  0.17328915316E+04  0.25500000920E-02 0.  1.
       -2    1    3    3    0  502 -0.13142526938E+04 -0.11121966987E+04  0.12889553846E+04  0.21507318808E+04  0.25500000920E-02 0. -1.
</event>
<event>
 5   0  0.1013863E-07  0.3417608E+04  0.7818609E-02  0.8133598E-01
        1   -1    0    0  501    0  0.00000000000E+00  0.00000000000E+00  0.15816599701E+04  0.15816599701E+04  0.50400001928E-02 0. -1.
       -1   -1    0    0    0  501  0.00000000000E+00  0.00000000000E+00 -0.18461685457E+04  0.18461685457E+04  0.50400001928E-02 0.  1.
    10030    2    1    2    0    0  0.00000000000E+00  0.00000000000E+00 -0.26450857556E+03  0.34278285158E+04  0.34176078691E+04 0.  0.
        5    1    3    3  502    0 -0.13971620391E+02  0.63236630176E+03 -0.17244229273E+04  0.18367740384E+04  0.46999998093E+01 0.  1.
       -5    1    3    3    0  502  0.13971620391E+02 -0.63236630176E+03  0.14599143517E+04  0.15910544774E+04  0.46999998093E+01 0. -1.
</event>
<event>
 5   0  0.3119048E-07  0.3491135E+04  0.7818609E-02  0.8115894E-01
       -2   -1    0    0    0  501  0.00000000000E+00  0.00000000000E+00  0.15439713699E+04  0.15439713699E+04  0.25500000920E-02 0.  1.
        2   -1    0    0  501    0  0.00000000000E+00  0.00000000000E+00 -0.19734860741E+04  0.19734860741E+04  0.25500000920E-02 0. -1.
    10030    2    1    2    0    0  0.00000000000E+00  0.00000000000E+00 -0.42951470411E+03  0.35174574440E+04  0.34911350574E+04 0.  0.
        3    1    3    3  502    0 -0.69505930662E+03 -0.71605749532E+03 -0.16577429392E+04  0.19349308616E+04  0.10100000352E+00 0. -1.
       -3    1    3    3    0  502  0.69505930662E+03  0.71605749532E+03  0.12282282351E+04  0.15825265824E+04  0.10100000352E+00 0.  1.
</event>
<event>
 5   0  0.1013863E-07  0.3496158E+04  0.7818609E-02  0.8114701E-01
        1   -1    0    0  501    0  0.00000000000E+00  0.00000000000E+00  0.10948954918E+04  0.10948954918E+04  0.50400001928E-02 0.  1.
       -1   -1    0    0    0  501  0.00000000000E+00  0.00000000000E+00 -0.27909330051E+04  0.27909330051E+04  0.50400001928E-02 0. -1.
    10030    2    1    2    0    0  0.00000000000E+00  0.00000000000E+00 -0.16960375133E+04  0.38858284969E+04  0.34961578713E+04 0.  0.
        5    1    3    3  502    0  0.67029648859E+02 -0.10119321126E+03  0.10901990407E+04  0.10969453397E+04  0.46999998093E+01 0.  1.
       -5    1    3    3    0  502 -0.67029648859E+02  0.10119321126E+03 -0.27862365540E+04  0.27888831572E+04  0.46999998093E+01 0. -1.
</event>
<event>
 5   0  0.3190185E-07  0.3561288E+04  0.7818609E-02  0.8099417E-01
       -2   -1    0    0    0  501  0.00000000000E+00  0.00000000000E+00  0.17934887905E+04  0.17934887905E+04  0.25500000920E-02 0.  1.
        2   -1    0    0  501    0  0.00000000000E+00  0.00000000000E+00 -0.17678909483E+04  0.17678909483E+04  0.25500000920E-02 0. -1.
    10030    2    1    2    0    0  0.00000000000E+00  0.00000000000E+00  0.25597842128E+02  0.35613797388E+04  0.35612877438E+04 0.  0.
        1    1    3    3  502    0 -0.95170459851E+03 -0.14488909543E+04 -0.39423242581E+03  0.17777642830E+04  0.50400001928E-02 0.  1.
       -1    1    3    3    0  502  0.95170459851E+03  0.14488909543E+04  0.41983026793E+03  0.17836154558E+04  0.50400001928E-02 0. -1.
</event>
<event>
 5   0  0.3119048E-07  0.3490712E+04  0.7818609E-02  0.8115995E-01
        2   -1    0    0  501    0  0.00000000000E+00  0.00000000000E+00  0.14436443636E+04  0.14436443636E+04  0.25500000920E-02 0. -1.
       -2   -1    0    0    0  501  0.00000000000E+00  0.00000000000E+00 -0.21101236112E+04  0.21101236112E+04  0.25500000920E-02 0.  1.
    10030    2    1    2    0    0  0.00000000000E+00  0.00000000000E+00 -0.66647924760E+03  0.35537679747E+04  0.34907122813E+04 0.  0.
        3    1    3    3  502    0 -0.11557419462E+04  0.72305029684E+03  0.77627570345E+03  0.15688037340E+04  0.10100000352E+00 0. -1.
       -3    1    3    3    0  502  0.11557419462E+04 -0.72305029684E+03 -0.14427549511E+04  0.19849642407E+04  0.10100000352E+00 0.  1.
</event>
<event>
 5   0  0.3190112E-07  0.3501211E+04  0.7818609E-02  0.8113503E-01
       -2   -1    0    0    0  501  0.00000000000E+00  0.00000000000E+00  0.14141138159E+04  0.14141138159E+04  0.25500000920E-02 0. -1.
        2   -1    0    0  501    0  0.00000000000E+00  0.00000000000E+00 -0.21671656403E+04  0.21671656403E+04  0.25500000920E-02 0.  1.
    10030    2    1    2    0    0  0.00000000000E+00  0.00000000000E+00 -0.75305182436E+03  0.35812794562E+04  0.35012105754E+04 0.  0.
        5    1    3    3  502    0 -0.15697632651E+04  0.13096074933E+03 -0.11577255008E+04  0.19549060979E+04  0.46999998093E+01 0. -1.
       -5    1    3    3    0  502  0.15697632651E+04 -0.13096074933E+03  0.40467367641E+03  0.16263733583E+04  0.46999998093E+01 0.  1.
</event>
<event>
 5   0  0.1033796E-07  0.3500194E+04  0.7818609E-02  0.8113744E-01
        1   -1    0    0  501    0  0.00000000000E+00  0.00000000000E+00  0.18715328620E+04  0.18715328620E+04  0.50400001928E-02 0. -1.
       -1   -1    0    0    0  501  0.00000000000E+00  0.00000000000E+00 -0.16365402316E+04  0.16365402316E+04  0.50400001928E-02 0.  1.
    10030    2    1    2    0    0  0.00000000000E+00  0.00000000000E+00  0.23499263034E+03  0.35080730936E+04  0.35001936080E+04 0.  0.
        3    1    3    3  502    0  0.51131295200E+03  0.84365212580E+03  0.15663123196E+04  0.18510872851E+04  0.10100000352E+00 0. -1.
       -3    1    3    3    0  502 -0.51131295200E+03 -0.84365212580E+03 -0.13313196893E+04  0.16569858085E+04  0.10100000352E+00 0.  1.
</event>
<event>
 5   0  0.1013863E-07  0.3475642E+04  0.7818609E-02  0.8119587E-01
        1   -1    0    0  501    0  0.00000000000E+00  0.00000000000E+00  0.29540004099E+04  0.29540004099E+04  0.50400001928E-02 0.  1.
       -1   -1    0    0    0  501  0.00000000000E+00  0.00000000000E+00 -0.10223497614E+04  0.10223497614E+04  0.50400001928E-02 0. -1.
    10030    2    1    2    0    0  0.00000000000E+00  0.00000000000E+00  0.19316506485E+04  0.39763501713E+04  0.34756418770E+04 0.  0.
        5    1    3    3  502    0 -0.35312970867E+03  0.20411391493E+03  0.28984562417E+04  0.29270178948E+04  0.46999998093E+01 0.  1.
       -5    1    3    3    0  502  0.35312970867E+03 -0.20411391493E+03 -0.96680559321E+03  0.10493322765E+04  0.46999998093E+01 0. -1.
</event>
<event>
 5   0  0.3119048E-07  0.3494745E+04  0.7818609E-02  0.8115037E-01
       -2   -1    0    0    0  501  0.00000000000E+00  0.00000000000E+00  0.11828621607E+04  0.11828621607E+04  0.25500000920E-02 0. -1.
        2   -1    0    0  501    0  0.00000000000E+00  0.00000000000E+00 -0.25812897636E+04  0.25812897636E+04  0.25500000920E-02 0.  1.
    10030    2    1    2    0    0  0.00000000000E+00  0.00000000000E+00 -0.13984276029E+04  0.37641519243E+04  0.34947446185E+04 0.  0.
        3    1    3    3  502    0 -0.85071346841E+03  0.68229551081E+03  0.77134616317E+03  0.13357452912E+04  0.10100000352E+00 0. -1.
       -3    1    3    3    0  502  0.85071346841E+03 -0.68229551081E+03 -0.21697737661E+04  0.24284066331E+04  0.10100000352E+00 0.  1.
</event>
<event>
 5   0  0.1013863E-07  0.3503654E+04  0.7818609E-02  0.8112925E-01
       -1   -1    0    0    0  501  0.00000000000E+00  0.00000000000E+00  0.12377358497E+04  0.12377358497E+04  0.50400001928E-02 0. -1.
        1   -1    0    0  501    0  0.00000000000E+00  0.00000000000E+00 -0.24794443771E+04  0.24794443772E+04  0.50400001928E-02 0.  1.
    10030    2    1    2    0    0  0.00000000000E+00  0.00000000000E+00 -0.12417085275E+04  0.37171802268E+04  0.35036536318E+04 0.  0.
        2    1    3    3  502    0  0.12423752273E+04 -0.12120538999E+04 -0.36905863602E+03  0.17744788358E+04  0.25500000920E-02 0.  1.
       -2    1    3    3    0  502 -0.12423752273E+04  0.12120538999E+04 -0.87264989146E+03  0.19427013911E+04  0.25500000920E-02 0. -1.
</event>
<event>
 5   0  0.2180451E-07  0.3493420E+04  0.7818609E-02  0.8115351E-01
       -2   -1    0    0    0  501  0.00000000000E+00  0.00000000000E+00  0.18771197610E+04  0.18771197610E+04  0.25500000920E-02 0.  1.
        2   -1    0    0  501    0  0.00000000000E+00  0.00000000000E+00 -0.16253604433E+04  0.16253604433E+04  0.25500000920E-02 0. -1.
    10030    2    1    2    0    0  0.00000000000E+00  0.00000000000E+00  0.25175931766E+03  0.35024802043E+04  0.34934202191E+04 0.  0.
        4    1    3    3  502    0  0.12342670128E+04 -0.12083098495E+04 -0.13473069920E+03  0.17325073522E+04  0.12699999809E+01 0. -1.
       -4    1    3    3    0  502 -0.12342670128E+04  0.12083098495E+04  0.38649001686E+03  0.17699728521E+04  0.12699999809E+01 0.  1.
</event>
<event>
 5   0  0.1013863E-07  0.3502364E+04  0.7818609E-02  0.8113230E-01
        1   -1    0    0  501    0  0.00000000000E+00  0.00000000000E+00  0.14158473245E+04  0.14158473245E+04  0.50400001928E-02 0. -1.
       -1   -1    0    0    0  501  0.00000000000E+00  0.00000000000E+00 -0.21659386150E+04  0.21659386150E+04  0.50400001928E-02 0.  1.
    10030    2    1    2    0    0  0.00000000000E+00  0.00000000000E+00 -0.75009129052E+03  0.35817859394E+04  0.35023639976E+04 0.  0.
        5    1    3    3  502    0  0.84811431963E+03 -0.14543940592E+04 -0.86769174838E+03  0.18940620472E+04  0.46999998093E+01 0.  1.
       -5    1    3    3    0  502 -0.84811431963E+03  0.14543940592E+04  0.11760045786E+03  0.16877238922E+04  0.46999998093E+01 0. -1.
</event>
<event>
 5   0  0.1072381E-07  0.3495862E+04  0.7818609E-02  0.8114771E-01
       -1   -1    0    0    0  501  0.00000000000E+00  0.00000000000E+00  0.17019955259E+04  0.17019955260E+04  0.50400001928E-02 0. -1.
        1   -1    0    0  501    0  0.00000000000E+00  0.00000000000E+00 -0.17951060032E+04  0.17951060032E+04  0.50400001928E-02 0.  1.
    10030    2    1    2    0    0  0.00000000000E+00  0.00000000000E+00 -0.93110477264E+02  0.34971015292E+04  0.34958617742E+04 0.  0.
        1    1    3    3  502    0  0.32545285158E+03  0.12578491407E+04  0.11231148957E+04  0.17174082474E+04  0.50400001928E-02 0. -1.
       -1    1    3    3    0  502 -0.32545285158E+03 -0.12578491407E+04 -0.12162253730E+04  0.17796932818E+04  0.50400001928E-02 0.  1.
</event>
<event>
 5   0  0.1072381E-07  0.3562835E+04  0.7818609E-02  0.8099058E-01
       -1   -1    0    0    0  501  0.00000000000E+00  0.00000000000E+00  0.16657281832E+04  0.16657281832E+04  0.50400001928E-02 0. -1.
        1   -1    0    0  501    0  0.00000000000E+00  0.00000000000E+00 -0.19051421127E+04  0.19051421127E+04  0.50400001928E-02 0.  1.
    10030    2    1    2    0    0  0.00000000000E+00  0.00000000000E+00 -0.23941392952E+03  0.35708702958E+04  0.35628353372E+04 0.  0.
        1    1    3    3  502    0 -0.41999710804E+03 -0.11284271135E+03 -0.18511207209E+04  0.19015201739E+04  0.50400001928E-02 0.  1.
       -1    1    3    3    0  502  0.41999710804E+03  0.11284271135E+03  0.16117067914E+04  0.16693501220E+04  0.50400001928E-02 0. -1.
</event>
<event>
 5   0  0.1013863E-07  0.3523756E+04  0.7818609E-02  0.8108183E-01
        1   -1    0    0  501    0  0.00000000000E+00  0.00000000000E+00  0.21361331780E+04  0.21361331780E+04  0.50400001928E-02 0.  1.
       -1   -1    0    0    0  501  0.00000000000E+00  0.00000000000E+00 -0.14531933329E+04  0.14531933329E+04  0.50400001928E-02 0. -1.
    10030    2    1    2    0    0  0.00000000000E+00  0.00000000000E+00  0.68293984513E+03  0.35893265109E+04  0.35237562302E+04 0.  0.
        2    1    3    3  502    0 -0.14183446109E+04  0.10085666955E+04  0.61943605945E+02  0.17414778852E+04  0.25500000920E-02 0. -1.
       -2    1    3    3    0  502  0.14183446109E+04 -0.10085666955E+04  0.62099623918E+03  0.18478486257E+04  0.25500000920E-02 0.  1.
</event>
<event>
 5   0  0.2180451E-07  0.3428222E+04  0.7818609E-02  0.8131014E-01
       -2   -1    0    0    0  501  0.00000000000E+00  0.00000000000E+00  0.10628584177E+04  0.10628584177E+04  0.25500000920E-02 0. -1.
        2   -1    0    0  501    0  0.00000000000E+00  0.00000000000E+00 -0.27644093049E+04  0.27644093049E+04  0.25500000920E-02 0.  1.
    10030    2    1    2    0    0  0.00000000000E+00  0.00000000000E+00 -0.17015508872E+04  0.38272677226E+04  0.34282215213E+04 0.  0.
        4    1    3    3  502    0 -0.44058846532E+03  0.12605501275E+04 -0.20506172227E+04  0.24470671071E+04  0.12699999809E+01 0.  1.
       -4    1    3    3    0  502  0.44058846532E+03 -0.12605501275E+04  0.34906633551E+03  0.13802006155E+04  0.12699999809E+01 0. -1.
</event>
<event>
 5   0  0.3190185E-07  0.3504075E+04  0.7818609E-02  0.8112825E-01
        2   -1    0    0  501    0  0.00000000000E+00  0.00000000000E+00  0.25413831226E+04  0.25413831226E+04  0.25500000920E-02 0. -1.
       -2   -1    0    0    0  501  0.00000000000E+00  0.00000000000E+00 -0.12078602227E+04  0.12078602227E+04  0.25500000920E-02 0.  1.
    10030    2    1    2    0    0  0.00000000000E+00  0.00000000000E+00  0.13335228999E+04  0.37492433454E+04  0.35040751045E+04 0.  0.
        1    1    3    3  502    0  0.45453346016E+03 -0.98428755469E+03 -0.80583795759E+03  0.13508506471E+04  0.50400001928E-02 0.  1.
       -1    1    3    3    0  502 -0.45453346016E+03  0.98428755469E+03  0.21393608575E+04  0.23983926983E+04  0.50400001928E-02 0. -1.
</event>
<event>
 5   0  0.1098171E-07  0.3479803E+04  0.7818609E-02  0.8118593E-01
       -1   -1    0    0    0  501  0.00000000000E+00  0.00000000000E+00  0.18991791277E+04  0.18991791277E+04  0.50400001928E-02 0.  1.
        1   -1    0    0  501    0  0.00000000000E+00  0.00000000000E+00 -0.15939819531E+04  0.15939819531E+04  0.50400001928E-02 0. -1.
    10030    2    1    2    0    0  0.00000000000E+00  0.00000000000E+00  0.30519717460E+03  0.34931610809E+04  0.34798030148E+04 0.  0.
        4    1    3    3  502    0  0.14339232015E+04  0.17812852400E+03  0.11255405789E+04  0.18315863962E+04  0.12699999809E+01 0.  1.
       -4    1    3    3    0  502 -0.14339232015E+04 -0.17812852400E+03 -0.82034340431E+03  0.16615746847E+04  0.12699999809E+01 0. -1.
</event>
<event>
 5   0  0.3119048E-07  0.3497256E+04  0.7818609E-02  0.8114440E-01
        2   -1    0    0  501    0  0.00000000000E+00  0.00000000000E+00  0.21736296010E+04  0.21736296010E+04  0.25500000920E-02 0. -1.
       -2   -1    0    0    0  501  0.00000000000E+00  0.00000000000E+00 -0.14067257494E+04  0.14067257494E+04  0.25500000920E-02 0.  1.
    10030    2    1    2    0    0  0.00000000000E+00  0.00000000000E+00  0.76690385155E+03  0.35803553504E+04  0.34972564844E+04 0.  0.
        3    1    3    3  502    0 -0.67836926040E+03  0.16089290050E+04  0.28706970584E+03  0.17695328262E+04  0.10100000352E+00 0.  1.
       -3    1    3    3    0  502  0.67836926040E+03 -0.16089290050E+04  0.47983414570E+03  0.18108225242E+04  0.10100000352E+00 0. -1.
</event>
<event>
 5   0  0.3119048E-07  0.3467082E+04  0.7818609E-02  0.8121636E-01
       -2   -1    0    0    0  501  0.00000000000E+00  0.00000000000E+00  0.15438157065E+04  0.15438157065E+04  0.25500000920E-02 0.  1.
        2   -1    0    0  501    0  0.00000000000E+00  0.00000000000E+00 -0.19465825226E+04  0.19465825226E+04  0.25500000920E-02 0. -1.
    10030    2    1    2    0    0  0.00000000000E+00  0.00000000000E+00 -0.40276681606E+03  0.34903982290E+04  0.34670821578E+04 0.  0.
        3    1    3    3  502    0  0.82802378989E+03  0.15191548116E+04 -0.31032353565E+03  0.17577700206E+04  0.10100000352E+00 0. -1.
       -3    1    3    3    0  502 -0.82802378989E+03 -0.15191548116E+04 -0.92443280416E+02  0.17326282084E+04  0.10100000352E+00 0.  1.
</event>
<event>
 5   0  0.2180451E-07  0.3525307E+04  0.7818609E-02  0.8107818E-01
       -2   -1    0    0    0  501  0.00000000000E+00  0.00000000000E+00  0.13342607433E+04  0.13342607433E+04  0.25500000920E-02 0. -1.
        2   -1    0    0  501    0  0.00000000000E+00  0.00000000000E+00 -0.23285913352E+04  0.23285913352E+04  0.25500000920E-02 0.  1.
    10030    2    1    2    0    0  0.00000000000E+00  0.00000000000E+00 -0.99433059194E+03  0.36628520785E+04  0.35253073657E+04 0.  0.
        4    1    3    3  502    0  0.26666610423E+03  0.94569406719E+03  0.10233166238E+04  0.14186707177E+04  0.12699999809E+01 0. -1.
       -4    1    3    3    0  502 -0.26666610423E+03 -0.94569406719E+03 -0.20176472157E+04  0.22441813608E+04  0.12699999809E+01 0.  1.
</event>
<event>
 5   0  0.3219205E-07  0.3511328E+04  0.7818609E-02  0.8111111E-01
       -2   -1    0    0    0  501  0.00000000000E+00  0.00000000000E+00  0.24791246981E+04  0.24791246981E+04  0.25500000920E-02 0.  1.
        2   -1    0    0  501    0  0.00000000000E+00  0.00000000000E+00 -0.12433240853E+04  0.12433240853E+04  0.25500000920E-02 0. -1.
    10030    2    1    2    0    0  0.00000000000E+00  0.00000000000E+00  0.12358006127E+04  0.37224487834E+04  0.35113276393E+04 0.  0.
        2    1    3    3  502    0  0.28059166455E+03 -0.10231030733E+04  0.21008960428E+04  0.23535581070E+04  0.25500000920E-02 0.  1.
       -2    1    3    3    0  502 -0.28059166455E+03  0.10231030733E+04 -0.86509543003E+03  0.13688906763E+04  0.25500000920E-02 0. -1.
</event>
<event>
 5   0  0.3219205E-07  0.3492988E+04  0.7818609E-02  0.8115454E-01
        2   -1    0    0  501    0  0.00000000000E+00  0.00000000000E+00  0.19533276311E+04  0.19533276311E+04  0.25500000920E-02 0.  1.
       -2   -1    0    0    0  501  0.00000000000E+00  0.00000000000E+00 -0.15615619502E+04  0.15615619502E+04  0.25500000920E-02 0. -1.
    10030    2    1    2    0    0  0.00000000000E+00  0.00000000000E+00  0.39176568088E+03  0.35148895813E+04  0.34929884654E+04 0.  0.
        2    1    3    3  502    0  0.11629555525E+03  0.12905895925E+03 -0.15528457448E+04  0.15625334487E+04  0.25500000920E-02 0. -1.
       -2    1    3    3    0  502 -0.11629555525E+03 -0.12905895925E+03  0.19446114257E+04  0.19523561325E+04  0.25500000920E-02 0.  1.
</event>
<event>
 5   0  0.3219205E-07  0.3491314E+04  0.7818609E-02  0.8115852E-01
       -2   -1    0    0    0  501  0.00000000000E+00  0.00000000000E+00  0.15782152739E+04  0.15782152739E+04  0.25500000920E-02 0.  1.
        2   -1    0    0  501    0  0.00000000000E+00  0.00000000000E+00 -0.19308635204E+04  0.19308635204E+04  0.25500000920E-02 0. -1.
    10030    2    1    2    0    0  0.00000000000E+00  0.00000000000E+00 -0.35264824652E+03  0.35090787943E+04  0.34913139645E+04 0.  0.
        2    1    3    3  502    0  0.35711788547E+03 -0.15404963054E+04 -0.91944826946E+03  0.18292203726E+04  0.25500000920E-02 0. -1.
       -2    1    3    3    0  502 -0.35711788547E+03  0.15404963054E+04  0.56680002294E+03  0.16798584218E+04  0.25500000920E-02 0.  1.
</event>
<event>
 5   0  0.3190185E-07  0.3499274E+04  0.7818609E-02  0.8113962E-01
       -2   -1    0    0    0  501  0.00000000000E+00  0.00000000000E+00  0.11522992565E+04  0.11522992565E+04  0.25500000920E-02 0.  1.
        2   -1    0    0  501    0  0.00000000000E+00  0.00000000000E+00 -0.26566278546E+04  0.26566278546E+04  0.25500000920E-02 0. -1.
    10030    2    1    2    0    0  0.00000000000E+00  0.00000000000E+00 -0.15043285980E+04  0.38089271111E+04  0.34992743829E+04 0.  0.
        1    1    3    3  502    0 -0.15199853145E+04  0.40102112736E+03  0.83961546639E+02  0.15742372255E+04  0.50400001928E-02 0.  1.
       -1    1    3    3    0  502  0.15199853145E+04 -0.40102112736E+03 -0.15882901447E+04  0.22346898856E+04  0.50400001928E-02 0. -1.
</event>
<event>
 5   0  0.2180451E-07  0.3504012E+04  0.7818609E-02  0.8112840E-01
       -2   -1    0    0    0  501  0.00000000000E+00  0.00000000000E+00  0.21926018086E+04  0.21926018086E+04  0.25500000920E-02 0.  1.
        2   -1    0    0  501    0  0.00000000000E+00  0.00000000000E+00 -0.13999461638E+04  0.13999461638E+04  0.25500000920E-02 0. -1.
    10030    2    1    2    0    0  0.00000000000E+00  0.00000000000E+00  0.79265564482E+03  0.35925479724E+04  0.35040116956E+04 0.  0.
        4    1    3    3  502    0  0.15230032757E+04  0.68408535095E+03  0.94079305849E+03  0.19164041685E+04  0.12699999809E+01 0.  1.
       -4    1    3    3    0  502 -0.15230032757E+04 -0.68408535095E+03 -0.14813741368E+03  0.16761438039E+04  0.12699999809E+01 0. -1.
</event>
<event>
 5   0  0.2180451E-07  0.3476096E+04  0.7818609E-02  0.8119478E-01
        2   -1    0    0  501    0  0.00000000000E+00  0.00000000000E+00  0.18394556801E+04  0.18394556801E+04  0.25500000920E-02 0.  1.
       -2   -1    0    0    0  501  0.00000000000E+00  0.00000000000E+00 -0.16422306865E+04  0.16422306865E+04  0.25500000920E-02 0. -1.
    10030    2    1    2    0    0  0.00000000000E+00  0.00000000000E+00  0.19722499367E+03  0.34816863666E+04  0.34760958355E+04 0.  0.
        4    1    3    3  502    0 -0.24585574628E+03 -0.43226091808E+03 -0.15694530728E+04  0.16463532762E+04  0.12699999809E+01 0. -1.
       -4    1    3    3    0  502  0.24585574628E+03  0.43226091808E+03  0.17666780665E+04  0.18353330904E+04  0.12699999809E+01 0.  1.
</event>
<event>
 5   0  0.1098171E-07  0.3538362E+04  0.7818609E-02  0.8104758E-01
       -1   -1    0    0    0  501  0.00000000000E+00  0.00000000000E+00  0.23883194863E+04  0.23883194863E+04  0.50400001928E-02 0. -1.
        1   -1    0    0  501    0  0.00000000000E+00  0.00000000000E+00 -0.13105453786E+04  0.13105453786E+04  0.50400001928E-02 0.  1.
    10030    2    1    2    0    0  0.00000000000E+00  0.00000000000E+00  0.10777741077E+04  0.36988648649E+04  0.35383618047E+04 0.  0.
        4    1    3    3  502    0  0.99951730655E+03 -0.14488024095E+04  0.35207377593E+03  0.17949988369E+04  0.12699999809E+01 0. -1.
       -4    1    3    3    0  502 -0.99951730655E+03  0.14488024095E+04  0.72570033180E+03  0.19038660280E+04  0.12699999809E+01 0.  1.
</event>
<event>
 5   0  0.1033796E-07  0.3491128E+04  0.7818609E-02  0.8115896E-01
        1   -1    0    0  501    0  0.00000000000E+00  0.00000000000E+00  0.26842829975E+04  0.26842829975E+04  0.50400001928E-02 0. -1.
       -1   -1    0    0    0  501  0.00000000000E+00  0.00000000000E+00 -0.11351237236E+04  0.11351237236E+04  0.50400001928E-02 0.  1.
    10030    2    1    2    0    0  0.00000000000E+00  0.00000000000E+00  0.15491592740E+04  0.38194067211E+04  0.34911277899E+04 0.  0.
        3    1    3    3  502    0  0.11612066058E+04  0.11632093759E+04  0.13148171475E+03  0.16488615118E+04  0.10100000352E+00 0.  1.
       -3    1    3    3    0  502 -0.11612066058E+04 -0.11632093759E+04  0.14176775592E+04  0.21705452093E+04  0.10100000352E+00 0. -1.
</event>
<event>
 5   0  0.1098171E-07  0.3505397E+04  0.7818609E-02  0.8112512E-01
        1   -1    0    0  501    0  0.00000000000E+00  0.00000000000E+00  0.12156206306E+04  0.12156206306E+04  0.50400001928E-02 0.  1.
       -1   -1    0    0    0  501  0.00000000000E+00  0.00000000000E+00 -0.25270654420E+04  0.25270654420E+04  0.50400001928E-02 0. -1.
    10030    2    1    2    0    0  0.00000000000E+00  0.00000000000E+00 -0.13114448114E+04  0.37426860726E+04  0.35053974874E+04 0.  0.
        4    1    3    3  502    0  0.39581142101E+03 -0.27846746302E+03  0.11428688040E+04  0.12411130186E+04  0.12699999809E+01 0.  1.
       -4    1    3    3    0  502 -0.39581142101E+03  0.27846746302E+03 -0.24543136154E+04  0.25015730540E+04  0.12699999809E+01 0. -1.
</event>
<event>
 5   0  0.2180451E-07  0.3485787E+04  0.7818609E-02  0.8117167E-01
        2   -1    0    0  501    0  0.00000000000E+00  0.00000000000E+00  0.16382417068E+04  0.16382417068E+04  0.25500000920E-02 0.  1.
       -2   -1    0    0    0  501  0.00000000000E+00  0.00000000000E+00 -0.18542299844E+04  0.18542299844E+04  0.25500000920E-02 0. -1.
    10030    2    1    2    0    0  0.00000000000E+00  0.00000000000E+00 -0.21598827769E+03  0.34924716912E+04  0.34857865078E+04 0.  0.
        4    1    3    3  502    0  0.68364887701E+03  0.46663374484E+03  0.14287507123E+04  0.16511974593E+04  0.12699999809E+01 0.  1.
       -4    1    3    3    0  502 -0.68364887701E+03 -0.46663374484E+03 -0.16447389900E+04  0.18412742319E+04  0.12699999809E+01 0. -1.
</event>
<event>
 5   0  0.3219205E-07  0.3502257E+04  0.7818609E-02  0.8113255E-01
       -2   -1    0    0    0  501  0.00000000000E+00  0.00000000000E+00  0.19441616368E+04  0.19441616368E+04  0.25500000920E-02 0.  1.
        2   -1    0    0  501    0  0.00000000000E+00  0.00000000000E+00 -0.15772610776E+04  0.15772610776E+04  0.25500000920E-02 0. -1.
    10030    2    1    2    0    0  0.00000000000E+00  0.00000000000E+00  0.36690055923E+03  0.35214227144E+04  0.35022566886E+04 0.  0.
        2    1    3    3  502    0 -0.13442934696E+03  0.17446349541E+04  0.11504780302E+03  0.17535844346E+04  0.25500000920E-02 0. -1.
       -2    1    3    3    0  502  0.13442934696E+03 -0.17446349541E+04  0.25185275621E+03  0.17678382797E+04  0.25500000920E-02 0.  1.
</event>
<event>
 5   0  0.3219205E-07  0.3508660E+04  0.7818609E-02  0.8111741E-01
       -2   -1    0    0    0  501  0.00000000000E+00  0.00000000000E+00  0.28312171939E+04  0.28312171939E+04  0.25500000920E-02 0.  1.
        2   -1    0    0  501    0  0.00000000000E+00  0.00000000000E+00 -0.10870496738E+04  0.10870496738E+04  0.25500000920E-02 0. -1.
    10030    2    1    2    0    0  0.00000000000E+00  0.00000000000E+00  0.17441675201E+04  0.39182668677E+04  0.35086599876E+04 0.  0.
        2    1    3    3  502    0  0.12466810701E+03  0.17484483559E+04  0.95152120631E+03  0.19944940201E+04  0.25500000920E-02 0.  1.
       -2    1    3    3    0  502 -0.12466810701E+03 -0.17484483559E+04  0.79264631382E+03  0.19237728476E+04  0.25500000920E-02 0. -1.
</event>
<event>
 5   0  0.3190185E-07  0.3511658E+04  0.7818609E-02  0.8111033E-01
       -2   -1    0    0    0  501  0.00000000000E+00  0.00000000000E+00  0.91774165768E+03  0.91774165768E+03  0.25500000920E-02 0. -1.
        2   -1    0    0  501    0  0.00000000000E+00  0.00000000000E+00 -0.33592630656E+04  0.33592630656E+04  0.25500000920E-02 0.  1.
    10030    2    1    2    0    0  0.00000000000E+00  0.00000000000E+00 -0.24415214079E+04  0.42770047233E+04  0.35116581009E+04 0.  0.
        1    1    3    3  502    0 -0.13495743727E+04  0.67851265639E+03 -0.23109436777E+04  0.27608315946E+04  0.50400001928E-02 0.  1.
       -1    1    3    3    0  502  0.13495743727E+04 -0.67851265639E+03 -0.13057773022E+03  0.15161731286E+04  0.50400001928E-02 0. -1.
</event>
<event>
 5   0  0.3119048E-07  0.3494747E+04  0.7818609E-02  0.8115036E-01
        2   -1    0    0  501    0  0.00000000000E+00  0.00000000000E+00  0.10232523947E+04  0.10232523947E+04  0.25500000920E-02 0. -1.
       -2   -1    0    0    0  501  0.00000000000E+00  0.00000000000E+00 -0.29839305101E+04  0.29839305101E+04  0.25500000920E-02 0.  1.
    10030    2    1    2    0    0  0.00000000000E+00  0.00000000000E+00 -0.19606781154E+04  0.40071829048E+04  0.34947469379E+04 0.  0.
        3    1    3    3  502    0  0.12530335286E+03 -0.10708992969E+04 -0.25570236662E+04  0.27750488778E+04  0.10100000352E+00 0.  1.
       -3    1    3    3    0  502 -0.12530335286E+03  0.10708992969E+04  0.59634555075E+03  0.12321340270E+04  0.10100000352E+00 0. -1.
</event>
<event>
 5   0  0.1013863E-07  0.3494787E+04  0.7818609E-02  0.8115026E-01
        1   -1    0    0  501    0  0.00000000000E+00  0.00000000000E+00  0.34265948002E+04  0.34265948002E+04  0.50400001928E-02 0.  1.
       -1   -1    0    0    0  501  0.00000000000E+00  0.00000000000E+00 -0.89108403666E+03  0.89108403668E+03  0.50400001928E-02 0. -1.
    10030    2    1    2    0    0  0.00000000000E+00  0.00000000000E+00  0.25355107636E+04  0.43176788369E+04  0.34947869329E+04 0.  0.
        2    1    3    3  502    0 -0.78427853778E+03  0.10699308101E+04  0.26728948181E+04  0.29839925388E+04  0.25500000920E-02 0.  1.
       -2    1    3    3    0  502  0.78427853778E+03 -0.10699308101E+04 -0.13738405448E+03  0.13336862981E+04  0.25500000920E-02 0. -1.
</event>
<event>
 5   0  0.1033796E-07  0.3497005E+04  0.7818609E-02  0.8114500E-01
       -1   -1    0    0    0  501  0.00000000000E+00  0.00000000000E+00  0.16191531598E+04  0.16191531598E+04  0.50400001928E-02 0. -1.
        1   -1    0    0  501    0  0.00000000000E+00  0.00000000000E+00 -0.18881857029E+04  0.18881857029E+04  0.50400001928E-02 0.  1.
    10030    2    1    2    0    0  0.00000000000E+00  0.00000000000E+00 -0.26903254307E+03  0.35073388627E+04  0.34970054888E+04 0.  0.
        3    1    3    3  502    0  0.45466137677E+02 -0.29540030331E+03  0.15933434618E+04  0.16211329083E+04  0.10100000352E+00 0. -1.
       -3    1    3    3    0  502 -0.45466137677E+02  0.29540030331E+03 -0.18623760049E+04  0.18862059545E+04  0.10100000352E+00 0.  1.
</event>
<event>
 5   0  0.1072381E-07  0.3511307E+04  0.7818609E-02  0.8111116E-01
       -1   -1    0    0    0  501  0.00000000000E+00  0.00000000000E+00  0.11263341258E+04  0.11263341258E+04  0.50400001928E-02 0.  1.
        1   -1    0    0  501    0  0.00000000000E+00  0.00000000000E+00 -0.27365936564E+04  0.27365936564E+04  0.50400001928E-02 0. -1.
    10030    2    1    2    0    0  0.00000000000E+00  0.00000000000E+00 -0.16102595305E+04  0.38629277822E+04  0.35113067788E+04 0.  0.
        1    1    3    3  502    0 -0.41300079421E+03 -0.78722247178E+03 -0.24706808515E+04  0.26257480355E+04  0.50400001928E-02 0. -1.
       -1    1    3    3    0  502  0.41300079421E+03  0.78722247178E+03  0.86042132092E+03  0.12371797467E+04  0.50400001928E-02 0.  1.
</event>
<event>
 5   0  0.1013863E-07  0.3612058E+04  0.7818609E-02  0.8087735E-01
        1   -1    0    0  501    0  0.00000000000E+00  0.00000000000E+00  0.14641929946E+04  0.14641929946E+04  0.50400001928E-02 0.  1.
       -1   -1    0    0    0  501  0.00000000000E+00  0.00000000000E+00 -0.22276712755E+04  0.22276712755E+04  0.50400001928E-02 0. -1.
    10030    2    1    2    0    0  0.00000000000E+00  0.00000000000E+00 -0.76347828083E+03  0.36918642701E+04  0.36120579596E+04 0.  0.
        2    1    3    3  502    0  0.10439422770E+04  0.23384154644E+03 -0.18689631984E+04  0.21534903723E+04  0.25500000920E-02 0. -1.
       -2    1    3    3    0  502 -0.10439422770E+04 -0.23384154644E+03  0.11054849176E+04  0.15383738978E+04  0.25500000920E-02 0.  1.
</event>
<event>
 5   0  0.3119048E-07  0.3491960E+04  0.7818609E-02  0.8115698E-01
        2   -1    0    0  501    0  0.00000000000E+00  0.00000000000E+00  0.17342153484E+04  0.17342153484E+04  0.25500000920E-02 0. -1.
       -2   -1    0    0    0  501  0.00000000000E+00  0.00000000000E+00 -0.17578249323E+04  0.17578249323E+04  0.25500000920E-02 0.  1.
    10030    2    1    2    0    0  0.00000000000E+00  0.00000000000E+00 -0.23609583893E+02  0.34920402807E+04  0.34919604679E+04 0.  0.
        3    1    3    3  502    0 -0.55952722317E+03 -0.60665737766E+03 -0.15504572211E+04  0.17564229252E+04  0.10100000352E+00 0.  1.
       -3    1    3    3    0  502  0.55952722317E+03  0.60665737766E+03  0.15268476372E+04  0.17356173555E+04  0.10100000352E+00 0. -1.
</event>
<event>
 5   0  0.1013863E-07  0.3488705E+04  0.7818609E-02  0.8116472E-01
       -1   -1    0    0    0  501  0.00000000000E+00  0.00000000000E+00  0.29571522670E+04  0.29571522670E+04  0.50400001928E-02 0.  1.
        1   -1    0    0  501    0  0.00000000000E+00  0.00000000000E+00 -0.10289514938E+04  0.10289514938E+04  0.50400001928E-02 0. -1.
    10030    2    1    2    0    0  0.00000000000E+00  0.00000000000E+00  0.19282007731E+04  0.39861037608E+04  0.34887053430E+04 0.  0.
        2    1    3    3  502    0 -0.31101001160E+03  0.60344974470E+03 -0.87181626101E+03  0.11049626304E+04  0.25500000920E-02 0. -1.
       -2    1    3    3    0  502  0.31101001160E+03 -0.60344974470E+03  0.28000170341E+04  0.28811411304E+04  0.25500000920E-02 0.  1.
</event>
<event>
 5   0  0.3119048E-07  0.3500478E+04  0.7818609E-02  0.8113677E-01
       -2   -1    0    0    0  501  0.00000000000E+00  0.00000000000E+00  0.26929553862E+04  0.26929553862E+04  0.25500000920E-02 0. -1.
        2   -1    0    0  501    0  0.00000000000E+00  0.00000000000E+00 -0.11375370278E+04  0.11375370278E+04  0.25500000920E-02 0.  1.
    10030    2    1    2    0    0  0.00000000000E+00  0.00000000000E+00  0.15554183584E+04  0.38304924140E+04  0.35004779479E+04 0.  0.
        3    1    3    3  502    0  0.16458973640E+04 -0.54292833264E+03  0.10448274303E+04  0.20237128444E+04  0.10100000352E+00 0. -1.
       -3    1    3    3    0  502 -0.16458973640E+04  0.54292833264E+03  0.51059092813E+03  0.18067795696E+04  0.10100000352E+00 0.  1.
</event>
<event>
 5   0  0.2180451E-07  0.3509104E+04  0.7818609E-02  0.8111636E-01
        2   -1    0    0  501    0  0.00000000000E+00  0.00000000000E+00  0.29922360067E+04  0.29922360067E+04  0.25500000920E-02 0.  1.
       -2   -1    0    0    0  501  0.00000000000E+00  0.00000000000E+00 -0.10288133237E+04  0.10288133237E+04  0.25500000920E-02 0. -1.
    10030    2    1    2    0    0  0.00000000000E+00  0.00000000000E+00  0.19634226831E+04  0.40210493304E+04  0.35091037439E+04 0.  0.
        4    1    3    3  502    0 -0.81022596466E+03  0.72011871195E+03  0.25626309111E+04  0.27824657900E+04  0.12699999809E+01 0.  1.
       -4    1    3    3    0  502  0.81022596466E+03 -0.72011871195E+03 -0.59920822804E+03  0.12385835404E+04  0.12699999809E+01 0. -1.
</event>
<event>
 5   0  0.1013863E-07  0.3511219E+04  0.7818609E-02  0.8111136E-01
       -1   -1    0    0    0  501  0.00000000000E+00  0.00000000000E+00  0.13141442568E+04  0.13141442568E+04  0.50400001928E-02 0. -1.
        1   -1    0    0  501    0  0.00000000000E+00  0.00000000000E+00 -0.23453773851E+04  0.23453773851E+04  0.50400001928E-02 0.  1.
    10030    2    1    2    0    0  0.00000000000E+00  0.00000000000E+00 -0.10312331283E+04  0.36595216419E+04  0.35112187175E+04 0.  0.
        5    1    3    3  502    0  0.39426663018E+02 -0.84341621201E+03  0.10886283393E+04  0.13776934055E+04  0.46999998093E+01 0. -1.
       -5    1    3    3    0  502 -0.39426663018E+02  0.84341621201E+03 -0.21198614676E+04  0.22818282364E+04  0.46999998093E+01 0.  1.
</event>
<event>
 5   0  0.1033796E-07  0.3496501E+04  0.7818609E-02  0.8114620E-01
       -1   -1    0    0    0  501  0.00000000000E+00  0.00000000000E+00  0.94388280745E+03  0.94388280747E+03  0.50400001928E-02 0.  1.
        1   -1    0    0  501    0  0.00000000000E+00  0.00000000000E+00 -0.32380927180E+04  0.32380927180E+04  0.50400001928E-02 0. -1.
    10030    2    1    2    0    0  0.00000000000E+00  0.00000000000E+00 -0.22942099105E+04  0.41819755254E+04  0.34965011343E+04 0.  0.
        3    1    3    3  502    0 -0.61508510997E+03 -0.16355954338E+04 -0.10829415878E+04  0.20557880748E+04  0.10100000352E+00 0.  1.
       -3    1    3    3    0  502  0.61508510997E+03  0.16355954338E+04 -0.12112683227E+04  0.21261874507E+04  0.10100000352E+00 0. -1.
</event>
<event>
 5   0  0.1098171E-07  0.3484290E+04  0.7818609E-02  0.8117523E-01
       -1   -1    0    0    0  501  0.00000000000E+00  0.00000000000E+00  0.23513052514E+04  0.23513052514E+04  0.50400001928E-02 0. -1.
        1   -1    0    0  501    0  0.00000000000E+00  0.00000000000E+00 -0.12908015758E+04  0.12908015758E+04  0.50400001928E-02 0.  1.
    10030    2    1    2    0    0  0.00000000000E+00  0.00000000000E+00  0.10605036756E+04  0.36421068272E+04  0.34842896112E+04 0.  0.
        4    1    3    3  502    0  0.52207005111E+03 -0.95647223044E+03  0.19511099575E+04  0.22347769340E+04  0.12699999809E+01 0. -1.
       -4    1    3    3    0  502 -0.52207005111E+03  0.95647223044E+03 -0.89060628187E+03  0.14073298931E+04  0.12699999809E+01 0.  1.
</event>
<event>
 5   0  0.1013863E-07  0.3503426E+04  0.7818609E-02  0.8112978E-01
       -1   -1    0    0    0  501  0.00000000000E+00  0.00000000000E+00  0.16011313624E+04  0.16011313624E+04  0.50400001928E-02 0.  1.
        1   -1    0    0  501    0  0.00000000000E+00  0.00000000000E+00 -0.19164566830E+04  0.19164566830E+04  0.50400001928E-02 0. -1.
    10030    2    1    2    0    0  0.00000000000E+00  0.00000000000E+00 -0.31532532067E+03  0.35175880454E+04  0.35034262657E+04 0.  0.
        5    1    3    3  502    0  0.32587436557E+03 -0.58896668619E+03  0.14660947035E+04  0.16132363836E+04  0.46999998093E+01 0.  1.
       -5    1    3    3    0  502 -0.32587436557E+03  0.58896668619E+03 -0.17814200242E+04  0.19043516619E+04  0.46999998093E+01 0. -1.
</event>
<event>
 5   0  0.3219205E-07  0.3496692E+04  0.7818609E-02  0.8114574E-01
       -2   -1    0    0    0  501  0.00000000000E+00  0.00000000000E+00  0.19234305287E+04  0.19234305287E+04  0.25500000920E-02 0. -1.
        2   -1    0    0  501    0  0.00000000000E+00  0.00000000000E+00 -0.15891986930E+04  0.15891986930E+04  0.25500000920E-02 0.  1.
    10030    2    1    2    0    0  0.00000000000E+00  0.00000000000E+00  0.33423183569E+03  0.35126292218E+04  0.34966917407E+04 0.  0.
        2    1    3    3  502    0  0.99148136735E+02  0.14134761753E+04  0.11959754571E+04  0.18542121090E+04  0.25500000920E-02 0. -1.
       -2    1    3    3    0  502 -0.99148136735E+02 -0.14134761753E+04 -0.86174362138E+03  0.16584171128E+04  0.25500000920E-02 0.  1.
</event>
<event>
 5   0  0.1013863E-07  0.3490169E+04  0.7818609E-02  0.8116124E-01
        1   -1    0    0  501    0  0.00000000000E+00  0.00000000000E+00  0.21076363134E+04  0.21076363134E+04  0.50400001928E-02 0.  1.
       -1   -1    0    0    0  501  0.00000000000E+00  0.00000000000E+00 -0.14448981148E+04  0.14448981148E+04  0.50400001928E-02 0. -1.
    10030    2    1    2    0    0  0.00000000000E+00  0.00000000000E+00  0.66273819860E+03  0.35525344281E+04  0.34901688990E+04 0.  0.
        2    1    3    3  502    0  0.73167388475E+03 -0.11451463684E+04 -0.78300578952E+03  0.15683765317E+04  0.25500000920E-02 0. -1.
       -2    1    3    3    0  502 -0.73167388475E+03  0.11451463684E+04  0.14457439881E+04  0.19841578964E+04  0.25500000920E-02 0.  1.
</event>
<event>
 5   0  0.3119048E-07  0.3440031E+04  0.7818609E-02  0.8128151E-01
       -2   -1    0    0    0  501  0.00000000000E+00  0.00000000000E+00  0.11745849854E+04  0.11745849854E+04  0.25500000920E-02 0.  1.
        2   -1    0    0  501    0  0.00000000000E+00  0.00000000000E+00 -0.25187229058E+04  0.25187229058E+04  0.25500000920E-02 0. -1.
    10030    2    1    2    0    0  0.00000000000E+00  0.00000000000E+00 -0.13441379203E+04  0.36933078912E+04  0.34400314577E+04 0.  0.
        3    1    3    3  502    0  0.19291740739E+03 -0.16076935017E+04 -0.12949189055E+04  0.20733331868E+04  0.10100000352E+00 0. -1.
       -3    1    3    3    0  502 -0.19291740739E+03  0.16076935017E+04 -0.49219014861E+02  0.16199747044E+04  0.10100000352E+00 0.  1.
</event>
<event>
 5   0  0.1072381E-07  0.3498272E+04  0.7818609E-02  0.8114199E-01
        1   -1    0    0  501    0  0.00000000000E+00  0.00000000000E+00  0.23962121222E+04  0.23962121222E+04  0.50400001928E-02 0.  1.
       -1   -1    0    0    0  501  0.00000000000E+00  0.00000000000E+00 -0.12767974874E+04  0.12767974874E+04  0.50400001928E-02 0. -1.
    10030    2    1    2    0    0  0.00000000000E+00  0.00000000000E+00  0.11194146349E+04  0.36730096096E+04  0.34982724976E+04 0.  0.
        1    1    3    3  502    0 -0.42173882812E+03  0.74220567374E+03 -0.10432272068E+04  0.13479821610E+04  0.50400001928E-02 0. -1.
       -1    1    3    3    0  502  0.42173882812E+03 -0.74220567374E+03  0.21626418417E+04  0.23250274486E+04  0.50400001928E-02 0.  1.
</event>
<event>
 5   0  0.3119048E-07  0.3490071E+04  0.7818609E-02  0.8116147E-01
       -2   -1    0    0    0  501  0.00000000000E+00  0.00000000000E+00  0.16423253980E+04  0.16423253980E+04  0.25500000920E-02 0. -1.
        2   -1    0    0  501    0  0.00000000000E+00  0.00000000000E+00 -0.18541695473E+04  0.18541695473E+04  0.25500000920E-02 0.  1.
    10030    2    1    2    0    0  0.00000000000E+00  0.00000000000E+00 -0.21184414937E+03  0.34964949453E+04  0.34900714834E+04 0.  0.
        3    1    3    3  502    0  0.33277774534E+03  0.11522277907E+04 -0.13758432557E+04  0.18251889173E+04  0.10100000352E+00 0.  1.
       -3    1    3    3    0  502 -0.33277774534E+03 -0.11522277907E+04  0.11639991064E+04  0.16713060280E+04  0.10100000352E+00 0. -1.
</event>
<event>
 5   0  0.3119048E-07  0.3495114E+04  0.7818609E-02  0.8114949E-01
        2   -1    0    0  501    0  0.00000000000E+00  0.00000000000E+00  0.22895572643E+04  0.22895572643E+04  0.25500000920E-02 0. -1.
       -2   -1    0    0    0  501  0.00000000000E+00  0.00000000000E+00 -0.13338629486E+04  0.13338629486E+04  0.25500000920E-02 0.  1.
    10030    2    1    2    0    0  0.00000000000E+00  0.00000000000E+00  0.95569431578E+03  0.36234202129E+04  0.34951140774E+04 0.  0.
        3    1    3    3  502    0  0.14626631265E+04 -0.14644966296E+03  0.14575929112E+04  0.20701227090E+04  0.10100000352E+00 0. -1.
       -3    1    3    3    0  502 -0.14626631265E+04  0.14644966296E+03 -0.50189859546E+03  0.15532975039E+04  0.10100000352E+00 0.  1.
</event>
<event>
 5   0  0.3190112E-07  0.3496941E+04  0.7818609E-02  0.8114515E-01
       -2   -1    0    0    0  501  0.00000000000E+00  0.00000000000E+00  0.10160375017E+04  0.10160375017E+04  0.25500000920E-02 0. -1.
        2   -1    0    0  501    0  0.00000000000E+00  0.00000000000E+00 -0.30088940781E+04  0.30088940781E+04  0.25500000920E-02 0.  1.
    10030    2    1    2    0    0  0.00000000000E+00  0.00000000000E+00 -0.19928565764E+04  0.40249315799E+04  0.34969410759E+04 0.  0.
        5    1    3    3  502    0 -0.85820065525E+03 -0.73639282408E+03  0.53846476546E+03  0.12524971655E+04  0.46999998093E+01 0. -1.
       -5    1    3    3    0  502  0.85820065525E+03  0.73639282408E+03 -0.25313213419E+04  0.27724344143E+04  0.46999998093E+01 0.  1.
</event>
<event>
 5   0  0.3190185E-07  0.3510827E+04  0.7818609E-02  0.8111229E-01
       -2   -1    0    0    0  501  0.00000000000E+00  0.00000000000E+00  0.12953748547E+04  0.12953748547E+04  0.25500000920E-02 0.  1.
        2   -1    0    0  501    0  0.00000000000E+00  0.00000000000E+00 -0.23788305539E+04  0.23788305539E+04  0.25500000920E-02 0. -1.
    10030    2    1    2    0    0  0.00000000000E+00  0.00000000000E+00 -0.10834556992E+04  0.36742054086E+04  0.35108274142E+04 0.  0.
        1    1    3    3  502    0 -0.12578673048E+04 -0.24934846426E+03  0.71283749335E+03  0.14671544244E+04  0.50400001928E-02 0.  1.
       -1    1    3    3    0  502  0.12578673048E+04  0.24934846426E+03 -0.17962931925E+04  0.22070509841E+04  0.50400001928E-02 0. -1.
</event>
<event>
 5   0  0.1072381E-07  0.3493382E+04  0.7818609E-02  0.8115360E-01
       -1   -1    0    0    0  501  0.00000000000E+00  0.00000000000E+00  0.16460305654E+04  0.16460305654E+04  0.50400001928E-02 0.  1.
        1   -1    0    0  501    0  0.00000000000E+00  0.00000000000E+00 -0.18535071164E+04  0.18535071164E+04  0.50400001928E-02 0. -1.
    10030    2    1    2    0    0  0.00000000000E+00  0.00000000000E+00 -0.20747655098E+03  0.34995376818E+04  0.34933819527E+04 0.  0.
        1    1    3    3  502    0 -0.87472139836E+03 -0.13594929663E+04  0.55891862845E+03  0.17104820032E+04  0.50400001928E-02 0.  1.
       -1    1    3    3    0  502  0.87472139836E+03  0.13594929663E+04 -0.76639517944E+03  0.17890556786E+04  0.50400001928E-02 0. -1.
</event>
<event>
 5   0  0.1013863E-07  0.3505291E+04  0.7818609E-02  0.8112537E-01
       -1   -1    0    0    0  501  0.00000000000E+00  0.00000000000E+00  0.25951480402E+04  0.25951480402E+04  0.50400001928E-02 0.  1.
        1   -1    0    0  501    0  0.00000000000E+00  0.00000000000E+00 -0.11836577101E+04  0.11836577101E+04  0.50400001928E-02 0. -1.
    10030    2    1    2    0    0  0.00000000000E+00  0.00000000000E+00  0.14114903301E+04  0.37788057502E+04  0.35052914210E+04 0.  0.
        2    1    3    3  502    0 -0.40785136908E+03  0.59713757430E+03  0.24268315094E+04  0.25322770774E+04  0.25500000920E-02 0.  1.
       -2    1    3    3    0  502  0.40785136908E+03 -0.59713757430E+03 -0.10153411792E+04  0.12465286728E+04  0.25500000920E-02 0. -1.
</event>
<event>
 5   0  0.1013863E-07  0.3501573E+04  0.7818609E-02  0.8113417E-01
       -1   -1    0    0    0  501  0.00000000000E+00  0.00000000000E+00  0.16210233857E+04  0.16210233857E+04  0.50400001928E-02 0. -1.
        1   -1    0    0  501    0  0.00000000000E+00  0.00000000000E+00 -0.18909370159E+04  0.18909370159E+04  0.50400001928E-02 0.  1.
    10030    2    1    2    0    0  0.00000000000E+00  0.00000000000E+00 -0.26991363022E+03  0.35119604015E+04  0.35015728600E+04 0.  0.
        5    1    3    3  502    0  0.61246331144E+03 -0.11144505987E+04  0.10719914564E+04  0.16632195337E+04  0.46999998093E+01 0. -1.
       -5    1    3    3    0  502 -0.61246331144E+03  0.11144505987E+04 -0.13419050866E+04  0.18487408678E+04  0.46999998093E+01 0.  1.
</event>
<event>
 5   0  0.3219205E-07  0.3490898E+04  0.7818609E-02  0.8115950E-01
        2   -1    0    0  501    0  0.00000000000E+00  0.00000000000E+00  0.24064127958E+04  0.24064127958E+04  0.25500000920E-02 0. -1.
       -2   -1    0    0    0  501  0.00000000000E+00  0.00000000000E+00 -0.12660307876E+04  0.12660307876E+04  0.25500000920E-02 0.  1.
    10030    2    1    2    0    0  0.00000000000E+00  0.00000000000E+00  0.11403820081E+04  0.36724435834E+04  0.34908982725E+04 0.  0.
        2    1    3    3  502    0 -0.98339785422E+03 -0.30124849384E+03  0.20537686988E+04  0.22969083271E+04  0.25500000920E-02 0. -1.
       -2    1    3    3    0  502  0.98339785422E+03  0.30124849384E+03 -0.91338669065E+03  0.13755352563E+04  0.25500000920E-02 0.  1.
</event>
<event>
 5   0  0.1033796E-07  0.3523372E+04  0.7818609E-02  0.8108273E-01
        1   -1    0    0  501    0  0.00000000000E+00  0.00000000000E+00  0.21126728042E+04  0.21126728042E+04  0.50400001928E-02 0.  1.
       -1   -1    0    0    0  501  0.00000000000E+00  0.00000000000E+00 -0.14690096705E+04  0.14690096705E+04  0.50400001928E-02 0. -1.
    10030    2    1    2    0    0  0.00000000000E+00  0.00000000000E+00  0.64366313366E+03  0.35816824747E+04  0.35233715558E+04 0.  0.
        3    1    3    3  502    0  0.90494344785E+03 -0.15106242078E+04  0.26971290344E+03  0.17814750073E+04  0.10100000352E+00 0. -1.
       -3    1    3    3    0  502 -0.90494344785E+03  0.15106242078E+04  0.37395023023E+03  0.18002074675E+04  0.10100000352E+00 0.  1.
</event>
<event>
 5   0  0.1098171E-07  0.3500205E+04  0.7818609E-02  0.8113741E-01
       -1   -1    0    0    0  501  0.00000000000E+00  0.00000000000E+00  0.17577600470E+04  0.17577600471E+04  0.50400001928E-02 0.  1.
        1   -1    0    0  501    0  0.00000000000E+00  0.00000000000E+00 -0.17424787898E+04  0.17424787898E+04  0.50400001928E-02 0. -1.
    10030    2    1    2    0    0  0.00000000000E+00  0.00000000000E+00  0.15281257260E+02  0.35002388368E+04  0.35002054794E+04 0.  0.
        4    1    3    3  502    0 -0.12637787903E+04  0.12069054355E+04  0.10303768809E+03  0.17505359006E+04  0.12699999809E+01 0.  1.
       -4    1    3    3    0  502  0.12637787903E+04 -0.12069054355E+04 -0.87756430834E+02  0.17497029363E+04  0.12699999809E+01 0. -1.
</event>
<event>
 5   0  0.2180451E-07  0.3494584E+04  0.7818609E-02  0.8115075E-01
       -2   -1    0    0    0  501  0.00000000000E+00  0.00000000000E+00  0.10903959102E+04  0.10903959102E+04  0.25500000920E-02 0.  1.
        2   -1    0    0  501    0  0.00000000000E+00  0.00000000000E+00 -0.27999281498E+04  0.27999281498E+04  0.25500000920E-02 0. -1.
    10030    2    1    2    0    0  0.00000000000E+00  0.00000000000E+00 -0.17095322396E+04  0.38903240600E+04  0.34945844980E+04 0.  0.
        4    1    3    3  502    0  0.88690609538E+03  0.83947159517E+03 -0.22459704813E+04  0.25565015151E+04  0.12699999809E+01 0. -1.
       -4    1    3    3    0  502 -0.88690609538E+03 -0.83947159517E+03  0.53643824174E+03  0.13338225449E+04  0.12699999809E+01 0.  1.
</event>
<event>
 5   0  0.1013863E-07  0.3492119E+04  0.7818609E-02  0.8115660E-01
       -3   -1    0    0    0  501  0.00000000000E+00  0.00000000000E+00  0.13823433003E+04  0.13823433040E+04  0.10100000352E+00 0. -1.
        3   -1    0    0  501    0  0.00000000000E+00  0.00000000000E+00 -0.22054751249E+04  0.22054751272E+04  0.10100000352E+00 0.  1.
    10030    2    1    2    0    0  0.00000000000E+00  0.00000000000E+00 -0.82313182461E+03  0.35878184312E+04  0.34921189977E+04 0.  0.
        3    1    3    3  502    0  0.17226368397E+04 -0.48025919764E+02 -0.70022741178E+03  0.18601351050E+04  0.10100000352E+00 0. -1.
       -3    1    3    3    0  502 -0.17226368397E+04  0.48025919764E+02 -0.12290441284E+03  0.17276833261E+04  0.10100000352E+00 0.  1.
</event>
<event>
 5   0  0.1098171E-07  0.3510819E+04  0.7818609E-02  0.8111231E-01
        1   -1    0    0  501    0  0.00000000000E+00  0.00000000000E+00  0.22029623081E+04  0.22029623081E+04  0.50400001928E-02 0.  1.
       -1   -1    0    0    0  501  0.00000000000E+00  0.00000000000E+00 -0.13987813542E+04  0.13987813542E+04  0.50400001928E-02 0. -1.
    10030    2    1    2    0    0  0.00000000000E+00  0.00000000000E+00  0.80418095388E+03  0.36017436623E+04  0.35108190500E+04 0.  0.
        4    1    3    3  502    0 -0.15221997105E+04 -0.71705582170E+03  0.91524479476E+03  0.19154465948E+04  0.12699999809E+01 0.  1.
       -4    1    3    3    0  502  0.15221997105E+04  0.71705582170E+03 -0.11106384089E+03  0.16862970675E+04  0.12699999809E+01 0. -1.
</event>
<event>
 5   0  0.1098171E-07  0.3513003E+04  0.7818609E-02  0.8110715E-01
        1   -1    0    0  501    0  0.00000000000E+00  0.00000000000E+00  0.15115674681E+04  0.15115674681E+04  0.50400001928E-02 0.  1.
       -1   -1    0    0    0  501  0.00000000000E+00  0.00000000000E+00 -0.20411240732E+04  0.20411240733E+04  0.50400001928E-02 0. -1.
    10030    2    1    2    0    0  0.00000000000E+00  0.00000000000E+00 -0.52955660519E+03  0.35526915413E+04  0.35130025604E+04 0.  0.
        4    1    3    3  502    0 -0.14242066297E+04 -0.10994034236E+03 -0.12985025573E+04  0.19304304979E+04  0.12699999809E+01 0. -1.
       -4    1    3    3    0  502  0.14242066297E+04  0.10994034236E+03  0.76894595213E+03  0.16222610434E+04  0.12699999809E+01 0.  1.
</event>
<event>
 5   0  0.1072381E-07  0.3290821E+04  0.7818609E-02  0.8165235E-01
        1   -1    0    0  501    0  0.00000000000E+00  0.00000000000E+00  0.12813177968E+04  0.12813177968E+04  0.50400001928E-02 0. -1.
       -1   -1    0    0    0  501  0.00000000000E+00  0.00000000000E+00 -0.21129617395E+04  0.21129617395E+04  0.50400001928E-02 0.  1.
    10030    2    1    2    0    0  0.00000000000E+00  0.00000000000E+00 -0.83164394270E+03  0.33942795364E+04  0.32908208586E+04 0.  0.
        1    1    3    3  502    0 -0.12337983265E+04 -0.38193212705E+03 -0.14673051773E+04  0.19547672352E+04  0.50400001928E-02 0.  1.
       -1    1    3    3    0  502  0.12337983265E+04  0.38193212705E+03  0.63566123463E+03  0.14395123012E+04  0.50400001928E-02 0. -1.
</event>
<event>
 5   0  0.3190185E-07  0.3499797E+04  0.7818609E-02  0.8113838E-01
       -2   -1    0    0    0  501  0.00000000000E+00  0.00000000000E+00  0.18148664962E+04  0.18148664962E+04  0.25500000920E-02 0.  1.
        2   -1    0    0  501    0  0.00000000000E+00  0.00000000000E+00 -0.16872562863E+04  0.16872562863E+04  0.25500000920E-02 0. -1.
    10030    2    1    2    0    0  0.00000000000E+00  0.00000000000E+00  0.12761020984E+03  0.35021227825E+04  0.34997970824E+04 0.  0.
        1    1    3    3  502    0 -0.99260293105E+03  0.14284872779E+04 -0.12686921009E+03  0.17441136082E+04  0.50400001928E-02 0. -1.
       -1    1    3    3    0  502  0.99260293105E+03 -0.14284872779E+04  0.25447941992E+03  0.17580091743E+04  0.50400001928E-02 0.  1.
</event>
<event>
 5   0  0.1033796E-07  0.3488401E+04  0.7818609E-02  0.8116544E-01
       -1   -1    0    0    0  501  0.00000000000E+00  0.00000000000E+00  0.12098532405E+04  0.12098532406E+04  0.50400001928E-02 0. -1.
        1   -1    0    0  501    0  0.00000000000E+00  0.00000000000E+00 -0.25145485169E+04  0.25145485169E+04  0.50400001928E-02 0.  1.
    10030    2    1    2    0    0  0.00000000000E+00  0.00000000000E+00 -0.13046952763E+04  0.37244017574E+04  0.34884005915E+04 0.  0.
        3    1    3    3  502    0 -0.10912424527E+04  0.82695048211E+03  0.50129958397E+03  0.14580666904E+04  0.10100000352E+00 0. -1.
       -3    1    3    3    0  502  0.10912424527E+04 -0.82695048211E+03 -0.18059948603E+04  0.22663350671E+04  0.10100000352E+00 0.  1.
</event>
<event>
 5   0  0.3219205E-07  0.3501619E+04  0.7818609E-02  0.8113406E-01
        2   -1    0    0  501    0  0.00000000000E+00  0.00000000000E+00  0.10495518648E+04  0.10495518648E+04  0.25500000920E-02 0.  1.
       -2   -1    0    0    0  501  0.00000000000E+00  0.00000000000E+00 -0.29206116248E+04  0.29206116248E+04  0.25500000920E-02 0. -1.
    10030    2    1    2    0    0  0.00000000000E+00  0.00000000000E+00 -0.18710597599E+04  0.39701634896E+04  0.35016186984E+04 0.  0.
        2    1    3    3  502    0  0.15212729610E+04  0.10021369279E+03 -0.19115398644E+04  0.24450560033E+04  0.25500000920E-02 0. -1.
       -2    1    3    3    0  502 -0.15212729610E+04 -0.10021369279E+03  0.40480104423E+02  0.15251074864E+04  0.25500000920E-02 0.  1.
</event>
<event>
 5   0  0.3119048E-07  0.3505684E+04  0.7818609E-02  0.8112444E-01
       -2   -1    0    0    0  501  0.00000000000E+00  0.00000000000E+00  0.13927213388E+04  0.13927213388E+04  0.25500000920E-02 0.  1.
        2   -1    0    0  501    0  0.00000000000E+00  0.00000000000E+00 -0.22060800351E+04  0.22060800351E+04  0.25500000920E-02 0. -1.
    10030    2    1    2    0    0  0.00000000000E+00  0.00000000000E+00 -0.81335869627E+03  0.35988013739E+04  0.35056838077E+04 0.  0.
        3    1    3    3  502    0 -0.32524313881E+03  0.19807711854E+03 -0.21631015578E+04  0.21963665459E+04  0.10100000352E+00 0. -1.
       -3    1    3    3    0  502  0.32524313881E+03 -0.19807711854E+03  0.13497428616E+04  0.14024348280E+04  0.10100000352E+00 0.  1.
</event>
<event>
 5   0  0.1013863E-07  0.3499463E+04  0.7818609E-02  0.8113917E-01
        1   -1    0    0  501    0  0.00000000000E+00  0.00000000000E+00  0.17450087048E+04  0.17450087048E+04  0.50400001928E-02 0.  1.
       -1   -1    0    0    0  501  0.00000000000E+00  0.00000000000E+00 -0.17544670299E+04  0.17544670299E+04  0.50400001928E-02 0. -1.
    10030    2    1    2    0    0  0.00000000000E+00  0.00000000000E+00 -0.94583251127E+01  0.34994757347E+04  0.34994629527E+04 0.  0.
        5    1    3    3  502    0 -0.67769955780E+03 -0.11905985931E+04 -0.10931891313E+04  0.17526797389E+04  0.46999998093E+01 0. -1.
       -5    1    3    3    0  502  0.67769955780E+03  0.11905985931E+04  0.10837308062E+04  0.17467959957E+04  0.46999998093E+01 0.  1.
</event>
<event>
 5   0  0.1013863E-07  0.3500524E+04  0.7818609E-02  0.8113666E-01
        1   -1    0    0  501    0  0.00000000000E+00  0.00000000000E+00  0.19125765294E+04  0.19125765294E+04  0.50400001928E-02 0. -1.
       -1   -1    0    0    0  501  0.00000000000E+00  0.00000000000E+00 -0.16017224765E+04  0.16017224765E+04  0.50400001928E-02 0.  1.
    10030    2    1    2    0    0  0.00000000000E+00  0.00000000000E+00  0.31085405286E+03  0.35142990059E+04  0.35005238552E+04 0.  0.
        5    1    3    3  502    0 -0.76598681421E+03  0.90236254308E+03 -0.11389879625E+04  0.16426532280E+04  0.46999998093E+01 0.  1.
       -5    1    3    3    0  502  0.76598681421E+03 -0.90236254308E+03  0.14498420153E+04  0.18716457780E+04  0.46999998093E+01 0. -1.
</event>
<event>
 5   0  0.2180451E-07  0.3502271E+04  0.7818609E-02  0.8113252E-01
        2   -1    0    0  501    0  0.00000000000E+00  0.00000000000E+00  0.25305808394E+04  0.25305808394E+04  0.25500000920E-02 0.  1.
       -2   -1    0    0    0  501  0.00000000000E+00  0.00000000000E+00 -0.12117674002E+04  0.12117674002E+04  0.25500000920E-02 0. -1.
    10030    2    1    2    0    0  0.00000000000E+00  0.00000000000E+00  0.13188134391E+04  0.37423482396E+04  0.35022709003E+04 0.  0.
        4    1    3    3  502    0 -0.15813211282E+04 -0.43369060106E+03  0.13162035018E+04  0.21026310468E+04  0.12699999809E+01 0.  1.
       -4    1    3    3    0  502  0.15813211282E+04  0.43369060106E+03  0.26099373465E+01  0.16397171928E+04  0.12699999809E+01 0. -1.
</event>
<event>
 5   0  0.2180451E-07  0.3557150E+04  0.7818609E-02  0.8100378E-01
       -2   -1    0    0    0  501  0.00000000000E+00  0.00000000000E+00  0.21040016547E+04  0.21040016547E+04  0.25500000920E-02 0. -1.
        2   -1    0    0  501    0  0.00000000000E+00  0.00000000000E+00 -0.15034823270E+04  0.15034823270E+04  0.25500000920E-02 0.  1.
    10030    2    1    2    0    0  0.00000000000E+00  0.00000000000E+00  0.60051932774E+03  0.36074839817E+04  0.35571501536E+04 0.  0.
        4    1    3    3  502    0  0.37974834536E+03  0.13562490890E+04 -0.80125262258E+03  0.16203788987E+04  0.12699999809E+01 0.  1.
       -4    1    3    3    0  502 -0.37974834536E+03 -0.13562490890E+04  0.14017719503E+04  0.19871050830E+04  0.12699999809E+01 0. -1.
</event>
<event>
 5   0  0.3219205E-07  0.3504497E+04  0.7818609E-02  0.8112725E-01
        2   -1    0    0  501    0  0.00000000000E+00  0.00000000000E+00  0.14041197574E+04  0.14041197574E+04  0.25500000920E-02 0. -1.
       -2   -1    0    0    0  501  0.00000000000E+00  0.00000000000E+00 -0.21866896251E+04  0.21866896251E+04  0.25500000920E-02 0.  1.
    10030    2    1    2    0    0  0.00000000000E+00  0.00000000000E+00 -0.78256986763E+03  0.35908093825E+04  0.35044966006E+04 0.  0.
        2    1    3    3  502    0 -0.57440152864E+02 -0.12646671657E+04  0.85003613470E+03  0.15248750249E+04  0.25500000920E-02 0. -1.
       -2    1    3    3    0  502  0.57440152864E+02  0.12646671657E+04 -0.16326060023E+04  0.20659343576E+04  0.25500000920E-02 0.  1.
</event>
<event>
 5   0  0.1033796E-07  0.3504675E+04  0.7818609E-02  0.8112683E-01
        1   -1    0    0  501    0  0.00000000000E+00  0.00000000000E+00  0.25465142048E+04  0.25465142048E+04  0.50400001928E-02 0.  1.
       -1   -1    0    0    0  501  0.00000000000E+00  0.00000000000E+00 -0.12058392275E+04  0.12058392276E+04  0.50400001928E-02 0. -1.
    10030    2    1    2    0    0  0.00000000000E+00  0.00000000000E+00  0.13406749773E+04  0.37523534324E+04  0.35046750044E+04 0.  0.
        3    1    3    3  502    0  0.16783041730E+03  0.11459414385E+04 -0.73764065749E+03  0.13731214728E+04  0.10100000352E+00 0. -1.
       -3    1    3    3    0  502 -0.16783041730E+03 -0.11459414385E+04  0.20783156348E+04  0.23792319595E+04  0.10100000352E+00 0.  1.
</event>
<event>
 5   0  0.3190185E-07  0.3510339E+04  0.7818609E-02  0.8111344E-01
       -2   -1    0    0    0  501  0.00000000000E+00  0.00000000000E+00  0.10072453219E+04  0.10072453219E+04  0.25500000920E-02 0. -1.
        2   -1    0    0  501    0  0.00000000000E+00  0.00000000000E+00 -0.30584608567E+04  0.30584608567E+04  0.25500000920E-02 0.  1.
    10030    2    1    2    0    0  0.00000000000E+00  0.00000000000E+00 -0.20512155348E+04  0.40657061786E+04  0.35103392372E+04 0.  0.
        1    1    3    3  502    0 -0.37642532717E+03 -0.63391170796E+03  0.81921227682E+03  0.11021110810E+04  0.50400001928E-02 0. -1.
       -1    1    3    3    0  502  0.37642532717E+03  0.63391170796E+03 -0.28704278117E+04  0.29635950976E+04  0.50400001928E-02 0.  1.
</event>
<event>
 5   0  0.1013863E-07  0.3516008E+04  0.7818609E-02  0.8110007E-01
       -1   -1    0    0    0  501  0.00000000000E+00  0.00000000000E+00  0.12289120052E+04  0.12289120052E+04  0.50400001928E-02 0.  1.
        1   -1    0    0  501    0  0.00000000000E+00  0.00000000000E+00 -0.25148898420E+04  0.25148898420E+04  0.50400001928E-02 0. -1.
    10030    2    1    2    0    0  0.00000000000E+00  0.00000000000E+00 -0.12859778368E+04  0.37438018472E+04  0.35160081448E+04 0.  0.
        5    1    3    3  502    0 -0.32434715658E+03  0.77922130904E+02  0.11948984053E+04  0.12405955124E+04  0.46999998093E+01 0.  1.
       -5    1    3    3    0  502  0.32434715658E+03 -0.77922130904E+02 -0.24808762420E+04  0.25032063348E+04  0.46999998093E+01 0. -1.
</event>
<event>
 5   0  0.1033796E-07  0.3511657E+04  0.7818609E-02  0.8111033E-01
       -1   -1    0    0    0  501  0.00000000000E+00  0.00000000000E+00  0.31075493682E+04  0.31075493682E+04  0.50400001928E-02 0.  1.
        1   -1    0    0  501    0  0.00000000000E+00  0.00000000000E+00 -0.99207901010E+03  0.99207901011E+03  0.50400001928E-02 0. -1.
    10030    2    1    2    0    0  0.00000000000E+00  0.00000000000E+00  0.21154703581E+04  0.40996283783E+04  0.35116574440E+04 0.  0.
        3    1    3    3  502    0  0.69667033496E+03 -0.17710447524E+02 -0.82370754711E+03  0.10789612361E+04  0.10100000352E+00 0. -1.
       -3    1    3    3    0  502 -0.69667033496E+03  0.17710447524E+02  0.29391779052E+04  0.30206671422E+04  0.10100000352E+00 0.  1.
</event>
<event>
 5   0  0.1013863E-07  0.3367197E+04  0.7818609E-02  0.8146004E-01
        1   -1    0    0  501    0  0.00000000000E+00  0.00000000000E+00  0.18885920509E+04  0.18885920509E+04  0.50400001928E-02 0.  1.
       -1   -1    0    0    0  501  0.00000000000E+00  0.00000000000E+00 -0.15008558250E+04  0.15008558250E+04  0.50400001928E-02 0. -1.
    10030    2    1    2    0    0  0.00000000000E+00  0.00000000000E+00  0.38773622588E+03  0.33894478759E+04  0.33671972800E+04 0.  0.
        5    1    3    3  502    0 -0.75897550085E+03 -0.12165973116E+04 -0.69419152597E+03  0.15931342675E+04  0.46999998093E+01 0.  1.
       -5    1    3    3    0  502  0.75897550085E+03  0.12165973116E+04  0.10819277518E+04  0.17963136084E+04  0.46999998093E+01 0. -1.
</event>
<event>
 5   0  0.2180451E-07  0.3495597E+04  0.7818609E-02  0.8114834E-01
       -2   -1    0    0    0  501  0.00000000000E+00  0.00000000000E+00  0.13901879865E+04  0.13901879865E+04  0.25500000920E-02 0. -1.
        2   -1    0    0  501    0  0.00000000000E+00  0.00000000000E+00 -0.21974000810E+04  0.21974000810E+04  0.25500000920E-02 0.  1.
    10030    2    1    2    0    0  0.00000000000E+00  0.00000000000E+00 -0.80721209449E+03  0.35875880675E+04  0.34955967697E+04 0.  0.
        4    1    3    3  502    0 -0.16296398424E+04  0.43823348661E+03 -0.87057769781E+03  0.18988632772E+04  0.12699999809E+01 0.  1.
       -4    1    3    3    0  502  0.16296398424E+04 -0.43823348661E+03  0.63365603325E+02  0.16887247903E+04  0.12699999809E+01 0. -1.
</event>
<event>
 5   0  0.1013863E-07  0.3488423E+04  0.7818609E-02  0.8116539E-01
       -1   -1    0    0    0  501  0.00000000000E+00  0.00000000000E+00  0.13844866458E+04  0.13844866458E+04  0.50400001928E-02 0. -1.
        1   -1    0    0  501    0  0.00000000000E+00  0.00000000000E+00 -0.21974023943E+04  0.21974023943E+04  0.50400001928E-02 0.  1.
    10030    2    1    2    0    0  0.00000000000E+00  0.00000000000E+00 -0.81291574846E+03  0.35818890401E+04  0.34884232945E+04 0.  0.
        2    1    3    3  502    0  0.13860118554E+04 -0.70540068614E+03  0.40441962904E+03  0.16069145054E+04  0.25500000920E-02 0. -1.
       -2    1    3    3    0  502 -0.13860118554E+04  0.70540068614E+03 -0.12173353775E+04  0.19749745347E+04  0.25500000920E-02 0.  1.
</event>
<event>
 5   0  0.1033796E-07  0.3503288E+04  0.7818609E-02  0.8113011E-01
        1   -1    0    0  501    0  0.00000000000E+00  0.00000000000E+00  0.18595295634E+04  0.18595295634E+04  0.50400001928E-02 0.  1.
       -1   -1    0    0    0  501  0.00000000000E+00  0.00000000000E+00 -0.16500173118E+04  0.16500173119E+04  0.50400001928E-02 0. -1.
    10030    2    1    2    0    0  0.00000000000E+00  0.00000000000E+00  0.20951225154E+03  0.35095468752E+04  0.35032875825E+04 0.  0.
        3    1    3    3  502    0  0.44240448218E+03 -0.16748836071E+04 -0.15512815329E+03  0.17392589161E+04  0.10100000352E+00 0. -1.
       -3    1    3    3    0  502 -0.44240448218E+03  0.16748836071E+04  0.36464040483E+03  0.17702879591E+04  0.10100000352E+00 0.  1.
</event>
<event>
 5   0  0.3219205E-07  0.3445127E+04  0.7818609E-02  0.8126919E-01
        2   -1    0    0  501    0  0.00000000000E+00  0.00000000000E+00  0.17936291701E+04  0.17936291701E+04  0.25500000920E-02 0. -1.
       -2   -1    0    0    0  501  0.00000000000E+00  0.00000000000E+00 -0.16543135826E+04  0.16543135826E+04  0.25500000920E-02 0.  1.
    10030    2    1    2    0    0  0.00000000000E+00  0.00000000000E+00  0.13931558750E+03  0.34479427527E+04  0.34451270503E+04 0.  0.
        2    1    3    3  502    0  0.10224644199E+04  0.92973561655E+03 -0.95947407182E+03  0.16823888674E+04  0.25500000920E-02 0.  1.
       -2    1    3    3    0  502 -0.10224644199E+04 -0.92973561655E+03  0.10987896593E+04  0.17655538853E+04  0.25500000920E-02 0. -1.
</event>
<event>
 5   0  0.1033796E-07  0.3498814E+04  0.7818609E-02  0.8114071E-01
       -1   -1    0    0    0  501  0.00000000000E+00  0.00000000000E+00  0.20816223507E+04  0.20816223507E+04  0.50400001928E-02 0. -1.
        1   -1    0    0  501    0  0.00000000000E+00  0.00000000000E+00 -0.14702110782E+04  0.14702110782E+04  0.50400001928E-02 0.  1.
    10030    2    1    2    0    0  0.00000000000E+00  0.00000000000E+00  0.61141127248E+03  0.35518334289E+04  0.34988136508E+04 0.  0.
        3    1    3    3  502    0 -0.54937530601E+03 -0.10661841845E+04  0.15985277316E+04  0.19984626244E+04  0.10100000352E+00 0. -1.
       -3    1    3    3    0  502  0.54937530601E+03  0.10661841845E+04 -0.98711645914E+03  0.15533708045E+04  0.10100000352E+00 0.  1.
</event>
<event>
 5   0  0.2180451E-07  0.3505954E+04  0.7818609E-02  0.8112380E-01
       -2   -1    0    0    0  501  0.00000000000E+00  0.00000000000E+00  0.17840999658E+04  0.17840999658E+04  0.25500000920E-02 0.  1.
        2   -1    0    0  501    0  0.00000000000E+00  0.00000000000E+00 -0.17223965752E+04  0.17223965752E+04  0.25500000920E-02 0. -1.
    10030    2    1    2    0    0  0.00000000000E+00  0.00000000000E+00  0.61703390610E+02  0.35064965410E+04  0.35059536055E+04 0.  0.
        4    1    3    3  502    0 -0.48454310707E+03 -0.10563483328E+04  0.13434086283E+04  0.17763451743E+04  0.12699999809E+01 0.  1.
       -4    1    3    3    0  502  0.48454310707E+03  0.10563483328E+04 -0.12817052377E+04  0.17301513668E+04  0.12699999809E+01 0. -1.
</event>
<event>
 5   0  0.3190185E-07  0.3502461E+04  0.7818609E-02  0.8113207E-01
        2   -1    0    0  501    0  0.00000000000E+00  0.00000000000E+00  0.19969182363E+04  0.19969182363E+04  0.25500000920E-02 0. -1.
       -2   -1    0    0    0  501  0.00000000000E+00  0.00000000000E+00 -0.15357705470E+04  0.15357705470E+04  0.25500000920E-02 0.  1.
    10030    2    1    2    0    0  0.00000000000E+00  0.00000000000E+00  0.46114768931E+03  0.35326887834E+04  0.35024609704E+04 0.  0.
        1    1    3    3  502    0 -0.97824870019E+03  0.95321296527E+03  0.13360359168E+04  0.19106484364E+04  0.50400001928E-02 0. -1.
       -1    1    3    3    0  502  0.97824870019E+03 -0.95321296527E+03 -0.87488822748E+03  0.16220403470E+04  0.50400001928E-02 0.  1.
</event>
<event>
 5   0  0.3190185E-07  0.3496775E+04  0.7818609E-02  0.8114555E-01
        2   -1    0    0  501    0  0.00000000000E+00  0.00000000000E+00  0.23641839401E+04  0.23641839401E+04  0.25500000920E-02 0.  1.
       -2   -1    0    0    0  501  0.00000000000E+00  0.00000000000E+00 -0.12929869245E+04  0.12929869245E+04  0.25500000920E-02 0. -1.
    10030    2    1    2    0    0  0.00000000000E+00  0.00000000000E+00  0.10711970155E+04  0.36571708646E+04  0.34967750409E+04 0.  0.
        1    1    3    3  502    0  0.12254271433E+04  0.69542879478E+03  0.16182458803E+04  0.21456963022E+04  0.50400001928E-02 0.  1.
       -1    1    3    3    0  502 -0.12254271433E+04 -0.69542879478E+03 -0.54704886477E+03  0.15114745624E+04  0.50400001928E-02 0. -1.
</event>
<event>
 5   0  0.3119048E-07  0.3506248E+04  0.7818609E-02  0.8112311E-01
        2   -1    0    0  501    0  0.00000000000E+00  0.00000000000E+00  0.18966224071E+04  0.18966224071E+04  0.25500000920E-02 0.  1.
       -2   -1    0    0    0  501  0.00000000000E+00  0.00000000000E+00 -0.16204827026E+04  0.16204827026E+04  0.25500000920E-02 0. -1.
    10030    2    1    2    0    0  0.00000000000E+00  0.00000000000E+00  0.27613970454E+03  0.35171051097E+04  0.35062480255E+04 0.  0.
        3    1    3    3  502    0 -0.72738492234E+03 -0.10611102083E+04 -0.10565840039E+04  0.16647562785E+04  0.10100000352E+00 0. -1.
       -3    1    3    3    0  502  0.72738492234E+03  0.10611102083E+04  0.13327237084E+04  0.18523488312E+04  0.10100000352E+00 0.  1.
</event>
<event>
 5   0  0.3119048E-07  0.3474934E+04  0.7818609E-02  0.8119756E-01
       -2   -1    0    0    0  501  0.00000000000E+00  0.00000000000E+00  0.17359615167E+04  0.17359615167E+04  0.25500000920E-02 0. -1.
        2   -1    0    0  501    0  0.00000000000E+00  0.00000000000E+00 -0.17389733059E+04  0.17389733059E+04  0.25500000920E-02 0.  1.
    10030    2    1    2    0    0  0.00000000000E+00  0.00000000000E+00 -0.30117892165E+01  0.34749348227E+04  0.34749335175E+04 0.  0.
        3    1    3    3  502    0  0.31545157877E+03  0.30945208305E+03  0.16788281669E+04  0.17360110352E+04  0.10100000352E+00 0. -1.
       -3    1    3    3    0  502 -0.31545157877E+03 -0.30945208305E+03 -0.16818399561E+04  0.17389237874E+04  0.10100000352E+00 0.  1.
</event>
<event>
 5   0  0.1033796E-07  0.3485766E+04  0.7818609E-02  0.8117171E-01
        1   -1    0    0  501    0  0.00000000000E+00  0.00000000000E+00  0.24109680300E+04  0.24109680300E+04  0.50400001928E-02 0. -1.
       -1   -1    0    0    0  501  0.00000000000E+00  0.00000000000E+00 -0.12599261904E+04  0.12599261904E+04  0.50400001928E-02 0.  1.
    10030    2    1    2    0    0  0.00000000000E+00  0.00000000000E+00  0.11510418397E+04  0.36708942204E+04  0.34857663520E+04 0.  0.
        3    1    3    3  502    0 -0.41442398414E+03 -0.87037482157E+03 -0.95360815543E+03  0.13559749603E+04  0.10100000352E+00 0.  1.
       -3    1    3    3    0  502  0.41442398414E+03  0.87037482157E+03  0.21046499951E+04  0.23149192601E+04  0.10100000352E+00 0. -1.
</event>
<event>
 5   0  0.1098171E-07  0.3513011E+04  0.7818609E-02  0.8110714E-01
        1   -1    0    0  501    0  0.00000000000E+00  0.00000000000E+00  0.19706871324E+04  0.19706871324E+04  0.50400001928E-02 0.  1.
       -1   -1    0    0    0  501  0.00000000000E+00  0.00000000000E+00 -0.15656015883E+04  0.15656015884E+04  0.50400001928E-02 0. -1.
    10030    2    1    2    0    0  0.00000000000E+00  0.00000000000E+00  0.40508554401E+03  0.35362887207E+04  0.35130106203E+04 0.  0.
        4    1    3    3  502    0 -0.35736758785E+03 -0.84051709406E+03  0.17128608363E+04  0.19411528625E+04  0.12699999809E+01 0.  1.
       -4    1    3    3    0  502  0.35736758785E+03  0.84051709406E+03 -0.13077752923E+04  0.15951358582E+04  0.12699999809E+01 0. -1.
</event>
<event>
 5   0  0.2180451E-07  0.3492174E+04  0.7818609E-02  0.8115647E-01
       -2   -1    0    0    0  501  0.00000000000E+00  0.00000000000E+00  0.17152612823E+04  0.17152612823E+04  0.25500000920E-02 0.  1.
        2   -1    0    0  501    0  0.00000000000E+00  0.00000000000E+00 -0.17774662490E+04  0.17774662490E+04  0.25500000920E-02 0. -1.
    10030    2    1    2    0    0  0.00000000000E+00  0.00000000000E+00 -0.62204966682E+02  0.34927275313E+04  0.34921735567E+04 0.  0.
        4    1    3    3  502    0 -0.14099046038E+04 -0.76255148222E+02  0.99627591934E+03  0.17280663065E+04  0.12699999809E+01 0.  1.
       -4    1    3    3    0  502  0.14099046038E+04  0.76255148222E+02 -0.10584808860E+04  0.17646612248E+04  0.12699999809E+01 0. -1.
</event>
<event>
 5   0  0.1072381E-07  0.3503316E+04  0.7818609E-02  0.8113005E-01
       -1   -1    0    0    0  501  0.00000000000E+00  0.00000000000E+00  0.13467614870E+04  0.13467614870E+04  0.50400001928E-02 0.  1.
        1   -1    0    0  501    0  0.00000000000E+00  0.00000000000E+00 -0.22782846897E+04  0.22782846897E+04  0.50400001928E-02 0. -1.
    10030    2    1    2    0    0  0.00000000000E+00  0.00000000000E+00 -0.93152320264E+03  0.36250461767E+04  0.35033161870E+04 0.  0.
        1    1    3    3  502    0  0.94211924144E+01 -0.17371392079E+04 -0.23308222991E+03  0.17527317857E+04  0.50400001928E-02 0. -1.
       -1    1    3    3    0  502 -0.94211924144E+01  0.17371392079E+04 -0.69844097273E+03  0.18723143910E+04  0.50400001928E-02 0.  1.
</event>
<event>
 5   0  0.1013863E-07  0.3493024E+04  0.7818609E-02  0.8115445E-01
       -1   -1    0    0    0  501  0.00000000000E+00  0.00000000000E+00  0.19989086173E+04  0.19989086173E+04  0.50400001928E-02 0.  1.
        1   -1    0    0  501    0  0.00000000000E+00  0.00000000000E+00 -0.15259852038E+04  0.15259852038E+04  0.50400001928E-02 0. -1.
    10030    2    1    2    0    0  0.00000000000E+00  0.00000000000E+00  0.47292341345E+03  0.35248938211E+04  0.34930244624E+04 0.  0.
        2    1    3    3  502    0  0.74879121674E+03  0.14186351511E+04 -0.46055794432E+03  0.16689300759E+04  0.25500000920E-02 0.  1.
       -2    1    3    3    0  502 -0.74879121674E+03 -0.14186351511E+04  0.93348135777E+03  0.18559637452E+04  0.25500000920E-02 0. -1.
</event>
<event>
 5   0  0.1033796E-07  0.3491446E+04  0.7818609E-02  0.8115820E-01
        1   -1    0    0  501    0  0.00000000000E+00  0.00000000000E+00  0.14402200956E+04  0.14402200956E+04  0.50400001928E-02 0. -1.
       -1   -1    0    0    0  501  0.00000000000E+00  0.00000000000E+00 -0.21160300977E+04  0.21160300978E+04  0.50400001928E-02 0.  1.
    10030    2    1    2    0    0  0.00000000000E+00  0.00000000000E+00 -0.67581000213E+03  0.35562501934E+04  0.34914461587E+04 0.  0.
        3    1    3    3  502    0 -0.64426761448E+03  0.11221585425E+04  0.85569377054E+03  0.15513002265E+04  0.10100000352E+00 0. -1.
       -3    1    3    3    0  502  0.64426761448E+03 -0.11221585425E+04 -0.15315037727E+04  0.20049499669E+04  0.10100000352E+00 0.  1.
</event>
<event>
 5   0  0.1072381E-07  0.3498431E+04  0.7818609E-02  0.8114162E-01
        1   -1    0    0  501    0  0.00000000000E+00  0.00000000000E+00  0.24597707019E+04  0.24597707019E+04  0.50400001928E-02 0. -1.
       -1   -1    0    0    0  501  0.00000000000E+00  0.00000000000E+00 -0.12439188818E+04  0.12439188818E+04  0.50400001928E-02 0.  1.
    10030    2    1    2    0    0  0.00000000000E+00  0.00000000000E+00  0.12158518201E+04  0.37036895837E+04  0.34984312032E+04 0.  0.
        1    1    3    3  502    0 -0.11015605048E+04  0.13227568601E+04  0.93702458997E+03  0.19598817155E+04  0.50400001928E-02 0.  1.
       -1    1    3    3    0  502  0.11015605048E+04 -0.13227568601E+04  0.27882723014E+03  0.17438078681E+04  0.50400001928E-02 0. -1.
</event>
<event>
 5   0  0.1013863E-07  0.3504828E+04  0.7818609E-02  0.8112647E-01
        1   -1    0    0  501    0  0.00000000000E+00  0.00000000000E+00  0.26556454631E+04  0.26556454632E+04  0.50400001928E-02 0.  1.
       -1   -1    0    0    0  501  0.00000000000E+00  0.00000000000E+00 -0.11563870633E+04  0.11563870633E+04  0.50400001928E-02 0. -1.
    10030    2    1    2    0    0  0.00000000000E+00  0.00000000000E+00  0.14992583998E+04  0.38120325265E+04  0.35048275612E+04 0.  0.
        5    1    3    3  502    0  0.72682314710E+03 -0.22370470304E+03  0.24668164549E+04  0.25813797073E+04  0.46999998093E+01 0.  1.
       -5    1    3    3    0  502 -0.72682314710E+03  0.22370470304E+03 -0.96755805507E+03  0.12306528191E+04  0.46999998093E+01 0. -1.
</event>
<event>
 5   0  0.3190112E-07  0.3502241E+04  0.7818609E-02  0.8113259E-01
        2   -1    0    0  501    0  0.00000000000E+00  0.00000000000E+00  0.18137265808E+04  0.18137265808E+04  0.25500000920E-02 0.  1.
       -2   -1    0    0    0  501  0.00000000000E+00  0.00000000000E+00 -0.16906759124E+04  0.16906759124E+04  0.25500000920E-02 0. -1.
    10030    2    1    2    0    0  0.00000000000E+00  0.00000000000E+00  0.12305066842E+03  0.35044024932E+04  0.35022414776E+04 0.  0.
        5    1    3    3  502    0 -0.13484474566E+04 -0.22351618896E+02  0.11791709450E+04  0.17914453231E+04  0.46999998093E+01 0.  1.
       -5    1    3    3    0  502  0.13484474566E+04  0.22351618896E+02 -0.10561202766E+04  0.17129571701E+04  0.46999998093E+01 0. -1.
</event>
<event>
 5   0  0.1013863E-07  0.3503952E+04  0.7818609E-02  0.8112854E-01
        1   -1    0    0  501    0  0.00000000000E+00  0.00000000000E+00  0.19681533009E+04  0.19681533009E+04  0.50400001928E-02 0. -1.
       -1   -1    0    0    0  501  0.00000000000E+00  0.00000000000E+00 -0.15595430425E+04  0.15595430425E+04  0.50400001928E-02 0.  1.
    10030    2    1    2    0    0  0.00000000000E+00  0.00000000000E+00  0.40861025846E+03  0.35276963434E+04  0.35039519329E+04 0.  0.
        5    1    3    3  502    0 -0.11585582331E+04  0.98235165832E+03  0.10832191023E+04  0.18656520774E+04  0.46999998093E+01 0. -1.
       -5    1    3    3    0  502  0.11585582331E+04 -0.98235165832E+03 -0.67460884385E+03  0.16620442661E+04  0.46999998093E+01 0.  1.
</event>
<event>
 5   0  0.3190112E-07  0.3533107E+04  0.7818609E-02  0.8105989E-01
        2   -1    0    0  501    0  0.00000000000E+00  0.00000000000E+00  0.20353483013E+04  0.20353483013E+04  0.25500000920E-02 0. -1.
       -2   -1    0    0    0  501  0.00000000000E+00  0.00000000000E+00 -0.15332562481E+04  0.15332562481E+04  0.25500000920E-02 0.  1.
    10030    2    1    2    0    0  0.00000000000E+00  0.00000000000E+00  0.50209205317E+03  0.35686045494E+04  0.35331065650E+04 0.  0.
        5    1    3    3  502    0 -0.72714360964E+03  0.23694150106E+03 -0.13573758954E+04  0.15580020909E+04  0.46999998093E+01 0.  1.
       -5    1    3    3    0  502  0.72714360964E+03 -0.23694150106E+03  0.18594679486E+04  0.20106024584E+04  0.46999998093E+01 0. -1.
</event>
<event>
 5   0  0.3190112E-07  0.3470636E+04  0.7818609E-02  0.8120784E-01
        2   -1    0    0  501    0  0.00000000000E+00  0.00000000000E+00  0.23182810766E+04  0.23182810767E+04  0.25500000920E-02 0.  1.
       -2   -1    0    0    0  501  0.00000000000E+00  0.00000000000E+00 -0.12989488282E+04  0.12989488282E+04  0.25500000920E-02 0. -1.
    10030    2    1    2    0    0  0.00000000000E+00  0.00000000000E+00  0.10193322485E+04  0.36172299048E+04  0.34706359578E+04 0.  0.
        5    1    3    3  502    0  0.39617502001E+03  0.16855787893E+04  0.39003143193E+03  0.17749019999E+04  0.46999998093E+01 0.  1.
       -5    1    3    3    0  502 -0.39617502001E+03 -0.16855787893E+04  0.62930081653E+03  0.18423279049E+04  0.46999998093E+01 0. -1.
</event>
<event>
 5   0  0.1072381E-07  0.3521025E+04  0.7818609E-02  0.8108825E-01
        1   -1    0    0  501    0  0.00000000000E+00  0.00000000000E+00  0.15685274396E+04  0.15685274396E+04  0.50400001928E-02 0. -1.
       -1   -1    0    0    0  501  0.00000000000E+00  0.00000000000E+00 -0.19759958297E+04  0.19759958297E+04  0.50400001928E-02 0.  1.
    10030    2    1    2    0    0  0.00000000000E+00  0.00000000000E+00 -0.40746839006E+03  0.35445232693E+04  0.35210246687E+04 0.  0.
        1    1    3    3  502    0 -0.11786547669E+04  0.54646058022E+03 -0.13997530985E+04  0.19097525918E+04  0.50400001928E-02 0.  1.
       -1    1    3    3    0  502  0.11786547669E+04 -0.54646058022E+03  0.99228470839E+03  0.16347706775E+04  0.50400001928E-02 0. -1.
</event>
<event>
 5   0  0.3190112E-07  0.3416826E+04  0.7818609E-02  0.8133789E-01
       -2   -1    0    0    0  501  0.00000000000E+00  0.00000000000E+00  0.16610870231E+04  0.16610870231E+04  0.25500000920E-02 0.  1.
        2   -1    0    0  501    0  0.00000000000E+00  0.00000000000E+00 -0.17570872071E+04  0.17570872071E+04  0.25500000920E-02 0. -1.
    10030    2    1    2    0    0  0.00000000000E+00  0.00000000000E+00 -0.96000184043E+02  0.34181742303E+04  0.34168258710E+04 0.  0.
        5    1    3    3  502    0 -0.69718267487E+03  0.10770002255E+04 -0.11765673877E+04  0.17407831788E+04  0.46999998093E+01 0. -1.
       -5    1    3    3    0  502  0.69718267487E+03 -0.10770002255E+04  0.10805672036E+04  0.16773910514E+04  0.46999998093E+01 0.  1.
</event>
<event>
 5   0  0.1033796E-07  0.3468034E+04  0.7818609E-02  0.8121408E-01
       -1   -1    0    0    0  501  0.00000000000E+00  0.00000000000E+00  0.33636855351E+04  0.33636855351E+04  0.50400001928E-02 0. -1.
        1   -1    0    0  501    0  0.00000000000E+00  0.00000000000E+00 -0.89390473262E+03  0.89390473263E+03  0.50400001928E-02 0.  1.
    10030    2    1    2    0    0  0.00000000000E+00  0.00000000000E+00  0.24697808025E+04  0.42575902677E+04  0.34680336901E+04 0.  0.
        3    1    3    3  502    0  0.75209524310E+03  0.14824012801E+04  0.62889828821E+03  0.17772658431E+04  0.10100000352E+00 0.  1.
       -3    1    3    3    0  502 -0.75209524310E+03 -0.14824012801E+04  0.18408825143E+04  0.24803244246E+04  0.10100000352E+00 0. -1.
</event>
<event>
 5   0  0.2180451E-07  0.3497195E+04  0.7818609E-02  0.8114455E-01
       -2   -1    0    0    0  501  0.00000000000E+00  0.00000000000E+00  0.12068793124E+04  0.12068793124E+04  0.25500000920E-02 0. -1.
        2   -1    0    0  501    0  0.00000000000E+00  0.00000000000E+00 -0.25334702807E+04  0.25334702807E+04  0.25500000920E-02 0.  1.
    10030    2    1    2    0    0  0.00000000000E+00  0.00000000000E+00 -0.13265909683E+04  0.37403495931E+04  0.34971948018E+04 0.  0.
        4    1    3    3  502    0  0.51436192737E+02  0.29180681894E+03  0.11798327849E+04  0.12164719128E+04  0.12699999809E+01 0. -1.
       -4    1    3    3    0  502 -0.51436192737E+02 -0.29180681894E+03 -0.25064237532E+04  0.25238776803E+04  0.12699999809E+01 0.  1.
</event>
<event>
 5   0  0.1013863E-07  0.3529273E+04  0.7818609E-02  0.8106887E-01
       -1   -1    0    0    0  501  0.00000000000E+00  0.00000000000E+00  0.20841011935E+04  0.20841011935E+04  0.50400001928E-02 0. -1.
        1   -1    0    0  501    0  0.00000000000E+00  0.00000000000E+00 -0.14941414488E+04  0.14941414488E+04  0.50400001928E-02 0.  1.
    10030    2    1    2    0    0  0.00000000000E+00  0.00000000000E+00  0.58995974475E+03  0.35782426423E+04  0.35292729997E+04 0.  0.
        2    1    3    3  502    0 -0.35583745846E+03 -0.18732546057E+02 -0.14572860693E+04  0.15002179484E+04  0.25500000920E-02 0.  1.
       -2    1    3    3    0  502  0.35583745846E+03  0.18732546057E+02  0.20472458140E+04  0.20780246938E+04  0.25500000920E-02 0. -1.
</event>
<event>
 5   0  0.2180451E-07  0.3533695E+04  0.7818609E-02  0.8105851E-01
       -2   -1    0    0    0  501  0.00000000000E+00  0.00000000000E+00  0.19902332331E+04  0.19902332331E+04  0.25500000920E-02 0.  1.
        2   -1    0    0  501    0  0.00000000000E+00  0.00000000000E+00 -0.15685349847E+04  0.15685349847E+04  0.25500000920E-02 0. -1.
    10030    2    1    2    0    0  0.00000000000E+00  0.00000000000E+00  0.42169824841E+03  0.35587682178E+04  0.35336952069E+04 0.  0.
        4    1    3    3  502    0 -0.63627060748E+02  0.11040343998E+04 -0.11769007527E+04  0.16149419041E+04  0.12699999809E+01 0. -1.
       -4    1    3    3    0  502  0.63627060748E+02 -0.11040343998E+04  0.15985990011E+04  0.19438263138E+04  0.12699999809E+01 0.  1.
</event>
<event>
 5   0  0.3219205E-07  0.3476003E+04  0.7818609E-02  0.8119501E-01
       -2   -1    0    0    0  501  0.00000000000E+00  0.00000000000E+00  0.15915089546E+04  0.15915089546E+04  0.25500000920E-02 0.  1.
        2   -1    0    0  501    0  0.00000000000E+00  0.00000000000E+00 -0.18979784217E+04  0.18979784217E+04  0.25500000920E-02 0. -1.
    10030    2    1    2    0    0  0.00000000000E+00  0.00000000000E+00 -0.30646946710E+03  0.34894873763E+04  0.34760032530E+04 0.  0.
        2    1    3    3  502    0 -0.14527994418E+04  0.24896428394E+03 -0.10776980500E+04  0.18259360667E+04  0.25500000920E-02 0. -1.
       -2    1    3    3    0  502  0.14527994418E+04 -0.24896428394E+03  0.77122858287E+03  0.16635513096E+04  0.25500000920E-02 0.  1.
</event>
<event>
 5   0  0.1072381E-07  0.3511510E+04  0.7818609E-02  0.8111068E-01
        1   -1    0    0  501    0  0.00000000000E+00  0.00000000000E+00  0.15855438365E+04  0.15855438365E+04  0.50400001928E-02 0.  1.
       -1   -1    0    0    0  501  0.00000000000E+00  0.00000000000E+00 -0.19442388643E+04  0.19442388643E+04  0.50400001928E-02 0. -1.
    10030    2    1    2    0    0  0.00000000000E+00  0.00000000000E+00 -0.35869502773E+03  0.35297827008E+04  0.35115101868E+04 0.  0.
        1    1    3    3  502    0  0.11979352245E+04  0.60591577959E+03 -0.13168246563E+04  0.18804812974E+04  0.50400001928E-02 0. -1.
       -1    1    3    3    0  502 -0.11979352245E+04 -0.60591577959E+03  0.95812962861E+03  0.16493014034E+04  0.50400001928E-02 0.  1.
</event>
<event>
 5   0  0.1013863E-07  0.3505083E+04  0.7818609E-02  0.8112586E-01
       -1   -1    0    0    0  501  0.00000000000E+00  0.00000000000E+00  0.17790553217E+04  0.17790553217E+04  0.50400001928E-02 0.  1.
        1   -1    0    0  501    0  0.00000000000E+00  0.00000000000E+00 -0.17264233083E+04  0.17264233083E+04  0.50400001928E-02 0. -1.
    10030    2    1    2    0    0  0.00000000000E+00  0.00000000000E+00  0.52632013472E+02  0.35054786300E+04  0.35050834935E+04 0.  0.
        5    1    3    3  502    0  0.71987743650E+03  0.14668620937E+04  0.66000605846E+03  0.17622536743E+04  0.46999998093E+01 0. -1.
       -5    1    3    3    0  502 -0.71987743650E+03 -0.14668620937E+04 -0.60737404499E+03  0.17432249557E+04  0.46999998093E+01 0.  1.
</event>
<event>
 5   0  0.1072381E-07  0.3492191E+04  0.7818609E-02  0.8115643E-01
        1   -1    0    0  501    0  0.00000000000E+00  0.00000000000E+00  0.24039996485E+04  0.24039996485E+04  0.50400001928E-02 0.  1.
       -1   -1    0    0    0  501  0.00000000000E+00  0.00000000000E+00 -0.12682405540E+04  0.12682405540E+04  0.50400001928E-02 0. -1.
    10030    2    1    2    0    0  0.00000000000E+00  0.00000000000E+00  0.11357590945E+04  0.36722402025E+04  0.34921912010E+04 0.  0.
        1    1    3    3  502    0  0.15953176765E+04 -0.64272219933E+03  0.88460536551E+03  0.19340778079E+04  0.50400001928E-02 0.  1.
       -1    1    3    3    0  502 -0.15953176765E+04  0.64272219933E+03  0.25115372894E+03  0.17381623946E+04  0.50400001928E-02 0. -1.
</event>
<event>
 5   0  0.3119048E-07  0.3499327E+04  0.7818609E-02  0.8113949E-01
        2   -1    0    0  501    0  0.00000000000E+00  0.00000000000E+00  0.20972062974E+04  0.20972062974E+04  0.25500000920E-02 0. -1.
       -2   -1    0    0    0  501  0.00000000000E+00  0.00000000000E+00 -0.14597146485E+04  0.14597146485E+04  0.25500000920E-02 0.  1.
    10030    2    1    2    0    0  0.00000000000E+00  0.00000000000E+00  0.63749164897E+03  0.35569209459E+04  0.34993272229E+04 0.  0.
        3    1    3    3  502    0  0.28183984490E+02  0.16281295629E+04  0.96937656959E+03  0.18950702242E+04  0.10100000352E+00 0. -1.
       -3    1    3    3    0  502 -0.28183984490E+02 -0.16281295629E+04 -0.33188492062E+03  0.16618507218E+04  0.10100000352E+00 0.  1.
</event>
<event>
 5   0  0.3119048E-07  0.3526125E+04  0.7818609E-02  0.8107626E-01
       -2   -1    0    0    0  501  0.00000000000E+00  0.00000000000E+00  0.12798688820E+04  0.12798688820E+04  0.25500000920E-02 0.  1.
        2   -1    0    0  501    0  0.00000000000E+00  0.00000000000E+00 -0.24286784668E+04  0.24286784668E+04  0.25500000920E-02 0. -1.
    10030    2    1    2    0    0  0.00000000000E+00  0.00000000000E+00 -0.11488095848E+04  0.37085473488E+04  0.35261253490E+04 0.  0.
        3    1    3    3  502    0  0.90058630925E+03 -0.15156959714E+04 -0.57432479418E+03  0.18542488931E+04  0.10100000352E+00 0. -1.
       -3    1    3    3    0  502 -0.90058630925E+03  0.15156959714E+04 -0.57448479058E+03  0.18542984557E+04  0.10100000352E+00 0.  1.
</event>
<event>
 5   0  0.3119048E-07  0.3572764E+04  0.7818609E-02  0.8096759E-01
        2   -1    0    0  501    0  0.00000000000E+00  0.00000000000E+00  0.29612919358E+04  0.29612919358E+04  0.25500000920E-02 0.  1.
       -2   -1    0    0    0  501  0.00000000000E+00  0.00000000000E+00 -0.10776243912E+04  0.10776243912E+04  0.25500000920E-02 0. -1.
    10030    2    1    2    0    0  0.00000000000E+00  0.00000000000E+00  0.18836675446E+04  0.40389163270E+04  0.35727638710E+04 0.  0.
        3    1    3    3  502    0  0.12871381090E+04 -0.12365200413E+04  0.85834626499E+03  0.19805213064E+04  0.10100000352E+00 0.  1.
       -3    1    3    3    0  502 -0.12871381090E+04  0.12365200413E+04  0.10253212796E+04  0.20583950206E+04  0.10100000352E+00 0. -1.
</event>
<event>
 5   0  0.1013863E-07  0.3508395E+04  0.7818609E-02  0.8111803E-01
       -1   -1    0    0    0  501  0.00000000000E+00  0.00000000000E+00  0.17032821258E+04  0.17032821258E+04  0.50400001928E-02 0.  1.
        1   -1    0    0  501    0  0.00000000000E+00  0.00000000000E+00 -0.18066346472E+04  0.18066346472E+04  0.50400001928E-02 0. -1.
    10030    2    1    2    0    0  0.00000000000E+00  0.00000000000E+00 -0.10335252141E+03  0.35099167729E+04  0.35083947910E+04 0.  0.
        2    1    3    3  502    0  0.56290151163E+03  0.14822205408E+03  0.16038469226E+04  0.17062100809E+04  0.25500000920E-02 0.  1.
       -2    1    3    3    0  502 -0.56290151163E+03 -0.14822205408E+03 -0.17071994440E+04  0.18037066920E+04  0.25500000920E-02 0. -1.
</event>
<event>
 5   0  0.2180451E-07  0.3488246E+04  0.7818609E-02  0.8116581E-01
        2   -1    0    0  501    0  0.00000000000E+00  0.00000000000E+00  0.16221064745E+04  0.16221064745E+04  0.25500000920E-02 0.  1.
       -2   -1    0    0    0  501  0.00000000000E+00  0.00000000000E+00 -0.18753181642E+04  0.18753181642E+04  0.25500000920E-02 0. -1.
    10030    2    1    2    0    0  0.00000000000E+00  0.00000000000E+00 -0.25321168972E+03  0.34974246386E+04  0.34882463994E+04 0.  0.
        4    1    3    3  502    0  0.14281275124E+04 -0.73604193737E+03  0.55389804587E+03  0.16994441984E+04  0.12699999809E+01 0.  1.
       -4    1    3    3    0  502 -0.14281275124E+04  0.73604193737E+03 -0.80710973559E+03  0.17979804402E+04  0.12699999809E+01 0. -1.
</event>
<event>
 5   0  0.1072381E-07  0.3503553E+04  0.7818609E-02  0.8112948E-01
       -1   -1    0    0    0  501  0.00000000000E+00  0.00000000000E+00  0.25317841369E+04  0.25317841369E+04  0.50400001928E-02 0. -1.
        1   -1    0    0  501    0  0.00000000000E+00  0.00000000000E+00 -0.12120782570E+04  0.12120782570E+04  0.50400001928E-02 0.  1.
    10030    2    1    2    0    0  0.00000000000E+00  0.00000000000E+00  0.13197058799E+04  0.37438623940E+04  0.35035527704E+04 0.  0.
        1    1    3    3  502    0  0.51116998128E+03  0.15326318819E+04 -0.63690208077E+02  0.16168833222E+04  0.50400001928E-02 0.  1.
       -1    1    3    3    0  502 -0.51116998128E+03 -0.15326318819E+04  0.13833960880E+04  0.21269790717E+04  0.50400001928E-02 0. -1.
</event>
<event>
 5   0  0.3190185E-07  0.3501673E+04  0.7818609E-02  0.8113393E-01
        2   -1    0    0  501    0  0.00000000000E+00  0.00000000000E+00  0.23511922519E+04  0.23511922519E+04  0.25500000920E-02 0.  1.
       -2   -1    0    0    0  501  0.00000000000E+00  0.00000000000E+00 -0.13037764291E+04  0.13037764291E+04  0.25500000920E-02 0. -1.
    10030    2    1    2    0    0  0.00000000000E+00  0.00000000000E+00  0.10474158229E+04  0.36549686810E+04  0.35016733362E+04 0.  0.
        1    1    3    3  502    0  0.12301894010E+04  0.11280707655E+04  0.10755489915E+04  0.19856271673E+04  0.50400001928E-02 0. -1.
       -1    1    3    3    0  502 -0.12301894010E+04 -0.11280707655E+04 -0.28133168627E+02  0.16693415137E+04  0.50400001928E-02 0.  1.
</event>
<event>
 5   0  0.1072381E-07  0.3505981E+04  0.7818609E-02  0.8112374E-01
        1   -1    0    0  501    0  0.00000000000E+00  0.00000000000E+00  0.15100916248E+04  0.15100916248E+04  0.50400001928E-02 0.  1.
       -1   -1    0    0    0  501  0.00000000000E+00  0.00000000000E+00 -0.20349602568E+04  0.20349602568E+04  0.50400001928E-02 0. -1.
    10030    2    1    2    0    0  0.00000000000E+00  0.00000000000E+00 -0.52486863198E+03  0.35450518816E+04  0.35059814264E+04 0.  0.
        1    1    3    3  502    0 -0.13132205260E+04 -0.89493466185E+03  0.48575770817E+03  0.16617511095E+04  0.50400001928E-02 0.  1.
       -1    1    3    3    0  502  0.13132205260E+04  0.89493466185E+03 -0.10106263402E+04  0.18833007721E+04  0.50400001928E-02 0. -1.
</event>
<event>
 5   0  0.3190112E-07  0.3391152E+04  0.7818609E-02  0.8140081E-01
       -2   -1    0    0    0  501  0.00000000000E+00  0.00000000000E+00  0.16144978655E+04  0.16144978655E+04  0.25500000920E-02 0.  1.
        2   -1    0    0  501    0  0.00000000000E+00  0.00000000000E+00 -0.17807253872E+04  0.17807253872E+04  0.25500000920E-02 0. -1.
    10030    2    1    2    0    0  0.00000000000E+00  0.00000000000E+00 -0.16622752173E+03  0.33952232527E+04  0.33911516255E+04 0.  0.
        5    1    3    3  502    0  0.97062915401E+03  0.18326213898E+03 -0.14629009661E+04  0.17651649478E+04  0.46999998093E+01 0. -1.
       -5    1    3    3    0  502 -0.97062915401E+03 -0.18326213898E+03  0.12966734444E+04  0.16300583050E+04  0.46999998093E+01 0.  1.
</event>
<event>
 5   0  0.1013863E-07  0.3481902E+04  0.7818609E-02  0.8118092E-01
       -1   -1    0    0    0  501  0.00000000000E+00  0.00000000000E+00  0.19693168921E+04  0.19693168921E+04  0.50400001928E-02 0.  1.
        1   -1    0    0  501    0  0.00000000000E+00  0.00000000000E+00 -0.15390664508E+04  0.15390664508E+04  0.50400001928E-02 0. -1.
    10030    2    1    2    0    0  0.00000000000E+00  0.00000000000E+00  0.43025044124E+03  0.35083833429E+04  0.34819015263E+04 0.  0.
        5    1    3    3  502    0 -0.76715559303E+03  0.54120821449E+03 -0.12621267449E+04  0.15730289398E+04  0.46999998093E+01 0. -1.
       -5    1    3    3    0  502  0.76715559303E+03 -0.54120821449E+03  0.16923771861E+04  0.19353544031E+04  0.46999998093E+01 0.  1.
</event>
<event>
 5   0  0.1013863E-07  0.3572683E+04  0.7818609E-02  0.8096778E-01
        1   -1    0    0  501    0  0.00000000000E+00  0.00000000000E+00  0.11006598418E+04  0.11006598418E+04  0.50400001928E-02 0. -1.
       -1   -1    0    0    0  501  0.00000000000E+00  0.00000000000E+00 -0.28991848535E+04  0.28991848535E+04  0.50400001928E-02 0.  1.
    10030    2    1    2    0    0  0.00000000000E+00  0.00000000000E+00 -0.17985250117E+04  0.39998446953E+04  0.35726832170E+04 0.  0.
        2    1    3    3  502    0 -0.37966350464E+03 -0.18925427149E+02  0.10548528322E+04  0.11212569046E+04  0.25500000920E-02 0. -1.
       -2    1    3    3    0  502  0.37966350464E+03  0.18925427149E+02 -0.28533778439E+04  0.28785877907E+04  0.25500000920E-02 0.  1.
</event>
<event>
 5   0  0.3219205E-07  0.3495881E+04  0.7818609E-02  0.8114767E-01
       -2   -1    0    0    0  501  0.00000000000E+00  0.00000000000E+00  0.17371613274E+04  0.17371613274E+04  0.25500000920E-02 0. -1.
        2   -1    0    0  501    0  0.00000000000E+00  0.00000000000E+00 -0.17587870421E+04  0.17587870421E+04  0.25500000920E-02 0.  1.
    10030    2    1    2    0    0  0.00000000000E+00  0.00000000000E+00 -0.21625714659E+02  0.34959483695E+04  0.34958814812E+04 0.  0.
        2    1    3    3  502    0 -0.19725613090E+03  0.53451131253E+03 -0.16633227678E+04  0.17581965061E+04  0.25500000920E-02 0.  1.
       -2    1    3    3    0  502  0.19725613090E+03 -0.53451131253E+03  0.16416970531E+04  0.17377518634E+04  0.25500000920E-02 0. -1.
</event>
<event>
 5   0  0.3190185E-07  0.3513925E+04  0.7818609E-02  0.8110498E-01
       -2   -1    0    0    0  501  0.00000000000E+00  0.00000000000E+00  0.27691464271E+04  0.27691464271E+04  0.25500000920E-02 0.  1.
        2   -1    0    0  501    0  0.00000000000E+00  0.00000000000E+00 -0.11147542098E+04  0.11147542098E+04  0.25500000920E-02 0. -1.
    10030    2    1    2    0    0  0.00000000000E+00  0.00000000000E+00  0.16543922173E+04  0.38839006369E+04  0.35139252338E+04 0.  0.
        1    1    3    3  502    0  0.86151850145E+02  0.16471513754E+04  0.15816529424E+03  0.16569689361E+04  0.50400001928E-02 0. -1.
       -1    1    3    3    0  502 -0.86151850145E+02 -0.16471513754E+04  0.14962269230E+04  0.22269317008E+04  0.50400001928E-02 0.  1.
</event>
<event>
 5   0  0.1033796E-07  0.3530998E+04  0.7818609E-02  0.8106483E-01
       -1   -1    0    0    0  501  0.00000000000E+00  0.00000000000E+00  0.16456027148E+04  0.16456027148E+04  0.50400001928E-02 0. -1.
        1   -1    0    0  501    0  0.00000000000E+00  0.00000000000E+00 -0.18941302601E+04  0.18941302601E+04  0.50400001928E-02 0.  1.
    10030    2    1    2    0    0  0.00000000000E+00  0.00000000000E+00 -0.24852754529E+03  0.35397329749E+04  0.35309975351E+04 0.  0.
        3    1    3    3  502    0 -0.14209646335E+03  0.29267468938E+03 -0.18638192090E+04  0.18920020964E+04  0.10100000352E+00 0.  1.
       -3    1    3    3    0  502  0.14209646335E+03 -0.29267468938E+03  0.16152916637E+04  0.16477308785E+04  0.10100000352E+00 0. -1.
</event>
<event>
 5   0  0.3190112E-07  0.3512393E+04  0.7818609E-02  0.8110859E-01
        2   -1    0    0  501    0  0.00000000000E+00  0.00000000000E+00  0.17537906491E+04  0.17537906491E+04  0.25500000920E-02 0.  1.
       -2   -1    0    0    0  501  0.00000000000E+00  0.00000000000E+00 -0.17586052718E+04  0.17586052718E+04  0.25500000920E-02 0. -1.
    10030    2    1    2    0    0  0.00000000000E+00  0.00000000000E+00 -0.48146227265E+01  0.35123959209E+04  0.35123926210E+04 0.  0.
        5    1    3    3  502    0 -0.93569833899E+03 -0.71388346658E+03 -0.13058817446E+04  0.17579847003E+04  0.46999998093E+01 0. -1.
       -5    1    3    3    0  502  0.93569833899E+03  0.71388346658E+03  0.13010671219E+04  0.17544112206E+04  0.46999998093E+01 0.  1.
</event>
<event>
 5   0  0.2180451E-07  0.3492459E+04  0.7818609E-02  0.8115579E-01
        2   -1    0    0  501    0  0.00000000000E+00  0.00000000000E+00  0.12177131592E+04  0.12177131592E+04  0.25500000920E-02 0.  1.
       -2   -1    0    0    0  501  0.00000000000E+00  0.00000000000E+00 -0.25041338962E+04  0.25041338962E+04  0.25500000920E-02 0. -1.
    10030    2    1    2    0    0  0.00000000000E+00  0.00000000000E+00 -0.12864207370E+04  0.37218470555E+04  0.34924586170E+04 0.  0.
        4    1    3    3  502    0  0.48524903737E+02 -0.47075384490E+03  0.11480696603E+04  0.12417847666E+04  0.12699999809E+01 0.  1.
       -4    1    3    3    0  502 -0.48524903737E+02  0.47075384490E+03 -0.24344903973E+04  0.24800622888E+04  0.12699999809E+01 0. -1.
</event>
<event>
 5   0  0.3219205E-07  0.3491366E+04  0.7818609E-02  0.8115839E-01
        2   -1    0    0  501    0  0.00000000000E+00  0.00000000000E+00  0.14228955544E+04  0.14228955544E+04  0.25500000920E-02 0. -1.
       -2   -1    0    0    0  501  0.00000000000E+00  0.00000000000E+00 -0.21416959717E+04  0.21416959717E+04  0.25500000920E-02 0.  1.
    10030    2    1    2    0    0  0.00000000000E+00  0.00000000000E+00 -0.71880041729E+03  0.35645915260E+04  0.34913663096E+04 0.  0.
        2    1    3    3  502    0 -0.39155975460E+03  0.15410956564E+04 -0.10950075662E+04  0.19306310973E+04  0.25500000920E-02 0.  1.
       -2    1    3    3    0  502  0.39155975460E+03 -0.15410956564E+04  0.37620714894E+03  0.16339604287E+04  0.25500000920E-02 0. -1.
</event>
<event>
 5   0  0.3190112E-07  0.3517596E+04  0.7818609E-02  0.8109633E-01
       -2   -1    0    0    0  501  0.00000000000E+00  0.00000000000E+00  0.11739812707E+04  0.11739812707E+04  0.25500000920E-02 0.  1.
        2   -1    0    0  501    0  0.00000000000E+00  0.00000000000E+00 -0.26349400758E+04  0.26349400759E+04  0.25500000920E-02 0. -1.
    10030    2    1    2    0    0  0.00000000000E+00  0.00000000000E+00 -0.14609588052E+04  0.38089213465E+04  0.35175959395E+04 0.  0.
        5    1    3    3  502    0 -0.13380098566E+04 -0.30067675203E+03  0.46193608211E+03  0.14470949932E+04  0.46999998093E+01 0.  1.
       -5    1    3    3    0  502  0.13380098566E+04  0.30067675203E+03 -0.19228948873E+04  0.23618263533E+04  0.46999998093E+01 0. -1.
</event>
<event>
 5   0  0.3219205E-07  0.3512692E+04  0.7818609E-02  0.8110789E-01
       -2   -1    0    0    0  501  0.00000000000E+00  0.00000000000E+00  0.12010716138E+04  0.12010716138E+04  0.25500000920E-02 0. -1.
        2   -1    0    0  501    0  0.00000000000E+00  0.00000000000E+00 -0.25683318546E+04  0.25683318546E+04  0.25500000920E-02 0.  1.
    10030    2    1    2    0    0  0.00000000000E+00  0.00000000000E+00 -0.13672602408E+04  0.37694034684E+04  0.35126915523E+04 0.  0.
        2    1    3    3  502    0  0.66429511999E+03  0.15418993690E+03  0.10532001920E+04  0.12547084074E+04  0.25500000920E-02 0. -1.
       -2    1    3    3    0  502 -0.66429511999E+03 -0.15418993690E+03 -0.24204604328E+04  0.25146950611E+04  0.25500000920E-02 0.  1.
</event>
<event>
 5   0  0.3190112E-07  0.3516275E+04  0.7818609E-02  0.8109944E-01
        2   -1    0    0  501    0  0.00000000000E+00  0.00000000000E+00  0.21429565936E+04  0.21429565936E+04  0.25500000920E-02 0. -1.
       -2   -1    0    0    0  501  0.00000000000E+00  0.00000000000E+00 -0.14424222017E+04  0.14424222017E+04  0.25500000920E-02 0.  1.
    10030    2    1    2    0    0  0.00000000000E+00  0.00000000000E+00  0.70053439191E+03  0.35853787954E+04  0.35162753976E+04 0.  0.
        5    1    3    3  502    0 -0.99434080550E+03 -0.13639542215E+04  0.85180905849E+03  0.18906838757E+04  0.46999998093E+01 0. -1.
       -5    1    3    3    0  502  0.99434080550E+03  0.13639542215E+04 -0.15127466658E+03  0.16946949196E+04  0.46999998093E+01 0.  1.
</event>
<event>
 5   0  0.2180451E-07  0.3557569E+04  0.7818609E-02  0.8100281E-01
       -2   -1    0    0    0  501  0.00000000000E+00  0.00000000000E+00  0.11367545716E+04  0.11367545716E+04  0.25500000920E-02 0.  1.
        2   -1    0    0  501    0  0.00000000000E+00  0.00000000000E+00 -0.27834274500E+04  0.27834274500E+04  0.25500000920E-02 0. -1.
    10030    2    1    2    0    0  0.00000000000E+00  0.00000000000E+00 -0.16466728784E+04  0.39201820217E+04  0.35575687646E+04 0.  0.
        4    1    3    3  502    0  0.36959078087E+03 -0.37966224129E+03  0.10477774296E+04  0.11741294297E+04  0.12699999809E+01 0.  1.
       -4    1    3    3    0  502 -0.36959078087E+03  0.37966224129E+03 -0.26944503080E+04  0.27460525920E+04  0.12699999809E+01 0. -1.
</event>
<event>
 5   0  0.3219205E-07  0.3492052E+04  0.7818609E-02  0.8115676E-01
       -2   -1    0    0    0  501  0.00000000000E+00  0.00000000000E+00  0.27632795722E+04  0.27632795722E+04  0.25500000920E-02 0. -1.
        2   -1    0    0  501    0  0.00000000000E+00  0.00000000000E+00 -0.11032565997E+04  0.11032565997E+04  0.25500000920E-02 0.  1.
    10030    2    1    2    0    0  0.00000000000E+00  0.00000000000E+00  0.16600229725E+04  0.38665361718E+04  0.34920517893E+04 0.  0.
        2    1    3    3  502    0  0.24118125187E+03 -0.21012421826E+03  0.27305594787E+04  0.27492318291E+04  0.25500000920E-02 0. -1.
       -2    1    3    3    0  502 -0.24118125187E+03  0.21012421826E+03 -0.10705365062E+04  0.11173043428E+04  0.25500000920E-02 0.  1.
</event>
<event>
 5   0  0.3190112E-07  0.3507791E+04  0.7818609E-02  0.8111946E-01
        2   -1    0    0  501    0  0.00000000000E+00  0.00000000000E+00  0.28816718904E+04  0.28816718904E+04  0.25500000920E-02 0. -1.
       -2   -1    0    0    0  501  0.00000000000E+00  0.00000000000E+00 -0.10674877597E+04  0.10674877597E+04  0.25500000920E-02 0.  1.
    10030    2    1    2    0    0  0.00000000000E+00  0.00000000000E+00  0.18141841307E+04  0.39491596501E+04  0.35077910260E+04 0.  0.
        5    1    3    3  502    0  0.56292364703E+03 -0.16300861768E+04  0.54742058411E+03  0.18093521940E+04  0.46999998093E+01 0.  1.
       -5    1    3    3    0  502 -0.56292364703E+03  0.16300861768E+04  0.12667635466E+04  0.21398074561E+04  0.46999998093E+01 0. -1.
</event>
<event>
 5   0  0.1098171E-07  0.3498412E+04  0.7818609E-02  0.8114166E-01
        1   -1    0    0  501    0  0.00000000000E+00  0.00000000000E+00  0.17897293896E+04  0.17897293896E+04  0.50400001928E-02 0. -1.
       -1   -1    0    0    0  501  0.00000000000E+00  0.00000000000E+00 -0.17095998389E+04  0.17095998389E+04  0.50400001928E-02 0.  1.
    10030    2    1    2    0    0  0.00000000000E+00  0.00000000000E+00  0.80129550708E+02  0.34993292284E+04  0.34984116830E+04 0.  0.
        4    1    3    3  502    0  0.13622455751E+04  0.10123335693E+04 -0.38335133846E+03  0.17399690009E+04  0.12699999809E+01 0.  1.
       -4    1    3    3    0  502 -0.13622455751E+04 -0.10123335693E+04  0.46348088917E+03  0.17593602275E+04  0.12699999809E+01 0. -1.
</event>
<event>
 5   0  0.3119048E-07  0.3483699E+04  0.7818609E-02  0.8117664E-01
       -2   -1    0    0    0  501  0.00000000000E+00  0.00000000000E+00  0.17422600154E+04  0.17422600154E+04  0.25500000920E-02 0.  1.
        2   -1    0    0  501    0  0.00000000000E+00  0.00000000000E+00 -0.17414392542E+04  0.17414392542E+04  0.25500000920E-02 0. -1.
    10030    2    1    2    0    0  0.00000000000E+00  0.00000000000E+00  0.82076115915E+00  0.34836992696E+04  0.34836991729E+04 0.  0.
        3    1    3    3  502    0  0.15713613926E+04  0.52416968783E+03  0.53902851989E+03  0.17419765335E+04  0.10100000352E+00 0.  1.
       -3    1    3    3    0  502 -0.15713613926E+04 -0.52416968783E+03 -0.53820775873E+03  0.17417227361E+04  0.10100000352E+00 0. -1.
</event>
<event>
 5   0  0.1098171E-07  0.3495074E+04  0.7818609E-02  0.8114958E-01
        1   -1    0    0  501    0  0.00000000000E+00  0.00000000000E+00  0.16428190917E+04  0.16428190917E+04  0.50400001928E-02 0.  1.
       -1   -1    0    0    0  501  0.00000000000E+00  0.00000000000E+00 -0.18589301476E+04  0.18589301476E+04  0.50400001928E-02 0. -1.
    10030    2    1    2    0    0  0.00000000000E+00  0.00000000000E+00 -0.21611105588E+03  0.35017492392E+04  0.34950742118E+04 0.  0.
        4    1    3    3  502    0  0.14994383236E+04  0.86511951984E+03 -0.34754604578E+03  0.17656548181E+04  0.12699999809E+01 0. -1.
       -4    1    3    3    0  502 -0.14994383236E+04 -0.86511951984E+03  0.13143498990E+03  0.17360944212E+04  0.12699999809E+01 0.  1.
</event>
<event>
 5   0  0.3219205E-07  0.3488116E+04  0.7818609E-02  0.8116612E-01
        2   -1    0    0  501    0  0.00000000000E+00  0.00000000000E+00  0.19408997666E+04  0.19408997666E+04  0.25500000920E-02 0.  1.
       -2   -1    0    0    0  501  0.00000000000E+00  0.00000000000E+00 -0.15671798794E+04  0.15671798794E+04  0.25500000920E-02 0. -1.
    10030    2    1    2    0    0  0.00000000000E+00  0.00000000000E+00  0.37371988726E+03  0.35080796460E+04  0.34881164328E+04 0.  0.
        2    1    3    3  502    0 -0.77931361564E+03 -0.12143670725E+04 -0.79840082135E+03  0.16490788246E+04  0.25500000920E-02 0. -1.
       -2    1    3    3    0  502  0.77931361564E+03  0.12143670725E+04  0.11721207086E+04  0.18590008214E+04  0.25500000920E-02 0.  1.
</event>
<event>
 5   0  0.3190112E-07  0.3484856E+04  0.7818609E-02  0.8117388E-01
        2   -1    0    0  501    0  0.00000000000E+00  0.00000000000E+00  0.17339307978E+04  0.17339307978E+04  0.25500000920E-02 0.  1.
       -2   -1    0    0    0  501  0.00000000000E+00  0.00000000000E+00 -0.17509671140E+04  0.17509671140E+04  0.25500000920E-02 0. -1.
    10030    2    1    2    0    0  0.00000000000E+00  0.00000000000E+00 -0.17036316160E+02  0.34848979118E+04  0.34848562695E+04 0.  0.
        5    1    3    3  502    0  0.88469861314E+01  0.10710137183E+04  0.13658654141E+04  0.17357301269E+04  0.46999998093E+01 0.  1.
       -5    1    3    3    0  502 -0.88469861314E+01 -0.10710137183E+04 -0.13829017303E+04  0.17491677849E+04  0.46999998093E+01 0. -1.
</event>
<event>
 5   0  0.1072381E-07  0.3495797E+04  0.7818609E-02  0.8114787E-01
       -1   -1    0    0    0  501  0.00000000000E+00  0.00000000000E+00  0.12320524476E+04  0.12320524477E+04  0.50400001928E-02 0.  1.
        1   -1    0    0  501    0  0.00000000000E+00  0.00000000000E+00 -0.24797227066E+04  0.24797227067E+04  0.50400001928E-02 0. -1.
    10030    2    1    2    0    0  0.00000000000E+00  0.00000000000E+00 -0.12476702590E+04  0.37117751543E+04  0.34957965789E+04 0.  0.
        1    1    3    3  502    0 -0.12944769047E+04 -0.78182118706E+03 -0.15544760780E+04  0.21687117610E+04  0.50400001928E-02 0. -1.
       -1    1    3    3    0  502  0.12944769047E+04  0.78182118706E+03  0.30680581898E+03  0.15430633933E+04  0.50400001928E-02 0.  1.
</event>
<event>
 5   0  0.1098171E-07  0.3501153E+04  0.7818609E-02  0.8113517E-01
       -1   -1    0    0    0  501  0.00000000000E+00  0.00000000000E+00  0.13329202161E+04  0.13329202161E+04  0.50400001928E-02 0.  1.
        1   -1    0    0  501    0  0.00000000000E+00  0.00000000000E+00 -0.22991010948E+04  0.22991010948E+04  0.50400001928E-02 0. -1.
    10030    2    1    2    0    0  0.00000000000E+00  0.00000000000E+00 -0.96618087872E+03  0.36320213110E+04  0.35011531404E+04 0.  0.
        4    1    3    3  502    0  0.10584917489E+04 -0.83519442332E+03 -0.16413189708E+04  0.21241196021E+04  0.12699999809E+01 0. -1.
       -4    1    3    3    0  502 -0.10584917489E+04  0.83519442332E+03  0.67513809212E+03  0.15079017088E+04  0.12699999809E+01 0.  1.
</event>
<event>
 5   0  0.1033796E-07  0.3504930E+04  0.7818609E-02  0.8112623E-01
       -1   -1    0    0    0  501  0.00000000000E+00  0.00000000000E+00  0.28405296313E+04  0.28405296313E+04  0.50400001928E-02 0.  1.
        1   -1    0    0  501    0  0.00000000000E+00  0.00000000000E+00 -0.10811834152E+04  0.10811834152E+04  0.50400001928E-02 0. -1.
    10030    2    1    2    0    0  0.00000000000E+00  0.00000000000E+00  0.17593462161E+04  0.39217130464E+04  0.35049299723E+04 0.  0.
        3    1    3    3  502    0  0.14963468404E+03  0.96382312930E+03 -0.74940788865E+03  0.12300234782E+04  0.10100000352E+00 0. -1.
       -3    1    3    3    0  502 -0.14963468404E+03 -0.96382312930E+03  0.25087541048E+04  0.26916895682E+04  0.10100000352E+00 0.  1.
</event>
<event>
 5   0  0.1013863E-07  0.3479331E+04  0.7818609E-02  0.8118706E-01
        1   -1    0    0  501    0  0.00000000000E+00  0.00000000000E+00  0.18597393101E+04  0.18597393101E+04  0.50400001928E-02 0. -1.
       -1   -1    0    0    0  501  0.00000000000E+00  0.00000000000E+00 -0.16273441836E+04  0.16273441836E+04  0.50400001928E-02 0.  1.
    10030    2    1    2    0    0  0.00000000000E+00  0.00000000000E+00  0.23239512651E+03  0.34870834937E+04  0.34793309411E+04 0.  0.
        5    1    3    3  502    0 -0.97087155506E+03 -0.52845267332E+03  0.14625298995E+04  0.18332674658E+04  0.46999998093E+01 0. -1.
       -5    1    3    3    0  502  0.97087155506E+03  0.52845267332E+03 -0.12301347730E+04  0.16538160279E+04  0.46999998093E+01 0.  1.
</event>
<event>
 5   0  0.1013863E-07  0.3514360E+04  0.7818609E-02  0.8110395E-01
       -1   -1    0    0    0  501  0.00000000000E+00  0.00000000000E+00  0.11718875144E+04  0.11718875144E+04  0.50400001928E-02 0.  1.
        1   -1    0    0  501    0  0.00000000000E+00  0.00000000000E+00 -0.26347940650E+04  0.26347940650E+04  0.50400001928E-02 0. -1.
    10030    2    1    2    0    0  0.00000000000E+00  0.00000000000E+00 -0.14629065506E+04  0.38066815794E+04  0.35143604071E+04 0.  0.
        5    1    3    3  502    0  0.74614128322E+02 -0.17055701870E+04 -0.28076324916E+03  0.17301407524E+04  0.46999998093E+01 0.  1.
       -5    1    3    3    0  502 -0.74614128322E+02  0.17055701870E+04 -0.11821433014E+04  0.20765408270E+04  0.46999998093E+01 0. -1.
</event>
<event>
 5   0  0.1072381E-07  0.3499653E+04  0.7818609E-02  0.8113872E-01
       -1   -1    0    0    0  501  0.00000000000E+00  0.00000000000E+00  0.22317072000E+04  0.22317072000E+04  0.50400001928E-02 0.  1.
        1   -1    0    0  501    0  0.00000000000E+00  0.00000000000E+00 -0.13719954939E+04  0.13719954939E+04  0.50400001928E-02 0. -1.
    10030    2    1    2    0    0  0.00000000000E+00  0.00000000000E+00  0.85971170606E+03  0.36037026939E+04  0.34996526811E+04 0.  0.
        1    1    3    3  502    0 -0.98297996904E+03  0.11689663207E+04  0.13091527275E+04  0.20116194328E+04  0.50400001928E-02 0.  1.
       -1    1    3    3    0  502  0.98297996904E+03 -0.11689663207E+04 -0.44944102145E+03  0.15920832611E+04  0.50400001928E-02 0. -1.
</event>
<event>
 5   0  0.3119048E-07  0.3495959E+04  0.7818609E-02  0.8114748E-01
        2   -1    0    0  501    0  0.00000000000E+00  0.00000000000E+00  0.16430039148E+04  0.16430039148E+04  0.25500000920E-02 0.  1.
       -2   -1    0    0    0  501  0.00000000000E+00  0.00000000000E+00 -0.18596618093E+04  0.18596618093E+04  0.25500000920E-02 0. -1.
    10030    2    1    2    0    0  0.00000000000E+00  0.00000000000E+00 -0.21665789451E+03  0.35026657241E+04  0.34959585998E+04 0.  0.
        3    1    3    3  502    0 -0.10612552459E+03  0.16868998222E+04 -0.55475981648E+03  0.17789469080E+04  0.10100000352E+00 0. -1.
       -3    1    3    3    0  502  0.10612552459E+03 -0.16868998222E+04  0.33810192197E+03  0.17237188161E+04  0.10100000352E+00 0.  1.
</event>
<event>
 5   0  0.1013863E-07  0.3336159E+04  0.7818609E-02  0.8153755E-01
       -1   -1    0    0    0  501  0.00000000000E+00  0.00000000000E+00  0.14598308584E+04  0.14598308584E+04  0.50400001928E-02 0. -1.
        1   -1    0    0  501    0  0.00000000000E+00  0.00000000000E+00 -0.19060358274E+04  0.19060358274E+04  0.50400001928E-02 0.  1.
    10030    2    1    2    0    0  0.00000000000E+00  0.00000000000E+00 -0.44620496898E+03  0.33658666859E+04  0.33361594196E+04 0.  0.
        5    1    3    3  502    0  0.87566584009E+03 -0.12046031269E+03 -0.16503251197E+04  0.18721368650E+04  0.46999998093E+01 0.  1.
       -5    1    3    3    0  502 -0.87566584009E+03  0.12046031269E+03  0.12041201507E+04  0.14937298209E+04  0.46999998093E+01 0. -1.
</event>
<event>
 5   0  0.3190112E-07  0.3412383E+04  0.7818609E-02  0.8134874E-01
       -2   -1    0    0    0  501  0.00000000000E+00  0.00000000000E+00  0.12430716031E+04  0.12430716031E+04  0.25500000920E-02 0. -1.
        2   -1    0    0  501    0  0.00000000000E+00  0.00000000000E+00 -0.23418515786E+04  0.23418515786E+04  0.25500000920E-02 0.  1.
    10030    2    1    2    0    0  0.00000000000E+00  0.00000000000E+00 -0.10987799756E+04  0.35849231817E+04  0.34123828601E+04 0.  0.
        5    1    3    3  502    0  0.40409568024E+03  0.14879808335E+04 -0.13168669420E+04  0.20276934958E+04  0.46999998093E+01 0.  1.
       -5    1    3    3    0  502 -0.40409568024E+03 -0.14879808335E+04  0.21808696647E+03  0.15572296859E+04  0.46999998093E+01 0. -1.
</event>
<event>
 5   0  0.1098171E-07  0.3479312E+04  0.7818609E-02  0.8118710E-01
        1   -1    0    0  501    0  0.00000000000E+00  0.00000000000E+00  0.29647135054E+04  0.29647135054E+04  0.50400001928E-02 0. -1.
       -1   -1    0    0    0  501  0.00000000000E+00  0.00000000000E+00 -0.10208081982E+04  0.10208081982E+04  0.50400001928E-02 0.  1.
    10030    2    1    2    0    0  0.00000000000E+00  0.00000000000E+00  0.19439053072E+04  0.39855217036E+04  0.34793124905E+04 0.  0.
        4    1    3    3  502    0  0.15185142707E+04  0.80944217725E+03  0.12647147604E+04  0.21355531524E+04  0.12699999809E+01 0. -1.
       -4    1    3    3    0  502 -0.15185142707E+04 -0.80944217725E+03  0.67919054681E+03  0.18499685512E+04  0.12699999809E+01 0.  1.
</event>
<event>
 5   0  0.1013863E-07  0.3519433E+04  0.7818609E-02  0.8109200E-01
        1   -1    0    0  501    0  0.00000000000E+00  0.00000000000E+00  0.22366753286E+04  0.22366753286E+04  0.50400001928E-02 0. -1.
       -1   -1    0    0    0  501  0.00000000000E+00  0.00000000000E+00 -0.13844665080E+04  0.13844665080E+04  0.50400001928E-02 0.  1.
    10030    2    1    2    0    0  0.00000000000E+00  0.00000000000E+00  0.85220882053E+03  0.36211418366E+04  0.35194329553E+04 0.  0.
        5    1    3    3  502    0 -0.76059749542E+03 -0.96673789753E+03 -0.86862914416E+03  0.15058649981E+04  0.46999998093E+01 0.  1.
       -5    1    3    3    0  502  0.76059749542E+03  0.96673789753E+03  0.17208379647E+04  0.21152768385E+04  0.46999998093E+01 0. -1.
</event>
<event>
 5   0  0.3190185E-07  0.3482309E+04  0.7818609E-02  0.8117995E-01
       -2   -1    0    0    0  501  0.00000000000E+00  0.00000000000E+00  0.11336651048E+04  0.11336651048E+04  0.25500000920E-02 0. -1.
        2   -1    0    0  501    0  0.00000000000E+00  0.00000000000E+00 -0.26741749603E+04  0.26741749603E+04  0.25500000920E-02 0.  1.
    10030    2    1    2    0    0  0.00000000000E+00  0.00000000000E+00 -0.15405098555E+04  0.38078400650E+04  0.34823089102E+04 0.  0.
        1    1    3    3  502    0  0.58950352395E+03  0.93256595346E+02 -0.25588267580E+04  0.26275093863E+04  0.50400001928E-02 0.  1.
       -1    1    3    3    0  502 -0.58950352395E+03 -0.93256595346E+02  0.10183169025E+04  0.11803306788E+04  0.50400001928E-02 0. -1.
</event>
<event>
 5   0  0.3190112E-07  0.3510451E+04  0.7818609E-02  0.8111318E-01
       -2   -1    0    0    0  501  0.00000000000E+00  0.00000000000E+00  0.13402461896E+04  0.13402461897E+04  0.25500000920E-02 0. -1.
        2   -1    0    0  501    0  0.00000000000E+00  0.00000000000E+00 -0.22986950840E+04  0.22986950840E+04  0.25500000920E-02 0.  1.
    10030    2    1    2    0    0  0.00000000000E+00  0.00000000000E+00 -0.95844889439E+03  0.36389412737E+04  0.35104514397E+04 0.  0.
        5    1    3    3  502    0 -0.59169993534E+03 -0.11661841462E+04 -0.16928464338E+04  0.21391225806E+04  0.46999998093E+01 0. -1.
       -5    1    3    3    0  502  0.59169993534E+03  0.11661841462E+04  0.73439753944E+03  0.14998186931E+04  0.46999998093E+01 0.  1.
</event>
<event>
 5   0  0.1013863E-07  0.3499690E+04  0.7818609E-02  0.8113864E-01
       -1   -1    0    0    0  501  0.00000000000E+00  0.00000000000E+00  0.17462176389E+04  0.17462176389E+04  0.50400001928E-02 0. -1.
        1   -1    0    0  501    0  0.00000000000E+00  0.00000000000E+00 -0.17534795002E+04  0.17534795002E+04  0.50400001928E-02 0.  1.
    10030    2    1    2    0    0  0.00000000000E+00  0.00000000000E+00 -0.72618612487E+01  0.34996971391E+04  0.34996896049E+04 0.  0.
        5    1    3    3  502    0  0.46434374021E+03 -0.86473785415E+03 -0.14522706763E+04  0.17528544927E+04  0.46999998093E+01 0.  1.
       -5    1    3    3    0  502 -0.46434374021E+03  0.86473785415E+03  0.14450088151E+04  0.17468426463E+04  0.46999998093E+01 0. -1.
</event>
<event>
 5   0  0.2180451E-07  0.3503151E+04  0.7818609E-02  0.8113044E-01
       -2   -1    0    0    0  501  0.00000000000E+00  0.00000000000E+00  0.26950976747E+04  0.26950976747E+04  0.25500000920E-02 0.  1.
        2   -1    0    0  501    0  0.00000000000E+00  0.00000000000E+00 -0.11383692336E+04  0.11383692336E+04  0.25500000920E-02 0. -1.
    10030    2    1    2    0    0  0.00000000000E+00  0.00000000000E+00  0.15567284411E+04  0.38334669083E+04  0.35031507386E+04 0.  0.
        4    1    3    3  502    0 -0.10950802549E+04  0.51468886373E+02 -0.71652116479E+03  0.13096770607E+04  0.12699999809E+01 0. -1.
       -4    1    3    3    0  502  0.10950802549E+04 -0.51468886373E+02  0.22732496059E+04  0.25237898475E+04  0.12699999809E+01 0.  1.
</event>
<event>
 5   0  0.1072381E-07  0.3500998E+04  0.7818609E-02  0.8113554E-01
        1   -1    0    0  501    0  0.00000000000E+00  0.00000000000E+00  0.21659506643E+04  0.21659506643E+04  0.50400001928E-02 0.  1.
       -1   -1    0    0    0  501  0.00000000000E+00  0.00000000000E+00 -0.14147348618E+04  0.14147348618E+04  0.50400001928E-02 0. -1.
    10030    2    1    2    0    0  0.00000000000E+00  0.00000000000E+00  0.75121580257E+03  0.35806855261E+04  0.35009975228E+04 0.  0.
        1    1    3    3  502    0  0.90208962641E+03  0.91328841356E+03 -0.84160054972E+03  0.15349765163E+04  0.50400001928E-02 0. -1.
       -1    1    3    3    0  502 -0.90208962641E+03 -0.91328841356E+03  0.15928163523E+04  0.20457090097E+04  0.50400001928E-02 0.  1.
</event>
<event>
 5   0  0.1013863E-07  0.3514174E+04  0.7818609E-02  0.8110439E-01
        1   -1    0    0  501    0  0.00000000000E+00  0.00000000000E+00  0.12075175799E+04  0.12075175799E+04  0.50400001928E-02 0.  1.
       -1   -1    0    0    0  501  0.00000000000E+00  0.00000000000E+00 -0.25567786356E+04  0.25567786356E+04  0.50400001928E-02 0. -1.
    10030    2    1    2    0    0  0.00000000000E+00  0.00000000000E+00 -0.13492610557E+04  0.37642962156E+04  0.35141742419E+04 0.  0.
        2    1    3    3  502    0  0.50495178760E+03 -0.38633133857E+03  0.10799815312E+04  0.12532311513E+04  0.25500000920E-02 0.  1.
       -2    1    3    3    0  502 -0.50495178760E+03  0.38633133857E+03 -0.24292425869E+04  0.25110650643E+04  0.25500000920E-02 0. -1.
</event>
<event>
 5   0  0.1013863E-07  0.3492725E+04  0.7818609E-02  0.8115516E-01
        1   -1    0    0  501    0  0.00000000000E+00  0.00000000000E+00  0.28360323052E+04  0.28360323052E+04  0.50400001928E-02 0. -1.
       -1   -1    0    0    0  501  0.00000000000E+00  0.00000000000E+00 -0.10753694632E+04  0.10753694632E+04  0.50400001928E-02 0.  1.
    10030    2    1    2    0    0  0.00000000000E+00  0.00000000000E+00  0.17606628420E+04  0.39114017684E+04  0.34927253186E+04 0.  0.
        2    1    3    3  502    0 -0.13156652537E+04  0.92580226173E+03  0.16412651370E+04  0.22982245620E+04  0.25500000920E-02 0. -1.
       -2    1    3    3    0  502  0.13156652537E+04 -0.92580226173E+03  0.11939770502E+03  0.16131772065E+04  0.25500000920E-02 0.  1.
</event>
<event>
 5   0  0.1098171E-07  0.3498409E+04  0.7818609E-02  0.8114167E-01
        1   -1    0    0  501    0  0.00000000000E+00  0.00000000000E+00  0.18442299117E+04  0.18442299117E+04  0.50400001928E-02 0.  1.
       -1   -1    0    0    0  501  0.00000000000E+00  0.00000000000E+00 -0.16590755790E+04  0.16590755790E+04  0.50400001928E-02 0. -1.
    10030    2    1    2    0    0  0.00000000000E+00  0.00000000000E+00  0.18515433277E+03  0.35033054907E+04  0.34984092434E+04 0.  0.
        4    1    3    3  502    0 -0.11725235479E+04  0.12001011185E+04  0.58790165333E+03  0.17778313002E+04  0.12699999809E+01 0. -1.
       -4    1    3    3    0  502  0.11725235479E+04 -0.12001011185E+04 -0.40274732056E+03  0.17254741905E+04  0.12699999809E+01 0.  1.
</event>
<event>
 5   0  0.1072381E-07  0.3526616E+04  0.7818609E-02  0.8107511E-01
       -1   -1    0    0    0  501  0.00000000000E+00  0.00000000000E+00  0.16415847984E+04  0.16415847984E+04  0.50400001928E-02 0. -1.
        1   -1    0    0  501    0  0.00000000000E+00  0.00000000000E+00 -0.18940570790E+04  0.18940570790E+04  0.50400001928E-02 0.  1.
    10030    2    1    2    0    0  0.00000000000E+00  0.00000000000E+00 -0.25247228063E+03  0.35356418774E+04  0.35266161164E+04 0.  0.
        1    1    3    3  502    0  0.95687729848E+03 -0.80548450551E+03 -0.13723314223E+04  0.18568018164E+04  0.50400001928E-02 0.  1.
       -1    1    3    3    0  502 -0.95687729848E+03  0.80548450551E+03  0.11198591417E+04  0.16788400609E+04  0.50400001928E-02 0. -1.
</event>
<event>
 5   0  0.1013863E-07  0.3496861E+04  0.7818609E-02  0.8114534E-01
       -1   -1    0    0    0  501  0.00000000000E+00  0.00000000000E+00  0.15856797252E+04  0.15856797252E+04  0.50400001928E-02 0. -1.
        1   -1    0    0  501    0  0.00000000000E+00  0.00000000000E+00 -0.19278854132E+04  0.19278854132E+04  0.50400001928E-02 0.  1.
    10030    2    1    2    0    0  0.00000000000E+00  0.00000000000E+00 -0.34220568800E+03  0.35135651384E+04  0.34968607706E+04 0.  0.
        5    1    3    3  502    0  0.10709793403E+04 -0.11595124461E+04  0.58450069591E+03  0.16831901299E+04  0.46999998093E+01 0. -1.
       -5    1    3    3    0  502 -0.10709793403E+04  0.11595124461E+04 -0.92670638390E+03  0.18303750085E+04  0.46999998093E+01 0.  1.
</event>
<event>
 5   0  0.2180451E-07  0.3526875E+04  0.7818609E-02  0.8107450E-01
       -2   -1    0    0    0  501  0.00000000000E+00  0.00000000000E+00  0.14273153175E+04  0.14273153175E+04  0.25500000920E-02 0. -1.
        2   -1    0    0  501    0  0.00000000000E+00  0.00000000000E+00 -0.21787143046E+04  0.21787143046E+04  0.25500000920E-02 0.  1.
    10030    2    1    2    0    0  0.00000000000E+00  0.00000000000E+00 -0.75139898716E+03  0.36060296221E+04  0.35268752739E+04 0.  0.
        4    1    3    3  502    0 -0.11689869729E+04 -0.21712366961E+03  0.95584875648E+03  0.15255561900E+04  0.12699999809E+01 0. -1.
       -4    1    3    3    0  502  0.11689869729E+04  0.21712366961E+03 -0.17072477436E+04  0.20804734321E+04  0.12699999809E+01 0.  1.
</event>
<event>
 5   0  0.1013863E-07  0.3502461E+04  0.7818609E-02  0.8113207E-01
        1   -1    0    0  501    0  0.00000000000E+00  0.00000000000E+00  0.20788762114E+04  0.20788762114E+04  0.50400001928E-02 0.  1.
       -1   -1    0    0    0  501  0.00000000000E+00  0.00000000000E+00 -0.14752238463E+04  0.14752238463E+04  0.50400001928E-02 0. -1.
    10030    2    1    2    0    0  0.00000000000E+00  0.00000000000E+00  0.60365236507E+03  0.35541000577E+04  0.35024607124E+04 0.  0.
        5    1    3    3  502    0 -0.11704919507E+04 -0.12915749082E+04  0.47334044912E+03  0.18061811706E+04  0.46999998093E+01 0.  1.
       -5    1    3    3    0  502  0.11704919507E+04  0.12915749082E+04  0.13031191595E+03  0.17479188871E+04  0.46999998093E+01 0. -1.
</event>
<event>
 5   0  0.2180451E-07  0.3492466E+04  0.7818609E-02  0.8115578E-01
        2   -1    0    0  501    0  0.00000000000E+00  0.00000000000E+00  0.21149985767E+04  0.21149985767E+04  0.25500000920E-02 0.  1.
       -2   -1    0    0    0  501  0.00000000000E+00  0.00000000000E+00 -0.14417644998E+04  0.14417644998E+04  0.25500000920E-02 0. -1.
    10030    2    1    2    0    0  0.00000000000E+00  0.00000000000E+00  0.67323407693E+03  0.35567630765E+04  0.34924661000E+04 0.  0.
        4    1    3    3  502    0  0.17378513104E+04 -0.95972185342E+02  0.19262660454E+03  0.17511266256E+04  0.12699999809E+01 0. -1.
       -4    1    3    3    0  502 -0.17378513104E+04  0.95972185342E+02  0.48060747239E+03  0.18056364509E+04  0.12699999809E+01 0.  1.
</event>
<event>
 5   0  0.1072381E-07  0.3501869E+04  0.7818609E-02  0.8113347E-01
        1   -1    0    0  501    0  0.00000000000E+00  0.00000000000E+00  0.18511359495E+04  0.18511359495E+04  0.50400001928E-02 0.  1.
       -1   -1    0    0    0  501  0.00000000000E+00  0.00000000000E+00 -0.16561573649E+04  0.16561573649E+04  0.50400001928E-02 0. -1.
    10030    2    1    2    0    0  0.00000000000E+00  0.00000000000E+00  0.19497858462E+03  0.35072933144E+04  0.35018694642E+04 0.  0.
        1    1    3    3  502    0 -0.77664380002E+03 -0.76555310975E+03  0.14694742311E+04  0.18299184878E+04  0.50400001928E-02 0.  1.
       -1    1    3    3    0  502  0.77664380002E+03  0.76555310975E+03 -0.12744956465E+04  0.16773748266E+04  0.50400001928E-02 0. -1.
</event>
<event>
 5   0  0.1013863E-07  0.3480980E+04  0.7818609E-02  0.8118312E-01
        3   -1    0    0  501    0  0.00000000000E+00  0.00000000000E+00  0.22307555351E+04  0.22307555374E+04  0.10100000352E+00 0. -1.
       -3   -1    0    0    0  501  0.00000000000E+00  0.00000000000E+00 -0.13579730049E+04  0.13579730087E+04  0.10100000352E+00 0.  1.
    10030    2    1    2    0    0  0.00000000000E+00  0.00000000000E+00  0.87278253022E+03  0.35887285461E+04  0.34809802114E+04 0.  0.
        3    1    3    3  502    0 -0.59904720961E+03 -0.13950615192E+04 -0.44098076503E+03  0.15809864790E+04  0.10100000352E+00 0.  1.
       -3    1    3    3    0  502  0.59904720961E+03  0.13950615192E+04  0.13137632953E+04  0.20077420670E+04  0.10100000352E+00 0. -1.
</event>
<event>
 5   0  0.3190185E-07  0.3499871E+04  0.7818609E-02  0.8113821E-01
        2   -1    0    0  501    0  0.00000000000E+00  0.00000000000E+00  0.21068169024E+04  0.21068169024E+04  0.25500000920E-02 0.  1.
       -2   -1    0    0    0  501  0.00000000000E+00  0.00000000000E+00 -0.14535074178E+04  0.14535074178E+04  0.25500000920E-02 0. -1.
    10030    2    1    2    0    0  0.00000000000E+00  0.00000000000E+00  0.65330948460E+03  0.35603243202E+04  0.34998708522E+04 0.  0.
        1    1    3    3  502    0  0.12834650326E+04 -0.55341320327E+02  0.15354255059E+04  0.20019681905E+04  0.50400001928E-02 0.  1.
       -1    1    3    3    0  502 -0.12834650326E+04  0.55341320327E+02 -0.88211602128E+03  0.15583561296E+04  0.50400001928E-02 0. -1.
</event>
<event>
 5   0  0.1072381E-07  0.3494735E+04  0.7818609E-02  0.8115039E-01
        1   -1    0    0  501    0  0.00000000000E+00  0.00000000000E+00  0.17403820934E+04  0.17403820934E+04  0.50400001928E-02 0. -1.
       -1   -1    0    0    0  501  0.00000000000E+00  0.00000000000E+00 -0.17543804535E+04  0.17543804535E+04  0.50400001928E-02 0.  1.
    10030    2    1    2    0    0  0.00000000000E+00  0.00000000000E+00 -0.13998360084E+02  0.34947625470E+04  0.34947345115E+04 0.  0.
        1    1    3    3  502    0  0.32585325596E+03  0.33109439286E+02  0.17094107402E+04  0.17405061500E+04  0.50400001928E-02 0. -1.
       -1    1    3    3    0  502 -0.32585325596E+03 -0.33109439286E+02 -0.17234091003E+04  0.17542563970E+04  0.50400001928E-02 0.  1.
</event>
<event>
 5   0  0.3219205E-07  0.3475107E+04  0.7818609E-02  0.8119715E-01
       -2   -1    0    0    0  501  0.00000000000E+00  0.00000000000E+00  0.11941523446E+04  0.11941523446E+04  0.25500000920E-02 0.  1.
        2   -1    0    0  501    0  0.00000000000E+00  0.00000000000E+00 -0.25282310170E+04  0.25282310170E+04  0.25500000920E-02 0. -1.
    10030    2    1    2    0    0  0.00000000000E+00  0.00000000000E+00 -0.13340786723E+04  0.37223833616E+04  0.34751074785E+04 0.  0.
        2    1    3    3  502    0 -0.26010759315E+02 -0.74476202715E+03 -0.23483610424E+04  0.24637667548E+04  0.25500000920E-02 0. -1.
       -2    1    3    3    0  502  0.26010759315E+02  0.74476202715E+03  0.10142823701E+04  0.12586166068E+04  0.25500000920E-02 0.  1.
</event>
<event>
 5   0  0.1072381E-07  0.3491304E+04  0.7818609E-02  0.8115854E-01
        1   -1    0    0  501    0  0.00000000000E+00  0.00000000000E+00  0.23187660917E+04  0.23187660917E+04  0.50400001928E-02 0.  1.
       -1   -1    0    0    0  501  0.00000000000E+00  0.00000000000E+00 -0.13141911042E+04  0.13141911042E+04  0.50400001928E-02 0. -1.
    10030    2    1    2    0    0  0.00000000000E+00  0.00000000000E+00  0.10045749875E+04  0.36329571959E+04  0.34913044957E+04 0.  0.
        1    1    3    3  502    0  0.41584865553E+03  0.16508651169E+04  0.10059931540E+03  0.17054049257E+04  0.50400001928E-02 0. -1.
       -1    1    3    3    0  502 -0.41584865553E+03 -0.16508651169E+04  0.90397567213E+03  0.19275522702E+04  0.50400001928E-02 0.  1.
</event>
<event>
 5   0  0.1033796E-07  0.3491808E+04  0.7818609E-02  0.8115734E-01
        1   -1    0    0  501    0  0.00000000000E+00  0.00000000000E+00  0.18885435669E+04  0.18885435670E+04  0.50400001928E-02 0. -1.
       -1   -1    0    0    0  501  0.00000000000E+00  0.00000000000E+00 -0.16140377640E+04  0.16140377640E+04  0.50400001928E-02 0.  1.
    10030    2    1    2    0    0  0.00000000000E+00  0.00000000000E+00  0.27450580294E+03  0.35025813310E+04  0.34918079191E+04 0.  0.
        3    1    3    3  502    0 -0.96511765710E+03 -0.14358633268E+04  0.37255081108E+03  0.17697315339E+04  0.10100000352E+00 0. -1.
       -3    1    3    3    0  502  0.96511765710E+03  0.14358633268E+04 -0.98045008147E+02  0.17328497970E+04  0.10100000352E+00 0.  1.
</event>
<event>
 5   0  0.1072381E-07  0.3497459E+04  0.7818609E-02  0.8114392E-01
       -1   -1    0    0    0  501  0.00000000000E+00  0.00000000000E+00  0.18065586599E+04  0.18065586599E+04  0.50400001928E-02 0.  1.
        1   -1    0    0  501    0  0.00000000000E+00  0.00000000000E+00 -0.16927514642E+04  0.16927514642E+04  0.50400001928E-02 0. -1.
    10030    2    1    2    0    0  0.00000000000E+00  0.00000000000E+00  0.11380719571E+03  0.34993101240E+04  0.34974589728E+04 0.  0.
        1    1    3    3  502    0 -0.94356591214E+03  0.74480397081E+03  0.13276172401E+04  0.17909821668E+04  0.50400001928E-02 0.  1.
       -1    1    3    3    0  502  0.94356591214E+03 -0.74480397081E+03 -0.12138100444E+04  0.17083279572E+04  0.50400001928E-02 0. -1.
</event>
<event>
 5   0  0.3190112E-07  0.3481964E+04  0.7818609E-02  0.8118077E-01
        2   -1    0    0  501    0  0.00000000000E+00  0.00000000000E+00  0.21538228681E+04  0.21538228681E+04  0.25500000920E-02 0.  1.
       -2   -1    0    0    0  501  0.00000000000E+00  0.00000000000E+00 -0.14072740598E+04  0.14072740598E+04  0.25500000920E-02 0. -1.
    10030    2    1    2    0    0  0.00000000000E+00  0.00000000000E+00  0.74654880835E+03  0.35610969279E+04  0.34819644178E+04 0.  0.
        5    1    3    3  502    0 -0.78412082146E+03 -0.97029560995E+03 -0.86868687517E+03  0.15201835450E+04  0.46999998093E+01 0. -1.
       -5    1    3    3    0  502  0.78412082146E+03  0.97029560995E+03  0.16152356835E+04  0.20409133829E+04  0.46999998093E+01 0.  1.
</event>
<event>
 5   0  0.3190185E-07  0.3530474E+04  0.7818609E-02  0.8106606E-01
        2   -1    0    0  501    0  0.00000000000E+00  0.00000000000E+00  0.16942450038E+04  0.16942450039E+04  0.25500000920E-02 0.  1.
       -2   -1    0    0    0  501  0.00000000000E+00  0.00000000000E+00 -0.18392034022E+04  0.18392034022E+04  0.25500000920E-02 0. -1.
    10030    2    1    2    0    0  0.00000000000E+00  0.00000000000E+00 -0.14495839838E+03  0.35334484061E+04  0.35304737219E+04 0.  0.
        1    1    3    3  502    0 -0.11058375539E+04 -0.13589746792E+04  0.14304453034E+03  0.17578824227E+04  0.50400001928E-02 0.  1.
       -1    1    3    3    0  502  0.11058375539E+04  0.13589746792E+04 -0.28800292872E+03  0.17755659834E+04  0.50400001928E-02 0. -1.
</event>
<event>
 5   0  0.3190185E-07  0.3514642E+04  0.7818609E-02  0.8110329E-01
       -2   -1    0    0    0  501  0.00000000000E+00  0.00000000000E+00  0.19001409596E+04  0.19001409596E+04  0.25500000920E-02 0.  1.
        2   -1    0    0  501    0  0.00000000000E+00  0.00000000000E+00 -0.16252360700E+04  0.16252360700E+04  0.25500000920E-02 0. -1.
    10030    2    1    2    0    0  0.00000000000E+00  0.00000000000E+00  0.27490488964E+03  0.35253770296E+04  0.35146423008E+04 0.  0.
        1    1    3    3  502    0  0.47500210558E+03 -0.67303285697E+03  0.16944749116E+04  0.18841033552E+04  0.50400001928E-02 0.  1.
       -1    1    3    3    0  502 -0.47500210558E+03  0.67303285697E+03 -0.14195700220E+04  0.16412736744E+04  0.50400001928E-02 0. -1.
</event>
<event>
 5   0  0.1013863E-07  0.3583867E+04  0.7818609E-02  0.8094197E-01
       -1   -1    0    0    0  501  0.00000000000E+00  0.00000000000E+00  0.14073967831E+04  0.14073967831E+04  0.50400001928E-02 0. -1.
        1   -1    0    0  501    0  0.00000000000E+00  0.00000000000E+00 -0.22815357354E+04  0.22815357354E+04  0.50400001928E-02 0.  1.
    10030    2    1    2    0    0  0.00000000000E+00  0.00000000000E+00 -0.87413895235E+03  0.36889325186E+04  0.35838672155E+04 0.  0.
        2    1    3    3  502    0  0.11812968954E+04  0.78512329830E+03  0.69008819228E+03  0.15773720746E+04  0.25500000920E-02 0. -1.
       -2    1    3    3    0  502 -0.11812968954E+04 -0.78512329830E+03 -0.15642271446E+04  0.21115604440E+04  0.25500000920E-02 0.  1.
</event>
<event>
 5   0  0.1072381E-07  0.3501514E+04  0.7818609E-02  0.8113431E-01
        1   -1    0    0  501    0  0.00000000000E+00  0.00000000000E+00  0.23651717551E+04  0.23651717551E+04  0.50400001928E-02 0.  1.
       -1   -1    0    0    0  501  0.00000000000E+00  0.00000000000E+00 -0.12959521241E+04  0.12959521241E+04  0.50400001928E-02 0. -1.
    10030    2    1    2    0    0  0.00000000000E+00  0.00000000000E+00  0.10692196310E+04  0.36611238793E+04  0.35015135927E+04 0.  0.
        1    1    3    3  502    0  0.76859135295E+03 -0.35249247923E+03 -0.10682954419E+04  0.13624385370E+04  0.50400001928E-02 0. -1.
       -1    1    3    3    0  502 -0.76859135295E+03  0.35249247923E+03  0.21375150730E+04  0.22986853423E+04  0.50400001928E-02 0.  1.
</event>
<event>
 5   0  0.3190112E-07  0.3443687E+04  0.7818609E-02  0.8127267E-01
       -2   -1    0    0    0  501  0.00000000000E+00  0.00000000000E+00  0.14393811496E+04  0.14393811496E+04  0.25500000920E-02 0.  1.
        2   -1    0    0  501    0  0.00000000000E+00  0.00000000000E+00 -0.20597355196E+04  0.20597355196E+04  0.25500000920E-02 0. -1.
    10030    2    1    2    0    0  0.00000000000E+00  0.00000000000E+00 -0.62035436999E+03  0.34991166692E+04  0.34436866757E+04 0.  0.
        5    1    3    3  502    0 -0.99553742502E+03 -0.96735313629E+03 -0.13453270882E+04  0.19330788704E+04  0.46999998093E+01 0. -1.
       -5    1    3    3    0  502  0.99553742502E+03  0.96735313629E+03  0.72497271825E+03  0.15660377988E+04  0.46999998093E+01 0.  1.
</event>
<event>
 5   0  0.1033796E-07  0.3477619E+04  0.7818609E-02  0.8119114E-01
       -1   -1    0    0    0  501  0.00000000000E+00  0.00000000000E+00  0.15988815702E+04  0.15988815702E+04  0.50400001928E-02 0.  1.
        1   -1    0    0  501    0  0.00000000000E+00  0.00000000000E+00 -0.18909837758E+04  0.18909837758E+04  0.50400001928E-02 0. -1.
    10030    2    1    2    0    0  0.00000000000E+00  0.00000000000E+00 -0.29210220564E+03  0.34898653460E+04  0.34776193631E+04 0.  0.
        3    1    3    3  502    0  0.54946036357E+03 -0.15803953228E+04  0.32879908181E+03  0.17051876477E+04  0.10100000352E+00 0.  1.
       -3    1    3    3    0  502 -0.54946036357E+03  0.15803953228E+04 -0.62090128745E+03  0.17846776982E+04  0.10100000352E+00 0. -1.
</event>
<event>
 5   0  0.1098171E-07  0.3518618E+04  0.7818609E-02  0.8109392E-01
        1   -1    0    0  501    0  0.00000000000E+00  0.00000000000E+00  0.23440867615E+04  0.23440867616E+04  0.50400001928E-02 0. -1.
       -1   -1    0    0    0  501  0.00000000000E+00  0.00000000000E+00 -0.13204157007E+04  0.13204157008E+04  0.50400001928E-02 0.  1.
    10030    2    1    2    0    0  0.00000000000E+00  0.00000000000E+00  0.10236710608E+04  0.36645024623E+04  0.35186184584E+04 0.  0.
        4    1    3    3  502    0  0.11114214423E+04  0.25043365366E+03 -0.88434046160E+03  0.14422324023E+04  0.12699999809E+01 0.  1.
       -4    1    3    3    0  502 -0.11114214423E+04 -0.25043365366E+03  0.19080115224E+04  0.22222700600E+04  0.12699999809E+01 0. -1.
</event>
<event>
 5   0  0.3119048E-07  0.3338643E+04  0.7818609E-02  0.8153132E-01
       -2   -1    0    0    0  501  0.00000000000E+00  0.00000000000E+00  0.20113072512E+04  0.20113072512E+04  0.25500000920E-02 0.  1.
        2   -1    0    0  501    0  0.00000000000E+00  0.00000000000E+00 -0.13854843451E+04  0.13854843451E+04  0.25500000920E-02 0. -1.
    10030    2    1    2    0    0  0.00000000000E+00  0.00000000000E+00  0.62582290613E+03  0.33967915963E+04  0.33386432632E+04 0.  0.
        3    1    3    3  502    0 -0.80027634623E+03 -0.51894523661E+03  0.17067680675E+04  0.19551991293E+04  0.10100000352E+00 0.  1.
       -3    1    3    3    0  502  0.80027634623E+03  0.51894523661E+03 -0.10809451613E+04  0.14415924670E+04  0.10100000352E+00 0. -1.
</event>
<event>
 5   0  0.1013863E-07  0.3505691E+04  0.7818609E-02  0.8112443E-01
        1   -1    0    0  501    0  0.00000000000E+00  0.00000000000E+00  0.31217564462E+04  0.31217564462E+04  0.50400001928E-02 0.  1.
       -1   -1    0    0    0  501  0.00000000000E+00  0.00000000000E+00 -0.98421096845E+03  0.98421096846E+03  0.50400001928E-02 0. -1.
    10030    2    1    2    0    0  0.00000000000E+00  0.00000000000E+00  0.21375454778E+04  0.41059674147E+04  0.35056907652E+04 0.  0.
        5    1    3    3  502    0 -0.29342466701E+03 -0.99599973201E+03  0.27227919569E+04  0.29140575890E+04  0.46999998093E+01 0.  1.
       -5    1    3    3    0  502  0.29342466701E+03  0.99599973201E+03 -0.58524647910E+03  0.11919098257E+04  0.46999998093E+01 0. -1.
</event>
<event>
 5   0  0.3190112E-07  0.3458966E+04  0.7818609E-02  0.8123584E-01
        2   -1    0    0  501    0  0.00000000000E+00  0.00000000000E+00  0.18591085500E+04  0.18591085500E+04  0.25500000920E-02 0.  1.
       -2   -1    0    0    0  501  0.00000000000E+00  0.00000000000E+00 -0.16088957240E+04  0.16088957240E+04  0.25500000920E-02 0. -1.
    10030    2    1    2    0    0  0.00000000000E+00  0.00000000000E+00  0.25021282591E+03  0.34680042740E+04  0.34589662020E+04 0.  0.
        5    1    3    3  502    0  0.83188332787E+03 -0.20436134938E+03  0.16314622960E+04  0.18426841145E+04  0.46999998093E+01 0.  1.
       -5    1    3    3    0  502 -0.83188332787E+03  0.20436134938E+03 -0.13812494701E+04  0.16253201595E+04  0.46999998093E+01 0. -1.
</event>
<event>
 5   0  0.2180451E-07  0.3505412E+04  0.7818609E-02  0.8112509E-01
       -2   -1    0    0    0  501  0.00000000000E+00  0.00000000000E+00  0.98012774239E+03  0.98012774240E+03  0.25500000920E-02 0.  1.
        2   -1    0    0  501    0  0.00000000000E+00  0.00000000000E+00 -0.31342632871E+04  0.31342632871E+04  0.25500000920E-02 0. -1.
    10030    2    1    2    0    0  0.00000000000E+00  0.00000000000E+00 -0.21541355447E+04  0.41143910295E+04  0.35054120440E+04 0.  0.
        4    1    3    3  502    0 -0.57033441376E+03  0.16448999017E+04 -0.13147283398E+04  0.21816253689E+04  0.12699999809E+01 0. -1.
       -4    1    3    3    0  502  0.57033441376E+03 -0.16448999017E+04 -0.83940720493E+03  0.19327656606E+04  0.12699999809E+01 0.  1.
</event>
<event>
 5   0  0.2180451E-07  0.3499461E+04  0.7818609E-02  0.8113918E-01
        2   -1    0    0  501    0  0.00000000000E+00  0.00000000000E+00  0.15232402928E+04  0.15232402928E+04  0.25500000920E-02 0.  1.
       -2   -1    0    0    0  501  0.00000000000E+00  0.00000000000E+00 -0.20098978268E+04  0.20098978268E+04  0.25500000920E-02 0. -1.
    10030    2    1    2    0    0  0.00000000000E+00  0.00000000000E+00 -0.48665753399E+03  0.35331381196E+04  0.34994613038E+04 0.  0.
        4    1    3    3  502    0 -0.56055882322E+03 -0.91698360928E+03 -0.16373663324E+04  0.19585850130E+04  0.12699999809E+01 0. -1.
       -4    1    3    3    0  502  0.56055882322E+03  0.91698360928E+03  0.11507087984E+04  0.15745531066E+04  0.12699999809E+01 0.  1.
</event>
<event>
 5   0  0.3190185E-07  0.3495988E+04  0.7818609E-02  0.8114741E-01
        2   -1    0    0  501    0  0.00000000000E+00  0.00000000000E+00  0.22221283081E+04  0.22221283081E+04  0.25500000920E-02 0. -1.
       -2   -1    0    0    0  501  0.00000000000E+00  0.00000000000E+00 -0.13750258205E+04  0.13750258205E+04  0.25500000920E-02 0.  1.
    10030    2    1    2    0    0  0.00000000000E+00  0.00000000000E+00  0.84710248757E+03  0.35971541286E+04  0.34959884440E+04 0.  0.
        1    1    3    3  502    0  0.11449140967E+04 -0.70585243526E+03 -0.72519110155E+03  0.15280569633E+04  0.50400001928E-02 0.  1.
       -1    1    3    3    0  502 -0.11449140967E+04  0.70585243526E+03  0.15722935891E+04  0.20690971653E+04  0.50400001928E-02 0. -1.
</event>
<event>
 5   0  0.1013863E-07  0.3490914E+04  0.7818609E-02  0.8115947E-01
        1   -1    0    0  501    0  0.00000000000E+00  0.00000000000E+00  0.28103246682E+04  0.28103246682E+04  0.50400001928E-02 0.  1.
       -1   -1    0    0    0  501  0.00000000000E+00  0.00000000000E+00 -0.10840811498E+04  0.10840811499E+04  0.50400001928E-02 0. -1.
    10030    2    1    2    0    0  0.00000000000E+00  0.00000000000E+00  0.17262435183E+04  0.38944058180E+04  0.34909139192E+04 0.  0.
        2    1    3    3  502    0 -0.25038657470E+03 -0.16552485817E+04  0.14142681918E+04  0.21915053781E+04  0.25500000920E-02 0.  1.
       -2    1    3    3    0  502  0.25038657470E+03  0.16552485817E+04  0.31197532653E+03  0.17029004399E+04  0.25500000920E-02 0. -1.
</event>
<event>
 5   0  0.2180451E-07  0.3509556E+04  0.7818609E-02  0.8111529E-01
        2   -1    0    0  501    0  0.00000000000E+00  0.00000000000E+00  0.26605865223E+04  0.26605865223E+04  0.25500000920E-02 0.  1.
       -2   -1    0    0    0  501  0.00000000000E+00  0.00000000000E+00 -0.11573561190E+04  0.11573561190E+04  0.25500000920E-02 0. -1.
    10030    2    1    2    0    0  0.00000000000E+00  0.00000000000E+00  0.15032304033E+04  0.38179426413E+04  0.35095561495E+04 0.  0.
        4    1    3    3  502    0 -0.12811273322E+04  0.63948457913E+03  0.18551560617E+04  0.23434661070E+04  0.12699999809E+01 0.  1.
       -4    1    3    3    0  502  0.12811273322E+04 -0.63948457913E+03 -0.35192565841E+03  0.14744765343E+04  0.12699999809E+01 0. -1.
</event>
<event>
 5   0  0.1013863E-07  0.3497873E+04  0.7818609E-02  0.8114294E-01
        1   -1    0    0  501    0  0.00000000000E+00  0.00000000000E+00  0.16304309999E+04  0.16304309999E+04  0.50400001928E-02 0.  1.
       -1   -1    0    0    0  501  0.00000000000E+00  0.00000000000E+00 -0.18760554000E+04  0.18760554000E+04  0.50400001928E-02 0. -1.
    10030    2    1    2    0    0  0.00000000000E+00  0.00000000000E+00 -0.24562440006E+03  0.35064863999E+04  0.34978730004E+04 0.  0.
        5    1    3    3  502    0 -0.82180862875E+03 -0.32904420373E+03  0.13892512520E+04  0.16473252993E+04  0.46999998093E+01 0.  1.
       -5    1    3    3    0  502  0.82180862875E+03  0.32904420373E+03 -0.16348756521E+04  0.18591611006E+04  0.46999998093E+01 0. -1.
</event>
<event>
 5   0  0.1033796E-07  0.3487574E+04  0.7818609E-02  0.8116741E-01
       -1   -1    0    0    0  501  0.00000000000E+00  0.00000000000E+00  0.14882065543E+04  0.14882065543E+04  0.50400001928E-02 0.  1.
        1   -1    0    0  501    0  0.00000000000E+00  0.00000000000E+00 -0.20432598621E+04  0.20432598621E+04  0.50400001928E-02 0. -1.
    10030    2    1    2    0    0  0.00000000000E+00  0.00000000000E+00 -0.55505330778E+03  0.35314664164E+04  0.34875737807E+04 0.  0.
        3    1    3    3  502    0  0.47410157688E+03  0.86485816977E+03 -0.17336937807E+04  0.19946042451E+04  0.10100000352E+00 0. -1.
       -3    1    3    3    0  502 -0.47410157688E+03 -0.86485816977E+03  0.11786404729E+04  0.15368621713E+04  0.10100000352E+00 0.  1.
</event>
<event>
 5   0  0.2180451E-07  0.3503517E+04  0.7818609E-02  0.8112957E-01
       -2   -1    0    0    0  501  0.00000000000E+00  0.00000000000E+00  0.18651501369E+04  0.18651501369E+04  0.25500000920E-02 0.  1.
        2   -1    0    0  501    0  0.00000000000E+00  0.00000000000E+00 -0.16452607801E+04  0.16452607801E+04  0.25500000920E-02 0. -1.
    10030    2    1    2    0    0  0.00000000000E+00  0.00000000000E+00  0.21988935679E+03  0.35104109170E+04  0.35035173008E+04 0.  0.
        4    1    3    3  502    0  0.40084329233E+03  0.14371170477E+04  0.10297247660E+04  0.18128197540E+04  0.12699999809E+01 0.  1.
       -4    1    3    3    0  502 -0.40084329233E+03 -0.14371170477E+04 -0.80983540923E+03  0.16975911630E+04  0.12699999809E+01 0. -1.
</event>
<event>
 5   0  0.1098171E-07  0.3468664E+04  0.7818609E-02  0.8121257E-01
        1   -1    0    0  501    0  0.00000000000E+00  0.00000000000E+00  0.13573342605E+04  0.13573342605E+04  0.50400001928E-02 0. -1.
       -1   -1    0    0    0  501  0.00000000000E+00  0.00000000000E+00 -0.22160401868E+04  0.22160401868E+04  0.50400001928E-02 0.  1.
    10030    2    1    2    0    0  0.00000000000E+00  0.00000000000E+00 -0.85870592630E+03  0.35733744473E+04  0.34686638743E+04 0.  0.
        4    1    3    3  502    0  0.11417615026E+04  0.83778420769E+03  0.60207213360E+03  0.15388288320E+04  0.12699999809E+01 0. -1.
       -4    1    3    3    0  502 -0.11417615026E+04 -0.83778420769E+03 -0.14607780599E+04  0.20345456153E+04  0.12699999809E+01 0.  1.
</event>
<event>
 5   0  0.3190185E-07  0.3500956E+04  0.7818609E-02  0.8113563E-01
        2   -1    0    0  501    0  0.00000000000E+00  0.00000000000E+00  0.15943722380E+04  0.15943722380E+04  0.25500000920E-02 0.  1.
       -2   -1    0    0    0  501  0.00000000000E+00  0.00000000000E+00 -0.19218683466E+04  0.19218683466E+04  0.25500000920E-02 0. -1.
    10030    2    1    2    0    0  0.00000000000E+00  0.00000000000E+00 -0.32749610854E+03  0.35162405846E+04  0.35009561762E+04 0.  0.
        1    1    3    3  502    0  0.13500544895E+04 -0.91991072505E+03 -0.79521437128E+03  0.18169338907E+04  0.50400001928E-02 0. -1.
       -1    1    3    3    0  502 -0.13500544895E+04  0.91991072505E+03  0.46771826274E+03  0.16993066939E+04  0.50400001928E-02 0.  1.
</event>
<event>
 5   0  0.3190185E-07  0.3487697E+04  0.7818609E-02  0.8116712E-01
       -2   -1    0    0    0  501  0.00000000000E+00  0.00000000000E+00  0.10857965128E+04  0.10857965128E+04  0.25500000920E-02 0.  1.
        2   -1    0    0  501    0  0.00000000000E+00  0.00000000000E+00 -0.28007167293E+04  0.28007167293E+04  0.25500000920E-02 0. -1.
    10030    2    1    2    0    0  0.00000000000E+00  0.00000000000E+00 -0.17149202165E+04  0.38865132421E+04  0.34876974972E+04 0.  0.
        1    1    3    3  502    0  0.77434074312E+03 -0.15233385308E+04 -0.12448381079E+04  0.21141867895E+04  0.50400001928E-02 0. -1.
       -1    1    3    3    0  502 -0.77434074312E+03  0.15233385308E+04 -0.47008210856E+03  0.17723264526E+04  0.50400001928E-02 0.  1.
</event>
<event>
 5   0  0.3190185E-07  0.3501009E+04  0.7818609E-02  0.8113551E-01
       -2   -1    0    0    0  501  0.00000000000E+00  0.00000000000E+00  0.15359705341E+04  0.15359705341E+04  0.25500000920E-02 0. -1.
        2   -1    0    0  501    0  0.00000000000E+00  0.00000000000E+00 -0.19950029358E+04  0.19950029358E+04  0.25500000920E-02 0.  1.
    10030    2    1    2    0    0  0.00000000000E+00  0.00000000000E+00 -0.45903240172E+03  0.35309734699E+04  0.35010088403E+04 0.  0.
        1    1    3    3  502    0  0.59111256620E+02  0.12367921727E+04 -0.14774897905E+04  0.19277253694E+04  0.50400001928E-02 0.  1.
       -1    1    3    3    0  502 -0.59111256620E+02 -0.12367921727E+04  0.10184573888E+04  0.16032481005E+04  0.50400001928E-02 0. -1.
</event>
<event>
 5   0  0.1013863E-07  0.3502089E+04  0.7818609E-02  0.8113295E-01
        1   -1    0    0  501    0  0.00000000000E+00  0.00000000000E+00  0.25278283583E+04  0.25278283583E+04  0.50400001928E-02 0.  1.
       -1   -1    0    0    0  501  0.00000000000E+00  0.00000000000E+00 -0.12129611113E+04  0.12129611113E+04  0.50400001928E-02 0. -1.
    10030    2    1    2    0    0  0.00000000000E+00  0.00000000000E+00  0.13148672470E+04  0.37407894696E+04  0.35020893733E+04 0.  0.
        2    1    3    3  502    0  0.10189182984E+04 -0.40645127736E+03 -0.80042206233E+03  0.13579663536E+04  0.25500000920E-02 0. -1.
       -2    1    3    3    0  502 -0.10189182984E+04  0.40645127736E+03  0.21152893093E+04  0.23828231160E+04  0.25500000920E-02 0.  1.
</event>
<event>
 5   0  0.3190112E-07  0.3498239E+04  0.7818609E-02  0.8114207E-01
        2   -1    0    0  501    0  0.00000000000E+00  0.00000000000E+00  0.22131269332E+04  0.22131269332E+04  0.25500000920E-02 0.  1.
       -2   -1    0    0    0  501  0.00000000000E+00  0.00000000000E+00 -0.13823965506E+04  0.13823965506E+04  0.25500000920E-02 0. -1.
    10030    2    1    2    0    0  0.00000000000E+00  0.00000000000E+00  0.83073038258E+03  0.35955234838E+04  0.34982390076E+04 0.  0.
        5    1    3    3  502    0 -0.77634037590E+03 -0.15666423576E+04  0.36581354962E+03  0.17863130462E+04  0.46999998093E+01 0.  1.
       -5    1    3    3    0  502  0.77634037590E+03  0.15666423576E+04  0.46491683296E+03  0.18092104376E+04  0.46999998093E+01 0. -1.
</event>
<event>
 5   0  0.3190112E-07  0.3509754E+04  0.7818609E-02  0.8111482E-01
        2   -1    0    0  501    0  0.00000000000E+00  0.00000000000E+00  0.22093201374E+04  0.22093201374E+04  0.25500000920E-02 0. -1.
       -2   -1    0    0    0  501  0.00000000000E+00  0.00000000000E+00 -0.13939099755E+04  0.13939099755E+04  0.25500000920E-02 0.  1.
    10030    2    1    2    0    0  0.00000000000E+00  0.00000000000E+00  0.81541016194E+03  0.36032301129E+04  0.35097540533E+04 0.  0.
        5    1    3    3  502    0  0.15194363383E+04  0.80696868490E+03  0.52534430563E+02  0.17212400184E+04  0.46999998093E+01 0.  1.
       -5    1    3    3    0  502 -0.15194363383E+04 -0.80696868490E+03  0.76287573138E+03  0.18819900945E+04  0.46999998093E+01 0. -1.
</event>
<event>
 5   0  0.2180451E-07  0.3474900E+04  0.7818609E-02  0.8119764E-01
        2   -1    0    0  501    0  0.00000000000E+00  0.00000000000E+00  0.17428594849E+04  0.17428594849E+04  0.25500000920E-02 0. -1.
       -2   -1    0    0    0  501  0.00000000000E+00  0.00000000000E+00 -0.17320570225E+04  0.17320570225E+04  0.25500000920E-02 0.  1.
    10030    2    1    2    0    0  0.00000000000E+00  0.00000000000E+00  0.10802462351E+02  0.34749165074E+04  0.34748997166E+04 0.  0.
        4    1    3    3  502    0  0.16008581402E+04  0.22159638162E+03  0.64327472015E+03  0.17394412091E+04  0.12699999809E+01 0.  1.
       -4    1    3    3    0  502 -0.16008581402E+04 -0.22159638162E+03 -0.63247225780E+03  0.17354752983E+04  0.12699999809E+01 0. -1.
</event>
<event>
 5   0  0.2180451E-07  0.3505370E+04  0.7818609E-02  0.8112519E-01
       -2   -1    0    0    0  501  0.00000000000E+00  0.00000000000E+00  0.12670773760E+04  0.12670773760E+04  0.25500000920E-02 0. -1.
        2   -1    0    0  501    0  0.00000000000E+00  0.00000000000E+00 -0.24244015151E+04  0.24244015151E+04  0.25500000920E-02 0.  1.
    10030    2    1    2    0    0  0.00000000000E+00  0.00000000000E+00 -0.11573241391E+04  0.36914788911E+04  0.35053697723E+04 0.  0.
        4    1    3    3  502    0 -0.15843201131E+04 -0.74916949859E+03 -0.55335411030E+03  0.18378050883E+04  0.12699999809E+01 0.  1.
       -4    1    3    3    0  502  0.15843201131E+04  0.74916949859E+03 -0.60397002880E+03  0.18536738027E+04  0.12699999809E+01 0. -1.
</event>
<event>
 5   0  0.1013863E-07  0.3493030E+04  0.7818609E-02  0.8115444E-01
       -1   -1    0    0    0  501  0.00000000000E+00  0.00000000000E+00  0.14597469255E+04  0.14597469255E+04  0.50400001928E-02 0.  1.
        1   -1    0    0  501    0  0.00000000000E+00  0.00000000000E+00 -0.20896185195E+04  0.20896185195E+04  0.50400001928E-02 0. -1.
    10030    2    1    2    0    0  0.00000000000E+00  0.00000000000E+00 -0.62987159406E+03  0.35493654450E+04  0.34930297504E+04 0.  0.
        2    1    3    3  502    0  0.12842627307E+04  0.29788146226E+03  0.84907427082E+03  0.15681171016E+04  0.25500000920E-02 0. -1.
       -2    1    3    3    0  502 -0.12842627307E+04 -0.29788146226E+03 -0.14789458649E+04  0.19812483434E+04  0.25500000920E-02 0.  1.
</event>
<event>
 5   0  0.3119048E-07  0.3501016E+04  0.7818609E-02  0.8113549E-01
        2   -1    0    0  501    0  0.00000000000E+00  0.00000000000E+00  0.10340550635E+04  0.10340550635E+04  0.25500000920E-02 0. -1.
       -2   -1    0    0    0  501  0.00000000000E+00  0.00000000000E+00 -0.29633599872E+04  0.29633599872E+04  0.25500000920E-02 0.  1.
    10030    2    1    2    0    0  0.00000000000E+00  0.00000000000E+00 -0.19293049237E+04  0.39974150507E+04  0.35010155097E+04 0.  0.
        3    1    3    3  502    0 -0.30583821017E+03 -0.35905289831E+03  0.96013862262E+03  0.10697299563E+04  0.10100000352E+00 0. -1.
       -3    1    3    3    0  502  0.30583821017E+03  0.35905289831E+03 -0.28894435463E+04  0.29276850944E+04  0.10100000352E+00 0.  1.
</event>
<event>
 5   0  0.1098171E-07  0.3503298E+04  0.7818609E-02  0.8113009E-01
       -1   -1    0    0    0  501  0.00000000000E+00  0.00000000000E+00  0.15690073765E+04  0.15690073765E+04  0.50400001928E-02 0.  1.
        1   -1    0    0  501    0  0.00000000000E+00  0.00000000000E+00 -0.19555511500E+04  0.19555511500E+04  0.50400001928E-02 0. -1.
    10030    2    1    2    0    0  0.00000000000E+00  0.00000000000E+00 -0.38654377348E+03  0.35245585264E+04  0.35032979773E+04 0.  0.
        4    1    3    3  502    0 -0.14389417186E+04 -0.95423858199E+03 -0.49027186947E+03  0.17948517097E+04  0.12699999809E+01 0.  1.
       -4    1    3    3    0  502  0.14389417186E+04  0.95423858199E+03  0.10372809599E+03  0.17297068167E+04  0.12699999809E+01 0. -1.
</event>
<event>
 5   0  0.2180451E-07  0.3502206E+04  0.7818609E-02  0.8113267E-01
        2   -1    0    0  501    0  0.00000000000E+00  0.00000000000E+00  0.15052731590E+04  0.15052731590E+04  0.25500000920E-02 0.  1.
       -2   -1    0    0    0  501  0.00000000000E+00  0.00000000000E+00 -0.20370803340E+04  0.20370803340E+04  0.25500000920E-02 0. -1.
    10030    2    1    2    0    0  0.00000000000E+00  0.00000000000E+00 -0.53180717495E+03  0.35423534930E+04  0.35022063615E+04 0.  0.
        4    1    3    3  502    0  0.70695321098E+03 -0.11920218230E+04 -0.13485294410E+04  0.19337094237E+04  0.12699999809E+01 0. -1.
       -4    1    3    3    0  502 -0.70695321098E+03  0.11920218230E+04  0.81672226606E+03  0.16086440693E+04  0.12699999809E+01 0.  1.
</event>
<event>
 5   0  0.3219205E-07  0.3508035E+04  0.7818609E-02  0.8111888E-01
        2   -1    0    0  501    0  0.00000000000E+00  0.00000000000E+00  0.21139045839E+04  0.21139045839E+04  0.25500000920E-02 0. -1.
       -2   -1    0    0    0  501  0.00000000000E+00  0.00000000000E+00 -0.14553999914E+04  0.14553999914E+04  0.25500000920E-02 0.  1.
    10030    2    1    2    0    0  0.00000000000E+00  0.00000000000E+00  0.65850459254E+03  0.35693045753E+04  0.35080346139E+04 0.  0.
        2    1    3    3  502    0  0.15563577102E+04  0.72433061033E+03 -0.37137843897E+02  0.17170566020E+04  0.25500000920E-02 0. -1.
       -2    1    3    3    0  502 -0.15563577102E+04 -0.72433061033E+03  0.69564243644E+03  0.18522479733E+04  0.25500000920E-02 0.  1.
</event>
<event>
 5   0  0.1098171E-07  0.3491019E+04  0.7818609E-02  0.8115922E-01
        1   -1    0    0  501    0  0.00000000000E+00  0.00000000000E+00  0.16856110892E+04  0.16856110892E+04  0.50400001928E-02 0. -1.
       -1   -1    0    0    0  501  0.00000000000E+00  0.00000000000E+00 -0.18075364346E+04  0.18075364346E+04  0.50400001928E-02 0.  1.
    10030    2    1    2    0    0  0.00000000000E+00  0.00000000000E+00 -0.12192534544E+03  0.34931475238E+04  0.34910190250E+04 0.  0.
        4    1    3    3  502    0 -0.63039831854E+03  0.40306191421E+03 -0.16389279555E+04  0.18016512989E+04  0.12699999809E+01 0.  1.
       -4    1    3    3    0  502  0.63039831854E+03 -0.40306191421E+03  0.15170026101E+04  0.16914962248E+04  0.12699999809E+01 0. -1.
</event>
<event>
 5   0  0.1013863E-07  0.3516922E+04  0.7818609E-02  0.8109791E-01
       -1   -1    0    0    0  501  0.00000000000E+00  0.00000000000E+00  0.16907521635E+04  0.16907521635E+04  0.50400001928E-02 0.  1.
        1   -1    0    0  501    0  0.00000000000E+00  0.00000000000E+00 -0.18288814962E+04  0.18288814962E+04  0.50400001928E-02 0. -1.
    10030    2    1    2    0    0  0.00000000000E+00  0.00000000000E+00 -0.13812933276E+03  0.35196336597E+04  0.35169221467E+04 0.  0.
        2    1    3    3  502    0 -0.25051727554E+03 -0.11400103944E+04  0.12471690106E+04  0.17081607494E+04  0.25500000920E-02 0.  1.
       -2    1    3    3    0  502  0.25051727554E+03  0.11400103944E+04 -0.13852983434E+04  0.18114729103E+04  0.25500000920E-02 0. -1.
</event>
<event>
 5   0  0.2180451E-07  0.3360658E+04  0.7818609E-02  0.8147630E-01
       -2   -1    0    0    0  501  0.00000000000E+00  0.00000000000E+00  0.22331518804E+04  0.22331518804E+04  0.25500000920E-02 0.  1.
        2   -1    0    0  501    0  0.00000000000E+00  0.00000000000E+00 -0.12643589804E+04  0.12643589804E+04  0.25500000920E-02 0. -1.
    10030    2    1    2    0    0  0.00000000000E+00  0.00000000000E+00  0.96879289997E+03  0.34975108609E+04  0.33606580515E+04 0.  0.
        4    1    3    3  502    0  0.12908033206E+04  0.34078260267E+03 -0.57754705972E+03  0.14546024247E+04  0.12699999809E+01 0. -1.
       -4    1    3    3    0  502 -0.12908033206E+04 -0.34078260267E+03  0.15463399597E+04  0.20429084362E+04  0.12699999809E+01 0.  1.
</event>
<event>
 5   0  0.2180451E-07  0.3485490E+04  0.7818609E-02  0.8117237E-01
        2   -1    0    0  501    0  0.00000000000E+00  0.00000000000E+00  0.21459385310E+04  0.21459385310E+04  0.25500000920E-02 0. -1.
       -2   -1    0    0    0  501  0.00000000000E+00  0.00000000000E+00 -0.14153059035E+04  0.14153059035E+04  0.25500000920E-02 0.  1.
    10030    2    1    2    0    0  0.00000000000E+00  0.00000000000E+00  0.73063262745E+03  0.35612444345E+04  0.34854896193E+04 0.  0.
        4    1    3    3  502    0  0.20371095726E+02 -0.12305564648E+04  0.16260195984E+04  0.20392708358E+04  0.12699999809E+01 0. -1.
       -4    1    3    3    0  502 -0.20371095726E+02  0.12305564648E+04 -0.89538697095E+03  0.15219735987E+04  0.12699999809E+01 0.  1.
</event>
<event>
 5   0  0.1098171E-07  0.3441585E+04  0.7818609E-02  0.8127775E-01
       -1   -1    0    0    0  501  0.00000000000E+00  0.00000000000E+00  0.17090762610E+04  0.17090762610E+04  0.50400001928E-02 0. -1.
        1   -1    0    0  501    0  0.00000000000E+00  0.00000000000E+00 -0.17325887915E+04  0.17325887915E+04  0.50400001928E-02 0.  1.
    10030    2    1    2    0    0  0.00000000000E+00  0.00000000000E+00 -0.23512530503E+02  0.34416650526E+04  0.34415847360E+04 0.  0.
        4    1    3    3  502    0  0.49494227079E+03  0.65276693336E+03 -0.15250834367E+04  0.17311711707E+04  0.12699999809E+01 0.  1.
       -4    1    3    3    0  502 -0.49494227079E+03 -0.65276693336E+03  0.15015709062E+04  0.17104938818E+04  0.12699999809E+01 0. -1.
</event>
<event>
 5   0  0.1013863E-07  0.3477107E+04  0.7818609E-02  0.8119237E-01
       -1   -1    0    0    0  501  0.00000000000E+00  0.00000000000E+00  0.20804639462E+04  0.20804639462E+04  0.50400001928E-02 0. -1.
        1   -1    0    0  501    0  0.00000000000E+00  0.00000000000E+00 -0.14528339973E+04  0.14528339973E+04  0.50400001928E-02 0.  1.
    10030    2    1    2    0    0  0.00000000000E+00  0.00000000000E+00  0.62762994898E+03  0.35332979435E+04  0.34771072754E+04 0.  0.
        2    1    3    3  502    0  0.13069227388E+04 -0.13372017214E+03  0.14709178758E+04  0.19721885120E+04  0.25500000920E-02 0. -1.
       -2    1    3    3    0  502 -0.13069227388E+04  0.13372017214E+03 -0.84328792677E+03  0.15611094315E+04  0.25500000920E-02 0.  1.
</event>
<event>
 5   0  0.3190112E-07  0.3515911E+04  0.7818609E-02  0.8110030E-01
       -2   -1    0    0    0  501  0.00000000000E+00  0.00000000000E+00  0.19308838589E+04  0.19308838589E+04  0.25500000920E-02 0. -1.
        2   -1    0    0  501    0  0.00000000000E+00  0.00000000000E+00 -0.16005144338E+04  0.16005144338E+04  0.25500000920E-02 0.  1.
    10030    2    1    2    0    0  0.00000000000E+00  0.00000000000E+00  0.33036942509E+03  0.35313982927E+04  0.35159109694E+04 0.  0.
        5    1    3    3  502    0 -0.15920744929E+04  0.34713491809E+03 -0.49740406023E+03  0.17037126317E+04  0.46999998093E+01 0.  1.
       -5    1    3    3    0  502  0.15920744929E+04 -0.34713491809E+03  0.82777348533E+03  0.18276856610E+04  0.46999998093E+01 0. -1.
</event>
<event>
 5   0  0.3190112E-07  0.3461929E+04  0.7818609E-02  0.8122872E-01
       -2   -1    0    0    0  501  0.00000000000E+00  0.00000000000E+00  0.16689650220E+04  0.16689650220E+04  0.25500000920E-02 0.  1.
        2   -1    0    0  501    0  0.00000000000E+00  0.00000000000E+00 -0.17952668322E+04  0.17952668322E+04  0.25500000920E-02 0. -1.
    10030    2    1    2    0    0  0.00000000000E+00  0.00000000000E+00 -0.12630181014E+03  0.34642318542E+04  0.34619286810E+04 0.  0.
        5    1    3    3  502    0  0.10759346874E+04 -0.12853897113E+04 -0.49512467241E+03  0.17478651815E+04  0.46999998093E+01 0. -1.
       -5    1    3    3    0  502 -0.10759346874E+04  0.12853897113E+04  0.36882286227E+03  0.17163666727E+04  0.46999998093E+01 0.  1.
</event>
<event>
 5   0  0.1033796E-07  0.3515446E+04  0.7818609E-02  0.8110139E-01
       -1   -1    0    0    0  501  0.00000000000E+00  0.00000000000E+00  0.15273751272E+04  0.15273751272E+04  0.50400001928E-02 0. -1.
        1   -1    0    0  501    0  0.00000000000E+00  0.00000000000E+00 -0.20228100851E+04  0.20228100851E+04  0.50400001928E-02 0.  1.
    10030    2    1    2    0    0  0.00000000000E+00  0.00000000000E+00 -0.49543495791E+03  0.35501852123E+04  0.35154458102E+04 0.  0.
        3    1    3    3  502    0  0.41973739526E+03 -0.14729710217E+04 -0.11186589385E+04  0.18966341088E+04  0.10100000352E+00 0.  1.
       -3    1    3    3    0  502 -0.41973739526E+03  0.14729710217E+04  0.62322398059E+03  0.16535511035E+04  0.10100000352E+00 0. -1.
</event>
<event>
 5   0  0.3219205E-07  0.3507194E+04  0.7818609E-02  0.8112087E-01
        2   -1    0    0  501    0  0.00000000000E+00  0.00000000000E+00  0.20100241340E+04  0.20100241340E+04  0.25500000920E-02 0.  1.
       -2   -1    0    0    0  501  0.00000000000E+00  0.00000000000E+00 -0.15298831650E+04  0.15298831650E+04  0.25500000920E-02 0. -1.
    10030    2    1    2    0    0  0.00000000000E+00  0.00000000000E+00  0.48014096892E+03  0.35399072990E+04  0.35071937978E+04 0.  0.
        2    1    3    3  502    0  0.10038740758E+04  0.13322960125E+04 -0.30564470090E+03  0.16959347005E+04  0.25500000920E-02 0. -1.
       -2    1    3    3    0  502 -0.10038740758E+04 -0.13322960125E+04  0.78578566982E+03  0.18439725985E+04  0.25500000920E-02 0.  1.
</event>
<event>
 5   0  0.1098171E-07  0.3529137E+04  0.7818609E-02  0.8106919E-01
        1   -1    0    0  501    0  0.00000000000E+00  0.00000000000E+00  0.13165231272E+04  0.13165231272E+04  0.50400001928E-02 0. -1.
       -1   -1    0    0    0  501  0.00000000000E+00  0.00000000000E+00 -0.23650950277E+04  0.23650950277E+04  0.50400001928E-02 0.  1.
    10030    2    1    2    0    0  0.00000000000E+00  0.00000000000E+00 -0.10485719004E+04  0.36816181549E+04  0.35291371761E+04 0.  0.
        4    1    3    3  502    0  0.18775314337E+03 -0.66424915371E+03  0.11698317899E+04  0.13583026948E+04  0.12699999809E+01 0. -1.
       -4    1    3    3    0  502 -0.18775314337E+03  0.66424915371E+03 -0.22184036903E+04  0.23233154601E+04  0.12699999809E+01 0.  1.
</event>
<event>
 5   0  0.3190185E-07  0.3497743E+04  0.7818609E-02  0.8114325E-01
       -2   -1    0    0    0  501  0.00000000000E+00  0.00000000000E+00  0.12931791943E+04  0.12931791943E+04  0.25500000920E-02 0. -1.
        2   -1    0    0  501    0  0.00000000000E+00  0.00000000000E+00 -0.23651418565E+04  0.23651418565E+04  0.25500000920E-02 0.  1.
    10030    2    1    2    0    0  0.00000000000E+00  0.00000000000E+00 -0.10719626622E+04  0.36583210507E+04  0.34977434098E+04 0.  0.
        1    1    3    3  502    0 -0.15963883297E+04 -0.60254215369E+03 -0.93704273419E+03  0.19466796942E+04  0.50400001928E-02 0.  1.
       -1    1    3    3    0  502  0.15963883297E+04  0.60254215369E+03 -0.13491992803E+03  0.17116413565E+04  0.50400001928E-02 0. -1.
</event>
<event>
 5   0  0.3190112E-07  0.3434890E+04  0.7818609E-02  0.8129396E-01
       -2   -1    0    0    0  501  0.00000000000E+00  0.00000000000E+00  0.97858836713E+03  0.97858836713E+03  0.25500000920E-02 0. -1.
        2   -1    0    0  501    0  0.00000000000E+00  0.00000000000E+00 -0.30141553373E+04  0.30141553373E+04  0.25500000920E-02 0.  1.
    10030    2    1    2    0    0  0.00000000000E+00  0.00000000000E+00 -0.20355669702E+04  0.39927437044E+04  0.34348900127E+04 0.  0.
        5    1    3    3  502    0 -0.28299520900E+03  0.55512291738E+03  0.84255877457E+03  0.10479385098E+04  0.46999998093E+01 0. -1.
       -5    1    3    3    0  502  0.28299520900E+03 -0.55512291738E+03 -0.28781257447E+04  0.29448051946E+04  0.46999998093E+01 0.  1.
</event>
<event>
 5   0  0.3219205E-07  0.3588306E+04  0.7818609E-02  0.8093176E-01
       -2   -1    0    0    0  501  0.00000000000E+00  0.00000000000E+00  0.21689735748E+04  0.21689735748E+04  0.25500000920E-02 0.  1.
        2   -1    0    0  501    0  0.00000000000E+00  0.00000000000E+00 -0.14841055312E+04  0.14841055312E+04  0.25500000920E-02 0. -1.
    10030    2    1    2    0    0  0.00000000000E+00  0.00000000000E+00  0.68486804362E+03  0.36530791060E+04  0.35883063857E+04 0.  0.
        2    1    3    3  502    0  0.36387194681E+03 -0.15767183281E+04 -0.44650116102E+03  0.16786324096E+04  0.25500000920E-02 0. -1.
       -2    1    3    3    0  502 -0.36387194681E+03  0.15767183281E+04  0.11313692046E+04  0.19744466964E+04  0.25500000920E-02 0.  1.
</event>
<event>
 5   0  0.1072381E-07  0.3493230E+04  0.7818609E-02  0.8115396E-01
        1   -1    0    0  501    0  0.00000000000E+00  0.00000000000E+00  0.17587623500E+04  0.17587623501E+04  0.50400001928E-02 0.  1.
       -1   -1    0    0    0  501  0.00000000000E+00  0.00000000000E+00 -0.17345518312E+04  0.17345518312E+04  0.50400001928E-02 0. -1.
    10030    2    1    2    0    0  0.00000000000E+00  0.00000000000E+00  0.24210518893E+02  0.34933141812E+04  0.34932302843E+04 0.  0.
        1    1    3    3  502    0 -0.15974893573E+04  0.42190343102E+03 -0.55420305511E+03  0.17427322738E+04  0.50400001928E-02 0. -1.
       -1    1    3    3    0  502  0.15974893573E+04 -0.42190343102E+03  0.57841357400E+03  0.17505819074E+04  0.50400001928E-02 0.  1.
</event>
<event>
 5   0  0.3219205E-07  0.3490477E+04  0.7818609E-02  0.8116050E-01
        2   -1    0    0  501    0  0.00000000000E+00  0.00000000000E+00  0.17041233758E+04  0.17041233758E+04  0.25500000920E-02 0.  1.
       -2   -1    0    0    0  501  0.00000000000E+00  0.00000000000E+00 -0.17873457763E+04  0.17873457763E+04  0.25500000920E-02 0. -1.
    10030    2    1    2    0    0  0.00000000000E+00  0.00000000000E+00 -0.83222400472E+02  0.34914691521E+04  0.34904771697E+04 0.  0.
        2    1    3    3  502    0 -0.51818350719E+03 -0.43583685477E+03  0.15673824827E+04  0.17073827216E+04  0.25500000920E-02 0.  1.
       -2    1    3    3    0  502  0.51818350719E+03  0.43583685477E+03 -0.16506048831E+04  0.17840864305E+04  0.25500000920E-02 0. -1.
</event>
<event>
 5   0  0.1033796E-07  0.3504021E+04  0.7818609E-02  0.8112838E-01
       -1   -1    0    0    0  501  0.00000000000E+00  0.00000000000E+00  0.12942491822E+04  0.12942491822E+04  0.50400001928E-02 0.  1.
        1   -1    0    0  501    0  0.00000000000E+00  0.00000000000E+00 -0.23716763140E+04  0.23716763140E+04  0.50400001928E-02 0. -1.
    10030    2    1    2    0    0  0.00000000000E+00  0.00000000000E+00 -0.10774271319E+04  0.36659254962E+04  0.35040206220E+04 0.  0.
        3    1    3    3  502    0 -0.60693805017E+03  0.84837213072E+03  0.93395990432E+03  0.14001393438E+04  0.10100000352E+00 0.  1.
       -3    1    3    3    0  502  0.60693805017E+03 -0.84837213072E+03 -0.20113870362E+04  0.22657861524E+04  0.10100000352E+00 0. -1.
</event>
<event>
 5   0  0.1098171E-07  0.3468893E+04  0.7818609E-02  0.8121202E-01
       -1   -1    0    0    0  501  0.00000000000E+00  0.00000000000E+00  0.14507045830E+04  0.14507045830E+04  0.50400001928E-02 0. -1.
        1   -1    0    0  501    0  0.00000000000E+00  0.00000000000E+00 -0.20736847461E+04  0.20736847461E+04  0.50400001928E-02 0.  1.
    10030    2    1    2    0    0  0.00000000000E+00  0.00000000000E+00 -0.62298016308E+03  0.35243893291E+04  0.34688925985E+04 0.  0.
        4    1    3    3  502    0  0.12469453828E+04 -0.98590125606E+03 -0.10164409045E+04  0.18868035933E+04  0.12699999809E+01 0. -1.
       -4    1    3    3    0  502 -0.12469453828E+04  0.98590125606E+03  0.39346074140E+03  0.16375857359E+04  0.12699999809E+01 0.  1.
</event>
<event>
 5   0  0.3119048E-07  0.3509041E+04  0.7818609E-02  0.8111651E-01
        2   -1    0    0  501    0  0.00000000000E+00  0.00000000000E+00  0.24043715276E+04  0.24043715276E+04  0.25500000920E-02 0. -1.
       -2   -1    0    0    0  501  0.00000000000E+00  0.00000000000E+00 -0.12803105859E+04  0.12803105859E+04  0.25500000920E-02 0.  1.
    10030    2    1    2    0    0  0.00000000000E+00  0.00000000000E+00  0.11240609417E+04  0.36846821135E+04  0.35090410765E+04 0.  0.
        3    1    3    3  502    0  0.56889162266E+02 -0.11652456990E+04 -0.81402429991E+03  0.14225573756E+04  0.10100000352E+00 0.  1.
       -3    1    3    3    0  502 -0.56889162266E+02  0.11652456990E+04  0.19380852416E+04  0.22621247379E+04  0.10100000352E+00 0. -1.
</event>
<event>
 5   0  0.1072381E-07  0.3498505E+04  0.7818609E-02  0.8114144E-01
       -1   -1    0    0    0  501  0.00000000000E+00  0.00000000000E+00  0.14126700162E+04  0.14126700162E+04  0.50400001928E-02 0. -1.
        1   -1    0    0  501    0  0.00000000000E+00  0.00000000000E+00 -0.21660285425E+04  0.21660285425E+04  0.50400001928E-02 0.  1.
    10030    2    1    2    0    0  0.00000000000E+00  0.00000000000E+00 -0.75335852637E+03  0.35786985587E+04  0.34985045812E+04 0.  0.
        1    1    3    3  502    0 -0.95436088698E+03  0.14649731490E+04 -0.32128496026E+03  0.17776881210E+04  0.50400001928E-02 0. -1.
       -1    1    3    3    0  502  0.95436088698E+03 -0.14649731490E+04 -0.43207356612E+03  0.18010104377E+04  0.50400001928E-02 0.  1.
</event>
<event>
 5   0  0.1013863E-07  0.3512396E+04  0.7818609E-02  0.8110858E-01
        1   -1    0    0  501    0  0.00000000000E+00  0.00000000000E+00  0.17332460993E+04  0.17332460993E+04  0.50400001928E-02 0. -1.
       -1   -1    0    0    0  501  0.00000000000E+00  0.00000000000E+00 -0.17794541893E+04  0.17794541893E+04  0.50400001928E-02 0.  1.
    10030    2    1    2    0    0  0.00000000000E+00  0.00000000000E+00 -0.46208089972E+02  0.35127002886E+04  0.35123963515E+04 0.  0.
        2    1    3    3  502    0 -0.49388545236E+03 -0.15351229548E+04 -0.71865449079E+03  0.17654998169E+04  0.25500000920E-02 0.  1.
       -2    1    3    3    0  502  0.49388545236E+03  0.15351229548E+04  0.67244640082E+03  0.17472004717E+04  0.25500000920E-02 0. -1.
</event>
<event>
 5   0  0.1013863E-07  0.3499079E+04  0.7818609E-02  0.8114008E-01
        1   -1    0    0  501    0  0.00000000000E+00  0.00000000000E+00  0.21236027634E+04  0.21236027634E+04  0.50400001928E-02 0.  1.
       -1   -1    0    0    0  501  0.00000000000E+00  0.00000000000E+00 -0.14413657725E+04  0.14413657725E+04  0.50400001928E-02 0. -1.
    10030    2    1    2    0    0  0.00000000000E+00  0.00000000000E+00  0.68223699086E+03  0.35649685360E+04  0.34990789289E+04 0.  0.
        2    1    3    3  502    0 -0.10684733128E+03  0.93029655899E+03  0.18467902289E+04  0.20706284528E+04  0.25500000920E-02 0.  1.
       -2    1    3    3    0  502  0.10684733128E+03 -0.93029655899E+03 -0.11645532381E+04  0.14943400832E+04  0.25500000920E-02 0. -1.
</event>
<event>
 5   0  0.2180451E-07  0.3494913E+04  0.7818609E-02  0.8114997E-01
       -2   -1    0    0    0  501  0.00000000000E+00  0.00000000000E+00  0.11923867259E+04  0.11923867259E+04  0.25500000920E-02 0.  1.
        2   -1    0    0  501    0  0.00000000000E+00  0.00000000000E+00 -0.25609169750E+04  0.25609169750E+04  0.25500000920E-02 0. -1.
    10030    2    1    2    0    0  0.00000000000E+00  0.00000000000E+00 -0.13685302492E+04  0.37533037009E+04  0.34949125351E+04 0.  0.
        4    1    3    3  502    0  0.60657435880E+03  0.50057086865E+03 -0.23601170038E+04  0.24877012545E+04  0.12699999809E+01 0. -1.
       -4    1    3    3    0  502 -0.60657435880E+03 -0.50057086865E+03  0.99158675464E+03  0.12656024463E+04  0.12699999809E+01 0.  1.
</event>
<event>
 5   0  0.1098171E-07  0.3395223E+04  0.7818609E-02  0.8139080E-01
       -1   -1    0    0    0  501  0.00000000000E+00  0.00000000000E+00  0.23191141758E+04  0.23191141758E+04  0.50400001928E-02 0. -1.
        1   -1    0    0  501    0  0.00000000000E+00  0.00000000000E+00 -0.12426662647E+04  0.12426662647E+04  0.50400001928E-02 0.  1.
    10030    2    1    2    0    0  0.00000000000E+00  0.00000000000E+00  0.10764479112E+04  0.35617804405E+04  0.33952230856E+04 0.  0.
        4    1    3    3  502    0  0.21201577035E+03  0.12543727498E+04 -0.64096472004E+03  0.14245136249E+04  0.12699999809E+01 0.  1.
       -4    1    3    3    0  502 -0.21201577035E+03 -0.12543727498E+04  0.17174126312E+04  0.21372668156E+04  0.12699999809E+01 0. -1.
</event>
<event>
 5   0  0.1098171E-07  0.3513601E+04  0.7818609E-02  0.8110574E-01
       -1   -1    0    0    0  501  0.00000000000E+00  0.00000000000E+00  0.13816066096E+04  0.13816066096E+04  0.50400001928E-02 0. -1.
        1   -1    0    0  501    0  0.00000000000E+00  0.00000000000E+00 -0.22338828295E+04  0.22338828295E+04  0.50400001928E-02 0.  1.
    10030    2    1    2    0    0  0.00000000000E+00  0.00000000000E+00 -0.85227621987E+03  0.36154894391E+04  0.35136005933E+04 0.  0.
        4    1    3    3  502    0  0.17287235618E+04 -0.30243078686E+03 -0.34384309443E+03  0.17883453862E+04  0.12699999809E+01 0. -1.
       -4    1    3    3    0  502 -0.17287235618E+04  0.30243078686E+03 -0.50843312544E+03  0.18271440528E+04  0.12699999809E+01 0.  1.
</event>
<event>
 5   0  0.3119048E-07  0.3499208E+04  0.7818609E-02  0.8113978E-01
        2   -1    0    0  501    0  0.00000000000E+00  0.00000000000E+00  0.19002512228E+04  0.19002512228E+04  0.25500000920E-02 0. -1.
       -2   -1    0    0    0  501  0.00000000000E+00  0.00000000000E+00 -0.16108997155E+04  0.16108997155E+04  0.25500000920E-02 0.  1.
    10030    2    1    2    0    0  0.00000000000E+00  0.00000000000E+00  0.28935150727E+03  0.35111509382E+04  0.34992079984E+04 0.  0.
        3    1    3    3  502    0 -0.43683284267E+03  0.15767409362E+04 -0.47726165921E+03  0.17043220394E+04  0.10100000352E+00 0. -1.
       -3    1    3    3    0  502  0.43683284267E+03 -0.15767409362E+04  0.76661316649E+03  0.18068288988E+04  0.10100000352E+00 0.  1.
</event>
<event>
 5   0  0.2180451E-07  0.3515159E+04  0.7818609E-02  0.8110207E-01
       -2   -1    0    0    0  501  0.00000000000E+00  0.00000000000E+00  0.19702714627E+04  0.19702714627E+04  0.25500000920E-02 0.  1.
        2   -1    0    0  501    0  0.00000000000E+00  0.00000000000E+00 -0.15678475062E+04  0.15678475062E+04  0.25500000920E-02 0. -1.
    10030    2    1    2    0    0  0.00000000000E+00  0.00000000000E+00  0.40242395648E+03  0.35381189689E+04  0.35151587158E+04 0.  0.
        4    1    3    3  502    0  0.34221468886E+03 -0.51267660418E+03  0.18579080709E+04  0.19574913043E+04  0.12699999809E+01 0.  1.
       -4    1    3    3    0  502 -0.34221468886E+03  0.51267660418E+03 -0.14554841144E+04  0.15806276646E+04  0.12699999809E+01 0. -1.
</event>
<event>
 5   0  0.3190185E-07  0.3504337E+04  0.7818609E-02  0.8112763E-01
        2   -1    0    0  501    0  0.00000000000E+00  0.00000000000E+00  0.26613079725E+04  0.26613079725E+04  0.25500000920E-02 0. -1.
       -2   -1    0    0    0  501  0.00000000000E+00  0.00000000000E+00 -0.11536038966E+04  0.11536038966E+04  0.25500000920E-02 0.  1.
    10030    2    1    2    0    0  0.00000000000E+00  0.00000000000E+00  0.15077040759E+04  0.38149118691E+04  0.35043374535E+04 0.  0.
        1    1    3    3  502    0 -0.50683763806E+02 -0.44936227699E+03 -0.10889826116E+04  0.11791430907E+04  0.50400001928E-02 0.  1.
       -1    1    3    3    0  502  0.50683763806E+02  0.44936227699E+03  0.25966866875E+04  0.26357687784E+04  0.50400001928E-02 0. -1.
</event>
<event>
 5   0  0.1072381E-07  0.3501594E+04  0.7818609E-02  0.8113412E-01
        1   -1    0    0  501    0  0.00000000000E+00  0.00000000000E+00  0.12215852111E+04  0.12215852111E+04  0.50400001928E-02 0. -1.
       -1   -1    0    0    0  501  0.00000000000E+00  0.00000000000E+00 -0.25092724975E+04  0.25092724975E+04  0.50400001928E-02 0.  1.
    10030    2    1    2    0    0  0.00000000000E+00  0.00000000000E+00 -0.12876872864E+04  0.37308577086E+04  0.35015940219E+04 0.  0.
        1    1    3    3  502    0 -0.57946904985E+03 -0.16036586555E+04 -0.22061470739E+03  0.17193534576E+04  0.50400001928E-02 0. -1.
       -1    1    3    3    0  502  0.57946904985E+03  0.16036586555E+04 -0.10670725790E+04  0.20115042510E+04  0.50400001928E-02 0.  1.
</event>
<event>
 5   0  0.3190112E-07  0.3490008E+04  0.7818609E-02  0.8116162E-01
       -2   -1    0    0    0  501  0.00000000000E+00  0.00000000000E+00  0.11906022374E+04  0.11906022374E+04  0.25500000920E-02 0.  1.
        2   -1    0    0  501    0  0.00000000000E+00  0.00000000000E+00 -0.25575618983E+04  0.25575618983E+04  0.25500000920E-02 0. -1.
    10030    2    1    2    0    0  0.00000000000E+00  0.00000000000E+00 -0.13669596608E+04  0.37481641357E+04  0.34900079762E+04 0.  0.
        5    1    3    3  502    0  0.42261708739E+03 -0.16927376968E+04 -0.64866736366E+03  0.18613859222E+04  0.46999998093E+01 0. -1.
       -5    1    3    3    0  502 -0.42261708739E+03  0.16927376968E+04 -0.71829229716E+03  0.18867782135E+04  0.46999998093E+01 0.  1.
</event>
<event>
 5   0  0.3219205E-07  0.3498405E+04  0.7818609E-02  0.8114168E-01
        2   -1    0    0  501    0  0.00000000000E+00  0.00000000000E+00  0.19954706308E+04  0.19954706308E+04  0.25500000920E-02 0.  1.
       -2   -1    0    0    0  501  0.00000000000E+00  0.00000000000E+00 -0.15333270438E+04  0.15333270438E+04  0.25500000920E-02 0. -1.
    10030    2    1    2    0    0  0.00000000000E+00  0.00000000000E+00  0.46214358696E+03  0.35287976747E+04  0.34984048270E+04 0.  0.
        2    1    3    3  502    0 -0.87431280822E+03 -0.15150154880E+04  0.23488188944E+03  0.17648978207E+04  0.25500000920E-02 0.  1.
       -2    1    3    3    0  502  0.87431280822E+03  0.15150154880E+04  0.22726169752E+03  0.17638998539E+04  0.25500000920E-02 0. -1.
</event>
<event>
 5   0  0.1013863E-07  0.3497041E+04  0.7818609E-02  0.8114491E-01
        1   -1    0    0  501    0  0.00000000000E+00  0.00000000000E+00  0.25976158680E+04  0.25976158680E+04  0.50400001928E-02 0.  1.
       -1   -1    0    0    0  501  0.00000000000E+00  0.00000000000E+00 -0.11769732231E+04  0.11769732231E+04  0.50400001928E-02 0. -1.
    10030    2    1    2    0    0  0.00000000000E+00  0.00000000000E+00  0.14206426449E+04  0.37745890912E+04  0.34970412183E+04 0.  0.
        5    1    3    3  502    0  0.80407748464E+03  0.12863005092E+04  0.16489312626E+04  0.22405593052E+04  0.46999998093E+01 0.  1.
       -5    1    3    3    0  502 -0.80407748464E+03 -0.12863005092E+04 -0.22828861769E+03  0.15340297860E+04  0.46999998093E+01 0. -1.
</event>
<event>
 5   0  0.2180451E-07  0.3512176E+04  0.7818609E-02  0.8110911E-01
       -2   -1    0    0    0  501  0.00000000000E+00  0.00000000000E+00  0.18289170075E+04  0.18289170075E+04  0.25500000920E-02 0. -1.
        2   -1    0    0  501    0  0.00000000000E+00  0.00000000000E+00 -0.16861588543E+04  0.16861588543E+04  0.25500000920E-02 0.  1.
    10030    2    1    2    0    0  0.00000000000E+00  0.00000000000E+00  0.14275815325E+03  0.35150758618E+04  0.35121757393E+04 0.  0.
        4    1    3    3  502    0  0.13744233171E+04 -0.60445712224E+03 -0.84010623681E+03  0.17205196800E+04  0.12699999809E+01 0.  1.
       -4    1    3    3    0  502 -0.13744233171E+04  0.60445712224E+03  0.98286439006E+03  0.17945561818E+04  0.12699999809E+01 0. -1.
</event>
<event>
 5   0  0.2180451E-07  0.3487443E+04  0.7818609E-02  0.8116772E-01
       -2   -1    0    0    0  501  0.00000000000E+00  0.00000000000E+00  0.12998732493E+04  0.12998732493E+04  0.25500000920E-02 0. -1.
        2   -1    0    0  501    0  0.00000000000E+00  0.00000000000E+00 -0.23391242870E+04  0.23391242870E+04  0.25500000920E-02 0.  1.
    10030    2    1    2    0    0  0.00000000000E+00  0.00000000000E+00 -0.10392510377E+04  0.36389975363E+04  0.34874432396E+04 0.  0.
        4    1    3    3  502    0 -0.13292750421E+04 -0.16311141912E+03 -0.16848387375E+04  0.21522687232E+04  0.12699999809E+01 0.  1.
       -4    1    3    3    0  502  0.13292750421E+04  0.16311141912E+03  0.64558769979E+03  0.14867288130E+04  0.12699999809E+01 0. -1.
</event>
<event>
 5   0  0.2180451E-07  0.3501416E+04  0.7818609E-02  0.8113455E-01
        2   -1    0    0  501    0  0.00000000000E+00  0.00000000000E+00  0.23349299627E+04  0.23349299627E+04  0.25500000920E-02 0.  1.
       -2   -1    0    0    0  501  0.00000000000E+00  0.00000000000E+00 -0.13126637525E+04  0.13126637525E+04  0.25500000920E-02 0. -1.
    10030    2    1    2    0    0  0.00000000000E+00  0.00000000000E+00  0.10222662102E+04  0.36475937152E+04  0.35014156718E+04 0.  0.
        4    1    3    3  502    0 -0.11905748962E+04 -0.65040145232E+03 -0.64162887141E+03  0.15007264421E+04  0.12699999809E+01 0. -1.
       -4    1    3    3    0  502  0.11905748962E+04  0.65040145232E+03  0.16638950816E+04  0.21468672730E+04  0.12699999809E+01 0.  1.
</event>
<event>
 5   0  0.3219205E-07  0.3486251E+04  0.7818609E-02  0.8117056E-01
       -2   -1    0    0    0  501  0.00000000000E+00  0.00000000000E+00  0.12868500450E+04  0.12868500450E+04  0.25500000920E-02 0.  1.
        2   -1    0    0  501    0  0.00000000000E+00  0.00000000000E+00 -0.23611816566E+04  0.23611816566E+04  0.25500000920E-02 0. -1.
    10030    2    1    2    0    0  0.00000000000E+00  0.00000000000E+00 -0.10743316116E+04  0.36480317015E+04  0.34862511217E+04 0.  0.
        2    1    3    3  502    0  0.75518947119E+03  0.52050900227E+01  0.11067727414E+04  0.13398821334E+04  0.25500000920E-02 0.  1.
       -2    1    3    3    0  502 -0.75518947119E+03 -0.52050900227E+01 -0.21811043530E+04  0.23081495682E+04  0.25500000920E-02 0. -1.
</event>
<event>
 5   0  0.1013863E-07  0.3518227E+04  0.7818609E-02  0.8109484E-01
        1   -1    0    0  501    0  0.00000000000E+00  0.00000000000E+00  0.17890050373E+04  0.17890050373E+04  0.50400001928E-02 0. -1.
       -1   -1    0    0    0  501  0.00000000000E+00  0.00000000000E+00 -0.17297217833E+04  0.17297217833E+04  0.50400001928E-02 0.  1.
    10030    2    1    2    0    0  0.00000000000E+00  0.00000000000E+00  0.59283254041E+02  0.35187268206E+04  0.35182273852E+04 0.  0.
        2    1    3    3  502    0 -0.64830139675E+03 -0.15039799643E+04 -0.61250134419E+03  0.17485446321E+04  0.25500000920E-02 0.  1.
       -2    1    3    3    0  502  0.64830139675E+03  0.15039799643E+04  0.67178459823E+03  0.17701821885E+04  0.25500000920E-02 0. -1.
</event>
<event>
 5   0  0.1013863E-07  0.3526808E+04  0.7818609E-02  0.8107466E-01
       -1   -1    0    0    0  501  0.00000000000E+00  0.00000000000E+00  0.18946369324E+04  0.18946369324E+04  0.50400001928E-02 0.  1.
        1   -1    0    0  501    0  0.00000000000E+00  0.00000000000E+00 -0.16412605301E+04  0.16412605301E+04  0.50400001928E-02 0. -1.
    10030    2    1    2    0    0  0.00000000000E+00  0.00000000000E+00  0.25337640233E+03  0.35358974625E+04  0.35268075173E+04 0.  0.
        2    1    3    3  502    0 -0.88330553599E+03 -0.97959860323E+03 -0.10466917778E+04  0.16838663163E+04  0.25500000920E-02 0. -1.
       -2    1    3    3    0  502  0.88330553599E+03  0.97959860323E+03  0.13000681802E+04  0.18520311462E+04  0.25500000920E-02 0.  1.
</event>
<event>
 5   0  0.3190185E-07  0.3498828E+04  0.7818609E-02  0.8114068E-01
        2   -1    0    0  501    0  0.00000000000E+00  0.00000000000E+00  0.24246151911E+04  0.24246151911E+04  0.25500000920E-02 0. -1.
       -2   -1    0    0    0  501  0.00000000000E+00  0.00000000000E+00 -0.12622413968E+04  0.12622413968E+04  0.25500000920E-02 0.  1.
    10030    2    1    2    0    0  0.00000000000E+00  0.00000000000E+00  0.11623737942E+04  0.36868565879E+04  0.34988281841E+04 0.  0.
        1    1    3    3  502    0  0.30775022380E+03 -0.63152204079E+03 -0.11070747036E+04  0.13111615795E+04  0.50400001928E-02 0.  1.
       -1    1    3    3    0  502 -0.30775022380E+03  0.63152204079E+03  0.22694484978E+04  0.23756950083E+04  0.50400001928E-02 0. -1.
</event>
<event>
 5   0  0.1072381E-07  0.3499141E+04  0.7818609E-02  0.8113994E-01
        1   -1    0    0  501    0  0.00000000000E+00  0.00000000000E+00  0.17708373359E+04  0.17708373359E+04  0.50400001928E-02 0.  1.
       -1   -1    0    0    0  501  0.00000000000E+00  0.00000000000E+00 -0.17285591840E+04  0.17285591840E+04  0.50400001928E-02 0. -1.
    10030    2    1    2    0    0  0.00000000000E+00  0.00000000000E+00  0.42278151888E+02  0.34993965199E+04  0.34991411176E+04 0.  0.
        1    1    3    3  502    0  0.11701985206E+04 -0.19086079855E+03 -0.12655024257E+04  0.17341536297E+04  0.50400001928E-02 0. -1.
       -1    1    3    3    0  502 -0.11701985206E+04  0.19086079855E+03  0.13077805775E+04  0.17652428901E+04  0.50400001928E-02 0.  1.
</event>
<event>
 5   0  0.1013863E-07  0.3482696E+04  0.7818609E-02  0.8117903E-01
       -1   -1    0    0    0  501  0.00000000000E+00  0.00000000000E+00  0.12896060265E+04  0.12896060265E+04  0.50400001928E-02 0. -1.
        1   -1    0    0  501    0  0.00000000000E+00  0.00000000000E+00 -0.23513321916E+04  0.23513321916E+04  0.50400001928E-02 0.  1.
    10030    2    1    2    0    0  0.00000000000E+00  0.00000000000E+00 -0.10617261651E+04  0.36409382180E+04  0.34826956022E+04 0.  0.
        5    1    3    3  502    0  0.12577590314E+04 -0.11902949542E+04 -0.72223861044E+03  0.18762757152E+04  0.46999998093E+01 0.  1.
       -5    1    3    3    0  502 -0.12577590314E+04  0.11902949542E+04 -0.33948755465E+03  0.17646625028E+04  0.46999998093E+01 0. -1.
</event>
<event>
 5   0  0.3190185E-07  0.3449971E+04  0.7818609E-02  0.8125750E-01
       -2   -1    0    0    0  501  0.00000000000E+00  0.00000000000E+00  0.16332343000E+04  0.16332343000E+04  0.25500000920E-02 0.  1.
        2   -1    0    0  501    0  0.00000000000E+00  0.00000000000E+00 -0.18218910869E+04  0.18218910869E+04  0.25500000920E-02 0. -1.
    10030    2    1    2    0    0  0.00000000000E+00  0.00000000000E+00 -0.18865678688E+03  0.34551253870E+04  0.34499710226E+04 0.  0.
        1    1    3    3  502    0 -0.54583009501E+03  0.62381497599E+03  0.14207104458E+04  0.16448385294E+04  0.50400001928E-02 0.  1.
       -1    1    3    3    0  502  0.54583009501E+03 -0.62381497599E+03 -0.16093672327E+04  0.18102868576E+04  0.50400001928E-02 0. -1.
</event>
<event>
 5   0  0.1013863E-07  0.3539439E+04  0.7818609E-02  0.8104507E-01
       -1   -1    0    0    0  501  0.00000000000E+00  0.00000000000E+00  0.18187232175E+04  0.18187232175E+04  0.50400001928E-02 0. -1.
        1   -1    0    0  501    0  0.00000000000E+00  0.00000000000E+00 -0.17220357419E+04  0.17220357419E+04  0.50400001928E-02 0.  1.
    10030    2    1    2    0    0  0.00000000000E+00  0.00000000000E+00  0.96687475564E+02  0.35407589595E+04  0.35394385912E+04 0.  0.
        2    1    3    3  502    0  0.12012134932E+04  0.10927962790E+04 -0.65533093628E+03  0.17511642412E+04  0.25500000920E-02 0.  1.
       -2    1    3    3    0  502 -0.12012134932E+04 -0.10927962790E+04  0.75201841184E+03  0.17895947182E+04  0.25500000920E-02 0. -1.
</event>
<event>
 5   0  0.3219205E-07  0.3477445E+04  0.7818609E-02  0.8119156E-01
       -2   -1    0    0    0  501  0.00000000000E+00  0.00000000000E+00  0.10270936281E+04  0.10270936281E+04  0.25500000920E-02 0. -1.
        2   -1    0    0  501    0  0.00000000000E+00  0.00000000000E+00 -0.29434085718E+04  0.29434085718E+04  0.25500000920E-02 0.  1.
    10030    2    1    2    0    0  0.00000000000E+00  0.00000000000E+00 -0.19163149437E+04  0.39705021998E+04  0.34774451478E+04 0.  0.
        2    1    3    3  502    0 -0.88558305234E+03  0.32458329806E+03  0.70961195580E+03  0.11803223237E+04  0.25500000920E-02 0. -1.
       -2    1    3    3    0  502  0.88558305234E+03 -0.32458329806E+03 -0.26259268995E+04  0.27901798762E+04  0.25500000920E-02 0.  1.
</event>
<event>
 5   0  0.1098171E-07  0.3493796E+04  0.7818609E-02  0.8115262E-01
        1   -1    0    0  501    0  0.00000000000E+00  0.00000000000E+00  0.15959181023E+04  0.15959181023E+04  0.50400001928E-02 0.  1.
       -1   -1    0    0    0  501  0.00000000000E+00  0.00000000000E+00 -0.19121607296E+04  0.19121607296E+04  0.50400001928E-02 0. -1.
    10030    2    1    2    0    0  0.00000000000E+00  0.00000000000E+00 -0.31624262728E+03  0.35080788318E+04  0.34937955995E+04 0.  0.
        4    1    3    3  502    0 -0.15201876910E+04  0.53664700420E+03  0.51745147892E+03  0.16931385853E+04  0.12699999809E+01 0.  1.
       -4    1    3    3    0  502  0.15201876910E+04 -0.53664700420E+03 -0.83369410620E+03  0.18149402466E+04  0.12699999809E+01 0. -1.
</event>
<event>
 5   0  0.1072381E-07  0.3492054E+04  0.7818609E-02  0.8115676E-01
        1   -1    0    0  501    0  0.00000000000E+00  0.00000000000E+00  0.11306351751E+04  0.11306351752E+04  0.50400001928E-02 0.  1.
       -1   -1    0    0    0  501  0.00000000000E+00  0.00000000000E+00 -0.26963701971E+04  0.26963701971E+04  0.50400001928E-02 0. -1.
    10030    2    1    2    0    0  0.00000000000E+00  0.00000000000E+00 -0.15657350219E+04  0.38270053722E+04  0.34920544040E+04 0.  0.
        1    1    3    3  502    0  0.64639493145E+03  0.15075225561E+04 -0.12699895707E+03  0.16451685019E+04  0.50400001928E-02 0. -1.
       -1    1    3    3    0  502 -0.64639493145E+03 -0.15075225561E+04 -0.14387360649E+04  0.21818368704E+04  0.50400001928E-02 0.  1.
</event>
<event>
 5   0  0.3190112E-07  0.3429445E+04  0.7818609E-02  0.8130717E-01
       -2   -1    0    0    0  501  0.00000000000E+00  0.00000000000E+00  0.11216428718E+04  0.11216428718E+04  0.25500000920E-02 0.  1.
        2   -1    0    0  501    0  0.00000000000E+00  0.00000000000E+00 -0.26213989361E+04  0.26213989361E+04  0.25500000920E-02 0. -1.
    10030    2    1    2    0    0  0.00000000000E+00  0.00000000000E+00 -0.14997560644E+04  0.37430418079E+04  0.34294451043E+04 0.  0.
        5    1    3    3  502    0  0.14104456649E+04  0.36645784282E+03  0.23641578931E+03  0.14763342574E+04  0.46999998093E+01 0.  1.
       -5    1    3    3    0  502 -0.14104456649E+04 -0.36645784282E+03 -0.17361718537E+04  0.22667075505E+04  0.46999998093E+01 0. -1.
</event>
<event>
 5   0  0.1033796E-07  0.3495416E+04  0.7818609E-02  0.8114877E-01
        1   -1    0    0  501    0  0.00000000000E+00  0.00000000000E+00  0.14150409184E+04  0.14150409184E+04  0.50400001928E-02 0. -1.
       -1   -1    0    0    0  501  0.00000000000E+00  0.00000000000E+00 -0.21585830286E+04  0.21585830286E+04  0.50400001928E-02 0.  1.
    10030    2    1    2    0    0  0.00000000000E+00  0.00000000000E+00 -0.74354211021E+03  0.35736239470E+04  0.34954160332E+04 0.  0.
        3    1    3    3  502    0 -0.79671803793E+03  0.14849237255E+04  0.10198140935E+03  0.16882411915E+04  0.10100000352E+00 0. -1.
       -3    1    3    3    0  502  0.79671803793E+03 -0.14849237255E+04 -0.84552351956E+03  0.18853827555E+04  0.10100000352E+00 0.  1.
</event>
<event>
 5   0  0.1033796E-07  0.3509442E+04  0.7818609E-02  0.8111556E-01
       -1   -1    0    0    0  501  0.00000000000E+00  0.00000000000E+00  0.13721915872E+04  0.13721915872E+04  0.50400001928E-02 0.  1.
        1   -1    0    0  501    0  0.00000000000E+00  0.00000000000E+00 -0.22438885241E+04  0.22438885241E+04  0.50400001928E-02 0. -1.
    10030    2    1    2    0    0  0.00000000000E+00  0.00000000000E+00 -0.87169693698E+03  0.36160801113E+04  0.35094415256E+04 0.  0.
        3    1    3    3  502    0  0.15704480503E+04  0.11672701014E+03 -0.12333917950E+04  0.20002968789E+04  0.10100000352E+00 0. -1.
       -3    1    3    3    0  502 -0.15704480503E+04 -0.11672701014E+03  0.36169485799E+03  0.16157832324E+04  0.10100000352E+00 0.  1.
</event>
<event>
 5   0  0.3219205E-07  0.3480166E+04  0.7818609E-02  0.8118506E-01
       -2   -1    0    0    0  501  0.00000000000E+00  0.00000000000E+00  0.15049388996E+04  0.15049388996E+04  0.25500000920E-02 0.  1.
        2   -1    0    0  501    0  0.00000000000E+00  0.00000000000E+00 -0.20119679195E+04  0.20119679195E+04  0.25500000920E-02 0. -1.
    10030    2    1    2    0    0  0.00000000000E+00  0.00000000000E+00 -0.50702901997E+03  0.35169068191E+04  0.34801659655E+04 0.  0.
        2    1    3    3  502    0  0.19626392546E+02  0.15478814163E+04  0.54958714754E+03  0.16426710282E+04  0.25500000920E-02 0.  1.
       -2    1    3    3    0  502 -0.19626392546E+02 -0.15478814163E+04 -0.10566161675E+04  0.18742357909E+04  0.25500000920E-02 0. -1.
</event>
<event>
 5   0  0.2180451E-07  0.3496075E+04  0.7818609E-02  0.8114721E-01
       -2   -1    0    0    0  501  0.00000000000E+00  0.00000000000E+00  0.15934638821E+04  0.15934638821E+04  0.25500000920E-02 0. -1.
        2   -1    0    0  501    0  0.00000000000E+00  0.00000000000E+00 -0.19176053888E+04  0.19176053888E+04  0.25500000920E-02 0.  1.
    10030    2    1    2    0    0  0.00000000000E+00  0.00000000000E+00 -0.32414150669E+03  0.35110692709E+04  0.34960749004E+04 0.  0.
        4    1    3    3  502    0  0.16413343251E+04 -0.53559533412E+03 -0.43672602777E+03  0.17808907785E+04  0.12699999809E+01 0.  1.
       -4    1    3    3    0  502 -0.16413343251E+04  0.53559533412E+03  0.11258452108E+03  0.17301784925E+04  0.12699999809E+01 0. -1.
</event>
<event>
 5   0  0.1033796E-07  0.3518995E+04  0.7818609E-02  0.8109303E-01
        1   -1    0    0  501    0  0.00000000000E+00  0.00000000000E+00  0.17684104613E+04  0.17684104613E+04  0.50400001928E-02 0. -1.
       -1   -1    0    0    0  501  0.00000000000E+00  0.00000000000E+00 -0.17506297410E+04  0.17506297410E+04  0.50400001928E-02 0.  1.
    10030    2    1    2    0    0  0.00000000000E+00  0.00000000000E+00  0.17780720316E+02  0.35190402023E+04  0.35189952815E+04 0.  0.
        3    1    3    3  502    0  0.10218387295E+04  0.27633720075E+02 -0.14232291485E+04  0.17522840041E+04  0.10100000352E+00 0.  1.
       -3    1    3    3    0  502 -0.10218387295E+04 -0.27633720075E+02  0.14410098688E+04  0.17667561982E+04  0.10100000352E+00 0. -1.
</event>
<event>
 5   0  0.3219205E-07  0.3481246E+04  0.7818609E-02  0.8118249E-01
        2   -1    0    0  501    0  0.00000000000E+00  0.00000000000E+00  0.25233507015E+04  0.25233507015E+04  0.25500000920E-02 0.  1.
       -2   -1    0    0    0  501  0.00000000000E+00  0.00000000000E+00 -0.12006923519E+04  0.12006923519E+04  0.25500000920E-02 0. -1.
    10030    2    1    2    0    0  0.00000000000E+00  0.00000000000E+00  0.13226583495E+04  0.37240430534E+04  0.34812456900E+04 0.  0.
        2    1    3    3  502    0 -0.69677341056E+03  0.14561815668E+04 -0.35081775542E+02  0.16146791236E+04  0.25500000920E-02 0. -1.
       -2    1    3    3    0  502  0.69677341056E+03 -0.14561815668E+04  0.13577401251E+04  0.21093639298E+04  0.25500000920E-02 0.  1.
</event>
<event>
 5   0  0.2180451E-07  0.3509168E+04  0.7818609E-02  0.8111621E-01
       -2   -1    0    0    0  501  0.00000000000E+00  0.00000000000E+00  0.13423132603E+04  0.13423132603E+04  0.25500000920E-02 0.  1.
        2   -1    0    0  501    0  0.00000000000E+00  0.00000000000E+00 -0.22934774441E+04  0.22934774441E+04  0.25500000920E-02 0. -1.
    10030    2    1    2    0    0  0.00000000000E+00  0.00000000000E+00 -0.95116418376E+03  0.36357907044E+04  0.35091680983E+04 0.  0.
        4    1    3    3  502    0  0.29688973153E+03  0.61415620288E+03  0.11992979380E+04  0.13797276946E+04  0.12699999809E+01 0.  1.
       -4    1    3    3    0  502 -0.29688973153E+03 -0.61415620288E+03 -0.21504621218E+04  0.22560630098E+04  0.12699999809E+01 0. -1.
</event>
<event>
 5   0  0.3119048E-07  0.3482563E+04  0.7818609E-02  0.8117935E-01
       -2   -1    0    0    0  501  0.00000000000E+00  0.00000000000E+00  0.20119130951E+04  0.20119130951E+04  0.25500000920E-02 0.  1.
        2   -1    0    0  501    0  0.00000000000E+00  0.00000000000E+00 -0.15070539832E+04  0.15070539832E+04  0.25500000920E-02 0. -1.
    10030    2    1    2    0    0  0.00000000000E+00  0.00000000000E+00  0.50485911191E+03  0.35189670783E+04  0.34825632191E+04 0.  0.
        3    1    3    3  502    0  0.51401855406E+03 -0.84098666719E+03  0.17029096615E+04  0.19675809955E+04  0.10100000352E+00 0.  1.
       -3    1    3    3    0  502 -0.51401855406E+03  0.84098666719E+03 -0.11980505496E+04  0.15513860828E+04  0.10100000352E+00 0. -1.
</event>
<event>
 5   0  0.1033796E-07  0.3443322E+04  0.7818609E-02  0.8127355E-01
       -1   -1    0    0    0  501  0.00000000000E+00  0.00000000000E+00  0.11857471160E+04  0.11857471160E+04  0.50400001928E-02 0.  1.
        1   -1    0    0  501    0  0.00000000000E+00  0.00000000000E+00 -0.24997875471E+04  0.24997875471E+04  0.50400001928E-02 0. -1.
    10030    2    1    2    0    0  0.00000000000E+00  0.00000000000E+00 -0.13140404311E+04  0.36855346631E+04  0.34433215793E+04 0.  0.
        3    1    3    3  502    0  0.46685756421E+03  0.10729531538E+04  0.69472213691E+03  0.13608171490E+04  0.10100000352E+00 0.  1.
       -3    1    3    3    0  502 -0.46685756421E+03 -0.10729531538E+04 -0.20087625680E+04  0.23247175141E+04  0.10100000352E+00 0. -1.
</event>
<event>
 5   0  0.3219205E-07  0.3477251E+04  0.7818609E-02  0.8119202E-01
        2   -1    0    0  501    0  0.00000000000E+00  0.00000000000E+00  0.18627053370E+04  0.18627053370E+04  0.25500000920E-02 0.  1.
       -2   -1    0    0    0  501  0.00000000000E+00  0.00000000000E+00 -0.16228113539E+04  0.16228113539E+04  0.25500000920E-02 0. -1.
    10030    2    1    2    0    0  0.00000000000E+00  0.00000000000E+00  0.23989398315E+03  0.34855166909E+04  0.34772514259E+04 0.  0.
        2    1    3    3  502    0  0.34240091735E+03 -0.12836393640E+04  0.12441523901E+04  0.18201328454E+04  0.25500000920E-02 0.  1.
       -2    1    3    3    0  502 -0.34240091735E+03  0.12836393640E+04 -0.10042584070E+04  0.16653838455E+04  0.25500000920E-02 0. -1.
</event>
<event>
 5   0  0.1013863E-07  0.3490588E+04  0.7818609E-02  0.8116024E-01
       -1   -1    0    0    0  501  0.00000000000E+00  0.00000000000E+00  0.12809365123E+04  0.12809365123E+04  0.50400001928E-02 0.  1.
        1   -1    0    0  501    0  0.00000000000E+00  0.00000000000E+00 -0.23779871108E+04  0.23779871108E+04  0.50400001928E-02 0. -1.
    10030    2    1    2    0    0  0.00000000000E+00  0.00000000000E+00 -0.10970505985E+04  0.36589236232E+04  0.34905876388E+04 0.  0.
        5    1    3    3  502    0  0.14672688002E+03 -0.91784116953E+03  0.99989502049E+03  0.13652008394E+04  0.46999998093E+01 0.  1.
       -5    1    3    3    0  502 -0.14672688002E+03  0.91784116953E+03 -0.20969456190E+04  0.22937227838E+04  0.46999998093E+01 0. -1.
</event>
<event>
 5   0  0.1013863E-07  0.3419538E+04  0.7818609E-02  0.8133128E-01
       -1   -1    0    0    0  501  0.00000000000E+00  0.00000000000E+00  0.94886243898E+03  0.94886243900E+03  0.50400001928E-02 0.  1.
        1   -1    0    0  501    0  0.00000000000E+00  0.00000000000E+00 -0.30808570980E+04  0.30808570980E+04  0.50400001928E-02 0. -1.
    10030    2    1    2    0    0  0.00000000000E+00  0.00000000000E+00 -0.21319946590E+04  0.40297195370E+04  0.34195377350E+04 0.  0.
        2    1    3    3  502    0  0.53945247803E+02  0.17069064134E+04 -0.11636727648E+04  0.20665366916E+04  0.25500000920E-02 0. -1.
       -2    1    3    3    0  502 -0.53945247803E+02 -0.17069064134E+04 -0.96832189420E+03  0.19631828455E+04  0.25500000920E-02 0.  1.
</event>
<event>
 5   0  0.3219205E-07  0.3493182E+04  0.7818609E-02  0.8115408E-01
       -2   -1    0    0    0  501  0.00000000000E+00  0.00000000000E+00  0.15154039079E+04  0.15154039079E+04  0.25500000920E-02 0.  1.
        2   -1    0    0  501    0  0.00000000000E+00  0.00000000000E+00 -0.20130473105E+04  0.20130473105E+04  0.25500000920E-02 0. -1.
    10030    2    1    2    0    0  0.00000000000E+00  0.00000000000E+00 -0.49764340263E+03  0.35284512184E+04  0.34931817938E+04 0.  0.
        2    1    3    3  502    0  0.40398065785E+03  0.72463471721E+03  0.13036688873E+04  0.15452664537E+04  0.25500000920E-02 0.  1.
       -2    1    3    3    0  502 -0.40398065785E+03 -0.72463471721E+03 -0.18013122899E+04  0.19831847647E+04  0.25500000920E-02 0. -1.
</event>
<event>
 5   0  0.1033796E-07  0.3506994E+04  0.7818609E-02  0.8112135E-01
        1   -1    0    0  501    0  0.00000000000E+00  0.00000000000E+00  0.95567816553E+03  0.95567816554E+03  0.50400001928E-02 0.  1.
       -1   -1    0    0    0  501  0.00000000000E+00  0.00000000000E+00 -0.32173496984E+04  0.32173496984E+04  0.50400001928E-02 0. -1.
    10030    2    1    2    0    0  0.00000000000E+00  0.00000000000E+00 -0.22616715329E+04  0.41730278639E+04  0.35069935031E+04 0.  0.
        3    1    3    3  502    0  0.11561255132E+04  0.11128196575E+03  0.43232673395E+03  0.12393209001E+04  0.10100000352E+00 0.  1.
       -3    1    3    3    0  502 -0.11561255132E+04 -0.11128196575E+03 -0.26939982668E+04  0.29337069639E+04  0.10100000352E+00 0. -1.
</event>
<event>
 5   0  0.1033796E-07  0.3516753E+04  0.7818609E-02  0.8109831E-01
       -1   -1    0    0    0  501  0.00000000000E+00  0.00000000000E+00  0.18465120179E+04  0.18465120179E+04  0.50400001928E-02 0. -1.
        1   -1    0    0  501    0  0.00000000000E+00  0.00000000000E+00 -0.16744479942E+04  0.16744479942E+04  0.50400001928E-02 0.  1.
    10030    2    1    2    0    0  0.00000000000E+00  0.00000000000E+00  0.17206402368E+03  0.35209600122E+04  0.35167532440E+04 0.  0.
        3    1    3    3  502    0  0.13588027667E+04 -0.80715274272E+03 -0.68563494033E+03  0.17227698020E+04  0.10100000352E+00 0.  1.
       -3    1    3    3    0  502 -0.13588027667E+04  0.80715274272E+03  0.85769896401E+03  0.17981902102E+04  0.10100000352E+00 0. -1.
</event>
<event>
 5   0  0.1033796E-07  0.3506688E+04  0.7818609E-02  0.8112207E-01
        1   -1    0    0  501    0  0.00000000000E+00  0.00000000000E+00  0.20670324482E+04  0.20670324482E+04  0.50400001928E-02 0.  1.
       -1   -1    0    0    0  501  0.00000000000E+00  0.00000000000E+00 -0.14872606368E+04  0.14872606368E+04  0.50400001928E-02 0. -1.
    10030    2    1    2    0    0  0.00000000000E+00  0.00000000000E+00  0.57977181149E+03  0.35542930850E+04  0.35066884636E+04 0.  0.
        3    1    3    3  502    0 -0.10489029955E+04 -0.14021465390E+04  0.38056309331E+03  0.17919376911E+04  0.10100000352E+00 0.  1.
       -3    1    3    3    0  502  0.10489029955E+04  0.14021465390E+04  0.19920871818E+03  0.17623553939E+04  0.10100000352E+00 0. -1.
</event>
<event>
 5   0  0.3190112E-07  0.3557048E+04  0.7818609E-02  0.8100402E-01
        2   -1    0    0  501    0  0.00000000000E+00  0.00000000000E+00  0.11350067916E+04  0.11350067916E+04  0.25500000920E-02 0. -1.
       -2   -1    0    0    0  501  0.00000000000E+00  0.00000000000E+00 -0.27868971420E+04  0.27868971420E+04  0.25500000920E-02 0.  1.
    10030    2    1    2    0    0  0.00000000000E+00  0.00000000000E+00 -0.16518903503E+04  0.39219039336E+04  0.35570477555E+04 0.  0.
        5    1    3    3  502    0 -0.11094857403E+04  0.13616508919E+04 -0.51786864122E+03  0.18311913551E+04  0.46999998093E+01 0. -1.
       -5    1    3    3    0  502  0.11094857403E+04 -0.13616508919E+04 -0.11340217091E+04  0.20907125785E+04  0.46999998093E+01 0.  1.
</event>
<event>
 5   0  0.3119048E-07  0.3495263E+04  0.7818609E-02  0.8114914E-01
        2   -1    0    0  501    0  0.00000000000E+00  0.00000000000E+00  0.11569614288E+04  0.11569614288E+04  0.25500000920E-02 0.  1.
       -2   -1    0    0    0  501  0.00000000000E+00  0.00000000000E+00 -0.26398593841E+04  0.26398593841E+04  0.25500000920E-02 0. -1.
    10030    2    1    2    0    0  0.00000000000E+00  0.00000000000E+00 -0.14828979553E+04  0.37968208129E+04  0.34952627855E+04 0.  0.
        3    1    3    3  502    0  0.84278098804E+03  0.31284700391E+03  0.88653895180E+03  0.12625784589E+04  0.10100000352E+00 0.  1.
       -3    1    3    3    0  502 -0.84278098804E+03 -0.31284700391E+03 -0.23694369071E+04  0.25342423540E+04  0.10100000352E+00 0. -1.
</event>
<event>
 5   0  0.1098171E-07  0.3509892E+04  0.7818609E-02  0.8111450E-01
        1   -1    0    0  501    0  0.00000000000E+00  0.00000000000E+00  0.19530996522E+04  0.19530996522E+04  0.50400001928E-02 0.  1.
       -1   -1    0    0    0  501  0.00000000000E+00  0.00000000000E+00 -0.15768962372E+04  0.15768962372E+04  0.50400001928E-02 0. -1.
    10030    2    1    2    0    0  0.00000000000E+00  0.00000000000E+00  0.37620341495E+03  0.35299958894E+04  0.35098920168E+04 0.  0.
        4    1    3    3  502    0 -0.12902138794E+04 -0.34658296814E+03  0.13326279894E+04  0.18869739212E+04  0.12699999809E+01 0.  1.
       -4    1    3    3    0  502  0.12902138794E+04  0.34658296814E+03 -0.95642457447E+03  0.16430219682E+04  0.12699999809E+01 0. -1.
</event>
<event>
 5   0  0.1033796E-07  0.3409689E+04  0.7818609E-02  0.8135532E-01
        1   -1    0    0  501    0  0.00000000000E+00  0.00000000000E+00  0.16878461418E+04  0.16878461418E+04  0.50400001928E-02 0.  1.
       -1   -1    0    0    0  501  0.00000000000E+00  0.00000000000E+00 -0.17220138043E+04  0.17220138043E+04  0.50400001928E-02 0. -1.
    10030    2    1    2    0    0  0.00000000000E+00  0.00000000000E+00 -0.34167662518E+02  0.34098599462E+04  0.34096887575E+04 0.  0.
        3    1    3    3  502    0 -0.76857997091E+03 -0.68398064360E+03 -0.13765452011E+04  0.17185521212E+04  0.10100000352E+00 0. -1.
       -3    1    3    3    0  502  0.76857997091E+03  0.68398064360E+03  0.13423775386E+04  0.16913078249E+04  0.10100000352E+00 0.  1.
</event>
<event>
 5   0  0.3219205E-07  0.3492797E+04  0.7818609E-02  0.8115499E-01
        2   -1    0    0  501    0  0.00000000000E+00  0.00000000000E+00  0.19044448846E+04  0.19044448846E+04  0.25500000920E-02 0.  1.
       -2   -1    0    0    0  501  0.00000000000E+00  0.00000000000E+00 -0.16014682649E+04  0.16014682649E+04  0.25500000920E-02 0. -1.
    10030    2    1    2    0    0  0.00000000000E+00  0.00000000000E+00  0.30297661971E+03  0.35059131494E+04  0.34927971855E+04 0.  0.
        2    1    3    3  502    0 -0.11014751720E+04 -0.10545972269E+04  0.10058515176E+04  0.18267895722E+04  0.25500000920E-02 0.  1.
       -2    1    3    3    0  502  0.11014751720E+04  0.10545972269E+04 -0.70287489791E+03  0.16791235772E+04  0.25500000920E-02 0. -1.
</event>
<event>
 5   0  0.3190112E-07  0.3489957E+04  0.7818609E-02  0.8116174E-01
        2   -1    0    0  501    0  0.00000000000E+00  0.00000000000E+00  0.13292120140E+04  0.13292120140E+04  0.25500000920E-02 0.  1.
       -2   -1    0    0    0  501  0.00000000000E+00  0.00000000000E+00 -0.22907927954E+04  0.22907927954E+04  0.25500000920E-02 0. -1.
    10030    2    1    2    0    0  0.00000000000E+00  0.00000000000E+00 -0.96158078146E+03  0.36200048094E+04  0.34899566216E+04 0.  0.
        5    1    3    3  502    0  0.29440555852E+03 -0.11126617556E+04  0.87966148920E+03  0.14486259838E+04  0.46999998093E+01 0.  1.
       -5    1    3    3    0  502 -0.29440555852E+03  0.11126617556E+04 -0.18412422707E+04  0.21713788257E+04  0.46999998093E+01 0. -1.
</event>
<event>
 5   0  0.3190112E-07  0.3521398E+04  0.7818609E-02  0.8108738E-01
        2   -1    0    0  501    0  0.00000000000E+00  0.00000000000E+00  0.26935752932E+04  0.26935752932E+04  0.25500000920E-02 0.  1.
       -2   -1    0    0    0  501  0.00000000000E+00  0.00000000000E+00 -0.11509093006E+04  0.11509093006E+04  0.25500000920E-02 0. -1.
    10030    2    1    2    0    0  0.00000000000E+00  0.00000000000E+00  0.15426659927E+04  0.38444845938E+04  0.35213979365E+04 0.  0.
        5    1    3    3  502    0  0.69358728297E+02 -0.33342479434E+03  0.26572670691E+04  0.26790059898E+04  0.46999998093E+01 0.  1.
       -5    1    3    3    0  502 -0.69358728297E+02  0.33342479434E+03 -0.11146010765E+04  0.11654786040E+04  0.46999998093E+01 0. -1.
</event>
<event>
 5   0  0.1098171E-07  0.3500872E+04  0.7818609E-02  0.8113583E-01
        1   -1    0    0  501    0  0.00000000000E+00  0.00000000000E+00  0.17410015822E+04  0.17410015822E+04  0.50400001928E-02 0. -1.
       -1   -1    0    0    0  501  0.00000000000E+00  0.00000000000E+00 -0.17599217121E+04  0.17599217121E+04  0.50400001928E-02 0.  1.
    10030    2    1    2    0    0  0.00000000000E+00  0.00000000000E+00 -0.18920129833E+02  0.35009232943E+04  0.35008721686E+04 0.  0.
        4    1    3    3  502    0 -0.42260998277E+03  0.14505742799E+04  0.87444193875E+03  0.17456847528E+04  0.12699999809E+01 0. -1.
       -4    1    3    3    0  502  0.42260998277E+03 -0.14505742799E+04 -0.89336206858E+03  0.17552385415E+04  0.12699999809E+01 0.  1.
</event>
<event>
 5   0  0.3190185E-07  0.3486861E+04  0.7818609E-02  0.8116911E-01
       -2   -1    0    0    0  501  0.00000000000E+00  0.00000000000E+00  0.11029524451E+04  0.11029524451E+04  0.25500000920E-02 0. -1.
        2   -1    0    0  501    0  0.00000000000E+00  0.00000000000E+00 -0.27558304218E+04  0.27558304218E+04  0.25500000920E-02 0.  1.
    10030    2    1    2    0    0  0.00000000000E+00  0.00000000000E+00 -0.16528779767E+04  0.38587828669E+04  0.34868609964E+04 0.  0.
        1    1    3    3  502    0 -0.17011864560E+04  0.23709570150E+03 -0.49573315539E+03  0.17877363036E+04  0.50400001928E-02 0.  1.
       -1    1    3    3    0  502  0.17011864560E+04 -0.23709570150E+03 -0.11571448213E+04  0.20710465633E+04  0.50400001928E-02 0. -1.
</event>
<event>
 5   0  0.3190112E-07  0.3501430E+04  0.7818609E-02  0.8113451E-01
       -2   -1    0    0    0  501  0.00000000000E+00  0.00000000000E+00  0.13061755023E+04  0.13061755023E+04  0.25500000920E-02 0.  1.
        2   -1    0    0  501    0  0.00000000000E+00  0.00000000000E+00 -0.23465469539E+04  0.23465469539E+04  0.25500000920E-02 0. -1.
    10030    2    1    2    0    0  0.00000000000E+00  0.00000000000E+00 -0.10403714515E+04  0.36527224562E+04  0.35014295059E+04 0.  0.
        5    1    3    3  502    0 -0.28661114200E+03 -0.10334135846E+04  0.92340225216E+03  0.14151972982E+04  0.46999998093E+01 0.  1.
       -5    1    3    3    0  502  0.28661114200E+03  0.10334135846E+04 -0.19637737037E+04  0.22375251580E+04  0.46999998093E+01 0. -1.
</event>
<event>
 5   0  0.1072381E-07  0.3487876E+04  0.7818609E-02  0.8116669E-01
       -1   -1    0    0    0  501  0.00000000000E+00  0.00000000000E+00  0.13945438259E+04  0.13945438259E+04  0.50400001928E-02 0. -1.
        1   -1    0    0  501    0  0.00000000000E+00  0.00000000000E+00 -0.21808704685E+04  0.21808704685E+04  0.50400001928E-02 0.  1.
    10030    2    1    2    0    0  0.00000000000E+00  0.00000000000E+00 -0.78632664257E+03  0.35754142944E+04  0.34878758275E+04 0.  0.
        1    1    3    3  502    0  0.15065455755E+04  0.29636208683E+03  0.45451853343E+03  0.16012798490E+04  0.50400001928E-02 0. -1.
       -1    1    3    3    0  502 -0.15065455755E+04 -0.29636208683E+03 -0.12408451760E+04  0.19741344454E+04  0.50400001928E-02 0.  1.
</event>
<event>
 5   0  0.3219205E-07  0.3499096E+04  0.7818609E-02  0.8114004E-01
        2   -1    0    0  501    0  0.00000000000E+00  0.00000000000E+00  0.18944024095E+04  0.18944024095E+04  0.25500000920E-02 0. -1.
       -2   -1    0    0    0  501  0.00000000000E+00  0.00000000000E+00 -0.16157700075E+04  0.16157700076E+04  0.25500000920E-02 0.  1.
    10030    2    1    2    0    0  0.00000000000E+00  0.00000000000E+00  0.27863240198E+03  0.35101724171E+04  0.34990962236E+04 0.  0.
        2    1    3    3  502    0  0.40589759875E+03  0.11830492116E+04 -0.10878960256E+04  0.16576718796E+04  0.25500000920E-02 0.  1.
       -2    1    3    3    0  502 -0.40589759875E+03 -0.11830492116E+04  0.13665284276E+04  0.18525005375E+04  0.25500000920E-02 0. -1.
</event>
<event>
 5   0  0.3119048E-07  0.3503585E+04  0.7818609E-02  0.8112941E-01
        2   -1    0    0  501    0  0.00000000000E+00  0.00000000000E+00  0.23713213224E+04  0.23713213224E+04  0.25500000920E-02 0.  1.
       -2   -1    0    0    0  501  0.00000000000E+00  0.00000000000E+00 -0.12941209337E+04  0.12941209337E+04  0.25500000920E-02 0. -1.
    10030    2    1    2    0    0  0.00000000000E+00  0.00000000000E+00  0.10772003887E+04  0.36654422561E+04  0.35035847721E+04 0.  0.
        3    1    3    3  502    0 -0.16183620522E+04  0.40497610873E+03 -0.20577709518E+02  0.16683898923E+04  0.10100000352E+00 0. -1.
       -3    1    3    3    0  502  0.16183620522E+04 -0.40497610873E+03  0.10977780983E+04  0.19970523638E+04  0.10100000352E+00 0.  1.
</event>
<event>
 5   0  0.1013863E-07  0.3509445E+04  0.7818609E-02  0.8111555E-01
       -1   -1    0    0    0  501  0.00000000000E+00  0.00000000000E+00  0.10980365285E+04  0.10980365286E+04  0.50400001928E-02 0.  1.
        1   -1    0    0  501    0  0.00000000000E+00  0.00000000000E+00 -0.28041420651E+04  0.28041420651E+04  0.50400001928E-02 0. -1.
    10030    2    1    2    0    0  0.00000000000E+00  0.00000000000E+00 -0.17061055365E+04  0.39021785936E+04  0.35094446391E+04 0.  0.
        2    1    3    3  502    0  0.17426194804E+04 -0.13873222419E+03 -0.10219790916E+04  0.20249470480E+04  0.25500000920E-02 0.  1.
       -2    1    3    3    0  502 -0.17426194804E+04  0.13873222419E+03 -0.68412644489E+03  0.18772315456E+04  0.25500000920E-02 0. -1.
</event>
<event>
 5   0  0.3119048E-07  0.3486742E+04  0.7818609E-02  0.8116939E-01
       -2   -1    0    0    0  501  0.00000000000E+00  0.00000000000E+00  0.14264130111E+04  0.14264130111E+04  0.25500000920E-02 0.  1.
        2   -1    0    0  501    0  0.00000000000E+00  0.00000000000E+00 -0.21307590106E+04  0.21307590106E+04  0.25500000920E-02 0. -1.
    10030    2    1    2    0    0  0.00000000000E+00  0.00000000000E+00 -0.70434599947E+03  0.35571720217E+04  0.34867419613E+04 0.  0.
        3    1    3    3  502    0 -0.26457827019E+03  0.11045235518E+04 -0.17015263810E+04  0.20457678199E+04  0.10100000352E+00 0. -1.
       -3    1    3    3    0  502  0.26457827019E+03 -0.11045235518E+04  0.99718038155E+03  0.15114042017E+04  0.10100000352E+00 0.  1.
</event>
<event>
 5   0  0.1098171E-07  0.3403428E+04  0.7818609E-02  0.8137066E-01
       -1   -1    0    0    0  501  0.00000000000E+00  0.00000000000E+00  0.21856845797E+04  0.21856845797E+04  0.50400001928E-02 0. -1.
        1   -1    0    0  501    0  0.00000000000E+00  0.00000000000E+00 -0.13249076354E+04  0.13249076355E+04  0.50400001928E-02 0.  1.
    10030    2    1    2    0    0  0.00000000000E+00  0.00000000000E+00  0.86077694421E+03  0.35105922151E+04  0.34034277946E+04 0.  0.
        4    1    3    3  502    0 -0.11947997947E+03 -0.10649454756E+04  0.17939210162E+04  0.20896264156E+04  0.12699999809E+01 0. -1.
       -4    1    3    3    0  502  0.11947997947E+03  0.10649454756E+04 -0.93314407195E+03  0.14209657995E+04  0.12699999809E+01 0.  1.
</event>
<event>
 5   0  0.1013863E-07  0.3429842E+04  0.7818609E-02  0.8130621E-01
        1   -1    0    0  501    0  0.00000000000E+00  0.00000000000E+00  0.18889801709E+04  0.18889801710E+04  0.50400001928E-02 0.  1.
       -1   -1    0    0    0  501  0.00000000000E+00  0.00000000000E+00 -0.15569002817E+04  0.15569002817E+04  0.50400001928E-02 0. -1.
    10030    2    1    2    0    0  0.00000000000E+00  0.00000000000E+00  0.33207988926E+03  0.34458804527E+04  0.34298418391E+04 0.  0.
        5    1    3    3  502    0 -0.13106691430E+04 -0.10876912094E+04  0.36699000394E+03  0.17423058063E+04  0.46999998093E+01 0.  1.
       -5    1    3    3    0  502  0.13106691430E+04  0.10876912094E+04 -0.34910114684E+02  0.17035746464E+04  0.46999998093E+01 0. -1.
</event>
<event>
 5   0  0.1013863E-07  0.3483477E+04  0.7818609E-02  0.8117717E-01
        1   -1    0    0  501    0  0.00000000000E+00  0.00000000000E+00  0.31564001589E+04  0.31564001589E+04  0.50400001928E-02 0. -1.
       -1   -1    0    0    0  501  0.00000000000E+00  0.00000000000E+00 -0.96111176233E+03  0.96111176234E+03  0.50400001928E-02 0.  1.
    10030    2    1    2    0    0  0.00000000000E+00  0.00000000000E+00  0.21952883965E+04  0.41175119212E+04  0.34834771820E+04 0.  0.
        5    1    3    3  502    0 -0.16757198771E+04 -0.51783639685E+02  0.16557148472E+04  0.23562963305E+04  0.46999998093E+01 0. -1.
       -5    1    3    3    0  502  0.16757198771E+04  0.51783639685E+02  0.53957354936E+03  0.17612155907E+04  0.46999998093E+01 0.  1.
</event>
<event>
 5   0  0.1013863E-07  0.3500832E+04  0.7818609E-02  0.8113593E-01
        1   -1    0    0  501    0  0.00000000000E+00  0.00000000000E+00  0.16657423201E+04  0.16657423201E+04  0.50400001928E-02 0. -1.
       -1   -1    0    0    0  501  0.00000000000E+00  0.00000000000E+00 -0.18393935527E+04  0.18393935527E+04  0.50400001928E-02 0.  1.
    10030    2    1    2    0    0  0.00000000000E+00  0.00000000000E+00 -0.17365123255E+03  0.35051358728E+04  0.35008317207E+04 0.  0.
        5    1    3    3  502    0  0.10371481677E+04 -0.12983105192E+04 -0.63763566870E+03  0.17798561352E+04  0.46999998093E+01 0.  1.
       -5    1    3    3    0  502 -0.10371481677E+04  0.12983105192E+04  0.46398443614E+03  0.17252797376E+04  0.46999998093E+01 0. -1.
</event>
<event>
 5   0  0.3119048E-07  0.3479619E+04  0.7818609E-02  0.8118637E-01
       -2   -1    0    0    0  501  0.00000000000E+00  0.00000000000E+00  0.25232927794E+04  0.25232927794E+04  0.25500000920E-02 0.  1.
        2   -1    0    0  501    0  0.00000000000E+00  0.00000000000E+00 -0.11995979520E+04  0.11995979520E+04  0.25500000920E-02 0. -1.
    10030    2    1    2    0    0  0.00000000000E+00  0.00000000000E+00  0.13236948275E+04  0.37228907314E+04  0.34796188587E+04 0.  0.
        3    1    3    3  502    0  0.14809168001E+04  0.32502862111E+03 -0.25114588400E+03  0.15368254419E+04  0.10100000352E+00 0. -1.
       -3    1    3    3    0  502 -0.14809168001E+04 -0.32502862111E+03  0.15748407115E+04  0.21860652895E+04  0.10100000352E+00 0.  1.
</event>
<event>
 5   0  0.1033796E-07  0.3475742E+04  0.7818609E-02  0.8119563E-01
        1   -1    0    0  501    0  0.00000000000E+00  0.00000000000E+00  0.31067590562E+04  0.31067590562E+04  0.50400001928E-02 0. -1.
       -1   -1    0    0    0  501  0.00000000000E+00  0.00000000000E+00 -0.97213690071E+03  0.97213690072E+03  0.50400001928E-02 0.  1.
    10030    2    1    2    0    0  0.00000000000E+00  0.00000000000E+00  0.21346221555E+04  0.40788959569E+04  0.34757417166E+04 0.  0.
        3    1    3    3  502    0  0.12831307886E+04 -0.93949885180E+03  0.18897157702E+04  0.24698397550E+04  0.10100000352E+00 0. -1.
       -3    1    3    3    0  502 -0.12831307886E+04  0.93949885180E+03  0.24490638530E+03  0.16090562019E+04  0.10100000352E+00 0.  1.
</event>
<event>
 5   0  0.1013863E-07  0.3510785E+04  0.7818609E-02  0.8111239E-01
        1   -1    0    0  501    0  0.00000000000E+00  0.00000000000E+00  0.14479660214E+04  0.14479660214E+04  0.50400001928E-02 0.  1.
       -1   -1    0    0    0  501  0.00000000000E+00  0.00000000000E+00 -0.21280911711E+04  0.21280911711E+04  0.50400001928E-02 0. -1.
    10030    2    1    2    0    0  0.00000000000E+00  0.00000000000E+00 -0.68012514970E+03  0.35760571925E+04  0.35107854997E+04 0.  0.
        5    1    3    3  502    0  0.15220508925E+03 -0.13858433104E+04  0.74637598811E+03  0.15814004160E+04  0.46999998093E+01 0.  1.
       -5    1    3    3    0  502 -0.15220508925E+03  0.13858433104E+04 -0.14265011378E+04  0.19946567765E+04  0.46999998093E+01 0. -1.
</event>
<event>
 5   0  0.3190185E-07  0.3485141E+04  0.7818609E-02  0.8117320E-01
       -2   -1    0    0    0  501  0.00000000000E+00  0.00000000000E+00  0.13970840456E+04  0.13970840456E+04  0.25500000920E-02 0. -1.
        2   -1    0    0  501    0  0.00000000000E+00  0.00000000000E+00 -0.21734932003E+04  0.21734932003E+04  0.25500000920E-02 0.  1.
    10030    2    1    2    0    0  0.00000000000E+00  0.00000000000E+00 -0.77640915474E+03  0.35705772459E+04  0.34851414166E+04 0.  0.
        1    1    3    3  502    0  0.10496110322E+03  0.31398704166E+03 -0.21409769922E+04  0.21664226680E+04  0.50400001928E-02 0.  1.
       -1    1    3    3    0  502 -0.10496110322E+03 -0.31398704166E+03  0.13645678374E+04  0.14041545779E+04  0.50400001928E-02 0. -1.
</event>
<event>
 5   0  0.2180451E-07  0.3502688E+04  0.7818609E-02  0.8113153E-01
        2   -1    0    0  501    0  0.00000000000E+00  0.00000000000E+00  0.27992764936E+04  0.27992764936E+04  0.25500000920E-02 0.  1.
       -2   -1    0    0    0  501  0.00000000000E+00  0.00000000000E+00 -0.10957136038E+04  0.10957136038E+04  0.25500000920E-02 0. -1.
    10030    2    1    2    0    0  0.00000000000E+00  0.00000000000E+00  0.17035628898E+04  0.38949900975E+04  0.35026877309E+04 0.  0.
        4    1    3    3  502    0 -0.58444239989E+03 -0.79367063307E+03  0.24615792484E+04  0.26515768896E+04  0.12699999809E+01 0.  1.
       -4    1    3    3    0  502  0.58444239989E+03  0.79367063307E+03 -0.75801635861E+03  0.12434132078E+04  0.12699999809E+01 0. -1.
</event>
<event>
 5   0  0.2180451E-07  0.3502114E+04  0.7818609E-02  0.8113289E-01
        2   -1    0    0  501    0  0.00000000000E+00  0.00000000000E+00  0.23830756933E+04  0.23830756933E+04  0.25500000920E-02 0. -1.
       -2   -1    0    0    0  501  0.00000000000E+00  0.00000000000E+00 -0.12866568376E+04  0.12866568376E+04  0.25500000920E-02 0.  1.
    10030    2    1    2    0    0  0.00000000000E+00  0.00000000000E+00  0.10964188557E+04  0.36697325309E+04  0.35021140104E+04 0.  0.
        4    1    3    3  502    0 -0.59072316103E+03  0.15585208896E+04  0.11108028758E+04  0.20029542826E+04  0.12699999809E+01 0.  1.
       -4    1    3    3    0  502  0.59072316103E+03 -0.15585208896E+04 -0.14384020120E+02  0.16667782484E+04  0.12699999809E+01 0. -1.
</event>
<event>
 5   0  0.1013863E-07  0.3370139E+04  0.7818609E-02  0.8145274E-01
        1   -1    0    0  501    0  0.00000000000E+00  0.00000000000E+00  0.14622244110E+04  0.14622244110E+04  0.50400001928E-02 0. -1.
       -1   -1    0    0    0  501  0.00000000000E+00  0.00000000000E+00 -0.19418760379E+04  0.19418760379E+04  0.50400001928E-02 0.  1.
    10030    2    1    2    0    0  0.00000000000E+00  0.00000000000E+00 -0.47965162691E+03  0.34041004488E+04  0.33701385999E+04 0.  0.
        2    1    3    3  502    0 -0.15547556770E+03 -0.74164153702E+03 -0.17600688801E+04  0.19162586684E+04  0.25500000920E-02 0.  1.
       -2    1    3    3    0  502  0.15547556770E+03  0.74164153702E+03  0.12804172531E+04  0.14878417805E+04  0.25500000920E-02 0. -1.
</event>
<event>
 5   0  0.3190112E-07  0.3498178E+04  0.7818609E-02  0.8114222E-01
        2   -1    0    0  501    0  0.00000000000E+00  0.00000000000E+00  0.29893008605E+04  0.29893008605E+04  0.25500000920E-02 0. -1.
       -2   -1    0    0    0  501  0.00000000000E+00  0.00000000000E+00 -0.10234208402E+04  0.10234208402E+04  0.25500000920E-02 0.  1.
    10030    2    1    2    0    0  0.00000000000E+00  0.00000000000E+00  0.19658800202E+04  0.40127217007E+04  0.34981782678E+04 0.  0.
        5    1    3    3  502    0 -0.16341604479E+04  0.38088479414E+02  0.16968677695E+04  0.23561225390E+04  0.46999998093E+01 0. -1.
       -5    1    3    3    0  502  0.16341604479E+04 -0.38088479414E+02  0.26901225077E+03  0.16565991617E+04  0.46999998093E+01 0.  1.
</event>
<event>
 5   0  0.1098171E-07  0.3537278E+04  0.7818609E-02  0.8105012E-01
       -1   -1    0    0    0  501  0.00000000000E+00  0.00000000000E+00  0.17434311430E+04  0.17434311430E+04  0.50400001928E-02 0.  1.
        1   -1    0    0  501    0  0.00000000000E+00  0.00000000000E+00 -0.17942116873E+04  0.17942116873E+04  0.50400001928E-02 0. -1.
    10030    2    1    2    0    0  0.00000000000E+00  0.00000000000E+00 -0.50780544345E+02  0.35376428303E+04  0.35372783508E+04 0.  0.
        4    1    3    3  502    0  0.16586506807E+04  0.61593002009E+02 -0.63632729625E+03  0.17775910157E+04  0.12699999809E+01 0. -1.
       -4    1    3    3    0  502 -0.16586506807E+04 -0.61593002009E+02  0.58554675191E+03  0.17600518146E+04  0.12699999809E+01 0.  1.
</event>
<event>
 5   0  0.2180451E-07  0.3501579E+04  0.7818609E-02  0.8113416E-01
        2   -1    0    0  501    0  0.00000000000E+00  0.00000000000E+00  0.14908059800E+04  0.14908059800E+04  0.25500000920E-02 0. -1.
       -2   -1    0    0    0  501  0.00000000000E+00  0.00000000000E+00 -0.20561120429E+04  0.20561120429E+04  0.25500000920E-02 0.  1.
    10030    2    1    2    0    0  0.00000000000E+00  0.00000000000E+00 -0.56530606283E+03  0.35469180229E+04  0.35015791461E+04 0.  0.
        4    1    3    3  502    0 -0.14278372962E+04 -0.73513835797E+03  0.42359396001E+03  0.16608977107E+04  0.12699999809E+01 0. -1.
       -4    1    3    3    0  502  0.14278372962E+04  0.73513835797E+03 -0.98890002284E+03  0.18860203121E+04  0.12699999809E+01 0.  1.
</event>
<event>
 5   0  0.3190112E-07  0.3483584E+04  0.7818609E-02  0.8117691E-01
        2   -1    0    0  501    0  0.00000000000E+00  0.00000000000E+00  0.13010782684E+04  0.13010782684E+04  0.25500000920E-02 0. -1.
       -2   -1    0    0    0  501  0.00000000000E+00  0.00000000000E+00 -0.23317889295E+04  0.23317889295E+04  0.25500000920E-02 0.  1.
    10030    2    1    2    0    0  0.00000000000E+00  0.00000000000E+00 -0.10307106611E+04  0.36328671980E+04  0.34835843052E+04 0.  0.
        5    1    3    3  502    0 -0.45978282874E+03  0.30709855851E+03 -0.22378345043E+04  0.23051323460E+04  0.46999998093E+01 0.  1.
       -5    1    3    3    0  502  0.45978282874E+03 -0.30709855851E+03  0.12071238432E+04  0.13277348519E+04  0.46999998093E+01 0. -1.
</event>
<event>
 5   0  0.3219205E-07  0.3497998E+04  0.7818609E-02  0.8114265E-01
        2   -1    0    0  501    0  0.00000000000E+00  0.00000000000E+00  0.25627263529E+04  0.25627263529E+04  0.25500000920E-02 0.  1.
       -2   -1    0    0    0  501  0.00000000000E+00  0.00000000000E+00 -0.11936496088E+04  0.11936496088E+04  0.25500000920E-02 0. -1.
    10030    2    1    2    0    0  0.00000000000E+00  0.00000000000E+00  0.13690767441E+04  0.37563759617E+04  0.34979978894E+04 0.  0.
        2    1    3    3  502    0  0.67951247757E+03 -0.59924921707E+03 -0.92201486231E+03  0.12926516304E+04  0.25500000920E-02 0. -1.
       -2    1    3    3    0  502 -0.67951247757E+03  0.59924921707E+03  0.22910916064E+04  0.24637243313E+04  0.25500000920E-02 0.  1.
</event>
<event>
 5   0  0.1072381E-07  0.3540696E+04  0.7818609E-02  0.8104213E-01
        1   -1    0    0  501    0  0.00000000000E+00  0.00000000000E+00  0.22719072649E+04  0.22719072649E+04  0.50400001928E-02 0.  1.
       -1   -1    0    0    0  501  0.00000000000E+00  0.00000000000E+00 -0.13795156950E+04  0.13795156950E+04  0.50400001928E-02 0. -1.
    10030    2    1    2    0    0  0.00000000000E+00  0.00000000000E+00  0.89239156990E+03  0.36514229599E+04  0.35406958240E+04 0.  0.
        1    1    3    3  502    0  0.98136482334E+03  0.43747506740E+03 -0.10048127457E+04  0.14710914332E+04  0.50400001928E-02 0. -1.
       -1    1    3    3    0  502 -0.98136482334E+03 -0.43747506740E+03  0.18972043156E+04  0.21803315266E+04  0.50400001928E-02 0.  1.
</event>
<event>
 5   0  0.1013863E-07  0.3494382E+04  0.7818609E-02  0.8115123E-01
        1   -1    0    0  501    0  0.00000000000E+00  0.00000000000E+00  0.20039115899E+04  0.20039115899E+04  0.50400001928E-02 0.  1.
       -1   -1    0    0    0  501  0.00000000000E+00  0.00000000000E+00 -0.15233585788E+04  0.15233585788E+04  0.50400001928E-02 0. -1.
    10030    2    1    2    0    0  0.00000000000E+00  0.00000000000E+00  0.48055301102E+03  0.35272701687E+04  0.34943817259E+04 0.  0.
        2    1    3    3  502    0 -0.53270477148E+03 -0.49096652347E+03  0.18451630015E+04  0.19822837847E+04  0.25500000920E-02 0.  1.
       -2    1    3    3    0  502  0.53270477148E+03  0.49096652347E+03 -0.13646099905E+04  0.15449863840E+04  0.25500000920E-02 0. -1.
</event>
<event>
 5   0  0.3219205E-07  0.3493503E+04  0.7818609E-02  0.8115331E-01
        2   -1    0    0  501    0  0.00000000000E+00  0.00000000000E+00  0.26479786084E+04  0.26479786084E+04  0.25500000920E-02 0.  1.
       -2   -1    0    0    0  501  0.00000000000E+00  0.00000000000E+00 -0.11522526294E+04  0.11522526294E+04  0.25500000920E-02 0. -1.
    10030    2    1    2    0    0  0.00000000000E+00  0.00000000000E+00  0.14957259790E+04  0.38002312378E+04  0.34935027203E+04 0.  0.
        2    1    3    3  502    0  0.33188283916E+03 -0.16979864351E+04  0.10094695722E+04  0.20030808696E+04  0.25500000920E-02 0. -1.
       -2    1    3    3    0  502 -0.33188283916E+03  0.16979864351E+04  0.48625640682E+03  0.17971503682E+04  0.25500000920E-02 0.  1.
</event>
<event>
 5   0  0.3190112E-07  0.3488869E+04  0.7818609E-02  0.8116433E-01
        2   -1    0    0  501    0  0.00000000000E+00  0.00000000000E+00  0.19484236742E+04  0.19484236742E+04  0.25500000920E-02 0.  1.
       -2   -1    0    0    0  501  0.00000000000E+00  0.00000000000E+00 -0.15618014877E+04  0.15618014877E+04  0.25500000920E-02 0. -1.
    10030    2    1    2    0    0  0.00000000000E+00  0.00000000000E+00  0.38662218651E+03  0.35102251619E+04  0.34888685805E+04 0.  0.
        5    1    3    3  502    0  0.10264221690E+04  0.13374486013E+04  0.64406881069E+03  0.18047598048E+04  0.46999998093E+01 0.  1.
       -5    1    3    3    0  502 -0.10264221690E+04 -0.13374486013E+04 -0.25744662418E+03  0.17054653571E+04  0.46999998093E+01 0. -1.
</event>
<event>
 5   0  0.1098171E-07  0.3496066E+04  0.7818609E-02  0.8114723E-01
        1   -1    0    0  501    0  0.00000000000E+00  0.00000000000E+00  0.17773781510E+04  0.17773781510E+04  0.50400001928E-02 0. -1.
       -1   -1    0    0    0  501  0.00000000000E+00  0.00000000000E+00 -0.17191720679E+04  0.17191720679E+04  0.50400001928E-02 0.  1.
    10030    2    1    2    0    0  0.00000000000E+00  0.00000000000E+00  0.58206083134E+02  0.34965502189E+04  0.34960657152E+04 0.  0.
        4    1    3    3  502    0 -0.90061897607E+03  0.10541383898E+04 -0.10356077696E+04  0.17305511695E+04  0.12699999809E+01 0.  1.
       -4    1    3    3    0  502  0.90061897607E+03 -0.10541383898E+04  0.10938138528E+04  0.17659990493E+04  0.12699999809E+01 0. -1.
</event>
<event>
 5   0  0.1013863E-07  0.3513498E+04  0.7818609E-02  0.8110598E-01
       -1   -1    0    0    0  501  0.00000000000E+00  0.00000000000E+00  0.10173952937E+04  0.10173952937E+04  0.50400001928E-02 0. -1.
        1   -1    0    0  501    0  0.00000000000E+00  0.00000000000E+00 -0.30334005446E+04  0.30334005446E+04  0.50400001928E-02 0.  1.
    10030    2    1    2    0    0  0.00000000000E+00  0.00000000000E+00 -0.20160052510E+04  0.40507958383E+04  0.35134982214E+04 0.  0.
        2    1    3    3  502    0 -0.19129868195E+03  0.19250178148E+02 -0.30212340121E+04  0.30273454892E+04  0.25500000920E-02 0.  1.
       -2    1    3    3    0  502  0.19129868195E+03 -0.19250178148E+02  0.10052287611E+04  0.10234503492E+04  0.25500000920E-02 0. -1.
</event>
<event>
 5   0  0.1013863E-07  0.3407578E+04  0.7818609E-02  0.8136049E-01
        3   -1    0    0  501    0  0.00000000000E+00  0.00000000000E+00  0.28597930129E+04  0.28597930146E+04  0.10100000352E+00 0. -1.
       -3   -1    0    0    0  501  0.00000000000E+00  0.00000000000E+00 -0.10150724162E+04  0.10150724213E+04  0.10100000352E+00 0.  1.
    10030    2    1    2    0    0  0.00000000000E+00  0.00000000000E+00  0.18447205966E+04  0.38748654359E+04  0.34075780353E+04 0.  0.
        5    1    3    3  502    0  0.50834481206E+02  0.38728048117E+02 -0.10137017027E+04  0.10157249816E+04  0.46999998093E+01 0.  1.
       -5    1    3    3    0  502 -0.50834481206E+02 -0.38728048117E+02  0.28584222993E+04  0.28591404543E+04  0.46999998093E+01 0. -1.
</event>
<event>
 5   0  0.2180451E-07  0.3545233E+04  0.7818609E-02  0.8103153E-01
       -2   -1    0    0    0  501  0.00000000000E+00  0.00000000000E+00  0.12251649466E+04  0.12251649466E+04  0.25500000920E-02 0. -1.
        2   -1    0    0  501    0  0.00000000000E+00  0.00000000000E+00 -0.25646906051E+04  0.25646906051E+04  0.25500000920E-02 0.  1.
    10030    2    1    2    0    0  0.00000000000E+00  0.00000000000E+00 -0.13395256585E+04  0.37898555518E+04  0.35452328716E+04 0.  0.
        4    1    3    3  502    0  0.12858557172E+04 -0.10877483874E+04 -0.78859896254E+02  0.16860729450E+04  0.12699999809E+01 0. -1.
       -4    1    3    3    0  502 -0.12858557172E+04  0.10877483874E+04 -0.12606657622E+04  0.21037826068E+04  0.12699999809E+01 0.  1.
</event>
<event>
 5   0  0.1013863E-07  0.3506759E+04  0.7818609E-02  0.8112190E-01
       -1   -1    0    0    0  501  0.00000000000E+00  0.00000000000E+00  0.28378923241E+04  0.28378923241E+04  0.50400001928E-02 0. -1.
        1   -1    0    0  501    0  0.00000000000E+00  0.00000000000E+00 -0.10833180942E+04  0.10833180942E+04  0.50400001928E-02 0.  1.
    10030    2    1    2    0    0  0.00000000000E+00  0.00000000000E+00  0.17545742299E+04  0.39212104184E+04  0.35067592470E+04 0.  0.
        5    1    3    3  502    0  0.15669915714E+04 -0.78294079845E+03  0.79169555124E+03  0.19223066391E+04  0.46999998093E+01 0.  1.
       -5    1    3    3    0  502 -0.15669915714E+04  0.78294079845E+03  0.96287867870E+03  0.19989037793E+04  0.46999998093E+01 0. -1.
</event>
<event>
 5   0  0.2180451E-07  0.3542989E+04  0.7818609E-02  0.8103677E-01
        2   -1    0    0  501    0  0.00000000000E+00  0.00000000000E+00  0.20605615079E+04  0.20605615079E+04  0.25500000920E-02 0. -1.
       -2   -1    0    0    0  501  0.00000000000E+00  0.00000000000E+00 -0.15229794361E+04  0.15229794361E+04  0.25500000920E-02 0.  1.
    10030    2    1    2    0    0  0.00000000000E+00  0.00000000000E+00  0.53758207182E+03  0.35835409440E+04  0.35429890224E+04 0.  0.
        4    1    3    3  502    0 -0.63725858074E+03 -0.11561619407E+04  0.14635743881E+04  0.19710049554E+04  0.12699999809E+01 0. -1.
       -4    1    3    3    0  502  0.63725858074E+03  0.11561619407E+04 -0.92599231623E+03  0.16125359886E+04  0.12699999809E+01 0.  1.
</event>
<event>
 5   0  0.2180451E-07  0.3508266E+04  0.7818609E-02  0.8111834E-01
        2   -1    0    0  501    0  0.00000000000E+00  0.00000000000E+00  0.11833795017E+04  0.11833795017E+04  0.25500000920E-02 0.  1.
       -2   -1    0    0    0  501  0.00000000000E+00  0.00000000000E+00 -0.26001653942E+04  0.26001653942E+04  0.25500000920E-02 0. -1.
    10030    2    1    2    0    0  0.00000000000E+00  0.00000000000E+00 -0.14167858925E+04  0.37835448958E+04  0.35082659126E+04 0.  0.
        4    1    3    3  502    0 -0.40501325417E+02 -0.11636702341E+04 -0.21232858753E+04  0.24215931310E+04  0.12699999809E+01 0. -1.
       -4    1    3    3    0  502  0.40501325417E+02  0.11636702341E+04  0.70649998281E+03  0.13619517648E+04  0.12699999809E+01 0.  1.
</event>
<event>
 5   0  0.3119048E-07  0.3501454E+04  0.7818609E-02  0.8113445E-01
        2   -1    0    0  501    0  0.00000000000E+00  0.00000000000E+00  0.15741856484E+04  0.15741856484E+04  0.25500000920E-02 0. -1.
       -2   -1    0    0    0  501  0.00000000000E+00  0.00000000000E+00 -0.19470668690E+04  0.19470668690E+04  0.25500000920E-02 0.  1.
    10030    2    1    2    0    0  0.00000000000E+00  0.00000000000E+00 -0.37288122059E+03  0.35212525175E+04  0.35014538248E+04 0.  0.
        3    1    3    3  502    0 -0.17362448945E+04 -0.17372210392E+03 -0.32979137784E+03  0.17758063144E+04  0.10100000352E+00 0. -1.
       -3    1    3    3    0  502  0.17362448945E+04  0.17372210392E+03 -0.43089842749E+02  0.17454462031E+04  0.10100000352E+00 0.  1.
</event>
<event>
 5   0  0.1013863E-07  0.3492068E+04  0.7818609E-02  0.8115672E-01
       -1   -1    0    0    0  501  0.00000000000E+00  0.00000000000E+00  0.19957859664E+04  0.19957859664E+04  0.50400001928E-02 0. -1.
        1   -1    0    0  501    0  0.00000000000E+00  0.00000000000E+00 -0.15275355382E+04  0.15275355382E+04  0.50400001928E-02 0.  1.
    10030    2    1    2    0    0  0.00000000000E+00  0.00000000000E+00  0.46825042819E+03  0.35233215047E+04  0.34920675769E+04 0.  0.
        2    1    3    3  502    0 -0.12324236987E+04 -0.83799550922E+02 -0.10109139291E+04  0.15961946968E+04  0.25500000920E-02 0.  1.
       -2    1    3    3    0  502  0.12324236987E+04  0.83799550922E+02  0.14791643573E+04  0.19271268079E+04  0.25500000920E-02 0. -1.
</event>
<event>
 5   0  0.1098171E-07  0.3514261E+04  0.7818609E-02  0.8110419E-01
       -1   -1    0    0    0  501  0.00000000000E+00  0.00000000000E+00  0.12424643589E+04  0.12424643589E+04  0.50400001928E-02 0.  1.
        1   -1    0    0  501    0  0.00000000000E+00  0.00000000000E+00 -0.24849871619E+04  0.24849871619E+04  0.50400001928E-02 0. -1.
    10030    2    1    2    0    0  0.00000000000E+00  0.00000000000E+00 -0.12425228030E+04  0.37274515208E+04  0.35142612202E+04 0.  0.
        4    1    3    3  502    0 -0.69025661685E+03 -0.69590573564E+03  0.92555211606E+03  0.13481050858E+04  0.12699999809E+01 0.  1.
       -4    1    3    3    0  502  0.69025661685E+03  0.69590573564E+03 -0.21680749191E+04  0.23793464350E+04  0.12699999809E+01 0. -1.
</event>
<event>
 5   0  0.1013863E-07  0.3494097E+04  0.7818609E-02  0.8115190E-01
        1   -1    0    0  501    0  0.00000000000E+00  0.00000000000E+00  0.21328985366E+04  0.21328985366E+04  0.50400001928E-02 0.  1.
       -1   -1    0    0    0  501  0.00000000000E+00  0.00000000000E+00 -0.14310002104E+04  0.14310002104E+04  0.50400001928E-02 0. -1.
    10030    2    1    2    0    0  0.00000000000E+00  0.00000000000E+00  0.70189832617E+03  0.35638987471E+04  0.34940968817E+04 0.  0.
        5    1    3    3  502    0  0.10331624163E+04 -0.11344595300E+04  0.12029403381E+04  0.19497462786E+04  0.46999998093E+01 0.  1.
       -5    1    3    3    0  502 -0.10331624163E+04  0.11344595300E+04 -0.50104201188E+03  0.16141524685E+04  0.46999998093E+01 0. -1.
</event>
<event>
 5   0  0.3190185E-07  0.3501262E+04  0.7818609E-02  0.8113491E-01
        2   -1    0    0  501    0  0.00000000000E+00  0.00000000000E+00  0.20884730701E+04  0.20884730701E+04  0.25500000920E-02 0.  1.
       -2   -1    0    0    0  501  0.00000000000E+00  0.00000000000E+00 -0.14674396562E+04  0.14674396562E+04  0.25500000920E-02 0. -1.
    10030    2    1    2    0    0  0.00000000000E+00  0.00000000000E+00  0.62103341388E+03  0.35559127263E+04  0.35012616035E+04 0.  0.
        1    1    3    3  502    0 -0.47829955215E+03  0.95593986952E+03 -0.10975278862E+04  0.15320440453E+04  0.50400001928E-02 0. -1.
       -1    1    3    3    0  502  0.47829955215E+03 -0.95593986952E+03  0.17185613001E+04  0.20238686810E+04  0.50400001928E-02 0.  1.
</event>
<event>
 5   0  0.3190112E-07  0.3529867E+04  0.7818609E-02  0.8106748E-01
       -2   -1    0    0    0  501  0.00000000000E+00  0.00000000000E+00  0.27847715126E+04  0.27847715126E+04  0.25500000920E-02 0.  1.
        2   -1    0    0  501    0  0.00000000000E+00  0.00000000000E+00 -0.11185804436E+04  0.11185804436E+04  0.25500000920E-02 0. -1.
    10030    2    1    2    0    0  0.00000000000E+00  0.00000000000E+00  0.16661910690E+04  0.39033519562E+04  0.35298673935E+04 0.  0.
        5    1    3    3  502    0 -0.11761063278E+04 -0.13584039830E+03 -0.61432517307E+03  0.13338276562E+04  0.46999998093E+01 0. -1.
       -5    1    3    3    0  502  0.11761063278E+04  0.13584039830E+03  0.22805162421E+04  0.25695243001E+04  0.46999998093E+01 0.  1.
</event>
<event>
 5   0  0.2180451E-07  0.3286099E+04  0.7818609E-02  0.8166442E-01
       -2   -1    0    0    0  501  0.00000000000E+00  0.00000000000E+00  0.13042891844E+04  0.13042891844E+04  0.25500000920E-02 0.  1.
        2   -1    0    0  501    0  0.00000000000E+00  0.00000000000E+00 -0.20697951223E+04  0.20697951223E+04  0.25500000920E-02 0. -1.
    10030    2    1    2    0    0  0.00000000000E+00  0.00000000000E+00 -0.76550593791E+03  0.33740843067E+04  0.32860988372E+04 0.  0.
        4    1    3    3  502    0  0.13326619034E+03 -0.14845131443E+04  0.32718652770E+03  0.15259724079E+04  0.12699999809E+01 0.  1.
       -4    1    3    3    0  502 -0.13326619034E+03  0.14845131443E+04 -0.10926924656E+04  0.18481118987E+04  0.12699999809E+01 0. -1.
</event>
<event>
 5   0  0.1013863E-07  0.3491257E+04  0.7818609E-02  0.8115865E-01
       -1   -1    0    0    0  501  0.00000000000E+00  0.00000000000E+00  0.18708837718E+04  0.18708837718E+04  0.50400001928E-02 0. -1.
        1   -1    0    0  501    0  0.00000000000E+00  0.00000000000E+00 -0.16287594053E+04  0.16287594053E+04  0.50400001928E-02 0.  1.
    10030    2    1    2    0    0  0.00000000000E+00  0.00000000000E+00  0.24212436650E+03  0.34996431771E+04  0.34912573893E+04 0.  0.
        5    1    3    3  502    0  0.16371983713E+04 -0.18183169517E+02 -0.48574157608E+03  0.17078396011E+04  0.46999998093E+01 0. -1.
       -5    1    3    3    0  502 -0.16371983713E+04  0.18183169517E+02  0.72786594258E+03  0.17918035760E+04  0.46999998093E+01 0.  1.
</event>
<event>
 5   0  0.1072381E-07  0.3488026E+04  0.7818609E-02  0.8116634E-01
       -1   -1    0    0    0  501  0.00000000000E+00  0.00000000000E+00  0.23538200101E+04  0.23538200101E+04  0.50400001928E-02 0.  1.
        1   -1    0    0  501    0  0.00000000000E+00  0.00000000000E+00 -0.12921892982E+04  0.12921892982E+04  0.50400001928E-02 0. -1.
    10030    2    1    2    0    0  0.00000000000E+00  0.00000000000E+00  0.10616307119E+04  0.36460093083E+04  0.34880258181E+04 0.  0.
        1    1    3    3  502    0  0.23814606138E+03  0.13518824729E+04  0.16553103915E+04  0.21504307149E+04  0.50400001928E-02 0.  1.
       -1    1    3    3    0  502 -0.23814606138E+03 -0.13518824729E+04 -0.59367967958E+03  0.14955785934E+04  0.50400001928E-02 0. -1.
</event>
<event>
 5   0  0.3190112E-07  0.3509405E+04  0.7818609E-02  0.8111565E-01
       -2   -1    0    0    0  501  0.00000000000E+00  0.00000000000E+00  0.11649461254E+04  0.11649461254E+04  0.25500000920E-02 0.  1.
        2   -1    0    0  501    0  0.00000000000E+00  0.00000000000E+00 -0.26430240734E+04  0.26430240734E+04  0.25500000920E-02 0. -1.
    10030    2    1    2    0    0  0.00000000000E+00  0.00000000000E+00 -0.14780779480E+04  0.38079701988E+04  0.35094048804E+04 0.  0.
        5    1    3    3  502    0 -0.13250751803E+04  0.51964791432E+03 -0.18525510953E+04  0.23361990153E+04  0.46999998093E+01 0.  1.
       -5    1    3    3    0  502  0.13250751803E+04 -0.51964791432E+03  0.37447314737E+03  0.14717711834E+04  0.46999998093E+01 0. -1.
</event>
<event>
 5   0  0.1013863E-07  0.3557410E+04  0.7818609E-02  0.8100318E-01
       -1   -1    0    0    0  501  0.00000000000E+00  0.00000000000E+00  0.16378381558E+04  0.16378381558E+04  0.50400001928E-02 0.  1.
        1   -1    0    0  501    0  0.00000000000E+00  0.00000000000E+00 -0.19316877983E+04  0.19316877983E+04  0.50400001928E-02 0. -1.
    10030    2    1    2    0    0  0.00000000000E+00  0.00000000000E+00 -0.29384964244E+03  0.35695259541E+04  0.35574102834E+04 0.  0.
        2    1    3    3  502    0  0.69815715046E+03 -0.16060750487E+04  0.16540931689E+03  0.17590510825E+04  0.25500000920E-02 0.  1.
       -2    1    3    3    0  502 -0.69815715046E+03  0.16060750487E+04 -0.45925895933E+03  0.18104748716E+04  0.25500000920E-02 0. -1.
</event>
<event>
 5   0  0.1033796E-07  0.3515926E+04  0.7818609E-02  0.8110026E-01
       -1   -1    0    0    0  501  0.00000000000E+00  0.00000000000E+00  0.17823982301E+04  0.17823982301E+04  0.50400001928E-02 0. -1.
        1   -1    0    0  501    0  0.00000000000E+00  0.00000000000E+00 -0.17338626240E+04  0.17338626240E+04  0.50400001928E-02 0.  1.
    10030    2    1    2    0    0  0.00000000000E+00  0.00000000000E+00  0.48535606093E+02  0.35162608541E+04  0.35159258651E+04 0.  0.
        3    1    3    3  502    0  0.10918165015E+04  0.32931519772E+03 -0.13137392914E+04  0.17396616649E+04  0.10100000352E+00 0.  1.
       -3    1    3    3    0  502 -0.10918165015E+04 -0.32931519772E+03  0.13622748975E+04  0.17765991892E+04  0.10100000352E+00 0. -1.
</event>
<event>
 5   0  0.3190185E-07  0.3499201E+04  0.7818609E-02  0.8113979E-01
       -2   -1    0    0    0  501  0.00000000000E+00  0.00000000000E+00  0.12870406301E+04  0.12870406301E+04  0.25500000920E-02 0. -1.
        2   -1    0    0  501    0  0.00000000000E+00  0.00000000000E+00 -0.23784037998E+04  0.23784037998E+04  0.25500000920E-02 0.  1.
    10030    2    1    2    0    0  0.00000000000E+00  0.00000000000E+00 -0.10913631698E+04  0.36654444299E+04  0.34992012375E+04 0.  0.
        1    1    3    3  502    0 -0.12000249091E+04 -0.12705011416E+04 -0.63250100115E+03  0.18585721535E+04  0.50400001928E-02 0.  1.
       -1    1    3    3    0  502  0.12000249091E+04  0.12705011416E+04 -0.45886216862E+03  0.18068722764E+04  0.50400001928E-02 0. -1.
</event>
<event>
 5   0  0.1013863E-07  0.3496766E+04  0.7818609E-02  0.8114557E-01
       -1   -1    0    0    0  501  0.00000000000E+00  0.00000000000E+00  0.13413551643E+04  0.13413551643E+04  0.50400001928E-02 0. -1.
        1   -1    0    0  501    0  0.00000000000E+00  0.00000000000E+00 -0.22789210716E+04  0.22789210716E+04  0.50400001928E-02 0.  1.
    10030    2    1    2    0    0  0.00000000000E+00  0.00000000000E+00 -0.93756590726E+03  0.36202762359E+04  0.34967656762E+04 0.  0.
        2    1    3    3  502    0 -0.10844358776E+04 -0.53972060052E+03  0.83652001635E+03  0.14720955258E+04  0.25500000920E-02 0. -1.
       -2    1    3    3    0  502  0.10844358776E+04  0.53972060052E+03 -0.17740859236E+04  0.21481807102E+04  0.25500000920E-02 0.  1.
</event>
<event>
 5   0  0.1098171E-07  0.3499702E+04  0.7818609E-02  0.8113860E-01
       -1   -1    0    0    0  501  0.00000000000E+00  0.00000000000E+00  0.29714468641E+04  0.29714468641E+04  0.50400001928E-02 0. -1.
        1   -1    0    0  501    0  0.00000000000E+00  0.00000000000E+00 -0.10304673905E+04  0.10304673905E+04  0.50400001928E-02 0.  1.
    10030    2    1    2    0    0  0.00000000000E+00  0.00000000000E+00  0.19409794736E+04  0.40019142547E+04  0.34997023280E+04 0.  0.
        4    1    3    3  502    0 -0.21605468876E+03  0.13290437549E+04  0.22484211810E+04  0.26207701828E+04  0.12699999809E+01 0. -1.
       -4    1    3    3    0  502  0.21605468876E+03 -0.13290437549E+04 -0.30744170744E+03  0.13811440719E+04  0.12699999809E+01 0.  1.
</event>
<event>
 5   0  0.2180451E-07  0.3497811E+04  0.7818609E-02  0.8114309E-01
        2   -1    0    0  501    0  0.00000000000E+00  0.00000000000E+00  0.20177014061E+04  0.20177014061E+04  0.25500000920E-02 0.  1.
       -2   -1    0    0    0  501  0.00000000000E+00  0.00000000000E+00 -0.15159181007E+04  0.15159181007E+04  0.25500000920E-02 0. -1.
    10030    2    1    2    0    0  0.00000000000E+00  0.00000000000E+00  0.50178330538E+03  0.35336195067E+04  0.34978107915E+04 0.  0.
        4    1    3    3  502    0 -0.14431951785E+04 -0.39116339035E+03 -0.66550418430E+03  0.16366791235E+04  0.12699999809E+01 0. -1.
       -4    1    3    3    0  502  0.14431951785E+04  0.39116339035E+03  0.11672874897E+04  0.18969403832E+04  0.12699999809E+01 0.  1.
</event>
<event>
 5   0  0.1013863E-07  0.3474216E+04  0.7818609E-02  0.8119928E-01
        1   -1    0    0  501    0  0.00000000000E+00  0.00000000000E+00  0.20051930500E+04  0.20051930500E+04  0.50400001928E-02 0.  1.
       -1   -1    0    0    0  501  0.00000000000E+00  0.00000000000E+00 -0.15048646138E+04  0.15048646138E+04  0.50400001928E-02 0. -1.
    10030    2    1    2    0    0  0.00000000000E+00  0.00000000000E+00  0.50032843626E+03  0.35100576638E+04  0.34742159200E+04 0.  0.
        5    1    3    3  502    0 -0.11038970572E+04 -0.91223276848E+03  0.12435497339E+04  0.18966273665E+04  0.46999998093E+01 0.  1.
       -5    1    3    3    0  502  0.11038970572E+04  0.91223276848E+03 -0.74322129764E+03  0.16134302972E+04  0.46999998093E+01 0. -1.
</event>
<event>
 5   0  0.1013863E-07  0.3511560E+04  0.7818609E-02  0.8111056E-01
       -1   -1    0    0    0  501  0.00000000000E+00  0.00000000000E+00  0.14866012792E+04  0.14866012792E+04  0.50400001928E-02 0.  1.
        1   -1    0    0  501    0  0.00000000000E+00  0.00000000000E+00 -0.20736985390E+04  0.20736985390E+04  0.50400001928E-02 0. -1.
    10030    2    1    2    0    0  0.00000000000E+00  0.00000000000E+00 -0.58709725981E+03  0.35602998182E+04  0.35115597108E+04 0.  0.
        5    1    3    3  502    0 -0.60498734891E+03  0.15850571501E+04 -0.75184584109E+03  0.18557236109E+04  0.46999998093E+01 0. -1.
       -5    1    3    3    0  502  0.60498734891E+03 -0.15850571501E+04  0.16474858128E+03  0.17045762073E+04  0.46999998093E+01 0.  1.
</event>
<event>
 5   0  0.1013863E-07  0.3495361E+04  0.7818609E-02  0.8114890E-01
        1   -1    0    0  501    0  0.00000000000E+00  0.00000000000E+00  0.18703821958E+04  0.18703821958E+04  0.50400001928E-02 0. -1.
       -1   -1    0    0    0  501  0.00000000000E+00  0.00000000000E+00 -0.16330286376E+04  0.16330286376E+04  0.50400001928E-02 0.  1.
    10030    2    1    2    0    0  0.00000000000E+00  0.00000000000E+00  0.23735355821E+03  0.35034108334E+04  0.34953613198E+04 0.  0.
        2    1    3    3  502    0 -0.46433301437E+03  0.16033632189E+04 -0.40021121738E+03  0.17165511290E+04  0.25500000920E-02 0. -1.
       -2    1    3    3    0  502  0.46433301437E+03 -0.16033632189E+04  0.63756477559E+03  0.17868597044E+04  0.25500000920E-02 0.  1.
</event>
<event>
 5   0  0.2180451E-07  0.3485932E+04  0.7818609E-02  0.8117132E-01
       -2   -1    0    0    0  501  0.00000000000E+00  0.00000000000E+00  0.12582872640E+04  0.12582872640E+04  0.25500000920E-02 0.  1.
        2   -1    0    0  501    0  0.00000000000E+00  0.00000000000E+00 -0.24143373928E+04  0.24143373928E+04  0.25500000920E-02 0. -1.
    10030    2    1    2    0    0  0.00000000000E+00  0.00000000000E+00 -0.11560501288E+04  0.36726246568E+04  0.34859317218E+04 0.  0.
        4    1    3    3  502    0  0.28628593929E+03 -0.34375793028E+03  0.11967711844E+04  0.12776509830E+04  0.12699999809E+01 0.  1.
       -4    1    3    3    0  502 -0.28628593929E+03  0.34375793028E+03 -0.23528213132E+04  0.23949736738E+04  0.12699999809E+01 0. -1.
</event>
<event>
 5   0  0.1013863E-07  0.3474970E+04  0.7818609E-02  0.8119748E-01
       -1   -1    0    0    0  501  0.00000000000E+00  0.00000000000E+00  0.11033026341E+04  0.11033026341E+04  0.50400001928E-02 0. -1.
        1   -1    0    0  501    0  0.00000000000E+00  0.00000000000E+00 -0.27361974531E+04  0.27361974531E+04  0.50400001928E-02 0.  1.
    10030    2    1    2    0    0  0.00000000000E+00  0.00000000000E+00 -0.16328948190E+04  0.38395000872E+04  0.34749698459E+04 0.  0.
        2    1    3    3  502    0  0.10753207987E+04  0.66504776953E+03  0.50031104990E+03  0.13597479555E+04  0.25500000920E-02 0. -1.
       -2    1    3    3    0  502 -0.10753207987E+04 -0.66504776953E+03 -0.21332058689E+04  0.24797521317E+04  0.25500000920E-02 0.  1.
</event>
<event>
 5   0  0.3190185E-07  0.3452258E+04  0.7818609E-02  0.8125198E-01
        2   -1    0    0  501    0  0.00000000000E+00  0.00000000000E+00  0.26154431271E+04  0.26154431271E+04  0.25500000920E-02 0. -1.
       -2   -1    0    0    0  501  0.00000000000E+00  0.00000000000E+00 -0.11392031608E+04  0.11392031608E+04  0.25500000920E-02 0.  1.
    10030    2    1    2    0    0  0.00000000000E+00  0.00000000000E+00  0.14762399663E+04  0.37546462880E+04  0.34522578568E+04 0.  0.
        1    1    3    3  502    0  0.52077462261E+03 -0.16454251691E+04  0.70565792343E+03  0.18645598139E+04  0.50400001928E-02 0. -1.
       -1    1    3    3    0  502 -0.52077462261E+03  0.16454251691E+04  0.77058204288E+03  0.18900864741E+04  0.50400001928E-02 0.  1.
</event>
<event>
 5   0  0.3190185E-07  0.3509846E+04  0.7818609E-02  0.8111461E-01
        2   -1    0    0  501    0  0.00000000000E+00  0.00000000000E+00  0.17106113445E+04  0.17106113445E+04  0.25500000920E-02 0.  1.
       -2   -1    0    0    0  501  0.00000000000E+00  0.00000000000E+00 -0.18003823554E+04  0.18003823554E+04  0.25500000920E-02 0. -1.
    10030    2    1    2    0    0  0.00000000000E+00  0.00000000000E+00 -0.89771010824E+02  0.35109936999E+04  0.35098458551E+04 0.  0.
        1    1    3    3  502    0  0.64631633631E+03 -0.10530638618E+04 -0.12915218490E+04  0.17873715311E+04  0.50400001928E-02 0. -1.
       -1    1    3    3    0  502 -0.64631633631E+03  0.10530638618E+04  0.12017508382E+04  0.17236221688E+04  0.50400001928E-02 0.  1.
</event>
<event>
 5   0  0.3119048E-07  0.3493381E+04  0.7818609E-02  0.8115360E-01
       -2   -1    0    0    0  501  0.00000000000E+00  0.00000000000E+00  0.14635215779E+04  0.14635215779E+04  0.25500000920E-02 0.  1.
        2   -1    0    0  501    0  0.00000000000E+00  0.00000000000E+00 -0.20846482048E+04  0.20846482048E+04  0.25500000920E-02 0. -1.
    10030    2    1    2    0    0  0.00000000000E+00  0.00000000000E+00 -0.62112662691E+03  0.35481697827E+04  0.34933809583E+04 0.  0.
        3    1    3    3  502    0  0.14325491005E+04 -0.73309035347E+03  0.37928644328E+03  0.16533228989E+04  0.10100000352E+00 0.  1.
       -3    1    3    3    0  502 -0.14325491005E+04  0.73309035347E+03 -0.10004130702E+04  0.18948468838E+04  0.10100000352E+00 0. -1.
</event>
<event>
 5   0  0.1072381E-07  0.3500380E+04  0.7818609E-02  0.8113700E-01
        1   -1    0    0  501    0  0.00000000000E+00  0.00000000000E+00  0.24359922978E+04  0.24359922979E+04  0.50400001928E-02 0.  1.
       -1   -1    0    0    0  501  0.00000000000E+00  0.00000000000E+00 -0.12574607827E+04  0.12574607827E+04  0.50400001928E-02 0. -1.
    10030    2    1    2    0    0  0.00000000000E+00  0.00000000000E+00  0.11785315151E+04  0.36934530806E+04  0.35003798546E+04 0.  0.
        1    1    3    3  502    0  0.12710296083E+04  0.17430146026E+03 -0.66688952032E+03  0.14459041796E+04  0.50400001928E-02 0. -1.
       -1    1    3    3    0  502 -0.12710296083E+04 -0.17430146026E+03  0.18454210355E+04  0.22475489010E+04  0.50400001928E-02 0.  1.
</event>
<event>
 5   0  0.1033796E-07  0.3500873E+04  0.7818609E-02  0.8113583E-01
       -1   -1    0    0    0  501  0.00000000000E+00  0.00000000000E+00  0.28901599512E+04  0.28901599512E+04  0.50400001928E-02 0.  1.
        1   -1    0    0  501    0  0.00000000000E+00  0.00000000000E+00 -0.10601585762E+04  0.10601585762E+04  0.50400001928E-02 0. -1.
    10030    2    1    2    0    0  0.00000000000E+00  0.00000000000E+00  0.18300013749E+04  0.39503185274E+04  0.35008729534E+04 0.  0.
        3    1    3    3  502    0  0.81369730848E+03  0.45128923553E+03 -0.75799779579E+03  0.12001358059E+04  0.10100000352E+00 0. -1.
       -3    1    3    3    0  502 -0.81369730848E+03 -0.45128923553E+03  0.25879991707E+04  0.27501827215E+04  0.10100000352E+00 0.  1.
</event>
<event>
 5   0  0.3190185E-07  0.3498255E+04  0.7818609E-02  0.8114204E-01
       -2   -1    0    0    0  501  0.00000000000E+00  0.00000000000E+00  0.18690201427E+04  0.18690201427E+04  0.25500000920E-02 0.  1.
        2   -1    0    0  501    0  0.00000000000E+00  0.00000000000E+00 -0.16369260275E+04  0.16369260275E+04  0.25500000920E-02 0. -1.
    10030    2    1    2    0    0  0.00000000000E+00  0.00000000000E+00  0.23209411513E+03  0.35059461702E+04  0.34982554038E+04 0.  0.
        1    1    3    3  502    0 -0.47683463168E+03  0.16802608850E+04  0.22033524224E+02  0.17467493764E+04  0.50400001928E-02 0. -1.
       -1    1    3    3    0  502  0.47683463168E+03 -0.16802608850E+04  0.21006059091E+03  0.17591967938E+04  0.50400001928E-02 0.  1.
</event>
<event>
 5   0  0.1033796E-07  0.3489492E+04  0.7818609E-02  0.8116285E-01
       -1   -1    0    0    0  501  0.00000000000E+00  0.00000000000E+00  0.17985230117E+04  0.17985230117E+04  0.50400001928E-02 0. -1.
        1   -1    0    0  501    0  0.00000000000E+00  0.00000000000E+00 -0.16925773019E+04  0.16925773019E+04  0.50400001928E-02 0.  1.
    10030    2    1    2    0    0  0.00000000000E+00  0.00000000000E+00  0.10594570985E+03  0.34911003136E+04  0.34894923565E+04 0.  0.
        3    1    3    3  502    0 -0.83143285643E+03 -0.57789292900E+02  0.15864932602E+04  0.17920884666E+04  0.10100000352E+00 0. -1.
       -3    1    3    3    0  502  0.83143285643E+03  0.57789292900E+02 -0.14805475504E+04  0.16990118470E+04  0.10100000352E+00 0.  1.
</event>
<event>
 5   0  0.3219205E-07  0.3507627E+04  0.7818609E-02  0.8111985E-01
       -2   -1    0    0    0  501  0.00000000000E+00  0.00000000000E+00  0.16701684742E+04  0.16701684742E+04  0.25500000920E-02 0. -1.
        2   -1    0    0  501    0  0.00000000000E+00  0.00000000000E+00 -0.18416476525E+04  0.18416476525E+04  0.25500000920E-02 0.  1.
    10030    2    1    2    0    0  0.00000000000E+00  0.00000000000E+00 -0.17147917838E+03  0.35118161267E+04  0.35076270325E+04 0.  0.
        2    1    3    3  502    0  0.91383576428E+03 -0.14540153902E+04 -0.44198090620E+03  0.17733030425E+04  0.25500000920E-02 0.  1.
       -2    1    3    3    0  502 -0.91383576428E+03  0.14540153902E+04  0.27050172782E+03  0.17385130842E+04  0.25500000920E-02 0. -1.
</event>
<event>
 5   0  0.1072381E-07  0.3496910E+04  0.7818609E-02  0.8114523E-01
       -1   -1    0    0    0  501  0.00000000000E+00  0.00000000000E+00  0.13253897511E+04  0.13253897511E+04  0.50400001928E-02 0. -1.
        1   -1    0    0  501    0  0.00000000000E+00  0.00000000000E+00 -0.23065623920E+04  0.23065623920E+04  0.50400001928E-02 0.  1.
    10030    2    1    2    0    0  0.00000000000E+00  0.00000000000E+00 -0.98117264093E+03  0.36319521430E+04  0.34969095811E+04 0.  0.
        1    1    3    3  502    0  0.90754328402E+03  0.96563272764E+03 -0.16752538778E+04  0.21360142631E+04  0.50400001928E-02 0.  1.
       -1    1    3    3    0  502 -0.90754328402E+03 -0.96563272764E+03  0.69408123692E+03  0.14959378799E+04  0.50400001928E-02 0. -1.
</event>
<event>
 5   0  0.1072381E-07  0.3544435E+04  0.7818609E-02  0.8103339E-01
       -1   -1    0    0    0  501  0.00000000000E+00  0.00000000000E+00  0.14571555107E+04  0.14571555107E+04  0.50400001928E-02 0.  1.
        1   -1    0    0  501    0  0.00000000000E+00  0.00000000000E+00 -0.21554014047E+04  0.21554014047E+04  0.50400001928E-02 0. -1.
    10030    2    1    2    0    0  0.00000000000E+00  0.00000000000E+00 -0.69824589404E+03  0.36125569154E+04  0.35444350944E+04 0.  0.
        1    1    3    3  502    0 -0.17608251327E+04 -0.16298913433E+03 -0.46835170141E+03  0.18293233509E+04  0.50400001928E-02 0. -1.
       -1    1    3    3    0  502  0.17608251327E+04  0.16298913433E+03 -0.22989419262E+03  0.17832335645E+04  0.50400001928E-02 0.  1.
</event>
<event>
 5   0  0.1013863E-07  0.3506904E+04  0.7818609E-02  0.8112156E-01
       -1   -1    0    0    0  501  0.00000000000E+00  0.00000000000E+00  0.24009983682E+04  0.24009983682E+04  0.50400001928E-02 0. -1.
        1   -1    0    0  501    0  0.00000000000E+00  0.00000000000E+00 -0.12805483314E+04  0.12805483314E+04  0.50400001928E-02 0.  1.
    10030    2    1    2    0    0  0.00000000000E+00  0.00000000000E+00  0.11204500368E+04  0.36815466997E+04  0.35069043068E+04 0.  0.
        2    1    3    3  502    0  0.51296477195E+03  0.16361377210E+04  0.94525245979E+03  0.19579534500E+04  0.25500000920E-02 0.  1.
       -2    1    3    3    0  502 -0.51296477195E+03 -0.16361377210E+04  0.17519757704E+03  0.17235932497E+04  0.25500000920E-02 0. -1.
</event>
<event>
 5   0  0.2180451E-07  0.3490728E+04  0.7818609E-02  0.8115991E-01
       -2   -1    0    0    0  501  0.00000000000E+00  0.00000000000E+00  0.13326747950E+04  0.13326747950E+04  0.25500000920E-02 0.  1.
        2   -1    0    0  501    0  0.00000000000E+00  0.00000000000E+00 -0.22858507261E+04  0.22858507261E+04  0.25500000920E-02 0. -1.
    10030    2    1    2    0    0  0.00000000000E+00  0.00000000000E+00 -0.95317593111E+03  0.36185255210E+04  0.34907280889E+04 0.  0.
        4    1    3    3  502    0 -0.16587587448E+04 -0.32552590262E+03 -0.92706215719E+03  0.19279246725E+04  0.12699999809E+01 0. -1.
       -4    1    3    3    0  502  0.16587587448E+04  0.32552590262E+03 -0.26113773920E+02  0.16906008485E+04  0.12699999809E+01 0.  1.
</event>
<event>
 5   0  0.1033796E-07  0.3493782E+04  0.7818609E-02  0.8115265E-01
        1   -1    0    0  501    0  0.00000000000E+00  0.00000000000E+00  0.23642900485E+04  0.23642900485E+04  0.50400001928E-02 0.  1.
       -1   -1    0    0    0  501  0.00000000000E+00  0.00000000000E+00 -0.12907165202E+04  0.12907165202E+04  0.50400001928E-02 0. -1.
    10030    2    1    2    0    0  0.00000000000E+00  0.00000000000E+00  0.10735735283E+04  0.36550065687E+04  0.34937820334E+04 0.  0.
        3    1    3    3  502    0  0.14019325447E+04  0.10412742423E+04  0.58311706064E+03  0.18411117359E+04  0.10100000352E+00 0.  1.
       -3    1    3    3    0  502 -0.14019325447E+04 -0.10412742423E+04  0.49045646764E+03  0.18138948328E+04  0.10100000352E+00 0. -1.
</event>
<event>
 5   0  0.1013863E-07  0.3498713E+04  0.7818609E-02  0.8114095E-01
       -1   -1    0    0    0  501  0.00000000000E+00  0.00000000000E+00  0.22025956447E+04  0.22025956448E+04  0.50400001928E-02 0. -1.
        1   -1    0    0  501    0  0.00000000000E+00  0.00000000000E+00 -0.13893825241E+04  0.13893825241E+04  0.50400001928E-02 0.  1.
    10030    2    1    2    0    0  0.00000000000E+00  0.00000000000E+00  0.81321312061E+03  0.35919781689E+04  0.34987128471E+04 0.  0.
        5    1    3    3  502    0 -0.16771176594E+04 -0.15059396037E+03 -0.80188720003E+02  0.16857800881E+04  0.46999998093E+01 0. -1.
       -5    1    3    3    0  502  0.16771176594E+04  0.15059396037E+03  0.89340184062E+03  0.19061980808E+04  0.46999998093E+01 0.  1.
</event>
<event>
 5   0  0.1013863E-07  0.3507973E+04  0.7818609E-02  0.8111903E-01
       -1   -1    0    0    0  501  0.00000000000E+00  0.00000000000E+00  0.19444407018E+04  0.19444407018E+04  0.50400001928E-02 0.  1.
        1   -1    0    0  501    0  0.00000000000E+00  0.00000000000E+00 -0.15821868707E+04  0.15821868707E+04  0.50400001928E-02 0. -1.
    10030    2    1    2    0    0  0.00000000000E+00  0.00000000000E+00  0.36225383113E+03  0.35266275724E+04  0.35079729470E+04 0.  0.
        2    1    3    3  502    0  0.13485115908E+04 -0.40292514809E+03 -0.87116584374E+03  0.16552226777E+04  0.25500000920E-02 0. -1.
       -2    1    3    3    0  502 -0.13485115908E+04  0.40292514809E+03  0.12334196749E+04  0.18714048947E+04  0.25500000920E-02 0.  1.
</event>
<event>
 5   0  0.3219205E-07  0.3523893E+04  0.7818609E-02  0.8108151E-01
       -2   -1    0    0    0  501  0.00000000000E+00  0.00000000000E+00  0.19188346439E+04  0.19188346439E+04  0.25500000920E-02 0.  1.
        2   -1    0    0  501    0  0.00000000000E+00  0.00000000000E+00 -0.16178857208E+04  0.16178857208E+04  0.25500000920E-02 0. -1.
    10030    2    1    2    0    0  0.00000000000E+00  0.00000000000E+00  0.30094892308E+03  0.35367203646E+04  0.35238928308E+04 0.  0.
        2    1    3    3  502    0  0.15622772466E+04  0.69132418414E+03 -0.28215830307E+03  0.17315463121E+04  0.25500000920E-02 0. -1.
       -2    1    3    3    0  502 -0.15622772466E+04 -0.69132418414E+03  0.58310722615E+03  0.18051740526E+04  0.25500000920E-02 0.  1.
</event>
<event>
 5   0  0.1013863E-07  0.3500773E+04  0.7818609E-02  0.8113607E-01
        3   -1    0    0  501    0  0.00000000000E+00  0.00000000000E+00  0.16621908892E+04  0.16621908922E+04  0.10100000352E+00 0. -1.
       -3   -1    0    0    0  501  0.00000000000E+00  0.00000000000E+00 -0.18432620685E+04  0.18432620713E+04  0.10100000352E+00 0.  1.
    10030    2    1    2    0    0  0.00000000000E+00  0.00000000000E+00 -0.18107117934E+03  0.35054529635E+04  0.35007733014E+04 0.  0.
        4    1    3    3  502    0 -0.31507549634E+03 -0.90493867013E+03  0.13762314413E+04  0.16769618833E+04  0.12699999809E+01 0. -1.
       -4    1    3    3    0  502  0.31507549634E+03  0.90493867013E+03 -0.15573026207E+04  0.18284910802E+04  0.12699999809E+01 0.  1.
</event>
<event>
 5   0  0.2180451E-07  0.3500244E+04  0.7818609E-02  0.8113732E-01
        2   -1    0    0  501    0  0.00000000000E+00  0.00000000000E+00  0.23543965514E+04  0.23543965514E+04  0.25500000920E-02 0.  1.
       -2   -1    0    0    0  501  0.00000000000E+00  0.00000000000E+00 -0.13009395589E+04  0.13009395589E+04  0.25500000920E-02 0. -1.
    10030    2    1    2    0    0  0.00000000000E+00  0.00000000000E+00  0.10534569925E+04  0.36553361103E+04  0.35002443406E+04 0.  0.
        4    1    3    3  502    0 -0.15961822377E+04 -0.26177087686E+03 -0.17116699138E+03  0.16265366518E+04  0.12699999809E+01 0.  1.
       -4    1    3    3    0  502  0.15961822377E+04  0.26177087686E+03  0.12246239839E+04  0.20287994585E+04  0.12699999809E+01 0. -1.
</event>
<event>
 5   0  0.2180451E-07  0.3494266E+04  0.7818609E-02  0.8115150E-01
        2   -1    0    0  501    0  0.00000000000E+00  0.00000000000E+00  0.16067112671E+04  0.16067112671E+04  0.25500000920E-02 0. -1.
       -2   -1    0    0    0  501  0.00000000000E+00  0.00000000000E+00 -0.18998276944E+04  0.18998276944E+04  0.25500000920E-02 0.  1.
    10030    2    1    2    0    0  0.00000000000E+00  0.00000000000E+00 -0.29311642732E+03  0.35065389614E+04  0.34942664821E+04 0.  0.
        4    1    3    3  502    0  0.12286819488E+04 -0.86852276841E+03  0.74452546300E+03  0.16787825674E+04  0.12699999809E+01 0.  1.
       -4    1    3    3    0  502 -0.12286819488E+04  0.86852276841E+03 -0.10376418903E+04  0.18277563941E+04  0.12699999809E+01 0. -1.
</event>
<event>
 5   0  0.1098171E-07  0.3617974E+04  0.7818609E-02  0.8086387E-01
       -1   -1    0    0    0  501  0.00000000000E+00  0.00000000000E+00  0.23700083044E+04  0.23700083044E+04  0.50400001928E-02 0. -1.
        1   -1    0    0  501    0  0.00000000000E+00  0.00000000000E+00 -0.13807689779E+04  0.13807689779E+04  0.50400001928E-02 0.  1.
    10030    2    1    2    0    0  0.00000000000E+00  0.00000000000E+00  0.98923932646E+03  0.37507772823E+04  0.36179739878E+04 0.  0.
        4    1    3    3  502    0 -0.12942720040E+04 -0.51894011385E+03  0.16893057513E+04  0.21904781205E+04  0.12699999809E+01 0. -1.
       -4    1    3    3    0  502  0.12942720040E+04  0.51894011385E+03 -0.70006642481E+03  0.15602991618E+04  0.12699999809E+01 0.  1.
</event>
<event>
 5   0  0.3219205E-07  0.3499331E+04  0.7818609E-02  0.8113948E-01
        2   -1    0    0  501    0  0.00000000000E+00  0.00000000000E+00  0.13679234413E+04  0.13679234413E+04  0.25500000920E-02 0.  1.
       -2   -1    0    0    0  501  0.00000000000E+00  0.00000000000E+00 -0.22379394421E+04  0.22379394421E+04  0.25500000920E-02 0. -1.
    10030    2    1    2    0    0  0.00000000000E+00  0.00000000000E+00 -0.87001600076E+03  0.36058628834E+04  0.34993312636E+04 0.  0.
        2    1    3    3  502    0 -0.20869331494E+02 -0.93127247165E+03  0.10911708531E+04  0.14346977996E+04  0.25500000920E-02 0.  1.
       -2    1    3    3    0  502  0.20869331494E+02  0.93127247165E+03 -0.19611868539E+04  0.21711650838E+04  0.25500000920E-02 0. -1.
</event>
<event>
 5   0  0.1013863E-07  0.3486764E+04  0.7818609E-02  0.8116934E-01
       -3   -1    0    0    0  501  0.00000000000E+00  0.00000000000E+00  0.12029995220E+04  0.12029995263E+04  0.10100000352E+00 0.  1.
        3   -1    0    0  501    0  0.00000000000E+00  0.00000000000E+00 -0.25265014017E+04  0.25265014038E+04  0.10100000352E+00 0. -1.
    10030    2    1    2    0    0  0.00000000000E+00  0.00000000000E+00 -0.13235018797E+04  0.37295009300E+04  0.34867635368E+04 0.  0.
        5    1    3    3  502    0  0.15910139712E+03  0.17071478324E+04 -0.32403151967E+03  0.17449027171E+04  0.46999998093E+01 0.  1.
       -5    1    3    3    0  502 -0.15910139712E+03 -0.17071478324E+04 -0.99947036004E+03  0.19845982130E+04  0.46999998093E+01 0. -1.
</event>
<event>
 5   0  0.2180451E-07  0.3500150E+04  0.7818609E-02  0.8113754E-01
       -2   -1    0    0    0  501  0.00000000000E+00  0.00000000000E+00  0.13277135959E+04  0.13277135959E+04  0.25500000920E-02 0.  1.
        2   -1    0    0  501    0  0.00000000000E+00  0.00000000000E+00 -0.23067950269E+04  0.23067950269E+04  0.25500000920E-02 0. -1.
    10030    2    1    2    0    0  0.00000000000E+00  0.00000000000E+00 -0.97908143101E+03  0.36345086229E+04  0.35001503512E+04 0.  0.
        4    1    3    3  502    0  0.31513937385E+03  0.16936220799E+04 -0.80974941339E+03  0.19035136721E+04  0.12699999809E+01 0. -1.
       -4    1    3    3    0  502 -0.31513937385E+03 -0.16936220799E+04 -0.16933201762E+03  0.17309949508E+04  0.12699999809E+01 0.  1.
</event>
<event>
 5   0  0.3119048E-07  0.3492242E+04  0.7818609E-02  0.8115631E-01
        2   -1    0    0  501    0  0.00000000000E+00  0.00000000000E+00  0.16435293506E+04  0.16435293506E+04  0.25500000920E-02 0. -1.
       -2   -1    0    0    0  501  0.00000000000E+00  0.00000000000E+00 -0.18551162469E+04  0.18551162469E+04  0.25500000920E-02 0.  1.
    10030    2    1    2    0    0  0.00000000000E+00  0.00000000000E+00 -0.21158689634E+03  0.34986455975E+04  0.34922416873E+04 0.  0.
        3    1    3    3  502    0  0.89927592619E+03 -0.15507533045E+03 -0.15972114963E+04  0.18395189925E+04  0.10100000352E+00 0.  1.
       -3    1    3    3    0  502 -0.89927592619E+03  0.15507533045E+03  0.13856245999E+04  0.16591266051E+04  0.10100000352E+00 0. -1.
</event>
<event>
 5   0  0.3190112E-07  0.3482867E+04  0.7818609E-02  0.8117862E-01
        2   -1    0    0  501    0  0.00000000000E+00  0.00000000000E+00  0.20754298113E+04  0.20754298113E+04  0.25500000920E-02 0. -1.
       -2   -1    0    0    0  501  0.00000000000E+00  0.00000000000E+00 -0.14611864787E+04  0.14611864787E+04  0.25500000920E-02 0.  1.
    10030    2    1    2    0    0  0.00000000000E+00  0.00000000000E+00  0.61424333253E+03  0.35366162900E+04  0.34828666227E+04 0.  0.
        5    1    3    3  502    0  0.14789348296E+04  0.96070520207E+01  0.12406722902E+04  0.19304482245E+04  0.46999998093E+01 0.  1.
       -5    1    3    3    0  502 -0.14789348296E+04 -0.96070520207E+01 -0.62642895765E+03  0.16061680655E+04  0.46999998093E+01 0. -1.
</event>
<event>
 5   0  0.3119048E-07  0.3506750E+04  0.7818609E-02  0.8112192E-01
        2   -1    0    0  501    0  0.00000000000E+00  0.00000000000E+00  0.17823549203E+04  0.17823549203E+04  0.25500000920E-02 0. -1.
       -2   -1    0    0    0  501  0.00000000000E+00  0.00000000000E+00 -0.17248659464E+04  0.17248659464E+04  0.25500000920E-02 0.  1.
    10030    2    1    2    0    0  0.00000000000E+00  0.00000000000E+00  0.57488973910E+02  0.35072208667E+04  0.35067496669E+04 0.  0.
        3    1    3    3  502    0  0.12972452749E+04 -0.16580343430E+02  0.12083956984E+04  0.17729468083E+04  0.10100000352E+00 0. -1.
       -3    1    3    3    0  502 -0.12972452749E+04  0.16580343430E+02 -0.11509067245E+04  0.17342740584E+04  0.10100000352E+00 0.  1.
</event>
<event>
 5   0  0.1013863E-07  0.3496075E+04  0.7818609E-02  0.8114721E-01
       -1   -1    0    0    0  501  0.00000000000E+00  0.00000000000E+00  0.11808614137E+04  0.11808614137E+04  0.50400001928E-02 0.  1.
        1   -1    0    0  501    0  0.00000000000E+00  0.00000000000E+00 -0.25876320329E+04  0.25876320329E+04  0.50400001928E-02 0. -1.
    10030    2    1    2    0    0  0.00000000000E+00  0.00000000000E+00 -0.14067706193E+04  0.37684934466E+04  0.34960748393E+04 0.  0.
        5    1    3    3  502    0  0.36175418942E+02  0.16534727748E+04 -0.13134657567E+04  0.21119884616E+04  0.46999998093E+01 0.  1.
       -5    1    3    3    0  502 -0.36175418942E+02 -0.16534727748E+04 -0.93304862549E+02  0.16565049850E+04  0.46999998093E+01 0. -1.
</event>
<event>
 5   0  0.3190112E-07  0.3501795E+04  0.7818609E-02  0.8113365E-01
        2   -1    0    0  501    0  0.00000000000E+00  0.00000000000E+00  0.23035277651E+04  0.23035277651E+04  0.25500000920E-02 0. -1.
       -2   -1    0    0    0  501  0.00000000000E+00  0.00000000000E+00 -0.13308468738E+04  0.13308468738E+04  0.25500000920E-02 0.  1.
    10030    2    1    2    0    0  0.00000000000E+00  0.00000000000E+00  0.97268089131E+03  0.36343746390E+04  0.35017953824E+04 0.  0.
        5    1    3    3  502    0  0.93347300303E+03 -0.34545991982E+02  0.20233045517E+04  0.22285306082E+04  0.46999998093E+01 0. -1.
       -5    1    3    3    0  502 -0.93347300303E+03  0.34545991982E+02 -0.10506236604E+04  0.14058440307E+04  0.46999998093E+01 0.  1.
</event>
<event>
 5   0  0.2180451E-07  0.3516186E+04  0.7818609E-02  0.8109965E-01
       -2   -1    0    0    0  501  0.00000000000E+00  0.00000000000E+00  0.12875198203E+04  0.12875198203E+04  0.25500000920E-02 0. -1.
        2   -1    0    0  501    0  0.00000000000E+00  0.00000000000E+00 -0.24006546798E+04  0.24006546798E+04  0.25500000920E-02 0.  1.
    10030    2    1    2    0    0  0.00000000000E+00  0.00000000000E+00 -0.11131348595E+04  0.36881745002E+04  0.35161857073E+04 0.  0.
        4    1    3    3  502    0 -0.10388534634E+04 -0.91222965101E+02 -0.20411971488E+04  0.22921661286E+04  0.12699999809E+01 0.  1.
       -4    1    3    3    0  502  0.10388534634E+04  0.91222965101E+02  0.92806228929E+03  0.13960083716E+04  0.12699999809E+01 0. -1.
</event>
<event>
 5   0  0.1098171E-07  0.3504947E+04  0.7818609E-02  0.8112619E-01
       -1   -1    0    0    0  501  0.00000000000E+00  0.00000000000E+00  0.18036739906E+04  0.18036739907E+04  0.50400001928E-02 0. -1.
        1   -1    0    0  501    0  0.00000000000E+00  0.00000000000E+00 -0.17027263221E+04  0.17027263221E+04  0.50400001928E-02 0.  1.
    10030    2    1    2    0    0  0.00000000000E+00  0.00000000000E+00  0.10094766856E+03  0.35064003127E+04  0.35049468928E+04 0.  0.
        4    1    3    3  502    0  0.99890823844E+03  0.13215068930E+04  0.62251811120E+03  0.17696690507E+04  0.12699999809E+01 0. -1.
       -4    1    3    3    0  502 -0.99890823844E+03 -0.13215068930E+04 -0.52157044264E+03  0.17367312621E+04  0.12699999809E+01 0.  1.
</event>
<event>
 5   0  0.3119048E-07  0.3517009E+04  0.7818609E-02  0.8109771E-01
        2   -1    0    0  501    0  0.00000000000E+00  0.00000000000E+00  0.23101870282E+04  0.23101870282E+04  0.25500000920E-02 0.  1.
       -2   -1    0    0    0  501  0.00000000000E+00  0.00000000000E+00 -0.13385657597E+04  0.13385657597E+04  0.25500000920E-02 0. -1.
    10030    2    1    2    0    0  0.00000000000E+00  0.00000000000E+00  0.97162126854E+03  0.36487527879E+04  0.35170085325E+04 0.  0.
        3    1    3    3  502    0  0.87696240492E+03 -0.95990742888E+03  0.17141605125E+04  0.21514719623E+04  0.10100000352E+00 0.  1.
       -3    1    3    3    0  502 -0.87696240492E+03  0.95990742888E+03 -0.74253924395E+03  0.14972808256E+04  0.10100000352E+00 0. -1.
</event>
<event>
 5   0  0.1033796E-07  0.3480769E+04  0.7818609E-02  0.8118363E-01
       -1   -1    0    0    0  501  0.00000000000E+00  0.00000000000E+00  0.14848733189E+04  0.14848733189E+04  0.50400001928E-02 0.  1.
        1   -1    0    0  501    0  0.00000000000E+00  0.00000000000E+00 -0.20398629982E+04  0.20398629982E+04  0.50400001928E-02 0. -1.
    10030    2    1    2    0    0  0.00000000000E+00  0.00000000000E+00 -0.55498967936E+03  0.35247363171E+04  0.34807689612E+04 0.  0.
        3    1    3    3  502    0  0.97157944225E+03 -0.55106558690E+03 -0.16290063683E+04  0.19751712969E+04  0.10100000352E+00 0. -1.
       -3    1    3    3    0  502 -0.97157944225E+03  0.55106558690E+03  0.10740166890E+04  0.15495650203E+04  0.10100000352E+00 0.  1.
</event>
<event>
 5   0  0.1033796E-07  0.3495532E+04  0.7818609E-02  0.8114850E-01
        1   -1    0    0  501    0  0.00000000000E+00  0.00000000000E+00  0.20230837835E+04  0.20230837835E+04  0.50400001928E-02 0.  1.
       -1   -1    0    0    0  501  0.00000000000E+00  0.00000000000E+00 -0.15099154146E+04  0.15099154146E+04  0.50400001928E-02 0. -1.
    10030    2    1    2    0    0  0.00000000000E+00  0.00000000000E+00  0.51316836892E+03  0.35329991982E+04  0.34955316562E+04 0.  0.
        3    1    3    3  502    0 -0.33609876694E+03 -0.42781013730E+03  0.19353211501E+04  0.20103362552E+04  0.10100000352E+00 0.  1.
       -3    1    3    3    0  502  0.33609876694E+03  0.42781013730E+03 -0.14221527812E+04  0.15226629430E+04  0.10100000352E+00 0. -1.
</event>
<event>
 5   0  0.1013863E-07  0.3552376E+04  0.7818609E-02  0.8101488E-01
        1   -1    0    0  501    0  0.00000000000E+00  0.00000000000E+00  0.16540467904E+04  0.16540467904E+04  0.50400001928E-02 0. -1.
       -1   -1    0    0    0  501  0.00000000000E+00  0.00000000000E+00 -0.19073489658E+04  0.19073489658E+04  0.50400001928E-02 0.  1.
    10030    2    1    2    0    0  0.00000000000E+00  0.00000000000E+00 -0.25330217542E+03  0.35613957562E+04  0.35523763511E+04 0.  0.
        5    1    3    3  502    0 -0.10126955139E+04 -0.13329631683E+04 -0.72185817765E+03  0.18230316318E+04  0.46999998093E+01 0.  1.
       -5    1    3    3    0  502  0.10126955139E+04  0.13329631683E+04  0.46855600223E+03  0.17383641244E+04  0.46999998093E+01 0. -1.
</event>
<event>
 5   0  0.3219205E-07  0.3512933E+04  0.7818609E-02  0.8110732E-01
        2   -1    0    0  501    0  0.00000000000E+00  0.00000000000E+00  0.26452161753E+04  0.26452161753E+04  0.25500000920E-02 0. -1.
       -2   -1    0    0    0  501  0.00000000000E+00  0.00000000000E+00 -0.11663223360E+04  0.11663223360E+04  0.25500000920E-02 0.  1.
    10030    2    1    2    0    0  0.00000000000E+00  0.00000000000E+00  0.14788938392E+04  0.38115385113E+04  0.35129330815E+04 0.  0.
        2    1    3    3  502    0  0.89364980318E+03  0.72448654874E+03  0.21795528461E+04  0.24645367392E+04  0.25500000920E-02 0. -1.
       -2    1    3    3    0  502 -0.89364980318E+03 -0.72448654874E+03 -0.70065900687E+03  0.13470017721E+04  0.25500000920E-02 0.  1.
</event>
<event>
 5   0  0.3190112E-07  0.3486606E+04  0.7818609E-02  0.8116972E-01
        2   -1    0    0  501    0  0.00000000000E+00  0.00000000000E+00  0.16126706624E+04  0.16126706624E+04  0.25500000920E-02 0.  1.
       -2   -1    0    0    0  501  0.00000000000E+00  0.00000000000E+00 -0.18845166990E+04  0.18845166990E+04  0.25500000920E-02 0. -1.
    10030    2    1    2    0    0  0.00000000000E+00  0.00000000000E+00 -0.27184603658E+03  0.34971873614E+04  0.34866056808E+04 0.  0.
        5    1    3    3  502    0  0.16666147800E+04 -0.46162945298E+03  0.84690241779E+02  0.17314448024E+04  0.46999998093E+01 0.  1.
       -5    1    3    3    0  502 -0.16666147800E+04  0.46162945298E+03 -0.35653627836E+03  0.17657425590E+04  0.46999998093E+01 0. -1.
</event>
<event>
 5   0  0.1098171E-07  0.3498200E+04  0.7818609E-02  0.8114217E-01
       -1   -1    0    0    0  501  0.00000000000E+00  0.00000000000E+00  0.18292730174E+04  0.18292730174E+04  0.50400001928E-02 0. -1.
        1   -1    0    0  501    0  0.00000000000E+00  0.00000000000E+00 -0.16724410679E+04  0.16724410679E+04  0.50400001928E-02 0.  1.
    10030    2    1    2    0    0  0.00000000000E+00  0.00000000000E+00  0.15683194955E+03  0.35017140853E+04  0.34982002908E+04 0.  0.
        4    1    3    3  502    0 -0.56333828922E+03 -0.14920686332E+04  0.79728136670E+03  0.17830530067E+04  0.12699999809E+01 0. -1.
       -4    1    3    3    0  502  0.56333828922E+03  0.14920686332E+04 -0.64044941715E+03  0.17186610786E+04  0.12699999809E+01 0.  1.
</event>
<event>
 5   0  0.2180451E-07  0.3494629E+04  0.7818609E-02  0.8115064E-01
       -2   -1    0    0    0  501  0.00000000000E+00  0.00000000000E+00  0.15049039618E+04  0.15049039618E+04  0.25500000920E-02 0. -1.
        2   -1    0    0  501    0  0.00000000000E+00  0.00000000000E+00 -0.20287721970E+04  0.20287721970E+04  0.25500000920E-02 0.  1.
    10030    2    1    2    0    0  0.00000000000E+00  0.00000000000E+00 -0.52386823516E+03  0.35336761587E+04  0.34946286308E+04 0.  0.
        4    1    3    3  502    0  0.69456772075E+03 -0.13708565219E+04 -0.11027502056E+04  0.18914892416E+04  0.12699999809E+01 0. -1.
       -4    1    3    3    0  502 -0.69456772075E+03  0.13708565219E+04  0.57888197045E+03  0.16421869171E+04  0.12699999809E+01 0.  1.
</event>
<event>
 5   0  0.1013863E-07  0.3487784E+04  0.7818609E-02  0.8116691E-01
        1   -1    0    0  501    0  0.00000000000E+00  0.00000000000E+00  0.21622209023E+04  0.21622209023E+04  0.50400001928E-02 0.  1.
       -1   -1    0    0    0  501  0.00000000000E+00  0.00000000000E+00 -0.14064976251E+04  0.14064976251E+04  0.50400001928E-02 0. -1.
    10030    2    1    2    0    0  0.00000000000E+00  0.00000000000E+00  0.75572327724E+03  0.35687185274E+04  0.34877835735E+04 0.  0.
        5    1    3    3  502    0 -0.95607893919E+03  0.94647776846E+03 -0.75749486205E+03  0.15439325310E+04  0.46999998093E+01 0. -1.
       -5    1    3    3    0  502  0.95607893919E+03 -0.94647776846E+03  0.15132181393E+04  0.20247859964E+04  0.46999998093E+01 0.  1.
</event>
<event>
 5   0  0.3219205E-07  0.3497227E+04  0.7818609E-02  0.8114447E-01
        2   -1    0    0  501    0  0.00000000000E+00  0.00000000000E+00  0.23706034393E+04  0.23706034393E+04  0.25500000920E-02 0. -1.
       -2   -1    0    0    0  501  0.00000000000E+00  0.00000000000E+00 -0.12898187809E+04  0.12898187809E+04  0.25500000920E-02 0.  1.
    10030    2    1    2    0    0  0.00000000000E+00  0.00000000000E+00  0.10807846584E+04  0.36604222202E+04  0.34972268088E+04 0.  0.
        2    1    3    3  502    0  0.31006792639E+03 -0.70310841978E+03  0.21844034281E+04  0.23156255970E+04  0.25500000920E-02 0. -1.
       -2    1    3    3    0  502 -0.31006792639E+03  0.70310841978E+03 -0.11036187697E+04  0.13447966232E+04  0.25500000920E-02 0.  1.
</event>
<event>
 5   0  0.3119048E-07  0.3511863E+04  0.7818609E-02  0.8110984E-01
       -2   -1    0    0    0  501  0.00000000000E+00  0.00000000000E+00  0.19549879334E+04  0.19549879334E+04  0.25500000920E-02 0.  1.
        2   -1    0    0  501    0  0.00000000000E+00  0.00000000000E+00 -0.15771432095E+04  0.15771432096E+04  0.25500000920E-02 0. -1.
    10030    2    1    2    0    0  0.00000000000E+00  0.00000000000E+00  0.37784472384E+03  0.35321311429E+04  0.35118632911E+04 0.  0.
        3    1    3    3  502    0  0.36178940911E+03  0.15533323974E+04 -0.54986630800E+03  0.16870347004E+04  0.10100000352E+00 0.  1.
       -3    1    3    3    0  502 -0.36178940911E+03 -0.15533323974E+04  0.92771103183E+03  0.18450964425E+04  0.10100000352E+00 0. -1.
</event>
<event>
 5   0  0.1013863E-07  0.3504883E+04  0.7818609E-02  0.8112634E-01
       -1   -1    0    0    0  501  0.00000000000E+00  0.00000000000E+00  0.14972056571E+04  0.14972056571E+04  0.50400001928E-02 0. -1.
        1   -1    0    0  501    0  0.00000000000E+00  0.00000000000E+00 -0.20511885960E+04  0.20511885960E+04  0.50400001928E-02 0.  1.
    10030    2    1    2    0    0  0.00000000000E+00  0.00000000000E+00 -0.55398293896E+03  0.35483942531E+04  0.35048829765E+04 0.  0.
        2    1    3    3  502    0  0.11987475569E+04  0.78940346404E+03  0.74092451821E+03  0.16152778943E+04  0.25500000920E-02 0. -1.
       -2    1    3    3    0  502 -0.11987475569E+04 -0.78940346404E+03 -0.12949074572E+04  0.19331163588E+04  0.25500000920E-02 0.  1.
</event>
<event>
 5   0  0.1013863E-07  0.3504517E+04  0.7818609E-02  0.8112720E-01
        1   -1    0    0  501    0  0.00000000000E+00  0.00000000000E+00  0.26097059947E+04  0.26097059947E+04  0.50400001928E-02 0.  1.
       -1   -1    0    0    0  501  0.00000000000E+00  0.00000000000E+00 -0.11765346743E+04  0.11765346743E+04  0.50400001928E-02 0. -1.
    10030    2    1    2    0    0  0.00000000000E+00  0.00000000000E+00  0.14331713204E+04  0.37862406691E+04  0.35045168527E+04 0.  0.
        5    1    3    3  502    0 -0.37724414597E+03  0.17110595272E+04  0.69638350303E+03  0.18854733953E+04  0.46999998093E+01 0.  1.
       -5    1    3    3    0  502  0.37724414597E+03 -0.17110595272E+04  0.73678781737E+03  0.19007672738E+04  0.46999998093E+01 0. -1.
</event>
<event>
 5   0  0.3119048E-07  0.3501718E+04  0.7818609E-02  0.8113383E-01
        2   -1    0    0  501    0  0.00000000000E+00  0.00000000000E+00  0.20556696422E+04  0.20556696422E+04  0.25500000920E-02 0.  1.
       -2   -1    0    0    0  501  0.00000000000E+00  0.00000000000E+00 -0.14912452875E+04  0.14912452875E+04  0.25500000920E-02 0. -1.
    10030    2    1    2    0    0  0.00000000000E+00  0.00000000000E+00  0.56442435470E+03  0.35469149297E+04  0.35017182448E+04 0.  0.
        3    1    3    3  502    0 -0.16684507088E+04  0.37820856390E+03  0.65949545447E+03  0.18334949550E+04  0.10100000352E+00 0.  1.
       -3    1    3    3    0  502  0.16684507088E+04 -0.37820856390E+03 -0.95071099768E+02  0.17134199747E+04  0.10100000352E+00 0. -1.
</event>
<event>
 5   0  0.3119048E-07  0.3515077E+04  0.7818609E-02  0.8110226E-01
        2   -1    0    0  501    0  0.00000000000E+00  0.00000000000E+00  0.14363218849E+04  0.14363218849E+04  0.25500000920E-02 0. -1.
       -2   -1    0    0    0  501  0.00000000000E+00  0.00000000000E+00 -0.21505912059E+04  0.21505912059E+04  0.25500000920E-02 0.  1.
    10030    2    1    2    0    0  0.00000000000E+00  0.00000000000E+00 -0.71426932104E+03  0.35869130908E+04  0.35150767926E+04 0.  0.
        3    1    3    3  502    0  0.22403322550E+03 -0.22300376337E+03  0.14070759147E+04  0.14421456946E+04  0.10100000352E+00 0. -1.
       -3    1    3    3    0  502 -0.22403322550E+03  0.22300376337E+03 -0.21213452357E+04  0.21447673962E+04  0.10100000352E+00 0.  1.
</event>
<event>
 5   0  0.3219205E-07  0.3496660E+04  0.7818609E-02  0.8114582E-01
       -2   -1    0    0    0  501  0.00000000000E+00  0.00000000000E+00  0.14489348333E+04  0.14489348333E+04  0.25500000920E-02 0. -1.
        2   -1    0    0  501    0  0.00000000000E+00  0.00000000000E+00 -0.21095890972E+04  0.21095890972E+04  0.25500000920E-02 0.  1.
    10030    2    1    2    0    0  0.00000000000E+00  0.00000000000E+00 -0.66065426384E+03  0.35585239305E+04  0.34966596214E+04 0.  0.
        2    1    3    3  502    0  0.60817329869E+03  0.16339826728E+04 -0.46256055020E+03  0.18038116306E+04  0.25500000920E-02 0.  1.
       -2    1    3    3    0  502 -0.60817329869E+03 -0.16339826728E+04 -0.19809371364E+03  0.17547122999E+04  0.25500000920E-02 0. -1.
</event>
<event>
 5   0  0.1072381E-07  0.3514112E+04  0.7818609E-02  0.8110454E-01
        1   -1    0    0  501    0  0.00000000000E+00  0.00000000000E+00  0.22771849882E+04  0.22771849882E+04  0.50400001928E-02 0.  1.
       -1   -1    0    0    0  501  0.00000000000E+00  0.00000000000E+00 -0.13557292730E+04  0.13557292730E+04  0.50400001928E-02 0. -1.
    10030    2    1    2    0    0  0.00000000000E+00  0.00000000000E+00  0.92145571521E+03  0.36329142612E+04  0.35141123195E+04 0.  0.
        1    1    3    3  502    0  0.61358258096E+03 -0.69908825790E+03 -0.10803170234E+04  0.14255850894E+04  0.50400001928E-02 0. -1.
       -1    1    3    3    0  502 -0.61358258096E+03  0.69908825790E+03  0.20017727386E+04  0.22073291718E+04  0.50400001928E-02 0.  1.
</event>
<event>
 5   0  0.2180451E-07  0.3509288E+04  0.7818609E-02  0.8111592E-01
        2   -1    0    0  501    0  0.00000000000E+00  0.00000000000E+00  0.15574364581E+04  0.15574364581E+04  0.25500000920E-02 0. -1.
       -2   -1    0    0    0  501  0.00000000000E+00  0.00000000000E+00 -0.19768228333E+04  0.19768228333E+04  0.25500000920E-02 0.  1.
    10030    2    1    2    0    0  0.00000000000E+00  0.00000000000E+00 -0.41938637520E+03  0.35342592913E+04  0.35092882194E+04 0.  0.
        4    1    3    3  502    0  0.64475214837E+03 -0.15355124867E+04 -0.76613752126E+03  0.18331590886E+04  0.12699999809E+01 0.  1.
       -4    1    3    3    0  502 -0.64475214837E+03  0.15355124867E+04  0.34675114606E+03  0.17011002027E+04  0.12699999809E+01 0. -1.
</event>
<event>
 5   0  0.3190185E-07  0.3510805E+04  0.7818609E-02  0.8111234E-01
        2   -1    0    0  501    0  0.00000000000E+00  0.00000000000E+00  0.22192447251E+04  0.22192447251E+04  0.25500000920E-02 0.  1.
       -2   -1    0    0    0  501  0.00000000000E+00  0.00000000000E+00 -0.13885074594E+04  0.13885074594E+04  0.25500000920E-02 0. -1.
    10030    2    1    2    0    0  0.00000000000E+00  0.00000000000E+00  0.83073726571E+03  0.36077521845E+04  0.35108049533E+04 0.  0.
        1    1    3    3  502    0  0.27784368784E+02 -0.17537490445E+04  0.34248643551E+03  0.17870939093E+04  0.50400001928E-02 0.  1.
       -1    1    3    3    0  502 -0.27784368784E+02  0.17537490445E+04  0.48825083019E+03  0.18206582753E+04  0.50400001928E-02 0. -1.
</event>
<event>
 5   0  0.3190112E-07  0.3496437E+04  0.7818609E-02  0.8114635E-01
       -2   -1    0    0    0  501  0.00000000000E+00  0.00000000000E+00  0.16718210550E+04  0.16718210550E+04  0.25500000920E-02 0.  1.
        2   -1    0    0  501    0  0.00000000000E+00  0.00000000000E+00 -0.18281067524E+04  0.18281067524E+04  0.25500000920E-02 0. -1.
    10030    2    1    2    0    0  0.00000000000E+00  0.00000000000E+00 -0.15628569736E+03  0.34999278074E+04  0.34964366773E+04 0.  0.
        5    1    3    3  502    0 -0.59645531604E+03  0.13463985009E+04 -0.10212605441E+04  0.17920778600E+04  0.46999998093E+01 0. -1.
       -5    1    3    3    0  502  0.59645531604E+03 -0.13463985009E+04  0.86497484675E+03  0.17078499474E+04  0.46999998093E+01 0.  1.
</event>
<event>
 5   0  0.1098171E-07  0.3496067E+04  0.7818609E-02  0.8114723E-01
        1   -1    0    0  501    0  0.00000000000E+00  0.00000000000E+00  0.19373285882E+04  0.19373285882E+04  0.50400001928E-02 0.  1.
       -1   -1    0    0    0  501  0.00000000000E+00  0.00000000000E+00 -0.15772345023E+04  0.15772345023E+04  0.50400001928E-02 0. -1.
    10030    2    1    2    0    0  0.00000000000E+00  0.00000000000E+00  0.36009408589E+03  0.35145630906E+04  0.34960672143E+04 0.  0.
        4    1    3    3  502    0  0.24591843791E+02 -0.78025086589E+02 -0.15753085120E+04  0.15774318349E+04  0.12699999809E+01 0. -1.
       -4    1    3    3    0  502 -0.24591843791E+02  0.78025086589E+02  0.19354025979E+04  0.19371312557E+04  0.12699999809E+01 0.  1.
</event>
<event>
 5   0  0.2180451E-07  0.3496536E+04  0.7818609E-02  0.8114611E-01
        2   -1    0    0  501    0  0.00000000000E+00  0.00000000000E+00  0.21794019816E+04  0.21794019816E+04  0.25500000920E-02 0.  1.
       -2   -1    0    0    0  501  0.00000000000E+00  0.00000000000E+00 -0.14024218391E+04  0.14024218391E+04  0.25500000920E-02 0. -1.
    10030    2    1    2    0    0  0.00000000000E+00  0.00000000000E+00  0.77698014245E+03  0.35818238207E+04  0.34965359631E+04 0.  0.
        4    1    3    3  502    0  0.99823386012E+03 -0.29491785321E+03  0.18273843201E+04  0.21030412373E+04  0.12699999809E+01 0.  1.
       -4    1    3    3    0  502 -0.99823386012E+03  0.29491785321E+03 -0.10504041777E+04  0.14787825834E+04  0.12699999809E+01 0. -1.
</event>
<event>
 5   0  0.1013863E-07  0.3473319E+04  0.7818609E-02  0.8120142E-01
       -1   -1    0    0    0  501  0.00000000000E+00  0.00000000000E+00  0.20228184403E+04  0.20228184403E+04  0.50400001928E-02 0.  1.
        1   -1    0    0  501    0  0.00000000000E+00  0.00000000000E+00 -0.14909818550E+04  0.14909818550E+04  0.50400001928E-02 0. -1.
    10030    2    1    2    0    0  0.00000000000E+00  0.00000000000E+00  0.53183658533E+03  0.35138002953E+04  0.34733186381E+04 0.  0.
        5    1    3    3  502    0 -0.78797335915E+03 -0.65737245315E+03 -0.11514544409E+04  0.15423715429E+04  0.46999998093E+01 0. -1.
       -5    1    3    3    0  502  0.78797335915E+03  0.65737245315E+03  0.16832910262E+04  0.19714287524E+04  0.46999998093E+01 0.  1.
</event>
<event>
 5   0  0.1098171E-07  0.3463195E+04  0.7818609E-02  0.8122568E-01
       -1   -1    0    0    0  501  0.00000000000E+00  0.00000000000E+00  0.11664123886E+04  0.11664123886E+04  0.50400001928E-02 0.  1.
        1   -1    0    0  501    0  0.00000000000E+00  0.00000000000E+00 -0.25706430774E+04  0.25706430774E+04  0.50400001928E-02 0. -1.
    10030    2    1    2    0    0  0.00000000000E+00  0.00000000000E+00 -0.14042306888E+04  0.37370554660E+04  0.34631950174E+04 0.  0.
        4    1    3    3  502    0 -0.94429937827E+02 -0.13761652442E+04 -0.18316370145E+04  0.22929552020E+04  0.12699999809E+01 0. -1.
       -4    1    3    3    0  502  0.94429937827E+02  0.13761652442E+04  0.42740632570E+03  0.14441002640E+04  0.12699999809E+01 0.  1.
</event>
<event>
 5   0  0.3190185E-07  0.3568821E+04  0.7818609E-02  0.8097671E-01
        2   -1    0    0  501    0  0.00000000000E+00  0.00000000000E+00  0.17113885648E+04  0.17113885648E+04  0.25500000920E-02 0.  1.
       -2   -1    0    0    0  501  0.00000000000E+00  0.00000000000E+00 -0.18605478866E+04  0.18605478866E+04  0.25500000920E-02 0. -1.
    10030    2    1    2    0    0  0.00000000000E+00  0.00000000000E+00 -0.14915932177E+03  0.35719364514E+04  0.35688207449E+04 0.  0.
        1    1    3    3  502    0  0.58005577493E+03 -0.62879222668E+03 -0.16419212723E+04  0.18514183295E+04  0.50400001928E-02 0. -1.
       -1    1    3    3    0  502 -0.58005577493E+03  0.62879222668E+03  0.14927619506E+04  0.17205181218E+04  0.50400001928E-02 0.  1.
</event>
<event>
 5   0  0.1098171E-07  0.3485922E+04  0.7818609E-02  0.8117134E-01
       -1   -1    0    0    0  501  0.00000000000E+00  0.00000000000E+00  0.16766620302E+04  0.16766620302E+04  0.50400001928E-02 0.  1.
        1   -1    0    0  501    0  0.00000000000E+00  0.00000000000E+00 -0.18118818421E+04  0.18118818422E+04  0.50400001928E-02 0. -1.
    10030    2    1    2    0    0  0.00000000000E+00  0.00000000000E+00 -0.13521981193E+03  0.34885438724E+04  0.34859222527E+04 0.  0.
        4    1    3    3  502    0  0.75275263683E+03 -0.85217860820E+03  0.12543933984E+04  0.16930296286E+04  0.12699999809E+01 0.  1.
       -4    1    3    3    0  502 -0.75275263683E+03  0.85217860820E+03 -0.13896132103E+04  0.17955142438E+04  0.12699999809E+01 0. -1.
</event>
<event>
 5   0  0.1072381E-07  0.3424863E+04  0.7818609E-02  0.8131831E-01
       -1   -1    0    0    0  501  0.00000000000E+00  0.00000000000E+00  0.10973248117E+04  0.10973248117E+04  0.50400001928E-02 0. -1.
        1   -1    0    0  501    0  0.00000000000E+00  0.00000000000E+00 -0.26723376317E+04  0.26723376317E+04  0.50400001928E-02 0.  1.
    10030    2    1    2    0    0  0.00000000000E+00  0.00000000000E+00 -0.15750128199E+04  0.37696624434E+04  0.34248634359E+04 0.  0.
        1    1    3    3  502    0 -0.11927724145E+04  0.78331839844E+03  0.25443760201E+03  0.14494937873E+04  0.50400001928E-02 0. -1.
       -1    1    3    3    0  502  0.11927724145E+04 -0.78331839844E+03 -0.18294504220E+04  0.23201686561E+04  0.50400001928E-02 0.  1.
</event>
<event>
 5   0  0.1013863E-07  0.3498799E+04  0.7818609E-02  0.8114075E-01
       -1   -1    0    0    0  501  0.00000000000E+00  0.00000000000E+00  0.24934524862E+04  0.24934524862E+04  0.50400001928E-02 0.  1.
        1   -1    0    0  501    0  0.00000000000E+00  0.00000000000E+00 -0.12273736349E+04  0.12273736349E+04  0.50400001928E-02 0. -1.
    10030    2    1    2    0    0  0.00000000000E+00  0.00000000000E+00  0.12660788513E+04  0.37208261211E+04  0.34987985604E+04 0.  0.
        2    1    3    3  502    0 -0.22632590243E+03 -0.11685199786E+04 -0.73040173879E+03  0.13964773734E+04  0.25500000920E-02 0. -1.
       -2    1    3    3    0  502  0.22632590243E+03  0.11685199786E+04  0.19964805901E+04  0.23243487477E+04  0.25500000920E-02 0.  1.
</event>
<event>
 5   0  0.3190185E-07  0.3496978E+04  0.7818609E-02  0.8114506E-01
        2   -1    0    0  501    0  0.00000000000E+00  0.00000000000E+00  0.20569636538E+04  0.20569636538E+04  0.25500000920E-02 0.  1.
       -2   -1    0    0    0  501  0.00000000000E+00  0.00000000000E+00 -0.14862752125E+04  0.14862752125E+04  0.25500000920E-02 0. -1.
    10030    2    1    2    0    0  0.00000000000E+00  0.00000000000E+00  0.57068844131E+03  0.35432388663E+04  0.34969781765E+04 0.  0.
        1    1    3    3  502    0 -0.79181042025E+03  0.14447161368E+04  0.87879329575E+03  0.18672027513E+04  0.50400001928E-02 0. -1.
       -1    1    3    3    0  502  0.79181042025E+03 -0.14447161368E+04 -0.30810485444E+03  0.16760361151E+04  0.50400001928E-02 0.  1.
</event>
<event>
 5   0  0.1013863E-07  0.3493709E+04  0.7818609E-02  0.8115283E-01
        1   -1    0    0  501    0  0.00000000000E+00  0.00000000000E+00  0.27244780446E+04  0.27244780446E+04  0.50400001928E-02 0.  1.
       -1   -1    0    0    0  501  0.00000000000E+00  0.00000000000E+00 -0.11200309767E+04  0.11200309768E+04  0.50400001928E-02 0. -1.
    10030    2    1    2    0    0  0.00000000000E+00  0.00000000000E+00  0.16044470678E+04  0.38445090213E+04  0.34937085198E+04 0.  0.
        5    1    3    3  502    0  0.12380445745E+04 -0.12315346063E+04  0.75245071663E+03  0.19014825863E+04  0.46999998093E+01 0.  1.
       -5    1    3    3    0  502 -0.12380445745E+04  0.12315346063E+04  0.85199635121E+03  0.19430264351E+04  0.46999998093E+01 0. -1.
</event>
<event>
 5   0  0.3190185E-07  0.3472979E+04  0.7818609E-02  0.8120224E-01
        2   -1    0    0  501    0  0.00000000000E+00  0.00000000000E+00  0.17047036476E+04  0.17047036476E+04  0.25500000920E-02 0. -1.
       -2   -1    0    0    0  501  0.00000000000E+00  0.00000000000E+00 -0.17688677518E+04  0.17688677518E+04  0.25500000920E-02 0.  1.
    10030    2    1    2    0    0  0.00000000000E+00  0.00000000000E+00 -0.64164104222E+02  0.34735713993E+04  0.34729787264E+04 0.  0.
        1    1    3    3  502    0 -0.37503704982E+03  0.19979752801E+03  0.16518986753E+04  0.17056790655E+04  0.50400001928E-02 0. -1.
       -1    1    3    3    0  502  0.37503704982E+03 -0.19979752801E+03 -0.17160627795E+04  0.17678923339E+04  0.50400001928E-02 0.  1.
</event>
<event>
 5   0  0.3219205E-07  0.3569396E+04  0.7818609E-02  0.8097538E-01
        2   -1    0    0  501    0  0.00000000000E+00  0.00000000000E+00  0.23258542252E+04  0.23258542252E+04  0.25500000920E-02 0.  1.
       -2   -1    0    0    0  501  0.00000000000E+00  0.00000000000E+00 -0.13694528759E+04  0.13694528759E+04  0.25500000920E-02 0. -1.
    10030    2    1    2    0    0  0.00000000000E+00  0.00000000000E+00  0.95640134925E+03  0.36953071011E+04  0.35693964519E+04 0.  0.
        2    1    3    3  502    0  0.15110046840E+04 -0.91042465875E+03  0.19821753983E+03  0.17751896821E+04  0.25500000920E-02 0.  1.
       -2    1    3    3    0  502 -0.15110046840E+04  0.91042465875E+03  0.75818380942E+03  0.19201174191E+04  0.25500000920E-02 0. -1.
</event>
<event>
 5   0  0.2180451E-07  0.3506026E+04  0.7818609E-02  0.8112363E-01
        2   -1    0    0  501    0  0.00000000000E+00  0.00000000000E+00  0.20643270796E+04  0.20643270796E+04  0.25500000920E-02 0. -1.
       -2   -1    0    0    0  501  0.00000000000E+00  0.00000000000E+00 -0.14886471675E+04  0.14886471675E+04  0.25500000920E-02 0.  1.
    10030    2    1    2    0    0  0.00000000000E+00  0.00000000000E+00  0.57567991211E+03  0.35529742472E+04  0.35060260467E+04 0.  0.
        4    1    3    3  502    0  0.83137690350E+02  0.32322816381E+03 -0.14561535676E+04  0.14939120278E+04  0.12699999809E+01 0.  1.
       -4    1    3    3    0  502 -0.83137690350E+02 -0.32322816381E+03  0.20318334797E+04  0.20590622194E+04  0.12699999809E+01 0. -1.
</event>
<event>
 5   0  0.3190185E-07  0.3491757E+04  0.7818609E-02  0.8115746E-01
       -2   -1    0    0    0  501  0.00000000000E+00  0.00000000000E+00  0.25332562404E+04  0.25332562404E+04  0.25500000920E-02 0.  1.
        2   -1    0    0  501    0  0.00000000000E+00  0.00000000000E+00 -0.12032304281E+04  0.12032304281E+04  0.25500000920E-02 0. -1.
    10030    2    1    2    0    0  0.00000000000E+00  0.00000000000E+00  0.13300258123E+04  0.37364866685E+04  0.34917565726E+04 0.  0.
        1    1    3    3  502    0 -0.16523557918E+04 -0.52738593562E+03  0.45186545221E+03  0.17923721641E+04  0.50400001928E-02 0. -1.
       -1    1    3    3    0  502  0.16523557918E+04  0.52738593562E+03  0.87816036006E+03  0.19441145043E+04  0.50400001928E-02 0.  1.
</event>
<event>
 5   0  0.1072381E-07  0.3408395E+04  0.7818609E-02  0.8135849E-01
       -1   -1    0    0    0  501  0.00000000000E+00  0.00000000000E+00  0.16101452971E+04  0.16101452971E+04  0.50400001928E-02 0.  1.
        1   -1    0    0  501    0  0.00000000000E+00  0.00000000000E+00 -0.18037430637E+04  0.18037430638E+04  0.50400001928E-02 0. -1.
    10030    2    1    2    0    0  0.00000000000E+00  0.00000000000E+00 -0.19359776666E+03  0.34138883608E+04  0.34083945847E+04 0.  0.
        1    1    3    3  502    0  0.83677507504E+03  0.18977461100E+03  0.13780151057E+04  0.16233091390E+04  0.50400001928E-02 0.  1.
       -1    1    3    3    0  502 -0.83677507504E+03 -0.18977461100E+03 -0.15716128723E+04  0.17905792219E+04  0.50400001928E-02 0. -1.
</event>
<event>
 5   0  0.1013863E-07  0.3532715E+04  0.7818609E-02  0.8106080E-01
       -1   -1    0    0    0  501  0.00000000000E+00  0.00000000000E+00  0.22087996437E+04  0.22087996437E+04  0.50400001928E-02 0.  1.
        1   -1    0    0  501    0  0.00000000000E+00  0.00000000000E+00 -0.14125404051E+04  0.14125404051E+04  0.50400001928E-02 0. -1.
    10030    2    1    2    0    0  0.00000000000E+00  0.00000000000E+00  0.79625923852E+03  0.36213400488E+04  0.35327149580E+04 0.  0.
        5    1    3    3  502    0  0.16381767495E+04  0.61557727051E+03  0.15245449867E+03  0.17566510475E+04  0.46999998093E+01 0. -1.
       -5    1    3    3    0  502 -0.16381767495E+04 -0.61557727051E+03  0.64380473985E+03  0.18646890013E+04  0.46999998093E+01 0.  1.
</event>
<event>
 5   0  0.1013863E-07  0.3490131E+04  0.7818609E-02  0.8116133E-01
       -1   -1    0    0    0  501  0.00000000000E+00  0.00000000000E+00  0.15395959473E+04  0.15395959474E+04  0.50400001928E-02 0. -1.
        1   -1    0    0  501    0  0.00000000000E+00  0.00000000000E+00 -0.19779569172E+04  0.19779569172E+04  0.50400001928E-02 0.  1.
    10030    2    1    2    0    0  0.00000000000E+00  0.00000000000E+00 -0.43836096989E+03  0.35175528646E+04  0.34901314897E+04 0.  0.
        5    1    3    3  502    0  0.13545703750E+04 -0.43905891742E+03 -0.12358671375E+04  0.18854769438E+04  0.46999998093E+01 0.  1.
       -5    1    3    3    0  502 -0.13545703750E+04  0.43905891742E+03  0.79750616764E+03  0.16320759208E+04  0.46999998093E+01 0. -1.
</event>
<event>
 5   0  0.2180451E-07  0.3519319E+04  0.7818609E-02  0.8109227E-01
        2   -1    0    0  501    0  0.00000000000E+00  0.00000000000E+00  0.21478621339E+04  0.21478621339E+04  0.25500000920E-02 0. -1.
       -2   -1    0    0    0  501  0.00000000000E+00  0.00000000000E+00 -0.14416204443E+04  0.14416204443E+04  0.25500000920E-02 0.  1.
    10030    2    1    2    0    0  0.00000000000E+00  0.00000000000E+00  0.70624168955E+03  0.35894825782E+04  0.35193192318E+04 0.  0.
        4    1    3    3  502    0  0.12496249976E+04  0.57889864326E+03 -0.76403063312E+03  0.15749383147E+04  0.12699999809E+01 0.  1.
       -4    1    3    3    0  502 -0.12496249976E+04 -0.57889864326E+03  0.14702723227E+04  0.20145442635E+04  0.12699999809E+01 0. -1.
</event>
<event>
 5   0  0.3219205E-07  0.3496698E+04  0.7818609E-02  0.8114573E-01
        2   -1    0    0  501    0  0.00000000000E+00  0.00000000000E+00  0.16721831487E+04  0.16721831487E+04  0.25500000920E-02 0.  1.
       -2   -1    0    0    0  501  0.00000000000E+00  0.00000000000E+00 -0.18279843322E+04  0.18279843322E+04  0.25500000920E-02 0. -1.
    10030    2    1    2    0    0  0.00000000000E+00  0.00000000000E+00 -0.15580118346E+03  0.35001674809E+04  0.34966982120E+04 0.  0.
        2    1    3    3  502    0 -0.69033478247E+03 -0.14660058537E+04  0.57924852577E+03  0.17208323944E+04  0.25500000920E-02 0.  1.
       -2    1    3    3    0  502  0.69033478247E+03  0.14660058537E+04 -0.73504970923E+03  0.17793350865E+04  0.25500000920E-02 0. -1.
</event>
<event>
 5   0  0.3190112E-07  0.3506501E+04  0.7818609E-02  0.8112251E-01
       -2   -1    0    0    0  501  0.00000000000E+00  0.00000000000E+00  0.12126563784E+04  0.12126563784E+04  0.25500000920E-02 0.  1.
        2   -1    0    0  501    0  0.00000000000E+00  0.00000000000E+00 -0.25348384981E+04  0.25348384981E+04  0.25500000920E-02 0. -1.
    10030    2    1    2    0    0  0.00000000000E+00  0.00000000000E+00 -0.13221821197E+04  0.37474948765E+04  0.35065014319E+04 0.  0.
        5    1    3    3  502    0  0.96855048277E+03  0.14059445014E+04 -0.10873727345E+04  0.20241471124E+04  0.46999998093E+01 0.  1.
       -5    1    3    3    0  502 -0.96855048277E+03 -0.14059445014E+04 -0.23480938519E+03  0.17233477641E+04  0.46999998093E+01 0. -1.
</event>
<event>
 5   0  0.3190112E-07  0.3493591E+04  0.7818609E-02  0.8115310E-01
        2   -1    0    0  501    0  0.00000000000E+00  0.00000000000E+00  0.20999384822E+04  0.20999384822E+04  0.25500000920E-02 0.  1.
       -2   -1    0    0    0  501  0.00000000000E+00  0.00000000000E+00 -0.14530398923E+04  0.14530398923E+04  0.25500000920E-02 0. -1.
    10030    2    1    2    0    0  0.00000000000E+00  0.00000000000E+00  0.64689858990E+03  0.35529783745E+04  0.34935909240E+04 0.  0.
        5    1    3    3  502    0  0.33773714680E+03  0.31470973959E+03 -0.13898736605E+04  0.14645407071E+04  0.46999998093E+01 0. -1.
       -5    1    3    3    0  502 -0.33773714680E+03 -0.31470973959E+03  0.20367722504E+04  0.20884376674E+04  0.46999998093E+01 0.  1.
</event>
<event>
 5   0  0.2180451E-07  0.3509160E+04  0.7818609E-02  0.8111623E-01
       -2   -1    0    0    0  501  0.00000000000E+00  0.00000000000E+00  0.13224915880E+04  0.13224915880E+04  0.25500000920E-02 0.  1.
        2   -1    0    0  501    0  0.00000000000E+00  0.00000000000E+00 -0.23278413678E+04  0.23278413678E+04  0.25500000920E-02 0. -1.
    10030    2    1    2    0    0  0.00000000000E+00  0.00000000000E+00 -0.10053497797E+04  0.36503329558E+04  0.35091598009E+04 0.  0.
        4    1    3    3  502    0  0.16336445525E+04  0.61745276229E+03 -0.32704360976E+03  0.17767953099E+04  0.12699999809E+01 0.  1.
       -4    1    3    3    0  502 -0.16336445525E+04 -0.61745276229E+03 -0.67830616999E+03  0.18735376459E+04  0.12699999809E+01 0. -1.
</event>
<event>
 5   0  0.1098171E-07  0.3528308E+04  0.7818609E-02  0.8107114E-01
        1   -1    0    0  501    0  0.00000000000E+00  0.00000000000E+00  0.16489475255E+04  0.16489475255E+04  0.50400001928E-02 0.  1.
       -1   -1    0    0    0  501  0.00000000000E+00  0.00000000000E+00 -0.18874091358E+04  0.18874091358E+04  0.50400001928E-02 0. -1.
    10030    2    1    2    0    0  0.00000000000E+00  0.00000000000E+00 -0.23846161034E+03  0.35363566614E+04  0.35283075967E+04 0.  0.
        4    1    3    3  502    0  0.17368964554E+04  0.29981425337E+03 -0.44635701591E+02  0.17631482757E+04  0.12699999809E+01 0. -1.
       -4    1    3    3    0  502 -0.17368964554E+04 -0.29981425337E+03 -0.19382590874E+03  0.17732083857E+04  0.12699999809E+01 0.  1.
</event>
<event>
 5   0  0.1013863E-07  0.3492172E+04  0.7818609E-02  0.8115647E-01
        1   -1    0    0  501    0  0.00000000000E+00  0.00000000000E+00  0.20493359366E+04  0.20493359366E+04  0.50400001928E-02 0.  1.
       -1   -1    0    0    0  501  0.00000000000E+00  0.00000000000E+00 -0.14877097616E+04  0.14877097616E+04  0.50400001928E-02 0. -1.
    10030    2    1    2    0    0  0.00000000000E+00  0.00000000000E+00  0.56162617497E+03  0.35370456982E+04  0.34921724343E+04 0.  0.
        5    1    3    3  502    0 -0.16645880993E+04 -0.38394883450E+03 -0.85111346321E+02  0.17104199130E+04  0.46999998093E+01 0.  1.
       -5    1    3    3    0  502  0.16645880993E+04  0.38394883450E+03  0.64673752129E+03  0.18266257852E+04  0.46999998093E+01 0. -1.
</event>
<event>
 5   0  0.1072381E-07  0.3482419E+04  0.7818609E-02  0.8117969E-01
        1   -1    0    0  501    0  0.00000000000E+00  0.00000000000E+00  0.23199755942E+04  0.23199755942E+04  0.50400001928E-02 0. -1.
       -1   -1    0    0    0  501  0.00000000000E+00  0.00000000000E+00 -0.13068289354E+04  0.13068289354E+04  0.50400001928E-02 0.  1.
    10030    2    1    2    0    0  0.00000000000E+00  0.00000000000E+00  0.10131466588E+04  0.36268045296E+04  0.34824194095E+04 0.  0.
        1    1    3    3  502    0  0.16120171296E+04 -0.32976144617E+02  0.11911901446E+04  0.20046497482E+04  0.50400001928E-02 0. -1.
       -1    1    3    3    0  502 -0.16120171296E+04  0.32976144617E+02 -0.17804348577E+03  0.16221547815E+04  0.50400001928E-02 0.  1.
</event>
<event>
 5   0  0.1033796E-07  0.3458982E+04  0.7818609E-02  0.8123580E-01
        1   -1    0    0  501    0  0.00000000000E+00  0.00000000000E+00  0.23953400082E+04  0.23953400082E+04  0.50400001928E-02 0.  1.
       -1   -1    0    0    0  501  0.00000000000E+00  0.00000000000E+00 -0.12487326213E+04  0.12487326213E+04  0.50400001928E-02 0. -1.
    10030    2    1    2    0    0  0.00000000000E+00  0.00000000000E+00  0.11466073870E+04  0.36440726295E+04  0.34589820510E+04 0.  0.
        3    1    3    3  502    0  0.15291838641E+04  0.30486467199E+01  0.14244503074E+04  0.20898495814E+04  0.10100000352E+00 0.  1.
       -3    1    3    3    0  502 -0.15291838641E+04 -0.30486467199E+01 -0.27784292043E+03  0.15542230481E+04  0.10100000352E+00 0. -1.
</event>
<event>
 5   0  0.3190185E-07  0.3486567E+04  0.7818609E-02  0.8116981E-01
       -2   -1    0    0    0  501  0.00000000000E+00  0.00000000000E+00  0.16946314275E+04  0.16946314275E+04  0.25500000920E-02 0.  1.
        2   -1    0    0  501    0  0.00000000000E+00  0.00000000000E+00 -0.17933326559E+04  0.17933326559E+04  0.25500000920E-02 0. -1.
    10030    2    1    2    0    0  0.00000000000E+00  0.00000000000E+00 -0.98701228414E+02  0.34879640834E+04  0.34865672967E+04 0.  0.
        1    1    3    3  502    0 -0.45824103782E+03  0.83241149703E+03 -0.15114915219E+04  0.17853572108E+04  0.50400001928E-02 0. -1.
       -1    1    3    3    0  502  0.45824103782E+03 -0.83241149703E+03  0.14127902935E+04  0.17026068726E+04  0.50400001928E-02 0.  1.
</event>
<event>
 5   0  0.2180451E-07  0.3495805E+04  0.7818609E-02  0.8114785E-01
        2   -1    0    0  501    0  0.00000000000E+00  0.00000000000E+00  0.19928164833E+04  0.19928164833E+04  0.25500000920E-02 0. -1.
       -2   -1    0    0    0  501  0.00000000000E+00  0.00000000000E+00 -0.15330883487E+04  0.15330883487E+04  0.25500000920E-02 0.  1.
    10030    2    1    2    0    0  0.00000000000E+00  0.00000000000E+00  0.45972813465E+03  0.35259048320E+04  0.34958053330E+04 0.  0.
        4    1    3    3  502    0 -0.16219034593E+04  0.23553046623E+03 -0.38291678308E+03  0.16830544577E+04  0.12699999809E+01 0.  1.
       -4    1    3    3    0  502  0.16219034593E+04 -0.23553046623E+03  0.84264491773E+03  0.18428503743E+04  0.12699999809E+01 0. -1.
</event>
<event>
 5   0  0.1013863E-07  0.3477448E+04  0.7818609E-02  0.8119155E-01
       -1   -1    0    0    0  501  0.00000000000E+00  0.00000000000E+00  0.12104594305E+04  0.12104594305E+04  0.50400001928E-02 0.  1.
        1   -1    0    0  501    0  0.00000000000E+00  0.00000000000E+00 -0.24975313890E+04  0.24975313890E+04  0.50400001928E-02 0. -1.
    10030    2    1    2    0    0  0.00000000000E+00  0.00000000000E+00 -0.12870719585E+04  0.37079908195E+04  0.34774475829E+04 0.  0.
        5    1    3    3  502    0 -0.35616569455E+03 -0.62752032218E+03  0.10432707482E+04  0.12684919002E+04  0.46999998093E+01 0.  1.
       -5    1    3    3    0  502  0.35616569455E+03  0.62752032218E+03 -0.23303427067E+04  0.24394989193E+04  0.46999998093E+01 0. -1.
</event>
<event>
 5   0  0.2180451E-07  0.3498428E+04  0.7818609E-02  0.8114163E-01
       -2   -1    0    0    0  501  0.00000000000E+00  0.00000000000E+00  0.13280602520E+04  0.13280602520E+04  0.25500000920E-02 0. -1.
        2   -1    0    0  501    0  0.00000000000E+00  0.00000000000E+00 -0.23039238993E+04  0.23039238993E+04  0.25500000920E-02 0.  1.
    10030    2    1    2    0    0  0.00000000000E+00  0.00000000000E+00 -0.97586364738E+03  0.36319841513E+04  0.34984280780E+04 0.  0.
        4    1    3    3  502    0  0.81192684283E+03 -0.45937611687E+03 -0.20241154262E+04  0.22287432527E+04  0.12699999809E+01 0.  1.
       -4    1    3    3    0  502 -0.81192684283E+03  0.45937611687E+03  0.10482517788E+04  0.14032408986E+04  0.12699999809E+01 0. -1.
</event>
<event>
 5   0  0.1013863E-07  0.3504963E+04  0.7818609E-02  0.8112615E-01
        1   -1    0    0  501    0  0.00000000000E+00  0.00000000000E+00  0.20710664314E+04  0.20710664314E+04  0.50400001928E-02 0.  1.
       -1   -1    0    0    0  501  0.00000000000E+00  0.00000000000E+00 -0.14829034592E+04  0.14829034592E+04  0.50400001928E-02 0. -1.
    10030    2    1    2    0    0  0.00000000000E+00  0.00000000000E+00  0.58816297213E+03  0.35539698906E+04  0.35049630956E+04 0.  0.
        2    1    3    3  502    0  0.24917088438E+02 -0.10410649717E+03 -0.14795852777E+04  0.14834526005E+04  0.25500000920E-02 0. -1.
       -2    1    3    3    0  502 -0.24917088438E+02  0.10410649717E+03  0.20677482498E+04  0.20705172901E+04  0.25500000920E-02 0.  1.
</event>
<event>
 5   0  0.3119048E-07  0.3494934E+04  0.7818609E-02  0.8114991E-01
        2   -1    0    0  501    0  0.00000000000E+00  0.00000000000E+00  0.22971140316E+04  0.22971140316E+04  0.25500000920E-02 0.  1.
       -2   -1    0    0    0  501  0.00000000000E+00  0.00000000000E+00 -0.13293383340E+04  0.13293383340E+04  0.25500000920E-02 0. -1.
    10030    2    1    2    0    0  0.00000000000E+00  0.00000000000E+00  0.96777569760E+03  0.36264523656E+04  0.34949344713E+04 0.  0.
        3    1    3    3  502    0  0.11661168886E+04 -0.15769777131E+03 -0.85660312212E+03  0.14554951405E+04  0.10100000352E+00 0. -1.
       -3    1    3    3    0  502 -0.11661168886E+04  0.15769777131E+03  0.18243788197E+04  0.21709572251E+04  0.10100000352E+00 0.  1.
</event>
<event>
 5   0  0.3119048E-07  0.3506858E+04  0.7818609E-02  0.8112167E-01
        2   -1    0    0  501    0  0.00000000000E+00  0.00000000000E+00  0.14986192899E+04  0.14986192899E+04  0.25500000920E-02 0.  1.
       -2   -1    0    0    0  501  0.00000000000E+00  0.00000000000E+00 -0.20515635663E+04  0.20515635663E+04  0.25500000920E-02 0. -1.
    10030    2    1    2    0    0  0.00000000000E+00  0.00000000000E+00 -0.55294427644E+03  0.35501828562E+04  0.35068577016E+04 0.  0.
        3    1    3    3  502    0 -0.88820189096E+03 -0.66681744454E+03  0.10971121039E+04  0.15611544069E+04  0.10100000352E+00 0.  1.
       -3    1    3    3    0  502  0.88820189096E+03  0.66681744454E+03 -0.16500563803E+04  0.19890284493E+04  0.10100000352E+00 0. -1.
</event>
<event>
 5   0  0.3119048E-07  0.3489616E+04  0.7818609E-02  0.8116255E-01
       -2   -1    0    0    0  501  0.00000000000E+00  0.00000000000E+00  0.14792087329E+04  0.14792087329E+04  0.25500000920E-02 0.  1.
        2   -1    0    0  501    0  0.00000000000E+00  0.00000000000E+00 -0.20580963966E+04  0.20580963966E+04  0.25500000920E-02 0. -1.
    10030    2    1    2    0    0  0.00000000000E+00  0.00000000000E+00 -0.57888766374E+03  0.35373051295E+04  0.34896155450E+04 0.  0.
        3    1    3    3  502    0 -0.14101989170E+04 -0.50963144583E+03 -0.11938072906E+04  0.19166536081E+04  0.10100000352E+00 0. -1.
       -3    1    3    3    0  502  0.14101989170E+04  0.50963144583E+03  0.61491962689E+03  0.16206515214E+04  0.10100000352E+00 0.  1.
</event>
<event>
 5   0  0.3119048E-07  0.3521317E+04  0.7818609E-02  0.8108757E-01
        2   -1    0    0  501    0  0.00000000000E+00  0.00000000000E+00  0.26590154108E+04  0.26590154108E+04  0.25500000920E-02 0.  1.
       -2   -1    0    0    0  501  0.00000000000E+00  0.00000000000E+00 -0.11658145920E+04  0.11658145920E+04  0.25500000920E-02 0. -1.
    10030    2    1    2    0    0  0.00000000000E+00  0.00000000000E+00  0.14932008188E+04  0.38248300028E+04  0.35213173480E+04 0.  0.
        3    1    3    3  502    0 -0.80682226404E+03  0.12273193429E+04  0.18011835636E+04  0.23241207316E+04  0.10100000352E+00 0.  1.
       -3    1    3    3    0  502  0.80682226404E+03 -0.12273193429E+04 -0.30798274481E+03  0.15007092712E+04  0.10100000352E+00 0. -1.
</event>
<event>
 5   0  0.3219205E-07  0.3498456E+04  0.7818609E-02  0.8114156E-01
        2   -1    0    0  501    0  0.00000000000E+00  0.00000000000E+00  0.16178170793E+04  0.16178170793E+04  0.25500000920E-02 0.  1.
       -2   -1    0    0    0  501  0.00000000000E+00  0.00000000000E+00 -0.18913133797E+04  0.18913133797E+04  0.25500000920E-02 0. -1.
    10030    2    1    2    0    0  0.00000000000E+00  0.00000000000E+00 -0.27349630034E+03  0.35091304590E+04  0.34984562813E+04 0.  0.
        2    1    3    3  502    0 -0.46120286866E+03  0.12188883892E+04  0.10336032276E+04  0.16633498200E+04  0.25500000920E-02 0.  1.
       -2    1    3    3    0  502  0.46120286866E+03 -0.12188883892E+04 -0.13070995280E+04  0.18457806390E+04  0.25500000920E-02 0. -1.
</event>
<event>
 5   0  0.3190112E-07  0.3496001E+04  0.7818609E-02  0.8114738E-01
       -2   -1    0    0    0  501  0.00000000000E+00  0.00000000000E+00  0.10393290710E+04  0.10393290710E+04  0.25500000920E-02 0. -1.
        2   -1    0    0  501    0  0.00000000000E+00  0.00000000000E+00 -0.29398830413E+04  0.29398830413E+04  0.25500000920E-02 0.  1.
    10030    2    1    2    0    0  0.00000000000E+00  0.00000000000E+00 -0.19005539703E+04  0.39792121123E+04  0.34960010928E+04 0.  0.
        5    1    3    3  502    0  0.50096611094E+03  0.16417004295E+04 -0.13266409764E+04  0.21693652793E+04  0.46999998093E+01 0. -1.
       -5    1    3    3    0  502 -0.50096611094E+03 -0.16417004295E+04 -0.57391299387E+03  0.18098468331E+04  0.46999998093E+01 0.  1.
</event>
<event>
 5   0  0.3219205E-07  0.3506349E+04  0.7818609E-02  0.8112287E-01
        2   -1    0    0  501    0  0.00000000000E+00  0.00000000000E+00  0.29764621176E+04  0.29764621176E+04  0.25500000920E-02 0. -1.
       -2   -1    0    0    0  501  0.00000000000E+00  0.00000000000E+00 -0.10326424371E+04  0.10326424371E+04  0.25500000920E-02 0.  1.
    10030    2    1    2    0    0  0.00000000000E+00  0.00000000000E+00  0.19438196805E+04  0.40091045547E+04  0.35063491527E+04 0.  0.
        2    1    3    3  502    0 -0.40533666496E+03 -0.61026587806E+02  0.29209018754E+04  0.29495236602E+04  0.25500000920E-02 0. -1.
       -2    1    3    3    0  502  0.40533666496E+03  0.61026587806E+02 -0.97708219491E+03  0.10595808945E+04  0.25500000920E-02 0.  1.
</event>
<event>
 5   0  0.2180451E-07  0.3508364E+04  0.7818609E-02  0.8111811E-01
        2   -1    0    0  501    0  0.00000000000E+00  0.00000000000E+00  0.21236650707E+04  0.21236650707E+04  0.25500000920E-02 0.  1.
       -2   -1    0    0    0  501  0.00000000000E+00  0.00000000000E+00 -0.14489830537E+04  0.14489830537E+04  0.25500000920E-02 0. -1.
    10030    2    1    2    0    0  0.00000000000E+00  0.00000000000E+00  0.67468201703E+03  0.35726481244E+04  0.35083641197E+04 0.  0.
        4    1    3    3  502    0 -0.13493507184E+04  0.10874959631E+04  0.61390198557E+03  0.18385516288E+04  0.12699999809E+01 0.  1.
       -4    1    3    3    0  502  0.13493507184E+04 -0.10874959631E+04  0.60780031467E+02  0.17340964956E+04  0.12699999809E+01 0. -1.
</event>
<event>
 5   0  0.2180451E-07  0.3513040E+04  0.7818609E-02  0.8110707E-01
       -2   -1    0    0    0  501  0.00000000000E+00  0.00000000000E+00  0.15800815755E+04  0.15800815755E+04  0.25500000920E-02 0. -1.
        2   -1    0    0  501    0  0.00000000000E+00  0.00000000000E+00 -0.19526602594E+04  0.19526602594E+04  0.25500000920E-02 0.  1.
    10030    2    1    2    0    0  0.00000000000E+00  0.00000000000E+00 -0.37257868397E+03  0.35327418349E+04  0.35130399935E+04 0.  0.
        4    1    3    3  502    0 -0.12128865513E+04  0.59588855874E+03  0.94213745991E+03  0.16473620024E+04  0.12699999809E+01 0. -1.
       -4    1    3    3    0  502  0.12128865513E+04 -0.59588855874E+03 -0.13147161439E+04  0.18853798325E+04  0.12699999809E+01 0.  1.
</event>
<event>
 5   0  0.1072381E-07  0.3482244E+04  0.7818609E-02  0.8118011E-01
       -1   -1    0    0    0  501  0.00000000000E+00  0.00000000000E+00  0.16559464637E+04  0.16559464637E+04  0.50400001928E-02 0.  1.
        1   -1    0    0  501    0  0.00000000000E+00  0.00000000000E+00 -0.18306788398E+04  0.18306788398E+04  0.50400001928E-02 0. -1.
    10030    2    1    2    0    0  0.00000000000E+00  0.00000000000E+00 -0.17473237615E+03  0.34866253035E+04  0.34822441907E+04 0.  0.
        1    1    3    3  502    0 -0.27853798310E+03 -0.75719264529E+03 -0.16322208635E+04  0.18207331099E+04  0.50400001928E-02 0. -1.
       -1    1    3    3    0  502  0.27853798310E+03  0.75719264529E+03  0.14574884873E+04  0.16658921936E+04  0.50400001928E-02 0.  1.
</event>
<event>
 5   0  0.1013863E-07  0.3512660E+04  0.7818609E-02  0.8110796E-01
       -1   -1    0    0    0  501  0.00000000000E+00  0.00000000000E+00  0.27485727126E+04  0.27485727126E+04  0.50400001928E-02 0. -1.
        1   -1    0    0  501    0  0.00000000000E+00  0.00000000000E+00 -0.11222898237E+04  0.11222898237E+04  0.50400001928E-02 0.  1.
    10030    2    1    2    0    0  0.00000000000E+00  0.00000000000E+00  0.16262828889E+04  0.38708625363E+04  0.35126600662E+04 0.  0.
        5    1    3    3  502    0  0.28788419624E+03  0.93400861910E+03  0.24212029856E+04  0.26110333967E+04  0.46999998093E+01 0. -1.
       -5    1    3    3    0  502 -0.28788419624E+03 -0.93400861910E+03 -0.79492009672E+03  0.12598291397E+04  0.46999998093E+01 0.  1.
</event>
<event>
 5   0  0.3190112E-07  0.3498440E+04  0.7818609E-02  0.8114160E-01
        2   -1    0    0  501    0  0.00000000000E+00  0.00000000000E+00  0.17147622105E+04  0.17147622105E+04  0.25500000920E-02 0.  1.
       -2   -1    0    0    0  501  0.00000000000E+00  0.00000000000E+00 -0.17843703847E+04  0.17843703847E+04  0.25500000920E-02 0. -1.
    10030    2    1    2    0    0  0.00000000000E+00  0.00000000000E+00 -0.69608174223E+02  0.34991325953E+04  0.34984401697E+04 0.  0.
        5    1    3    3  502    0  0.10369443644E+04 -0.92474098858E+03  0.10281147242E+04  0.17284216751E+04  0.46999998093E+01 0.  1.
       -5    1    3    3    0  502 -0.10369443644E+04  0.92474098858E+03 -0.10977228985E+04  0.17707109201E+04  0.46999998093E+01 0. -1.
</event>
<event>
 5   0  0.1013863E-07  0.3501469E+04  0.7818609E-02  0.8113442E-01
        1   -1    0    0  501    0  0.00000000000E+00  0.00000000000E+00  0.16572132306E+04  0.16572132306E+04  0.50400001928E-02 0.  1.
       -1   -1    0    0    0  501  0.00000000000E+00  0.00000000000E+00 -0.18495331273E+04  0.18495331273E+04  0.50400001928E-02 0. -1.
    10030    2    1    2    0    0  0.00000000000E+00  0.00000000000E+00 -0.19231989667E+03  0.35067463580E+04  0.35014687028E+04 0.  0.
        5    1    3    3  502    0 -0.10752607778E+04 -0.12375183852E+04  0.51910402985E+03  0.17196303608E+04  0.46999998093E+01 0.  1.
       -5    1    3    3    0  502  0.10752607778E+04  0.12375183852E+04 -0.71142392652E+03  0.17871159971E+04  0.46999998093E+01 0. -1.
</event>
<event>
 5   0  0.3190185E-07  0.3501403E+04  0.7818609E-02  0.8113457E-01
       -2   -1    0    0    0  501  0.00000000000E+00  0.00000000000E+00  0.12691528912E+04  0.12691528912E+04  0.25500000920E-02 0. -1.
        2   -1    0    0  501    0  0.00000000000E+00  0.00000000000E+00 -0.24149622555E+04  0.24149622555E+04  0.25500000920E-02 0.  1.
    10030    2    1    2    0    0  0.00000000000E+00  0.00000000000E+00 -0.11458093643E+04  0.36841151467E+04  0.35014033351E+04 0.  0.
        1    1    3    3  502    0  0.17281577886E+04 -0.21033905296E+03 -0.76744314271E+03  0.19025616513E+04  0.50400001928E-02 0.  1.
       -1    1    3    3    0  502 -0.17281577886E+04  0.21033905296E+03 -0.37836622157E+03  0.17815534955E+04  0.50400001928E-02 0. -1.
</event>
<event>
 5   0  0.2180451E-07  0.3465842E+04  0.7818609E-02  0.8121933E-01
        2   -1    0    0  501    0  0.00000000000E+00  0.00000000000E+00  0.21298508196E+04  0.21298508196E+04  0.25500000920E-02 0.  1.
       -2   -1    0    0    0  501  0.00000000000E+00  0.00000000000E+00 -0.14099653660E+04  0.14099653660E+04  0.25500000920E-02 0. -1.
    10030    2    1    2    0    0  0.00000000000E+00  0.00000000000E+00  0.71988545363E+03  0.35398161855E+04  0.34658424028E+04 0.  0.
        4    1    3    3  502    0 -0.36696269780E+03  0.14414087581E+04 -0.54824571382E+03  0.15852115963E+04  0.12699999809E+01 0. -1.
       -4    1    3    3    0  502  0.36696269780E+03 -0.14414087581E+04  0.12681311674E+04  0.19546045892E+04  0.12699999809E+01 0.  1.
</event>
<event>
 5   0  0.1098171E-07  0.3504247E+04  0.7818609E-02  0.8112784E-01
       -1   -1    0    0    0  501  0.00000000000E+00  0.00000000000E+00  0.14802157158E+04  0.14802157158E+04  0.50400001928E-02 0. -1.
        1   -1    0    0  501    0  0.00000000000E+00  0.00000000000E+00 -0.20739793559E+04  0.20739793559E+04  0.50400001928E-02 0.  1.
    10030    2    1    2    0    0  0.00000000000E+00  0.00000000000E+00 -0.59376364007E+03  0.35541950716E+04  0.35042470442E+04 0.  0.
        4    1    3    3  502    0 -0.20817699671E+03 -0.17072269424E+04  0.42512535621E+02  0.17203983328E+04  0.12699999809E+01 0. -1.
       -4    1    3    3    0  502  0.20817699671E+03  0.17072269424E+04 -0.63627617569E+03  0.18337967389E+04  0.12699999809E+01 0.  1.
</event>
<event>
 5   0  0.1013863E-07  0.3478121E+04  0.7818609E-02  0.8118995E-01
        1   -1    0    0  501    0  0.00000000000E+00  0.00000000000E+00  0.23058147518E+04  0.23058147519E+04  0.50400001928E-02 0.  1.
       -1   -1    0    0    0  501  0.00000000000E+00  0.00000000000E+00 -0.13116110462E+04  0.13116110462E+04  0.50400001928E-02 0. -1.
    10030    2    1    2    0    0  0.00000000000E+00  0.00000000000E+00  0.99420370569E+03  0.36174257980E+04  0.34781213889E+04 0.  0.
        2    1    3    3  502    0  0.47338122682E+03  0.11191765107E+03  0.22336195707E+04  0.22859728199E+04  0.25500000920E-02 0.  1.
       -2    1    3    3    0  502 -0.47338122682E+03 -0.11191765107E+03 -0.12394158650E+04  0.13314529781E+04  0.25500000920E-02 0. -1.
</event>
<event>
 5   0  0.1013863E-07  0.3525959E+04  0.7818609E-02  0.8107665E-01
        1   -1    0    0  501    0  0.00000000000E+00  0.00000000000E+00  0.19453854694E+04  0.19453854694E+04  0.50400001928E-02 0.  1.
       -1   -1    0    0    0  501  0.00000000000E+00  0.00000000000E+00 -0.15976763053E+04  0.15976763053E+04  0.50400001928E-02 0. -1.
    10030    2    1    2    0    0  0.00000000000E+00  0.00000000000E+00  0.34770916412E+03  0.35430617747E+04  0.35259587457E+04 0.  0.
        2    1    3    3  502    0  0.13292881719E+04 -0.78520778739E+03 -0.68147219527E+03  0.16875907876E+04  0.25500000920E-02 0. -1.
       -2    1    3    3    0  502 -0.13292881719E+04  0.78520778739E+03  0.10291813594E+04  0.18554709871E+04  0.25500000920E-02 0.  1.
</event>
<event>
 5   0  0.3219205E-07  0.3501654E+04  0.7818609E-02  0.8113398E-01
        2   -1    0    0  501    0  0.00000000000E+00  0.00000000000E+00  0.93712446620E+03  0.93712446620E+03  0.25500000920E-02 0. -1.
       -2   -1    0    0    0  501  0.00000000000E+00  0.00000000000E+00 -0.32710642767E+04  0.32710642767E+04  0.25500000920E-02 0.  1.
    10030    2    1    2    0    0  0.00000000000E+00  0.00000000000E+00 -0.23339398105E+04  0.42081887429E+04  0.35016535318E+04 0.  0.
        2    1    3    3  502    0  0.39424048426E+00  0.80144722208E+03  0.70373638007E+03  0.10665658432E+04  0.25500000920E-02 0. -1.
       -2    1    3    3    0  502 -0.39424048426E+00 -0.80144722208E+03 -0.30376761906E+04  0.31416228997E+04  0.25500000920E-02 0.  1.
</event>
<event>
 5   0  0.1098171E-07  0.3496037E+04  0.7818609E-02  0.8114730E-01
        1   -1    0    0  501    0  0.00000000000E+00  0.00000000000E+00  0.18488200547E+04  0.18488200547E+04  0.50400001928E-02 0. -1.
       -1   -1    0    0    0  501  0.00000000000E+00  0.00000000000E+00 -0.16527131330E+04  0.16527131330E+04  0.50400001928E-02 0.  1.
    10030    2    1    2    0    0  0.00000000000E+00  0.00000000000E+00  0.19610692167E+03  0.35015331877E+04  0.34960372910E+04 0.  0.
        4    1    3    3  502    0 -0.52412383995E+03 -0.15669285735E+04 -0.47345430094E+03  0.17187587213E+04  0.12699999809E+01 0. -1.
       -4    1    3    3    0  502  0.52412383995E+03  0.15669285735E+04  0.66956122261E+03  0.17827744664E+04  0.12699999809E+01 0.  1.
</event>
<event>
 5   0  0.1013863E-07  0.3513110E+04  0.7818609E-02  0.8110690E-01
       -1   -1    0    0    0  501  0.00000000000E+00  0.00000000000E+00  0.11796480240E+04  0.11796480240E+04  0.50400001928E-02 0. -1.
        1   -1    0    0  501    0  0.00000000000E+00  0.00000000000E+00 -0.26155988028E+04  0.26155988029E+04  0.50400001928E-02 0.  1.
    10030    2    1    2    0    0  0.00000000000E+00  0.00000000000E+00 -0.14359507788E+04  0.37952468269E+04  0.35131102797E+04 0.  0.
        2    1    3    3  502    0  0.10600301050E+03 -0.10569442855E+03 -0.26086956220E+04  0.26129869495E+04  0.25500000920E-02 0.  1.
       -2    1    3    3    0  502 -0.10600301050E+03  0.10569442855E+03  0.11727448431E+04  0.11822598773E+04  0.25500000920E-02 0. -1.
</event>
<event>
 5   0  0.1033796E-07  0.3476260E+04  0.7818609E-02  0.8119439E-01
       -1   -1    0    0    0  501  0.00000000000E+00  0.00000000000E+00  0.14681994285E+04  0.14681994285E+04  0.50400001928E-02 0. -1.
        1   -1    0    0  501    0  0.00000000000E+00  0.00000000000E+00 -0.20576876466E+04  0.20576876466E+04  0.50400001928E-02 0.  1.
    10030    2    1    2    0    0  0.00000000000E+00  0.00000000000E+00 -0.58948821814E+03  0.35258870751E+04  0.34762599597E+04 0.  0.
        3    1    3    3  502    0 -0.16206995401E+04  0.11716195759E+02  0.34214656052E+03  0.16564626611E+04  0.10100000352E+00 0. -1.
       -3    1    3    3    0  502  0.16206995401E+04 -0.11716195759E+02 -0.93163477866E+03  0.18694244140E+04  0.10100000352E+00 0.  1.
</event>
<event>
 5   0  0.1098171E-07  0.3497368E+04  0.7818609E-02  0.8114414E-01
       -1   -1    0    0    0  501  0.00000000000E+00  0.00000000000E+00  0.11472380522E+04  0.11472380522E+04  0.50400001928E-02 0.  1.
        1   -1    0    0  501    0  0.00000000000E+00  0.00000000000E+00 -0.26654407333E+04  0.26654407333E+04  0.50400001928E-02 0. -1.
    10030    2    1    2    0    0  0.00000000000E+00  0.00000000000E+00 -0.15182026811E+04  0.38126787854E+04  0.34973676015E+04 0.  0.
        4    1    3    3  502    0  0.46753624878E+03 -0.40061068442E+03  0.10251673072E+04  0.11958464304E+04  0.12699999809E+01 0.  1.
       -4    1    3    3    0  502 -0.46753624878E+03  0.40061068442E+03 -0.25433699883E+04  0.26168323551E+04  0.12699999809E+01 0. -1.
</event>
<event>
 5   0  0.2180451E-07  0.3498189E+04  0.7818609E-02  0.8114219E-01
       -2   -1    0    0    0  501  0.00000000000E+00  0.00000000000E+00  0.20784996063E+04  0.20784996063E+04  0.25500000920E-02 0.  1.
        2   -1    0    0  501    0  0.00000000000E+00  0.00000000000E+00 -0.14718941187E+04  0.14718941187E+04  0.25500000920E-02 0. -1.
    10030    2    1    2    0    0  0.00000000000E+00  0.00000000000E+00  0.60660548766E+03  0.35503937250E+04  0.34981888721E+04 0.  0.
        4    1    3    3  502    0  0.13832534807E+03  0.81572213048E+03  0.18673366549E+04  0.20424211838E+04  0.12699999809E+01 0.  1.
       -4    1    3    3    0  502 -0.13832534807E+03 -0.81572213048E+03 -0.12607311673E+04  0.15079725412E+04  0.12699999809E+01 0. -1.
</event>
<event>
 5   0  0.3219205E-07  0.3502399E+04  0.7818609E-02  0.8113222E-01
       -2   -1    0    0    0  501  0.00000000000E+00  0.00000000000E+00  0.11067566815E+04  0.11067566815E+04  0.25500000920E-02 0. -1.
        2   -1    0    0  501    0  0.00000000000E+00  0.00000000000E+00 -0.27708887741E+04  0.27708887741E+04  0.25500000920E-02 0.  1.
    10030    2    1    2    0    0  0.00000000000E+00  0.00000000000E+00 -0.16641320926E+04  0.38776454556E+04  0.35023989860E+04 0.  0.
        2    1    3    3  502    0 -0.17274345387E+04 -0.23078808986E+03 -0.64221032984E+03  0.18573441619E+04  0.25500000920E-02 0. -1.
       -2    1    3    3    0  502  0.17274345387E+04  0.23078808986E+03 -0.10219217627E+04  0.20203012937E+04  0.25500000920E-02 0.  1.
</event>
<event>
 5   0  0.3119048E-07  0.3416460E+04  0.7818609E-02  0.8133878E-01
       -2   -1    0    0    0  501  0.00000000000E+00  0.00000000000E+00  0.10613054789E+04  0.10613054789E+04  0.25500000920E-02 0. -1.
        2   -1    0    0  501    0  0.00000000000E+00  0.00000000000E+00 -0.27494905486E+04  0.27494905486E+04  0.25500000920E-02 0.  1.
    10030    2    1    2    0    0  0.00000000000E+00  0.00000000000E+00 -0.16881850697E+04  0.38107960274E+04  0.34164597953E+04 0.  0.
        3    1    3    3  502    0 -0.71921150080E+03  0.10955135507E+04  0.37811442822E+03  0.13639595499E+04  0.10100000352E+00 0. -1.
       -3    1    3    3    0  502  0.71921150080E+03 -0.10955135507E+04 -0.20662994979E+04  0.24468364776E+04  0.10100000352E+00 0.  1.
</event>
<event>
 5   0  0.3119048E-07  0.3495864E+04  0.7818609E-02  0.8114771E-01
        2   -1    0    0  501    0  0.00000000000E+00  0.00000000000E+00  0.33262229557E+04  0.33262229557E+04  0.25500000920E-02 0. -1.
       -2   -1    0    0    0  501  0.00000000000E+00  0.00000000000E+00 -0.91853919225E+03  0.91853919225E+03  0.25500000920E-02 0.  1.
    10030    2    1    2    0    0  0.00000000000E+00  0.00000000000E+00  0.24076837635E+04  0.42447621479E+04  0.34958639258E+04 0.  0.
        3    1    3    3  502    0 -0.79971521083E+03 -0.15529101927E+04  0.12824543503E+04  0.21669710787E+04  0.10100000352E+00 0.  1.
       -3    1    3    3    0  502  0.79971521083E+03  0.15529101927E+04  0.11252294131E+04  0.20777910693E+04  0.10100000352E+00 0. -1.
</event>
<event>
 5   0  0.2180451E-07  0.3497548E+04  0.7818609E-02  0.8114371E-01
        2   -1    0    0  501    0  0.00000000000E+00  0.00000000000E+00  0.23593803066E+04  0.23593803066E+04  0.25500000920E-02 0. -1.
       -2   -1    0    0    0  501  0.00000000000E+00  0.00000000000E+00 -0.12961921137E+04  0.12961921137E+04  0.25500000920E-02 0.  1.
    10030    2    1    2    0    0  0.00000000000E+00  0.00000000000E+00  0.10631881929E+04  0.36555724203E+04  0.34975477961E+04 0.  0.
        4    1    3    3  502    0  0.45181265454E+03 -0.16766592055E+04  0.74804452688E+03  0.18907387427E+04  0.12699999809E+01 0. -1.
       -4    1    3    3    0  502 -0.45181265454E+03  0.16766592055E+04  0.31514366601E+03  0.17648336775E+04  0.12699999809E+01 0.  1.
</event>
<event>
 5   0  0.1033796E-07  0.3507704E+04  0.7818609E-02  0.8111967E-01
        1   -1    0    0  501    0  0.00000000000E+00  0.00000000000E+00  0.24241184641E+04  0.24241184641E+04  0.50400001928E-02 0.  1.
       -1   -1    0    0    0  501  0.00000000000E+00  0.00000000000E+00 -0.12689137227E+04  0.12689137227E+04  0.50400001928E-02 0. -1.
    10030    2    1    2    0    0  0.00000000000E+00  0.00000000000E+00  0.11552047414E+04  0.36930321868E+04  0.35077041977E+04 0.  0.
        3    1    3    3  502    0 -0.77361659164E+03  0.15735621261E+04  0.61723119487E+03  0.18589122501E+04  0.10100000352E+00 0.  1.
       -3    1    3    3    0  502  0.77361659164E+03 -0.15735621261E+04  0.53797354649E+03  0.18341199367E+04  0.10100000352E+00 0. -1.
</event>
<event>
 5   0  0.1072381E-07  0.3517901E+04  0.7818609E-02  0.8109561E-01
       -1   -1    0    0    0  501  0.00000000000E+00  0.00000000000E+00  0.13810860847E+04  0.13810860847E+04  0.50400001928E-02 0. -1.
        1   -1    0    0  501    0  0.00000000000E+00  0.00000000000E+00 -0.22401979749E+04  0.22401979749E+04  0.50400001928E-02 0.  1.
    10030    2    1    2    0    0  0.00000000000E+00  0.00000000000E+00 -0.85911189018E+03  0.36212840597E+04  0.35179006525E+04 0.  0.
        1    1    3    3  502    0  0.16909319019E+04  0.20714601510E+03 -0.88031272897E+03  0.19175793775E+04  0.50400001928E-02 0.  1.
       -1    1    3    3    0  502 -0.16909319019E+04 -0.20714601510E+03  0.21200838784E+02  0.17037046821E+04  0.50400001928E-02 0. -1.
</event>
<event>
 5   0  0.3119048E-07  0.3501949E+04  0.7818609E-02  0.8113328E-01
       -2   -1    0    0    0  501  0.00000000000E+00  0.00000000000E+00  0.17136946075E+04  0.17136946075E+04  0.25500000920E-02 0. -1.
        2   -1    0    0  501    0  0.00000000000E+00  0.00000000000E+00 -0.17890649307E+04  0.17890649307E+04  0.25500000920E-02 0.  1.
    10030    2    1    2    0    0  0.00000000000E+00  0.00000000000E+00 -0.75370323184E+02  0.35027595382E+04  0.35019485571E+04 0.  0.
        3    1    3    3  502    0  0.99371711656E+03  0.11450282855E+04 -0.91387171557E+03  0.17702330369E+04  0.10100000352E+00 0.  1.
       -3    1    3    3    0  502 -0.99371711656E+03 -0.11450282855E+04  0.83850139239E+03  0.17325265012E+04  0.10100000352E+00 0. -1.
</event>
<event>
 5   0  0.1013863E-07  0.3499123E+04  0.7818609E-02  0.8113998E-01
       -1   -1    0    0    0  501  0.00000000000E+00  0.00000000000E+00  0.17121154710E+04  0.17121154710E+04  0.50400001928E-02 0. -1.
        1   -1    0    0  501    0  0.00000000000E+00  0.00000000000E+00 -0.17878262323E+04  0.17878262323E+04  0.50400001928E-02 0.  1.
    10030    2    1    2    0    0  0.00000000000E+00  0.00000000000E+00 -0.75710761245E+02  0.34999417033E+04  0.34991227197E+04 0.  0.
        2    1    3    3  502    0 -0.46339555075E+03  0.16582979185E+04  0.27250344806E+03  0.17432571675E+04  0.25500000920E-02 0.  1.
       -2    1    3    3    0  502  0.46339555075E+03 -0.16582979185E+04 -0.34821420930E+03  0.17566845358E+04  0.25500000920E-02 0. -1.
</event>
<event>
 5   0  0.3190185E-07  0.3498390E+04  0.7818609E-02  0.8114172E-01
        2   -1    0    0  501    0  0.00000000000E+00  0.00000000000E+00  0.18852812835E+04  0.18852812835E+04  0.25500000920E-02 0. -1.
       -2   -1    0    0    0  501  0.00000000000E+00  0.00000000000E+00 -0.16229318255E+04  0.16229318255E+04  0.25500000920E-02 0.  1.
    10030    2    1    2    0    0  0.00000000000E+00  0.00000000000E+00  0.26234945803E+03  0.35082131090E+04  0.34983899125E+04 0.  0.
        1    1    3    3  502    0 -0.52291527113E+03 -0.15761611156E+04  0.68222543813E+03  0.17953149561E+04  0.50400001928E-02 0. -1.
       -1    1    3    3    0  502  0.52291527113E+03  0.15761611156E+04 -0.41987598010E+03  0.17128981528E+04  0.50400001928E-02 0.  1.
</event>
<event>
 5   0  0.3190185E-07  0.3497107E+04  0.7818609E-02  0.8114476E-01
        2   -1    0    0  501    0  0.00000000000E+00  0.00000000000E+00  0.21695716518E+04  0.21695716518E+04  0.25500000920E-02 0.  1.
       -2   -1    0    0    0  501  0.00000000000E+00  0.00000000000E+00 -0.14092363722E+04  0.14092363722E+04  0.25500000920E-02 0. -1.
    10030    2    1    2    0    0  0.00000000000E+00  0.00000000000E+00  0.76033527962E+03  0.35788080241E+04  0.34971069666E+04 0.  0.
        1    1    3    3  502    0  0.11873387540E+04 -0.11356589952E+03  0.16886192023E+04  0.20673909501E+04  0.50400001928E-02 0.  1.
       -1    1    3    3    0  502 -0.11873387540E+04  0.11356589952E+03 -0.92828392264E+03  0.15114170740E+04  0.50400001928E-02 0. -1.
</event>
<event>
 5   0  0.1013863E-07  0.3505805E+04  0.7818609E-02  0.8112416E-01
       -3   -1    0    0    0  501  0.00000000000E+00  0.00000000000E+00  0.13709126028E+04  0.13709126065E+04  0.10100000352E+00 0. -1.
        3   -1    0    0  501    0  0.00000000000E+00  0.00000000000E+00 -0.22413294370E+04  0.22413294393E+04  0.10100000352E+00 0.  1.
    10030    2    1    2    0    0  0.00000000000E+00  0.00000000000E+00 -0.87041683423E+03  0.36122420458E+04  0.35058047767E+04 0.  0.
        5    1    3    3  502    0 -0.55381258914E+03 -0.14413084688E+04 -0.12902002523E+04  0.20121424570E+04  0.46999998093E+01 0.  1.
       -5    1    3    3    0  502  0.55381258914E+03  0.14413084688E+04  0.41978341809E+03  0.16000995888E+04  0.46999998093E+01 0. -1.
</event>
<event>
 5   0  0.1072381E-07  0.3466029E+04  0.7818609E-02  0.8121888E-01
        1   -1    0    0  501    0  0.00000000000E+00  0.00000000000E+00  0.16552425574E+04  0.16552425574E+04  0.50400001928E-02 0.  1.
       -1   -1    0    0    0  501  0.00000000000E+00  0.00000000000E+00 -0.18144403269E+04  0.18144403269E+04  0.50400001928E-02 0. -1.
    10030    2    1    2    0    0  0.00000000000E+00  0.00000000000E+00 -0.15919776945E+03  0.34696828843E+04  0.34660287633E+04 0.  0.
        1    1    3    3  502    0  0.19751869185E+03  0.12421404052E+04 -0.12730858367E+04  0.17896016225E+04  0.50400001928E-02 0. -1.
       -1    1    3    3    0  502 -0.19751869185E+03 -0.12421404052E+04  0.11138880672E+04  0.16800812618E+04  0.50400001928E-02 0.  1.
</event>
<event>
 5   0  0.3119048E-07  0.3502574E+04  0.7818609E-02  0.8113180E-01
        2   -1    0    0  501    0  0.00000000000E+00  0.00000000000E+00  0.17911011381E+04  0.17911011381E+04  0.25500000920E-02 0. -1.
       -2   -1    0    0    0  501  0.00000000000E+00  0.00000000000E+00 -0.17123578400E+04  0.17123578400E+04  0.25500000920E-02 0.  1.
    10030    2    1    2    0    0  0.00000000000E+00  0.00000000000E+00  0.78743298137E+02  0.35034589781E+04  0.35025739541E+04 0.  0.
        3    1    3    3  502    0 -0.59956957313E+02 -0.16848287159E+04 -0.43484035753E+03  0.17410711603E+04  0.10100000352E+00 0. -1.
       -3    1    3    3    0  502  0.59956957313E+02  0.16848287159E+04  0.51358365567E+03  0.17623878177E+04  0.10100000352E+00 0.  1.
</event>
<event>
 5   0  0.3190185E-07  0.3498808E+04  0.7818609E-02  0.8114072E-01
        2   -1    0    0  501    0  0.00000000000E+00  0.00000000000E+00  0.24410715999E+04  0.24410715999E+04  0.25500000920E-02 0.  1.
       -2   -1    0    0    0  501  0.00000000000E+00  0.00000000000E+00 -0.12537177191E+04  0.12537177191E+04  0.25500000920E-02 0. -1.
    10030    2    1    2    0    0  0.00000000000E+00  0.00000000000E+00  0.11873538808E+04  0.36947893190E+04  0.34988082077E+04 0.  0.
        1    1    3    3  502    0 -0.16919547458E+04  0.41059540251E+03  0.41348723757E+03  0.17894890729E+04  0.50400001928E-02 0. -1.
       -1    1    3    3    0  502  0.16919547458E+04 -0.41059540251E+03  0.77386664319E+03  0.19053002461E+04  0.50400001928E-02 0.  1.
</event>
<event>
 5   0  0.1013863E-07  0.3497088E+04  0.7818609E-02  0.8114480E-01
        1   -1    0    0  501    0  0.00000000000E+00  0.00000000000E+00  0.26084629422E+04  0.26084629423E+04  0.50400001928E-02 0.  1.
       -1   -1    0    0    0  501  0.00000000000E+00  0.00000000000E+00 -0.11721102069E+04  0.11721102069E+04  0.50400001928E-02 0. -1.
    10030    2    1    2    0    0  0.00000000000E+00  0.00000000000E+00  0.14363527354E+04  0.37805731491E+04  0.34970879537E+04 0.  0.
        2    1    3    3  502    0 -0.29159118976E+03  0.69941422583E+03 -0.98538181696E+03  0.12430539033E+04  0.25500000920E-02 0. -1.
       -2    1    3    3    0  502  0.29159118976E+03 -0.69941422583E+03  0.24217345523E+04  0.25375192459E+04  0.25500000920E-02 0.  1.
</event>
<event>
 5   0  0.2180451E-07  0.3494965E+04  0.7818609E-02  0.8114984E-01
       -2   -1    0    0    0  501  0.00000000000E+00  0.00000000000E+00  0.12141012300E+04  0.12141012300E+04  0.25500000920E-02 0.  1.
        2   -1    0    0  501    0  0.00000000000E+00  0.00000000000E+00 -0.25151892494E+04  0.25151892494E+04  0.25500000920E-02 0. -1.
    10030    2    1    2    0    0  0.00000000000E+00  0.00000000000E+00 -0.13010880194E+04  0.37292904794E+04  0.34949645843E+04 0.  0.
        4    1    3    3  502    0  0.16024732005E+04  0.50316088706E+03 -0.13592040826E+03  0.16851015421E+04  0.12699999809E+01 0.  1.
       -4    1    3    3    0  502 -0.16024732005E+04 -0.50316088706E+03 -0.11651676111E+04  0.20441889374E+04  0.12699999809E+01 0. -1.
</event>
<event>
 5   0  0.3219205E-07  0.3495420E+04  0.7818609E-02  0.8114876E-01
       -2   -1    0    0    0  501  0.00000000000E+00  0.00000000000E+00  0.13225900773E+04  0.13225900773E+04  0.25500000920E-02 0. -1.
        2   -1    0    0  501    0  0.00000000000E+00  0.00000000000E+00 -0.23094755737E+04  0.23094755737E+04  0.25500000920E-02 0.  1.
    10030    2    1    2    0    0  0.00000000000E+00  0.00000000000E+00 -0.98688549641E+03  0.36320656509E+04  0.34954195613E+04 0.  0.
        2    1    3    3  502    0 -0.17036345509E+04 -0.34881356020E+03 -0.31212804966E+03  0.17667669632E+04  0.25500000920E-02 0. -1.
       -2    1    3    3    0  502  0.17036345509E+04  0.34881356020E+03 -0.67475744675E+03  0.18652986878E+04  0.25500000920E-02 0.  1.
</event>
<event>
 5   0  0.1033796E-07  0.3424348E+04  0.7818609E-02  0.8131956E-01
       -1   -1    0    0    0  501  0.00000000000E+00  0.00000000000E+00  0.12651554669E+04  0.12651554669E+04  0.50400001928E-02 0. -1.
        1   -1    0    0  501    0  0.00000000000E+00  0.00000000000E+00 -0.23171383001E+04  0.23171383001E+04  0.50400001928E-02 0.  1.
    10030    2    1    2    0    0  0.00000000000E+00  0.00000000000E+00 -0.10519828332E+04  0.35822937670E+04  0.34243482229E+04 0.  0.
        3    1    3    3  502    0  0.70734949501E+03 -0.94042989397E+03 -0.18270556576E+04  0.21732197495E+04  0.10100000352E+00 0.  1.
       -3    1    3    3    0  502 -0.70734949501E+03  0.94042989397E+03  0.77507282437E+03  0.14090740175E+04  0.10100000352E+00 0. -1.
</event>
<event>
 5   0  0.1013863E-07  0.3497611E+04  0.7818609E-02  0.8114356E-01
        1   -1    0    0  501    0  0.00000000000E+00  0.00000000000E+00  0.15733187833E+04  0.15733187833E+04  0.50400001928E-02 0. -1.
       -1   -1    0    0    0  501  0.00000000000E+00  0.00000000000E+00 -0.19438662537E+04  0.19438662537E+04  0.50400001928E-02 0.  1.
    10030    2    1    2    0    0  0.00000000000E+00  0.00000000000E+00 -0.37054747038E+03  0.35171850370E+04  0.34976113502E+04 0.  0.
        2    1    3    3  502    0  0.14046332750E+04 -0.80996087062E+02 -0.12297230032E+04  0.18686288203E+04  0.25500000920E-02 0.  1.
       -2    1    3    3    0  502 -0.14046332750E+04  0.80996087062E+02  0.85917553285E+03  0.16485562167E+04  0.25500000920E-02 0. -1.
</event>
<event>
 5   0  0.1013863E-07  0.3514154E+04  0.7818609E-02  0.8110444E-01
       -1   -1    0    0    0  501  0.00000000000E+00  0.00000000000E+00  0.12723952348E+04  0.12723952348E+04  0.50400001928E-02 0.  1.
        1   -1    0    0  501    0  0.00000000000E+00  0.00000000000E+00 -0.24263847481E+04  0.24263847481E+04  0.50400001928E-02 0. -1.
    10030    2    1    2    0    0  0.00000000000E+00  0.00000000000E+00 -0.11539895133E+04  0.36987799829E+04  0.35141544595E+04 0.  0.
        5    1    3    3  502    0 -0.77491055899E+03  0.10442169625E+04  0.66679257051E+03  0.14613383801E+04  0.46999998093E+01 0.  1.
       -5    1    3    3    0  502  0.77491055899E+03 -0.10442169625E+04 -0.18207820838E+04  0.22374416028E+04  0.46999998093E+01 0. -1.
</event>
<event>
 5   0  0.1098171E-07  0.3512213E+04  0.7818609E-02  0.8110902E-01
       -1   -1    0    0    0  501  0.00000000000E+00  0.00000000000E+00  0.13383187732E+04  0.13383187732E+04  0.50400001928E-02 0.  1.
        1   -1    0    0  501    0  0.00000000000E+00  0.00000000000E+00 -0.23043161728E+04  0.23043161728E+04  0.50400001928E-02 0. -1.
    10030    2    1    2    0    0  0.00000000000E+00  0.00000000000E+00 -0.96599739967E+03  0.36426349460E+04  0.35122127461E+04 0.  0.
        4    1    3    3  502    0  0.99377724928E+03  0.97926840409E+03 -0.15890659879E+04  0.21146375943E+04  0.12699999809E+01 0. -1.
       -4    1    3    3    0  502 -0.99377724928E+03 -0.97926840409E+03  0.62306858818E+03  0.15279973517E+04  0.12699999809E+01 0.  1.
</event>
<event>
 5   0  0.1072381E-07  0.3516573E+04  0.7818609E-02  0.8109874E-01
       -1   -1    0    0    0  501  0.00000000000E+00  0.00000000000E+00  0.15608802502E+04  0.15608802502E+04  0.50400001928E-02 0. -1.
        1   -1    0    0  501    0  0.00000000000E+00  0.00000000000E+00 -0.19806585296E+04  0.19806585296E+04  0.50400001928E-02 0.  1.
    10030    2    1    2    0    0  0.00000000000E+00  0.00000000000E+00 -0.41977827940E+03  0.35415387798E+04  0.35165726390E+04 0.  0.
        1    1    3    3  502    0 -0.13209000643E+04 -0.11362231677E+04 -0.44776664230E+03  0.17989649893E+04  0.50400001928E-02 0. -1.
       -1    1    3    3    0  502  0.13209000643E+04  0.11362231677E+04  0.27988362901E+02  0.17425737905E+04  0.50400001928E-02 0.  1.
</event>
<event>
 5   0  0.3190112E-07  0.3493154E+04  0.7818609E-02  0.8115414E-01
        2   -1    0    0  501    0  0.00000000000E+00  0.00000000000E+00  0.22239529229E+04  0.22239529229E+04  0.25500000920E-02 0.  1.
       -2   -1    0    0    0  501  0.00000000000E+00  0.00000000000E+00 -0.13716710628E+04  0.13716710628E+04  0.25500000920E-02 0. -1.
    10030    2    1    2    0    0  0.00000000000E+00  0.00000000000E+00  0.85228186013E+03  0.35956239857E+04  0.34931543735E+04 0.  0.
        5    1    3    3  502    0 -0.11596738774E+04 -0.12499162120E+04  0.36383568616E+02  0.17054266015E+04  0.46999998093E+01 0. -1.
       -5    1    3    3    0  502  0.11596738774E+04  0.12499162120E+04  0.81589829151E+03  0.18901973842E+04  0.46999998093E+01 0.  1.
</event>
<event>
 5   0  0.1098171E-07  0.3498592E+04  0.7818609E-02  0.8114124E-01
        1   -1    0    0  501    0  0.00000000000E+00  0.00000000000E+00  0.20415988639E+04  0.20415988639E+04  0.50400001928E-02 0. -1.
       -1   -1    0    0    0  501  0.00000000000E+00  0.00000000000E+00 -0.14988435701E+04  0.14988435701E+04  0.50400001928E-02 0.  1.
    10030    2    1    2    0    0  0.00000000000E+00  0.00000000000E+00  0.54275529379E+03  0.35404424341E+04  0.34985924770E+04 0.  0.
        4    1    3    3  502    0  0.10868841208E+04  0.94945504498E+03  0.12717642119E+04  0.19235820227E+04  0.12699999809E+01 0. -1.
       -4    1    3    3    0  502 -0.10868841208E+04 -0.94945504498E+03 -0.72900891808E+03  0.16168604114E+04  0.12699999809E+01 0.  1.
</event>
<event>
 5   0  0.3190112E-07  0.3489359E+04  0.7818609E-02  0.8116316E-01
       -2   -1    0    0    0  501  0.00000000000E+00  0.00000000000E+00  0.16154867935E+04  0.16154867935E+04  0.25500000920E-02 0. -1.
        2   -1    0    0  501    0  0.00000000000E+00  0.00000000000E+00 -0.18842037368E+04  0.18842037368E+04  0.25500000920E-02 0.  1.
    10030    2    1    2    0    0  0.00000000000E+00  0.00000000000E+00 -0.26871694329E+03  0.34996905302E+04  0.34893588253E+04 0.  0.
        5    1    3    3  502    0  0.16547191806E+04 -0.37028305297E+03 -0.54628009721E+03  0.17814738675E+04  0.46999998093E+01 0. -1.
       -5    1    3    3    0  502 -0.16547191806E+04  0.37028305297E+03  0.27756315392E+03  0.17182166628E+04  0.46999998093E+01 0.  1.
</event>
<event>
 5   0  0.3119048E-07  0.3509529E+04  0.7818609E-02  0.8111535E-01
       -2   -1    0    0    0  501  0.00000000000E+00  0.00000000000E+00  0.12427435334E+04  0.12427435334E+04  0.25500000920E-02 0.  1.
        2   -1    0    0  501    0  0.00000000000E+00  0.00000000000E+00 -0.24777425614E+04  0.24777425614E+04  0.25500000920E-02 0. -1.
    10030    2    1    2    0    0  0.00000000000E+00  0.00000000000E+00 -0.12349990280E+04  0.37204860948E+04  0.35095290542E+04 0.  0.
        3    1    3    3  502    0 -0.12310491647E+04 -0.10092323707E+04  0.16523670236E+03  0.16004171962E+04  0.10100000352E+00 0.  1.
       -3    1    3    3    0  502  0.12310491647E+04  0.10092323707E+04 -0.14002357304E+04  0.21200688986E+04  0.10100000352E+00 0. -1.
</event>
<event>
 5   0  0.3119048E-07  0.3502138E+04  0.7818609E-02  0.8113283E-01
        2   -1    0    0  501    0  0.00000000000E+00  0.00000000000E+00  0.11210514965E+04  0.11210514965E+04  0.25500000920E-02 0.  1.
       -2   -1    0    0    0  501  0.00000000000E+00  0.00000000000E+00 -0.27351489669E+04  0.27351489669E+04  0.25500000920E-02 0. -1.
    10030    2    1    2    0    0  0.00000000000E+00  0.00000000000E+00 -0.16140974704E+04  0.38562004634E+04  0.35021381141E+04 0.  0.
        3    1    3    3  502    0 -0.32387009558E+03  0.10509698381E+03  0.10842487113E+04  0.11364561113E+04  0.10100000352E+00 0.  1.
       -3    1    3    3    0  502  0.32387009558E+03 -0.10509698381E+03 -0.26983461816E+04  0.27197443521E+04  0.10100000352E+00 0. -1.
</event>
<event>
 5   0  0.1013863E-07  0.3496496E+04  0.7818609E-02  0.8114621E-01
       -1   -1    0    0    0  501  0.00000000000E+00  0.00000000000E+00  0.14065327082E+04  0.14065327082E+04  0.50400001928E-02 0.  1.
        1   -1    0    0  501    0  0.00000000000E+00  0.00000000000E+00 -0.21729829405E+04  0.21729829405E+04  0.50400001928E-02 0. -1.
    10030    2    1    2    0    0  0.00000000000E+00  0.00000000000E+00 -0.76645023224E+03  0.35795156487E+04  0.34964962921E+04 0.  0.
        5    1    3    3  502    0  0.73518533226E+03  0.46458397460E+03  0.11693635423E+04  0.14573156577E+04  0.46999998093E+01 0.  1.
       -5    1    3    3    0  502 -0.73518533226E+03 -0.46458397460E+03 -0.19358137745E+04  0.21221999910E+04  0.46999998093E+01 0. -1.
</event>
<event>
 5   0  0.3190112E-07  0.3314259E+04  0.7818609E-02  0.8159277E-01
        2   -1    0    0  501    0  0.00000000000E+00  0.00000000000E+00  0.12245287156E+04  0.12245287156E+04  0.25500000920E-02 0. -1.
       -2   -1    0    0    0  501  0.00000000000E+00  0.00000000000E+00 -0.22425595215E+04  0.22425595215E+04  0.25500000920E-02 0.  1.
    10030    2    1    2    0    0  0.00000000000E+00  0.00000000000E+00 -0.10180308059E+04  0.34670882371E+04  0.33142592116E+04 0.  0.
        5    1    3    3  502    0  0.82271866384E+03 -0.12315120215E+04  0.26861192842E+03  0.15052117183E+04  0.46999998093E+01 0. -1.
       -5    1    3    3    0  502 -0.82271866384E+03  0.12315120215E+04 -0.12866427343E+04  0.19618765187E+04  0.46999998093E+01 0.  1.
</event>
<event>
 5   0  0.3119048E-07  0.3500504E+04  0.7818609E-02  0.8113671E-01
       -2   -1    0    0    0  501  0.00000000000E+00  0.00000000000E+00  0.11247140502E+04  0.11247140502E+04  0.25500000920E-02 0.  1.
        2   -1    0    0  501    0  0.00000000000E+00  0.00000000000E+00 -0.27236983839E+04  0.27236983839E+04  0.25500000920E-02 0. -1.
    10030    2    1    2    0    0  0.00000000000E+00  0.00000000000E+00 -0.15989843337E+04  0.38484124341E+04  0.35005038728E+04 0.  0.
        3    1    3    3  502    0  0.79271318771E+03 -0.15594791453E+04 -0.73915159942E+03  0.18991351978E+04  0.10100000352E+00 0. -1.
       -3    1    3    3    0  502 -0.79271318771E+03  0.15594791453E+04 -0.85983273432E+03  0.19492772362E+04  0.10100000352E+00 0.  1.
</event>
<event>
 5   0  0.1072381E-07  0.3504109E+04  0.7818609E-02  0.8112817E-01
       -1   -1    0    0    0  501  0.00000000000E+00  0.00000000000E+00  0.13312271365E+04  0.13312271365E+04  0.50400001928E-02 0.  1.
        1   -1    0    0  501    0  0.00000000000E+00  0.00000000000E+00 -0.23059143193E+04  0.23059143193E+04  0.50400001928E-02 0. -1.
    10030    2    1    2    0    0  0.00000000000E+00  0.00000000000E+00 -0.97468718279E+03  0.36371414558E+04  0.35041094254E+04 0.  0.
        1    1    3    3  502    0  0.43937819912E+03  0.48433366132E+03  0.11998081761E+04  0.13664450069E+04  0.50400001928E-02 0.  1.
       -1    1    3    3    0  502 -0.43937819912E+03 -0.48433366132E+03 -0.21744953589E+04  0.22706964489E+04  0.50400001928E-02 0. -1.
</event>
<event>
 5   0  0.1033796E-07  0.3494877E+04  0.7818609E-02  0.8115005E-01
       -1   -1    0    0    0  501  0.00000000000E+00  0.00000000000E+00  0.10557606034E+04  0.10557606034E+04  0.50400001928E-02 0.  1.
        1   -1    0    0  501    0  0.00000000000E+00  0.00000000000E+00 -0.28922674682E+04  0.28922674682E+04  0.50400001928E-02 0. -1.
    10030    2    1    2    0    0  0.00000000000E+00  0.00000000000E+00 -0.18365068648E+04  0.39480280716E+04  0.34948774213E+04 0.  0.
        3    1    3    3  502    0  0.13261222043E+04 -0.10279241348E+04 -0.36678205091E+03  0.17174857236E+04  0.10100000352E+00 0.  1.
       -3    1    3    3    0  502 -0.13261222043E+04  0.10279241348E+04 -0.14697248139E+04  0.22305423480E+04  0.10100000352E+00 0. -1.
</event>
<event>
 5   0  0.1013863E-07  0.3465453E+04  0.7818609E-02  0.8122026E-01
       -1   -1    0    0    0  501  0.00000000000E+00  0.00000000000E+00  0.14750385395E+04  0.14750385395E+04  0.50400001928E-02 0. -1.
        1   -1    0    0  501    0  0.00000000000E+00  0.00000000000E+00 -0.20354317972E+04  0.20354317972E+04  0.50400001928E-02 0.  1.
    10030    2    1    2    0    0  0.00000000000E+00  0.00000000000E+00 -0.56039325769E+03  0.35104703367E+04  0.34654525508E+04 0.  0.
        2    1    3    3  502    0 -0.21462745001E+03  0.12129129100E+03 -0.20175753129E+04  0.20325812808E+04  0.25500000920E-02 0.  1.
       -2    1    3    3    0  502  0.21462745001E+03 -0.12129129100E+03  0.14571820552E+04  0.14778890559E+04  0.25500000920E-02 0. -1.
</event>
<event>
 5   0  0.1013863E-07  0.3504066E+04  0.7818609E-02  0.8112827E-01
       -3   -1    0    0    0  501  0.00000000000E+00  0.00000000000E+00  0.17125124845E+04  0.17125124875E+04  0.10100000352E+00 0.  1.
        3   -1    0    0  501    0  0.00000000000E+00  0.00000000000E+00 -0.17924658691E+04  0.17924658720E+04  0.10100000352E+00 0. -1.
    10030    2    1    2    0    0  0.00000000000E+00  0.00000000000E+00 -0.79953384615E+02  0.35049783595E+04  0.35040663174E+04 0.  0.
        5    1    3    3  502    0 -0.71412915438E+02  0.11800663055E+04  0.12533957491E+04  0.17229855727E+04  0.46999998093E+01 0.  1.
       -5    1    3    3    0  502  0.71412915438E+02 -0.11800663055E+04 -0.13333491337E+04  0.17819927868E+04  0.46999998093E+01 0. -1.
</event>
<event>
 5   0  0.3190185E-07  0.3491414E+04  0.7818609E-02  0.8115828E-01
        2   -1    0    0  501    0  0.00000000000E+00  0.00000000000E+00  0.12232896122E+04  0.12232896122E+04  0.25500000920E-02 0. -1.
       -2   -1    0    0    0  501  0.00000000000E+00  0.00000000000E+00 -0.24912272184E+04  0.24912272184E+04  0.25500000920E-02 0.  1.
    10030    2    1    2    0    0  0.00000000000E+00  0.00000000000E+00 -0.12679376061E+04  0.37145168306E+04  0.34914136839E+04 0.  0.
        1    1    3    3  502    0 -0.14982241250E+04  0.78960583094E+03 -0.18342297247E+03  0.17034661382E+04  0.50400001928E-02 0. -1.
       -1    1    3    3    0  502  0.14982241250E+04 -0.78960583094E+03 -0.10845146337E+04  0.20110506925E+04  0.50400001928E-02 0.  1.
</event>
<event>
 5   0  0.3190112E-07  0.3507655E+04  0.7818609E-02  0.8111978E-01
       -2   -1    0    0    0  501  0.00000000000E+00  0.00000000000E+00  0.16600957017E+04  0.16600957017E+04  0.25500000920E-02 0.  1.
        2   -1    0    0  501    0  0.00000000000E+00  0.00000000000E+00 -0.18528510426E+04  0.18528510426E+04  0.25500000920E-02 0. -1.
    10030    2    1    2    0    0  0.00000000000E+00  0.00000000000E+00 -0.19275534091E+03  0.35129467443E+04  0.35076545165E+04 0.  0.
        5    1    3    3  502    0  0.11587299591E+04 -0.13211824262E+03 -0.14082309135E+04  0.18284547421E+04  0.46999998093E+01 0. -1.
       -5    1    3    3    0  502 -0.11587299591E+04  0.13211824262E+03  0.12154755726E+04  0.16844920023E+04  0.46999998093E+01 0.  1.
</event>
<event>
 5   0  0.3219205E-07  0.3489240E+04  0.7818609E-02  0.8116345E-01
        2   -1    0    0  501    0  0.00000000000E+00  0.00000000000E+00  0.23043749381E+04  0.23043749381E+04  0.25500000920E-02 0. -1.
       -2   -1    0    0    0  501  0.00000000000E+00  0.00000000000E+00 -0.13208348749E+04  0.13208348749E+04  0.25500000920E-02 0.  1.
    10030    2    1    2    0    0  0.00000000000E+00  0.00000000000E+00  0.98354006327E+03  0.36252098130E+04  0.34892399075E+04 0.  0.
        2    1    3    3  502    0  0.13779083169E+04 -0.26598885316E+03  0.15686532704E+04  0.21047694607E+04  0.25500000920E-02 0. -1.
       -2    1    3    3    0  502 -0.13779083169E+04  0.26598885316E+03 -0.58511320712E+03  0.15204403523E+04  0.25500000920E-02 0.  1.
</event>
<event>
 5   0  0.3119048E-07  0.3503977E+04  0.7818609E-02  0.8112848E-01
        2   -1    0    0  501    0  0.00000000000E+00  0.00000000000E+00  0.15588189726E+04  0.15588189726E+04  0.25500000920E-02 0.  1.
       -2   -1    0    0    0  501  0.00000000000E+00  0.00000000000E+00 -0.19690960009E+04  0.19690960009E+04  0.25500000920E-02 0. -1.
    10030    2    1    2    0    0  0.00000000000E+00  0.00000000000E+00 -0.41027702832E+03  0.35279149735E+04  0.35039772859E+04 0.  0.
        3    1    3    3  502    0 -0.55574548617E+03 -0.45602468020E+02  0.14670906995E+04  0.15694864642E+04  0.10100000352E+00 0.  1.
       -3    1    3    3    0  502  0.55574548617E+03  0.45602468020E+02 -0.18773677278E+04  0.19584285093E+04  0.10100000352E+00 0. -1.
</event>
<event>
 5   0  0.1013863E-07  0.3496077E+04  0.7818609E-02  0.8114720E-01
        1   -1    0    0  501    0  0.00000000000E+00  0.00000000000E+00  0.19126937455E+04  0.19126937455E+04  0.50400001928E-02 0.  1.
       -1   -1    0    0    0  501  0.00000000000E+00  0.00000000000E+00 -0.15975577476E+04  0.15975577476E+04  0.50400001928E-02 0. -1.
    10030    2    1    2    0    0  0.00000000000E+00  0.00000000000E+00  0.31513599790E+03  0.35102514930E+04  0.34960770654E+04 0.  0.
        2    1    3    3  502    0 -0.16618696205E+03  0.11619464845E+04 -0.11430219644E+04  0.16383641080E+04  0.25500000920E-02 0. -1.
       -2    1    3    3    0  502  0.16618696205E+03 -0.11619464845E+04  0.14581579623E+04  0.18718873850E+04  0.25500000920E-02 0.  1.
</event>
<event>
 5   0  0.1072381E-07  0.3509355E+04  0.7818609E-02  0.8111577E-01
       -1   -1    0    0    0  501  0.00000000000E+00  0.00000000000E+00  0.12654150829E+04  0.12654150829E+04  0.50400001928E-02 0.  1.
        1   -1    0    0  501    0  0.00000000000E+00  0.00000000000E+00 -0.24331086480E+04  0.24331086480E+04  0.50400001928E-02 0. -1.
    10030    2    1    2    0    0  0.00000000000E+00  0.00000000000E+00 -0.11676935651E+04  0.36985237310E+04  0.35093545741E+04 0.  0.
        1    1    3    3  502    0  0.53438579997E+03  0.33548284649E+03  0.11417184385E+04  0.13044684421E+04  0.50400001928E-02 0.  1.
       -1    1    3    3    0  502 -0.53438579997E+03 -0.33548284649E+03 -0.23094120036E+04  0.23940552888E+04  0.50400001928E-02 0. -1.
</event>
<event>
 5   0  0.3119048E-07  0.3498662E+04  0.7818609E-02  0.8114107E-01
        2   -1    0    0  501    0  0.00000000000E+00  0.00000000000E+00  0.28038116619E+04  0.28038116619E+04  0.25500000920E-02 0.  1.
       -2   -1    0    0    0  501  0.00000000000E+00  0.00000000000E+00 -0.10914283225E+04  0.10914283225E+04  0.25500000920E-02 0. -1.
    10030    2    1    2    0    0  0.00000000000E+00  0.00000000000E+00  0.17123833394E+04  0.38952399844E+04  0.34986622922E+04 0.  0.
        3    1    3    3  502    0 -0.15487760380E+04 -0.45180712227E+03  0.16091024348E+04  0.22786064925E+04  0.10100000352E+00 0. -1.
       -3    1    3    3    0  502  0.15487760380E+04  0.45180712227E+03  0.10328090466E+03  0.16166334919E+04  0.10100000352E+00 0.  1.
</event>
<event>
 5   0  0.3119048E-07  0.3479102E+04  0.7818609E-02  0.8118760E-01
       -2   -1    0    0    0  501  0.00000000000E+00  0.00000000000E+00  0.14682700721E+04  0.14682700721E+04  0.25500000920E-02 0.  1.
        2   -1    0    0  501    0  0.00000000000E+00  0.00000000000E+00 -0.20609543329E+04  0.20609543329E+04  0.25500000920E-02 0. -1.
    10030    2    1    2    0    0  0.00000000000E+00  0.00000000000E+00 -0.59268426077E+03  0.35292244050E+04  0.34791019341E+04 0.  0.
        3    1    3    3  502    0 -0.55030145648E+03  0.19722655299E+03 -0.19583315586E+04  0.20437202621E+04  0.10100000352E+00 0. -1.
       -3    1    3    3    0  502  0.55030145648E+03 -0.19722655299E+03  0.13656472979E+04  0.14855041429E+04  0.10100000352E+00 0.  1.
</event>
<event>
 5   0  0.1033796E-07  0.3504920E+04  0.7818609E-02  0.8112625E-01
        1   -1    0    0  501    0  0.00000000000E+00  0.00000000000E+00  0.22584063299E+04  0.22584063300E+04  0.50400001928E-02 0.  1.
       -1   -1    0    0    0  501  0.00000000000E+00  0.00000000000E+00 -0.13598602031E+04  0.13598602032E+04  0.50400001928E-02 0. -1.
    10030    2    1    2    0    0  0.00000000000E+00  0.00000000000E+00  0.89854612681E+03  0.36182665331E+04  0.35049204788E+04 0.  0.
        3    1    3    3  502    0 -0.58993389435E+03 -0.14177009103E+04 -0.42256101610E+03  0.15926254089E+04  0.10100000352E+00 0. -1.
       -3    1    3    3    0  502  0.58993389435E+03  0.14177009103E+04  0.13211071429E+04  0.20256411242E+04  0.10100000352E+00 0.  1.
</event>
<event>
 5   0  0.1013863E-07  0.3505642E+04  0.7818609E-02  0.8112454E-01
       -1   -1    0    0    0  501  0.00000000000E+00  0.00000000000E+00  0.20255507944E+04  0.20255507944E+04  0.50400001928E-02 0.  1.
        1   -1    0    0  501    0  0.00000000000E+00  0.00000000000E+00 -0.15168124628E+04  0.15168124628E+04  0.50400001928E-02 0. -1.
    10030    2    1    2    0    0  0.00000000000E+00  0.00000000000E+00  0.50873833162E+03  0.35423632573E+04  0.35056415613E+04 0.  0.
        2    1    3    3  502    0  0.14801749529E+04 -0.12089907545E+03 -0.68642932755E+03  0.16360683663E+04  0.25500000920E-02 0. -1.
       -2    1    3    3    0  502 -0.14801749529E+04  0.12089907545E+03  0.11951676592E+04  0.19062948909E+04  0.25500000920E-02 0.  1.
</event>
<event>
 5   0  0.1013863E-07  0.3512681E+04  0.7818609E-02  0.8110791E-01
       -1   -1    0    0    0  501  0.00000000000E+00  0.00000000000E+00  0.27258681623E+04  0.27258681623E+04  0.50400001928E-02 0. -1.
        1   -1    0    0  501    0  0.00000000000E+00  0.00000000000E+00 -0.11316510297E+04  0.11316510297E+04  0.50400001928E-02 0.  1.
    10030    2    1    2    0    0  0.00000000000E+00  0.00000000000E+00  0.15942171326E+04  0.38575191920E+04  0.35126807500E+04 0.  0.
        2    1    3    3  502    0 -0.75756340469E+03 -0.13695082728E+04  0.16723960909E+04  0.22904942493E+04  0.25500000920E-02 0. -1.
       -2    1    3    3    0  502  0.75756340469E+03  0.13695082728E+04 -0.78178958282E+02  0.15670249427E+04  0.25500000920E-02 0.  1.
</event>
<event>
 5   0  0.2180451E-07  0.3501843E+04  0.7818609E-02  0.8113353E-01
       -2   -1    0    0    0  501  0.00000000000E+00  0.00000000000E+00  0.17955006918E+04  0.17955006918E+04  0.25500000920E-02 0. -1.
        2   -1    0    0  501    0  0.00000000000E+00  0.00000000000E+00 -0.17074488634E+04  0.17074488634E+04  0.25500000920E-02 0.  1.
    10030    2    1    2    0    0  0.00000000000E+00  0.00000000000E+00  0.88051828334E+02  0.35029495552E+04  0.35018427237E+04 0.  0.
        4    1    3    3  502    0 -0.90717689681E+03 -0.13930830907E+04 -0.50576001371E+03  0.17376550935E+04  0.12699999809E+01 0.  1.
       -4    1    3    3    0  502  0.90717689681E+03  0.13930830907E+04  0.59381184205E+03  0.17652944617E+04  0.12699999809E+01 0. -1.
</event>
<event>
 5   0  0.1013863E-07  0.3493601E+04  0.7818609E-02  0.8115308E-01
        1   -1    0    0  501    0  0.00000000000E+00  0.00000000000E+00  0.10526636932E+04  0.10526636932E+04  0.50400001928E-02 0. -1.
       -1   -1    0    0    0  501  0.00000000000E+00  0.00000000000E+00 -0.28986587059E+04  0.28986587059E+04  0.50400001928E-02 0.  1.
    10030    2    1    2    0    0  0.00000000000E+00  0.00000000000E+00 -0.18459950127E+04  0.39513223991E+04  0.34936014533E+04 0.  0.
        5    1    3    3  502    0 -0.13266995763E+04 -0.11277097615E+04 -0.10806501380E+04  0.20493140029E+04  0.46999998093E+01 0.  1.
       -5    1    3    3    0  502  0.13266995763E+04  0.11277097615E+04 -0.76534487473E+03  0.19020083962E+04  0.46999998093E+01 0. -1.
</event>
<event>
 5   0  0.3190112E-07  0.3434657E+04  0.7818609E-02  0.8129452E-01
        2   -1    0    0  501    0  0.00000000000E+00  0.00000000000E+00  0.26610673850E+04  0.26610673850E+04  0.25500000920E-02 0. -1.
       -2   -1    0    0    0  501  0.00000000000E+00  0.00000000000E+00 -0.11082838065E+04  0.11082838065E+04  0.25500000920E-02 0.  1.
    10030    2    1    2    0    0  0.00000000000E+00  0.00000000000E+00  0.15527835785E+04  0.37693511914E+04  0.34346574156E+04 0.  0.
        5    1    3    3  502    0  0.79887804663E+03 -0.75122793894E+03 -0.67400107743E+03  0.12871865024E+04  0.46999998093E+01 0.  1.
       -5    1    3    3    0  502 -0.79887804663E+03  0.75122793894E+03  0.22267846559E+04  0.24821646890E+04  0.46999998093E+01 0. -1.
</event>
<event>
 5   0  0.3190112E-07  0.3503157E+04  0.7818609E-02  0.8113042E-01
       -2   -1    0    0    0  501  0.00000000000E+00  0.00000000000E+00  0.22622248801E+04  0.22622248801E+04  0.25500000920E-02 0.  1.
        2   -1    0    0  501    0  0.00000000000E+00  0.00000000000E+00 -0.13561989933E+04  0.13561989933E+04  0.25500000920E-02 0. -1.
    10030    2    1    2    0    0  0.00000000000E+00  0.00000000000E+00  0.90602588678E+03  0.36184238734E+04  0.35031569220E+04 0.  0.
        5    1    3    3  502    0 -0.10173993300E+04  0.10322126077E+04  0.14689622467E+04  0.20635979348E+04  0.46999998093E+01 0.  1.
       -5    1    3    3    0  502  0.10173993300E+04 -0.10322126077E+04 -0.56293635990E+03  0.15548259386E+04  0.46999998093E+01 0. -1.
</event>
<event>
 5   0  0.2180451E-07  0.3487357E+04  0.7818609E-02  0.8116793E-01
       -2   -1    0    0    0  501  0.00000000000E+00  0.00000000000E+00  0.22303867773E+04  0.22303867773E+04  0.25500000920E-02 0. -1.
        2   -1    0    0  501    0  0.00000000000E+00  0.00000000000E+00 -0.13631782542E+04  0.13631782542E+04  0.25500000920E-02 0.  1.
    10030    2    1    2    0    0  0.00000000000E+00  0.00000000000E+00  0.86720852312E+03  0.35935650315E+04  0.34873570240E+04 0.  0.
        4    1    3    3  502    0  0.10263616717E+04 -0.74813637723E+03  0.16646798654E+04  0.20938689040E+04  0.12699999809E+01 0. -1.
       -4    1    3    3    0  502 -0.10263616717E+04  0.74813637723E+03 -0.79747134226E+03  0.14996961275E+04  0.12699999809E+01 0.  1.
</event>
<event>
 5   0  0.1033796E-07  0.3487008E+04  0.7818609E-02  0.8116876E-01
       -1   -1    0    0    0  501  0.00000000000E+00  0.00000000000E+00  0.10248958145E+04  0.10248958145E+04  0.50400001928E-02 0. -1.
        1   -1    0    0  501    0  0.00000000000E+00  0.00000000000E+00 -0.29659654822E+04  0.29659654822E+04  0.50400001928E-02 0.  1.
    10030    2    1    2    0    0  0.00000000000E+00  0.00000000000E+00 -0.19410696677E+04  0.39908612967E+04  0.34870076620E+04 0.  0.
        3    1    3    3  502    0 -0.27476581536E+03  0.68862144473E+02 -0.29394538168E+04  0.29530707746E+04  0.10100000352E+00 0.  1.
       -3    1    3    3    0  502  0.27476581536E+03 -0.68862144473E+02  0.99838414917E+03  0.10377905221E+04  0.10100000352E+00 0. -1.
</event>
<event>
 5   0  0.3190112E-07  0.3504038E+04  0.7818609E-02  0.8112834E-01
       -2   -1    0    0    0  501  0.00000000000E+00  0.00000000000E+00  0.12012574718E+04  0.12012574718E+04  0.25500000920E-02 0.  1.
        2   -1    0    0  501    0  0.00000000000E+00  0.00000000000E+00 -0.25552984035E+04  0.25552984035E+04  0.25500000920E-02 0. -1.
    10030    2    1    2    0    0  0.00000000000E+00  0.00000000000E+00 -0.13540409318E+04  0.37565558753E+04  0.35040384129E+04 0.  0.
        5    1    3    3  502    0 -0.10303305735E+04  0.79825963155E+03  0.57814236801E+03  0.14258577130E+04  0.46999998093E+01 0.  1.
       -5    1    3    3    0  502  0.10303305735E+04 -0.79825963155E+03 -0.19321832998E+04  0.23306981623E+04  0.46999998093E+01 0. -1.
</event>
<event>
 5   0  0.3219205E-07  0.3516212E+04  0.7818609E-02  0.8109959E-01
        2   -1    0    0  501    0  0.00000000000E+00  0.00000000000E+00  0.13989223008E+04  0.13989223008E+04  0.25500000920E-02 0.  1.
       -2   -1    0    0    0  501  0.00000000000E+00  0.00000000000E+00 -0.22095133921E+04  0.22095133921E+04  0.25500000920E-02 0. -1.
    10030    2    1    2    0    0  0.00000000000E+00  0.00000000000E+00 -0.81059109133E+03  0.36084356929E+04  0.35162124840E+04 0.  0.
        2    1    3    3  502    0  0.14686730725E+04  0.29833214794E+03  0.53801671967E+03  0.15923142451E+04  0.25500000920E-02 0.  1.
       -2    1    3    3    0  502 -0.14686730725E+04 -0.29833214794E+03 -0.13486078110E+04  0.20161214478E+04  0.25500000920E-02 0. -1.
</event>
<event>
 5   0  0.3219205E-07  0.3490198E+04  0.7818609E-02  0.8116117E-01
        2   -1    0    0  501    0  0.00000000000E+00  0.00000000000E+00  0.18299836828E+04  0.18299836828E+04  0.25500000920E-02 0. -1.
       -2   -1    0    0    0  501  0.00000000000E+00  0.00000000000E+00 -0.16641515284E+04  0.16641515284E+04  0.25500000920E-02 0.  1.
    10030    2    1    2    0    0  0.00000000000E+00  0.00000000000E+00  0.16583215434E+03  0.34941352112E+04  0.34901977839E+04 0.  0.
        2    1    3    3  502    0 -0.14241608335E+03 -0.14665361676E+03  0.18179553425E+04  0.18294128160E+04  0.25500000920E-02 0. -1.
       -2    1    3    3    0  502  0.14241608335E+03  0.14665361676E+03 -0.16521231882E+04  0.16647223952E+04  0.25500000920E-02 0.  1.
</event>
<event>
 5   0  0.2180451E-07  0.3508506E+04  0.7818609E-02  0.8111777E-01
       -2   -1    0    0    0  501  0.00000000000E+00  0.00000000000E+00  0.13421620150E+04  0.13421620150E+04  0.25500000920E-02 0. -1.
        2   -1    0    0  501    0  0.00000000000E+00  0.00000000000E+00 -0.22928699928E+04  0.22928699928E+04  0.25500000920E-02 0.  1.
    10030    2    1    2    0    0  0.00000000000E+00  0.00000000000E+00 -0.95070797774E+03  0.36350320078E+04  0.35085056703E+04 0.  0.
        4    1    3    3  502    0 -0.49467071581E+03 -0.11027638295E+04  0.84195984722E+03  0.14729851248E+04  0.12699999809E+01 0. -1.
       -4    1    3    3    0  502  0.49467071581E+03  0.11027638295E+04 -0.17926678250E+04  0.21620468830E+04  0.12699999809E+01 0.  1.
</event>
<event>
 5   0  0.3219205E-07  0.3503121E+04  0.7818609E-02  0.8113051E-01
        2   -1    0    0  501    0  0.00000000000E+00  0.00000000000E+00  0.93097117856E+03  0.93097117857E+03  0.25500000920E-02 0.  1.
       -2   -1    0    0    0  501  0.00000000000E+00  0.00000000000E+00 -0.32954440639E+04  0.32954440639E+04  0.25500000920E-02 0. -1.
    10030    2    1    2    0    0  0.00000000000E+00  0.00000000000E+00 -0.23644728853E+04  0.42264152424E+04  0.35031205769E+04 0.  0.
        2    1    3    3  502    0  0.64872616704E+03  0.25997443318E+03 -0.31199405598E+04  0.31972584259E+04  0.25500000920E-02 0. -1.
       -2    1    3    3    0  502 -0.64872616704E+03 -0.25997443318E+03  0.75546767449E+03  0.10291568165E+04  0.25500000920E-02 0.  1.
</event>
<event>
 5   0  0.3219205E-07  0.3501197E+04  0.7818609E-02  0.8113506E-01
        2   -1    0    0  501    0  0.00000000000E+00  0.00000000000E+00  0.22577545154E+04  0.22577545154E+04  0.25500000920E-02 0. -1.
       -2   -1    0    0    0  501  0.00000000000E+00  0.00000000000E+00 -0.13573638152E+04  0.13573638152E+04  0.25500000920E-02 0.  1.
    10030    2    1    2    0    0  0.00000000000E+00  0.00000000000E+00  0.90039070019E+03  0.36151183306E+04  0.35011965285E+04 0.  0.
        2    1    3    3  502    0 -0.32366204152E+02 -0.15567268307E+04 -0.37593070891E+03  0.16018020772E+04  0.25500000920E-02 0.  1.
       -2    1    3    3    0  502  0.32366204152E+02  0.15567268307E+04  0.12763214091E+04  0.20133162534E+04  0.25500000920E-02 0. -1.
</event>
<event>
 5   0  0.3190185E-07  0.3504064E+04  0.7818609E-02  0.8112827E-01
        2   -1    0    0  501    0  0.00000000000E+00  0.00000000000E+00  0.22806570436E+04  0.22806570436E+04  0.25500000920E-02 0.  1.
       -2   -1    0    0    0  501  0.00000000000E+00  0.00000000000E+00 -0.13459350762E+04  0.13459350762E+04  0.25500000920E-02 0. -1.
    10030    2    1    2    0    0  0.00000000000E+00  0.00000000000E+00  0.93472196731E+03  0.36265921198E+04  0.35040641043E+04 0.  0.
        1    1    3    3  502    0  0.11897539510E+03  0.15700468288E+04  0.12626134770E+04  0.20182653398E+04  0.50400001928E-02 0. -1.
       -1    1    3    3    0  502 -0.11897539510E+03 -0.15700468288E+04 -0.32789150972E+03  0.16083267800E+04  0.50400001928E-02 0.  1.
</event>
<event>
 5   0  0.1013863E-07  0.3511252E+04  0.7818609E-02  0.8111128E-01
       -1   -1    0    0    0  501  0.00000000000E+00  0.00000000000E+00  0.29853828317E+04  0.29853828317E+04  0.50400001928E-02 0. -1.
        1   -1    0    0  501    0  0.00000000000E+00  0.00000000000E+00 -0.10324382447E+04  0.10324382447E+04  0.50400001928E-02 0.  1.
    10030    2    1    2    0    0  0.00000000000E+00  0.00000000000E+00  0.19529445870E+04  0.40178210764E+04  0.35112524321E+04 0.  0.
        2    1    3    3  502    0  0.13158329115E+04 -0.10105634520E+04  0.16333756768E+04  0.23282119412E+04  0.25500000920E-02 0. -1.
       -2    1    3    3    0  502 -0.13158329115E+04  0.10105634520E+04  0.31956891018E+03  0.16896091352E+04  0.25500000920E-02 0.  1.
</event>
<event>
 5   0  0.1098171E-07  0.3512264E+04  0.7818609E-02  0.8110890E-01
        1   -1    0    0  501    0  0.00000000000E+00  0.00000000000E+00  0.27931994110E+04  0.27931994110E+04  0.50400001928E-02 0. -1.
       -1   -1    0    0    0  501  0.00000000000E+00  0.00000000000E+00 -0.11041099931E+04  0.11041099931E+04  0.50400001928E-02 0.  1.
    10030    2    1    2    0    0  0.00000000000E+00  0.00000000000E+00  0.16890894179E+04  0.38973094042E+04  0.35122638754E+04 0.  0.
        4    1    3    3  502    0 -0.10043107236E+04 -0.12246303346E+04  0.26600739570E+01  0.15837828686E+04  0.12699999809E+01 0.  1.
       -4    1    3    3    0  502  0.10043107236E+04  0.12246303346E+04  0.16864293439E+04  0.23135265356E+04  0.12699999809E+01 0. -1.
</event>
<event>
 5   0  0.1033796E-07  0.3457596E+04  0.7818609E-02  0.8123913E-01
        1   -1    0    0  501    0  0.00000000000E+00  0.00000000000E+00  0.17214088229E+04  0.17214088229E+04  0.50400001928E-02 0. -1.
       -1   -1    0    0    0  501  0.00000000000E+00  0.00000000000E+00 -0.17362185479E+04  0.17362185479E+04  0.50400001928E-02 0.  1.
    10030    2    1    2    0    0  0.00000000000E+00  0.00000000000E+00 -0.14809725050E+02  0.34576273708E+04  0.34575956541E+04 0.  0.
        3    1    3    3  502    0 -0.26344176017E+03  0.53115842896E+03  0.16165592571E+04  0.17218579150E+04  0.10100000352E+00 0. -1.
       -3    1    3    3    0  502  0.26344176017E+03 -0.53115842896E+03 -0.16313689821E+04  0.17357694558E+04  0.10100000352E+00 0.  1.
</event>
<event>
 5   0  0.1013863E-07  0.3490121E+04  0.7818609E-02  0.8116135E-01
       -3   -1    0    0    0  501  0.00000000000E+00  0.00000000000E+00  0.12346621745E+04  0.12346621786E+04  0.10100000352E+00 0.  1.
        3   -1    0    0  501    0  0.00000000000E+00  0.00000000000E+00 -0.24664531965E+04  0.24664531986E+04  0.10100000352E+00 0. -1.
    10030    2    1    2    0    0  0.00000000000E+00  0.00000000000E+00 -0.12317910220E+04  0.37011153771E+04  0.34901211889E+04 0.  0.
        5    1    3    3  502    0  0.68957685134E+03  0.82535444288E+03 -0.20731964810E+04  0.23355710071E+04  0.46999998093E+01 0. -1.
       -5    1    3    3    0  502 -0.68957685134E+03 -0.82535444288E+03  0.84140545896E+03  0.13655443701E+04  0.46999998093E+01 0.  1.
</event>
<event>
 5   0  0.1013863E-07  0.3288495E+04  0.7818609E-02  0.8165829E-01
        1   -1    0    0  501    0  0.00000000000E+00  0.00000000000E+00  0.24886468080E+04  0.24886468080E+04  0.50400001928E-02 0. -1.
       -1   -1    0    0    0  501  0.00000000000E+00  0.00000000000E+00 -0.10863530559E+04  0.10863530559E+04  0.50400001928E-02 0.  1.
    10030    2    1    2    0    0  0.00000000000E+00  0.00000000000E+00  0.14022937521E+04  0.35749998639E+04  0.32884945279E+04 0.  0.
        2    1    3    3  502    0 -0.98996865857E+03  0.20137132668E+03  0.21114611274E+04  0.23406957189E+04  0.25500000920E-02 0. -1.
       -2    1    3    3    0  502  0.98996865857E+03 -0.20137132668E+03 -0.70916737532E+03  0.12343041450E+04  0.25500000920E-02 0.  1.
</event>
<event>
 5   0  0.1072381E-07  0.3482288E+04  0.7818609E-02  0.8118000E-01
       -1   -1    0    0    0  501  0.00000000000E+00  0.00000000000E+00  0.14711124590E+04  0.14711124590E+04  0.50400001928E-02 0. -1.
        1   -1    0    0  501    0  0.00000000000E+00  0.00000000000E+00 -0.20607413917E+04  0.20607413917E+04  0.50400001928E-02 0.  1.
    10030    2    1    2    0    0  0.00000000000E+00  0.00000000000E+00 -0.58962893267E+03  0.35318538507E+04  0.34822879468E+04 0.  0.
        1    1    3    3  502    0 -0.34405488252E+03  0.95209592309E+03 -0.17315659110E+04  0.20057868563E+04  0.50400001928E-02 0.  1.
       -1    1    3    3    0  502  0.34405488252E+03 -0.95209592309E+03  0.11419369783E+04  0.15260669944E+04  0.50400001928E-02 0. -1.
</event>
<event>
 5   0  0.2180451E-07  0.3503670E+04  0.7818609E-02  0.8112921E-01
       -2   -1    0    0    0  501  0.00000000000E+00  0.00000000000E+00  0.13983282679E+04  0.13983282680E+04  0.25500000920E-02 0.  1.
        2   -1    0    0  501    0  0.00000000000E+00  0.00000000000E+00 -0.21947110143E+04  0.21947110143E+04  0.25500000920E-02 0. -1.
    10030    2    1    2    0    0  0.00000000000E+00  0.00000000000E+00 -0.79638274638E+03  0.35930392823E+04  0.35036703334E+04 0.  0.
        4    1    3    3  502    0 -0.12148561649E+04 -0.12594072072E+04 -0.48364033536E+03  0.18154590609E+04  0.12699999809E+01 0. -1.
       -4    1    3    3    0  502  0.12148561649E+04  0.12594072072E+04 -0.31274241101E+03  0.17775802214E+04  0.12699999809E+01 0.  1.
</event>
<event>
 5   0  0.2180451E-07  0.3496516E+04  0.7818609E-02  0.8114616E-01
       -2   -1    0    0    0  501  0.00000000000E+00  0.00000000000E+00  0.12951867778E+04  0.12951867778E+04  0.25500000920E-02 0.  1.
        2   -1    0    0  501    0  0.00000000000E+00  0.00000000000E+00 -0.23598185034E+04  0.23598185034E+04  0.25500000920E-02 0. -1.
    10030    2    1    2    0    0  0.00000000000E+00  0.00000000000E+00 -0.10646317256E+04  0.36550052812E+04  0.34965158222E+04 0.  0.
        4    1    3    3  502    0 -0.69568630608E+03 -0.15683057411E+03 -0.22008597570E+04  0.23135169220E+04  0.12699999809E+01 0. -1.
       -4    1    3    3    0  502  0.69568630608E+03  0.15683057411E+03  0.11362280315E+04  0.13414883592E+04  0.12699999809E+01 0.  1.
</event>
<event>
 5   0  0.3219205E-07  0.3515161E+04  0.7818609E-02  0.8110206E-01
        2   -1    0    0  501    0  0.00000000000E+00  0.00000000000E+00  0.14427495839E+04  0.14427495839E+04  0.25500000920E-02 0.  1.
       -2   -1    0    0    0  501  0.00000000000E+00  0.00000000000E+00 -0.21411121184E+04  0.21411121184E+04  0.25500000920E-02 0. -1.
    10030    2    1    2    0    0  0.00000000000E+00  0.00000000000E+00 -0.69836253453E+03  0.35838617023E+04  0.35151606609E+04 0.  0.
        2    1    3    3  502    0 -0.16228148514E+04 -0.30956258266E+03  0.26231716468E+03  0.16727723483E+04  0.25500000920E-02 0. -1.
       -2    1    3    3    0  502  0.16228148514E+04  0.30956258266E+03 -0.96067969921E+03  0.19110893540E+04  0.25500000920E-02 0.  1.
</event>
<event>
 5   0  0.1013863E-07  0.3496648E+04  0.7818609E-02  0.8114585E-01
       -1   -1    0    0    0  501  0.00000000000E+00  0.00000000000E+00  0.13360524339E+04  0.13360524339E+04  0.50400001928E-02 0.  1.
        1   -1    0    0  501    0  0.00000000000E+00  0.00000000000E+00 -0.22878116202E+04  0.22878116202E+04  0.50400001928E-02 0. -1.
    10030    2    1    2    0    0  0.00000000000E+00  0.00000000000E+00 -0.95175918638E+03  0.36238640541E+04  0.34966476994E+04 0.  0.
        5    1    3    3  502    0  0.30038885524E+03 -0.97442467222E+03  0.99595754506E+03  0.14253737853E+04  0.46999998093E+01 0.  1.
       -5    1    3    3    0  502 -0.30038885524E+03  0.97442467222E+03 -0.19477167314E+04  0.21984902688E+04  0.46999998093E+01 0. -1.
</event>
<event>
 5   0  0.1098171E-07  0.3476634E+04  0.7818609E-02  0.8119350E-01
        1   -1    0    0  501    0  0.00000000000E+00  0.00000000000E+00  0.21195684539E+04  0.21195684539E+04  0.50400001928E-02 0.  1.
       -1   -1    0    0    0  501  0.00000000000E+00  0.00000000000E+00 -0.14256421243E+04  0.14256421243E+04  0.50400001928E-02 0. -1.
    10030    2    1    2    0    0  0.00000000000E+00  0.00000000000E+00  0.69392632959E+03  0.35452105782E+04  0.34766340465E+04 0.  0.
        4    1    3    3  502    0  0.12427977150E+04 -0.11987484394E+04  0.55141860504E+03  0.18126246364E+04  0.12699999809E+01 0.  1.
       -4    1    3    3    0  502 -0.12427977150E+04  0.11987484394E+04  0.14250772455E+03  0.17325859419E+04  0.12699999809E+01 0. -1.
</event>
<event>
 5   0  0.1033796E-07  0.3499831E+04  0.7818609E-02  0.8113830E-01
       -1   -1    0    0    0  501  0.00000000000E+00  0.00000000000E+00  0.35125288768E+04  0.35125288768E+04  0.50400001928E-02 0.  1.
        1   -1    0    0  501    0  0.00000000000E+00  0.00000000000E+00 -0.87179473782E+03  0.87179473784E+03  0.50400001928E-02 0. -1.
    10030    2    1    2    0    0  0.00000000000E+00  0.00000000000E+00  0.26407341390E+04  0.43843236147E+04  0.34998309624E+04 0.  0.
        3    1    3    3  502    0  0.12815581463E+04 -0.57065545128E+03  0.99878612243E+01  0.14029036653E+04  0.10100000352E+00 0. -1.
       -3    1    3    3    0  502 -0.12815581463E+04  0.57065545128E+03  0.26307462778E+04  0.29814199494E+04  0.10100000352E+00 0.  1.
</event>
<event>
 5   0  0.1013863E-07  0.3510088E+04  0.7818609E-02  0.8111403E-01
       -3   -1    0    0    0  501  0.00000000000E+00  0.00000000000E+00  0.12513578911E+04  0.12513578952E+04  0.10100000352E+00 0.  1.
        3   -1    0    0  501    0  0.00000000000E+00  0.00000000000E+00 -0.24614698388E+04  0.24614698408E+04  0.10100000352E+00 0. -1.
    10030    2    1    2    0    0  0.00000000000E+00  0.00000000000E+00 -0.12101119477E+04  0.37128277360E+04  0.35100881572E+04 0.  0.
        1    1    3    3  502    0 -0.15871411475E+04 -0.58481961610E+03 -0.11002281543E+04  0.20178040036E+04  0.50400001928E-02 0. -1.
       -1    1    3    3    0  502  0.15871411475E+04  0.58481961610E+03 -0.10988379342E+03  0.16950237324E+04  0.50400001928E-02 0.  1.
</event>
<event>
 5   0  0.1098171E-07  0.3502370E+04  0.7818609E-02  0.8113229E-01
       -1   -1    0    0    0  501  0.00000000000E+00  0.00000000000E+00  0.21229359969E+04  0.21229359969E+04  0.50400001928E-02 0.  1.
        1   -1    0    0  501    0  0.00000000000E+00  0.00000000000E+00 -0.14445317283E+04  0.14445317283E+04  0.50400001928E-02 0. -1.
    10030    2    1    2    0    0  0.00000000000E+00  0.00000000000E+00  0.67840426859E+03  0.35674677252E+04  0.35023697147E+04 0.  0.
        4    1    3    3  502    0  0.53827185874E+03 -0.16167783413E+04 -0.71956339273E+02  0.17055462839E+04  0.12699999809E+01 0. -1.
       -4    1    3    3    0  502 -0.53827185874E+03  0.16167783413E+04  0.75036060786E+03  0.18619214413E+04  0.12699999809E+01 0.  1.
</event>
<event>
 5   0  0.1013863E-07  0.3520013E+04  0.7818609E-02  0.8109064E-01
       -1   -1    0    0    0  501  0.00000000000E+00  0.00000000000E+00  0.17667857659E+04  0.17667857659E+04  0.50400001928E-02 0.  1.
        1   -1    0    0  501    0  0.00000000000E+00  0.00000000000E+00 -0.17532528150E+04  0.17532528150E+04  0.50400001928E-02 0. -1.
    10030    2    1    2    0    0  0.00000000000E+00  0.00000000000E+00  0.13532950897E+02  0.35200385809E+04  0.35200125668E+04 0.  0.
        2    1    3    3  502    0 -0.15116940267E+04  0.79400707677E+03 -0.41979974298E+03  0.17583793369E+04  0.25500000920E-02 0. -1.
       -2    1    3    3    0  502  0.15116940267E+04 -0.79400707677E+03  0.43333269388E+03  0.17616592440E+04  0.25500000920E-02 0.  1.
</event>
<event>
 5   0  0.3190185E-07  0.3561294E+04  0.7818609E-02  0.8099416E-01
        2   -1    0    0  501    0  0.00000000000E+00  0.00000000000E+00  0.34220571266E+04  0.34220571266E+04  0.25500000920E-02 0. -1.
       -2   -1    0    0    0  501  0.00000000000E+00  0.00000000000E+00 -0.92654920184E+03  0.92654920185E+03  0.25500000920E-02 0.  1.
    10030    2    1    2    0    0  0.00000000000E+00  0.00000000000E+00  0.24955079248E+04  0.43486063285E+04  0.35612943149E+04 0.  0.
        1    1    3    3  502    0  0.13134201279E+04  0.61046375978E+03 -0.17084838990E+02  0.14484579131E+04  0.50400001928E-02 0.  1.
       -1    1    3    3    0  502 -0.13134201279E+04 -0.61046375978E+03  0.25125927638E+04  0.29001484153E+04  0.50400001928E-02 0. -1.
</event>
<event>
 5   0  0.3219205E-07  0.3511612E+04  0.7818609E-02  0.8111044E-01
       -2   -1    0    0    0  501  0.00000000000E+00  0.00000000000E+00  0.20843675705E+04  0.20843675705E+04  0.25500000920E-02 0. -1.
        2   -1    0    0  501    0  0.00000000000E+00  0.00000000000E+00 -0.14790357314E+04  0.14790357314E+04  0.25500000920E-02 0.  1.
    10030    2    1    2    0    0  0.00000000000E+00  0.00000000000E+00  0.60533183913E+03  0.35634033019E+04  0.35116116608E+04 0.  0.
        2    1    3    3  502    0 -0.30601210338E+03 -0.80632465568E+03 -0.12492863664E+04  0.15180643211E+04  0.25500000920E-02 0.  1.
       -2    1    3    3    0  502  0.30601210338E+03  0.80632465568E+03  0.18546182056E+04  0.20453389807E+04  0.25500000920E-02 0. -1.
</event>
<event>
 5   0  0.3119048E-07  0.3586915E+04  0.7818609E-02  0.8093496E-01
       -2   -1    0    0    0  501  0.00000000000E+00  0.00000000000E+00  0.20059308330E+04  0.20059308330E+04  0.25500000920E-02 0.  1.
        2   -1    0    0  501    0  0.00000000000E+00  0.00000000000E+00 -0.16034896844E+04  0.16034896844E+04  0.25500000920E-02 0. -1.
    10030    2    1    2    0    0  0.00000000000E+00  0.00000000000E+00  0.40244114860E+03  0.36094205174E+04  0.35869147736E+04 0.  0.
        3    1    3    3  502    0  0.15779208631E+04  0.81896935655E+03 -0.36789021727E+02  0.17781727980E+04  0.10100000352E+00 0. -1.
       -3    1    3    3    0  502 -0.15779208631E+04 -0.81896935655E+03  0.43923017032E+03  0.18312477194E+04  0.10100000352E+00 0.  1.
</event>
<event>
 5   0  0.3119048E-07  0.3489918E+04  0.7818609E-02  0.8116183E-01
        2   -1    0    0  501    0  0.00000000000E+00  0.00000000000E+00  0.14944017133E+04  0.14944017133E+04  0.25500000920E-02 0. -1.
       -2   -1    0    0    0  501  0.00000000000E+00  0.00000000000E+00 -0.20375258632E+04  0.20375258632E+04  0.25500000920E-02 0.  1.
    10030    2    1    2    0    0  0.00000000000E+00  0.00000000000E+00 -0.54312414987E+03  0.35319275765E+04  0.34899181314E+04 0.  0.
        3    1    3    3  502    0 -0.31233345696E+03 -0.11840965573E+04 -0.15296044333E+04  0.19594199596E+04  0.10100000352E+00 0.  1.
       -3    1    3    3    0  502  0.31233345696E+03  0.11840965573E+04  0.98648028345E+03  0.15725076169E+04  0.10100000352E+00 0. -1.
</event>
<event>
 5   0  0.1033796E-07  0.3512040E+04  0.7818609E-02  0.8110942E-01
        1   -1    0    0  501    0  0.00000000000E+00  0.00000000000E+00  0.16757350683E+04  0.16757350684E+04  0.50400001928E-02 0.  1.
       -1   -1    0    0    0  501  0.00000000000E+00  0.00000000000E+00 -0.18401518166E+04  0.18401518166E+04  0.50400001928E-02 0. -1.
    10030    2    1    2    0    0  0.00000000000E+00  0.00000000000E+00 -0.16441674823E+03  0.35158868849E+04  0.35120403928E+04 0.  0.
        3    1    3    3  502    0  0.14141247847E+04  0.97283902780E+03  0.28892969417E+03  0.17405875615E+04  0.10100000352E+00 0. -1.
       -3    1    3    3    0  502 -0.14141247847E+04 -0.97283902780E+03 -0.45334644240E+03  0.17752993235E+04  0.10100000352E+00 0.  1.
</event>
<event>
 5   0  0.1013863E-07  0.3497158E+04  0.7818609E-02  0.8114464E-01
        1   -1    0    0  501    0  0.00000000000E+00  0.00000000000E+00  0.26871947124E+04  0.26871947124E+04  0.50400001928E-02 0. -1.
       -1   -1    0    0    0  501  0.00000000000E+00  0.00000000000E+00 -0.11378142608E+04  0.11378142609E+04  0.50400001928E-02 0.  1.
    10030    2    1    2    0    0  0.00000000000E+00  0.00000000000E+00  0.15493804516E+04  0.38250089733E+04  0.34971579693E+04 0.  0.
        2    1    3    3  502    0 -0.55417524882E+03  0.40390063111E+03 -0.98460667230E+03  0.11998734206E+04  0.25500000920E-02 0.  1.
       -2    1    3    3    0  502  0.55417524882E+03 -0.40390063111E+03  0.25339871239E+04  0.26251355527E+04  0.25500000920E-02 0. -1.
</event>
<event>
 5   0  0.1033796E-07  0.3466690E+04  0.7818609E-02  0.8121730E-01
        1   -1    0    0  501    0  0.00000000000E+00  0.00000000000E+00  0.17145364455E+04  0.17145364455E+04  0.50400001928E-02 0.  1.
       -1   -1    0    0    0  501  0.00000000000E+00  0.00000000000E+00 -0.17523603286E+04  0.17523603286E+04  0.50400001928E-02 0. -1.
    10030    2    1    2    0    0  0.00000000000E+00  0.00000000000E+00 -0.37823883064E+02  0.34668967741E+04  0.34666904385E+04 0.  0.
        3    1    3    3  502    0  0.64347306790E+03 -0.16094595160E+04 -0.27165689969E+02  0.17335384356E+04  0.10100000352E+00 0.  1.
       -3    1    3    3    0  502 -0.64347306790E+03  0.16094595160E+04 -0.10658193095E+02  0.17333583386E+04  0.10100000352E+00 0. -1.
</event>
<event>
 5   0  0.3219205E-07  0.3489707E+04  0.7818609E-02  0.8116234E-01
       -2   -1    0    0    0  501  0.00000000000E+00  0.00000000000E+00  0.26677557284E+04  0.26677557284E+04  0.25500000920E-02 0. -1.
        2   -1    0    0  501    0  0.00000000000E+00  0.00000000000E+00 -0.11412264199E+04  0.11412264200E+04  0.25500000920E-02 0.  1.
    10030    2    1    2    0    0  0.00000000000E+00  0.00000000000E+00  0.15265293084E+04  0.38089821484E+04  0.34897067609E+04 0.  0.
        2    1    3    3  502    0  0.15299995258E+03 -0.61405434057E+03  0.25380839609E+04  0.26157870539E+04  0.25500000920E-02 0. -1.
       -2    1    3    3    0  502 -0.15299995258E+03  0.61405434057E+03 -0.10115546524E+04  0.11931950945E+04  0.25500000920E-02 0.  1.
</event>
<event>
 5   0  0.2180451E-07  0.3504405E+04  0.7818609E-02  0.8112747E-01
       -2   -1    0    0    0  501  0.00000000000E+00  0.00000000000E+00  0.13792270957E+04  0.13792270957E+04  0.25500000920E-02 0. -1.
        2   -1    0    0  501    0  0.00000000000E+00  0.00000000000E+00 -0.22260387633E+04  0.22260387633E+04  0.25500000920E-02 0.  1.
    10030    2    1    2    0    0  0.00000000000E+00  0.00000000000E+00 -0.84681166760E+03  0.36052658590E+04  0.35044046447E+04 0.  0.
        4    1    3    3  502    0  0.91832781139E+03  0.12035054270E+04 -0.13311035085E+04  0.20158346771E+04  0.12699999809E+01 0. -1.
       -4    1    3    3    0  502 -0.91832781139E+03 -0.12035054270E+04  0.48429184093E+03  0.15894311819E+04  0.12699999809E+01 0.  1.
</event>
<event>
 5   0  0.2180451E-07  0.3490964E+04  0.7818609E-02  0.8115935E-01
       -2   -1    0    0    0  501  0.00000000000E+00  0.00000000000E+00  0.16316352047E+04  0.16316352047E+04  0.25500000920E-02 0.  1.
        2   -1    0    0  501    0  0.00000000000E+00  0.00000000000E+00 -0.18672721544E+04  0.18672721544E+04  0.25500000920E-02 0. -1.
    10030    2    1    2    0    0  0.00000000000E+00  0.00000000000E+00 -0.23563694970E+03  0.34989073590E+04  0.34909637545E+04 0.  0.
        4    1    3    3  502    0 -0.51535517466E+03 -0.16578704842E+04  0.63091199910E+02  0.17372701606E+04  0.12699999809E+01 0.  1.
       -4    1    3    3    0  502  0.51535517466E+03  0.16578704842E+04 -0.29872814961E+03  0.17616371984E+04  0.12699999809E+01 0. -1.
</event>
<event>
 5   0  0.3119048E-07  0.3495993E+04  0.7818609E-02  0.8114740E-01
        2   -1    0    0  501    0  0.00000000000E+00  0.00000000000E+00  0.13118841065E+04  0.13118841065E+04  0.25500000920E-02 0.  1.
       -2   -1    0    0    0  501  0.00000000000E+00  0.00000000000E+00 -0.23290872397E+04  0.23290872397E+04  0.25500000920E-02 0. -1.
    10030    2    1    2    0    0  0.00000000000E+00  0.00000000000E+00 -0.10172031332E+04  0.36409713463E+04  0.34959934397E+04 0.  0.
        3    1    3    3  502    0 -0.29181864110E+03  0.41066149413E+03  0.12346369440E+04  0.13334651761E+04  0.10100000352E+00 0.  1.
       -3    1    3    3    0  502  0.29181864110E+03 -0.41066149413E+03 -0.22518400772E+04  0.23075061702E+04  0.10100000352E+00 0. -1.
</event>
<event>
 5   0  0.1013863E-07  0.3495881E+04  0.7818609E-02  0.8114767E-01
        1   -1    0    0  501    0  0.00000000000E+00  0.00000000000E+00  0.17397146103E+04  0.17397146103E+04  0.50400001928E-02 0. -1.
       -1   -1    0    0    0  501  0.00000000000E+00  0.00000000000E+00 -0.17562049300E+04  0.17562049300E+04  0.50400001928E-02 0.  1.
    10030    2    1    2    0    0  0.00000000000E+00  0.00000000000E+00 -0.16490319685E+02  0.34959195402E+04  0.34958806475E+04 0.  0.
        2    1    3    3  502    0 -0.70301053243E+03 -0.11690543314E+04 -0.11011358739E+04  0.17531149566E+04  0.25500000920E-02 0.  1.
       -2    1    3    3    0  502  0.70301053243E+03  0.11690543314E+04  0.10846455542E+04  0.17428045836E+04  0.25500000920E-02 0. -1.
</event>
<event>
 5   0  0.3190185E-07  0.3442620E+04  0.7818609E-02  0.8127525E-01
       -2   -1    0    0    0  501  0.00000000000E+00  0.00000000000E+00  0.98018352802E+03  0.98018352802E+03  0.25500000920E-02 0. -1.
        2   -1    0    0  501    0  0.00000000000E+00  0.00000000000E+00 -0.30228087922E+04  0.30228087922E+04  0.25500000920E-02 0.  1.
    10030    2    1    2    0    0  0.00000000000E+00  0.00000000000E+00 -0.20426252642E+04  0.40029923202E+04  0.34426195761E+04 0.  0.
        1    1    3    3  502    0 -0.42635352738E+03  0.25306288812E+03 -0.29379840806E+04  0.29795248973E+04  0.50400001928E-02 0.  1.
       -1    1    3    3    0  502  0.42635352738E+03 -0.25306288812E+03  0.89535881642E+03  0.10234674229E+04  0.50400001928E-02 0. -1.
</event>
<event>
 5   0  0.1013863E-07  0.3507964E+04  0.7818609E-02  0.8111905E-01
       -1   -1    0    0    0  501  0.00000000000E+00  0.00000000000E+00  0.14850430570E+04  0.14850430570E+04  0.50400001928E-02 0. -1.
        1   -1    0    0  501    0  0.00000000000E+00  0.00000000000E+00 -0.20716252844E+04  0.20716252844E+04  0.50400001928E-02 0.  1.
    10030    2    1    2    0    0  0.00000000000E+00  0.00000000000E+00 -0.58658222737E+03  0.35566683414E+04  0.35079639367E+04 0.  0.
        2    1    3    3  502    0 -0.14750798628E+04 -0.84976435060E+03  0.13505858859E+03  0.17076887525E+04  0.25500000920E-02 0.  1.
       -2    1    3    3    0  502  0.14750798628E+04  0.84976435060E+03 -0.72164081596E+03  0.18489795889E+04  0.25500000920E-02 0. -1.
</event>
<event>
 5   0  0.3190112E-07  0.3503428E+04  0.7818609E-02  0.8112978E-01
        2   -1    0    0  501    0  0.00000000000E+00  0.00000000000E+00  0.26436055420E+04  0.26436055420E+04  0.25500000920E-02 0. -1.
       -2   -1    0    0    0  501  0.00000000000E+00  0.00000000000E+00 -0.11607257911E+04  0.11607257911E+04  0.25500000920E-02 0.  1.
    10030    2    1    2    0    0  0.00000000000E+00  0.00000000000E+00  0.14828797509E+04  0.38043313330E+04  0.35034275411E+04 0.  0.
        5    1    3    3  502    0  0.93770820177E+03 -0.73608375308E+03 -0.65229400933E+03  0.13589060040E+04  0.46999998093E+01 0.  1.
       -5    1    3    3    0  502 -0.93770820177E+03  0.73608375308E+03  0.21351737602E+04  0.24454253290E+04  0.46999998093E+01 0. -1.
</event>
<event>
 5   0  0.3119048E-07  0.3500037E+04  0.7818609E-02  0.8113781E-01
       -2   -1    0    0    0  501  0.00000000000E+00  0.00000000000E+00  0.12202005399E+04  0.12202005399E+04  0.25500000920E-02 0.  1.
        2   -1    0    0  501    0  0.00000000000E+00  0.00000000000E+00 -0.25098867572E+04  0.25098867572E+04  0.25500000920E-02 0. -1.
    10030    2    1    2    0    0  0.00000000000E+00  0.00000000000E+00 -0.12896862173E+04  0.37300872971E+04  0.35000372433E+04 0.  0.
        3    1    3    3  502    0  0.81912254120E+03 -0.12868625009E+04  0.26919382834E+03  0.15490132863E+04  0.10100000352E+00 0.  1.
       -3    1    3    3    0  502 -0.81912254120E+03  0.12868625009E+04 -0.15588800456E+04  0.21810740108E+04  0.10100000352E+00 0. -1.
</event>
<event>
 5   0  0.1013863E-07  0.3454333E+04  0.7818609E-02  0.8124699E-01
        1   -1    0    0  501    0  0.00000000000E+00  0.00000000000E+00  0.17378233006E+04  0.17378233006E+04  0.50400001928E-02 0. -1.
       -1   -1    0    0    0  501  0.00000000000E+00  0.00000000000E+00 -0.17165747415E+04  0.17165747416E+04  0.50400001928E-02 0.  1.
    10030    2    1    2    0    0  0.00000000000E+00  0.00000000000E+00  0.21248559014E+02  0.34543980421E+04  0.34543326899E+04 0.  0.
        2    1    3    3  502    0  0.46839156106E+03  0.16623512287E+04  0.27983211856E+02  0.17273057987E+04  0.25500000920E-02 0. -1.
       -2    1    3    3    0  502 -0.46839156106E+03 -0.16623512287E+04 -0.67346528418E+01  0.17270922435E+04  0.25500000920E-02 0.  1.
</event>
<event>
 5   0  0.3190112E-07  0.3485847E+04  0.7818609E-02  0.8117152E-01
       -2   -1    0    0    0  501  0.00000000000E+00  0.00000000000E+00  0.16103314167E+04  0.16103314167E+04  0.25500000920E-02 0.  1.
        2   -1    0    0  501    0  0.00000000000E+00  0.00000000000E+00 -0.18864335397E+04  0.18864335397E+04  0.25500000920E-02 0. -1.
    10030    2    1    2    0    0  0.00000000000E+00  0.00000000000E+00 -0.27610212305E+03  0.34967649564E+04  0.34858474978E+04 0.  0.
        5    1    3    3  502    0  0.56188012524E+03 -0.13804002703E+04  0.76840891084E+03  0.16768090307E+04  0.46999998093E+01 0. -1.
       -5    1    3    3    0  502 -0.56188012524E+03  0.13804002703E+04 -0.10445110339E+04  0.18199559256E+04  0.46999998093E+01 0.  1.
</event>
<event>
 5   0  0.1013863E-07  0.3515988E+04  0.7818609E-02  0.8110011E-01
       -1   -1    0    0    0  501  0.00000000000E+00  0.00000000000E+00  0.18280566396E+04  0.18280566396E+04  0.50400001928E-02 0.  1.
        1   -1    0    0  501    0  0.00000000000E+00  0.00000000000E+00 -0.16906165522E+04  0.16906165522E+04  0.50400001928E-02 0. -1.
    10030    2    1    2    0    0  0.00000000000E+00  0.00000000000E+00  0.13744008736E+03  0.35186731918E+04  0.35159879483E+04 0.  0.
        5    1    3    3  502    0  0.13170973930E+03 -0.27114805747E+03  0.18019931206E+04  0.18270385932E+04  0.46999998093E+01 0.  1.
       -5    1    3    3    0  502 -0.13170973930E+03  0.27114805747E+03 -0.16645530332E+04  0.16916345985E+04  0.46999998093E+01 0. -1.
</event>
<event>
 5   0  0.3219205E-07  0.3491933E+04  0.7818609E-02  0.8115704E-01
        2   -1    0    0  501    0  0.00000000000E+00  0.00000000000E+00  0.16394680320E+04  0.16394680320E+04  0.25500000920E-02 0.  1.
       -2   -1    0    0    0  501  0.00000000000E+00  0.00000000000E+00 -0.18593834933E+04  0.18593834933E+04  0.25500000920E-02 0. -1.
    10030    2    1    2    0    0  0.00000000000E+00  0.00000000000E+00 -0.21991546129E+03  0.34988515253E+04  0.34919334453E+04 0.  0.
        2    1    3    3  502    0 -0.70684977343E+03  0.61084423299E+03  0.13679670342E+04  0.16565328508E+04  0.25500000920E-02 0.  1.
       -2    1    3    3    0  502  0.70684977343E+03 -0.61084423299E+03 -0.15878824955E+04  0.18423186745E+04  0.25500000920E-02 0. -1.
</event>
<event>
 5   0  0.3219205E-07  0.3455877E+04  0.7818609E-02  0.8124327E-01
        2   -1    0    0  501    0  0.00000000000E+00  0.00000000000E+00  0.20999075916E+04  0.20999075916E+04  0.25500000920E-02 0.  1.
       -2   -1    0    0    0  501  0.00000000000E+00  0.00000000000E+00 -0.14218583009E+04  0.14218583009E+04  0.25500000920E-02 0. -1.
    10030    2    1    2    0    0  0.00000000000E+00  0.00000000000E+00  0.67804929070E+03  0.35217658926E+04  0.34558767573E+04 0.  0.
        2    1    3    3  502    0  0.14141520144E+04 -0.55873097273E+03  0.11755062649E+04  0.19219316321E+04  0.25500000920E-02 0.  1.
       -2    1    3    3    0  502 -0.14141520144E+04  0.55873097273E+03 -0.49745697416E+03  0.15998342605E+04  0.25500000920E-02 0. -1.
</event>
<event>
 5   0  0.1033796E-07  0.3553319E+04  0.7818609E-02  0.8101269E-01
        1   -1    0    0  501    0  0.00000000000E+00  0.00000000000E+00  0.19927202785E+04  0.19927202785E+04  0.50400001928E-02 0. -1.
       -1   -1    0    0    0  501  0.00000000000E+00  0.00000000000E+00 -0.15840251995E+04  0.15840251995E+04  0.50400001928E-02 0.  1.
    10030    2    1    2    0    0  0.00000000000E+00  0.00000000000E+00  0.40869507901E+03  0.35767454780E+04  0.35533190888E+04 0.  0.
        3    1    3    3  502    0 -0.11005799129E+04 -0.56688860327E+03  0.14870644892E+04  0.19349417662E+04  0.10100000352E+00 0. -1.
       -3    1    3    3    0  502  0.11005799129E+04  0.56688860327E+03 -0.10783694102E+04  0.16418037119E+04  0.10100000352E+00 0.  1.
</event>
<event>
 5   0  0.2180451E-07  0.3497055E+04  0.7818609E-02  0.8114488E-01
        2   -1    0    0  501    0  0.00000000000E+00  0.00000000000E+00  0.24844663319E+04  0.24844663319E+04  0.25500000920E-02 0. -1.
       -2   -1    0    0    0  501  0.00000000000E+00  0.00000000000E+00 -0.12305855849E+04  0.12305855849E+04  0.25500000920E-02 0.  1.
    10030    2    1    2    0    0  0.00000000000E+00  0.00000000000E+00  0.12538807470E+04  0.37150519169E+04  0.34970550206E+04 0.  0.
        4    1    3    3  502    0 -0.15242409358E+04 -0.66754488693E+03  0.56414578030E+02  0.16649657125E+04  0.12699999809E+01 0. -1.
       -4    1    3    3    0  502  0.15242409358E+04  0.66754488693E+03  0.11974661689E+04  0.20500862043E+04  0.12699999809E+01 0.  1.
</event>
<event>
 5   0  0.1072381E-07  0.3492817E+04  0.7818609E-02  0.8115494E-01
        1   -1    0    0  501    0  0.00000000000E+00  0.00000000000E+00  0.26971846502E+04  0.26971846502E+04  0.50400001928E-02 0.  1.
       -1   -1    0    0    0  501  0.00000000000E+00  0.00000000000E+00 -0.11307873150E+04  0.11307873150E+04  0.50400001928E-02 0. -1.
    10030    2    1    2    0    0  0.00000000000E+00  0.00000000000E+00  0.15663973352E+04  0.38279719651E+04  0.34928167364E+04 0.  0.
        1    1    3    3  502    0  0.30980432797E+03 -0.63395201198E+03  0.25340089833E+04  0.26304135421E+04  0.50400001928E-02 0.  1.
       -1    1    3    3    0  502 -0.30980432797E+03  0.63395201198E+03 -0.96761164807E+03  0.11975584231E+04  0.50400001928E-02 0. -1.
</event>
<event>
 5   0  0.3219205E-07  0.3485619E+04  0.7818609E-02  0.8117206E-01
        2   -1    0    0  501    0  0.00000000000E+00  0.00000000000E+00  0.17487385480E+04  0.17487385480E+04  0.25500000920E-02 0.  1.
       -2   -1    0    0    0  501  0.00000000000E+00  0.00000000000E+00 -0.17369007537E+04  0.17369007537E+04  0.25500000920E-02 0. -1.
    10030    2    1    2    0    0  0.00000000000E+00  0.00000000000E+00  0.11837794290E+02  0.34856393017E+04  0.34856192001E+04 0.  0.
        2    1    3    3  502    0  0.25812117823E+03 -0.10886716245E+04 -0.13303346148E+04  0.17382815180E+04  0.25500000920E-02 0. -1.
       -2    1    3    3    0  502 -0.25812117823E+03  0.10886716245E+04  0.13421724091E+04  0.17473577837E+04  0.25500000920E-02 0.  1.
</event>
<event>
 5   0  0.1033796E-07  0.3528018E+04  0.7818609E-02  0.8107182E-01
       -1   -1    0    0    0  501  0.00000000000E+00  0.00000000000E+00  0.11934284347E+04  0.11934284347E+04  0.50400001928E-02 0.  1.
        1   -1    0    0  501    0  0.00000000000E+00  0.00000000000E+00 -0.26073847159E+04  0.26073847159E+04  0.50400001928E-02 0. -1.
    10030    2    1    2    0    0  0.00000000000E+00  0.00000000000E+00 -0.14139562812E+04  0.38008131506E+04  0.35280176077E+04 0.  0.
        3    1    3    3  502    0  0.17359529802E+04  0.27000711087E+03 -0.87830448356E+03  0.19641423995E+04  0.10100000352E+00 0. -1.
       -3    1    3    3    0  502 -0.17359529802E+04 -0.27000711087E+03 -0.53565179760E+03  0.18366707511E+04  0.10100000352E+00 0.  1.
</event>
<event>
 5   0  0.3190185E-07  0.3479068E+04  0.7818609E-02  0.8118768E-01
        2   -1    0    0  501    0  0.00000000000E+00  0.00000000000E+00  0.12880047665E+04  0.12880047665E+04  0.25500000920E-02 0. -1.
       -2   -1    0    0    0  501  0.00000000000E+00  0.00000000000E+00 -0.23493539106E+04  0.23493539106E+04  0.25500000920E-02 0.  1.
    10030    2    1    2    0    0  0.00000000000E+00  0.00000000000E+00 -0.10613491441E+04  0.36373586771E+04  0.34790682862E+04 0.  0.
        1    1    3    3  502    0 -0.11534800366E+03  0.48288982151E+03 -0.22737084754E+04  0.23272812406E+04  0.50400001928E-02 0.  1.
       -1    1    3    3    0  502  0.11534800366E+03 -0.48288982151E+03  0.12123593313E+04  0.13100774366E+04  0.50400001928E-02 0. -1.
</event>
<event>
 5   0  0.3190112E-07  0.3498834E+04  0.7818609E-02  0.8114066E-01
       -2   -1    0    0    0  501  0.00000000000E+00  0.00000000000E+00  0.15808807045E+04  0.15808807045E+04  0.25500000920E-02 0. -1.
        2   -1    0    0  501    0  0.00000000000E+00  0.00000000000E+00 -0.19359204313E+04  0.19359204313E+04  0.25500000920E-02 0.  1.
    10030    2    1    2    0    0  0.00000000000E+00  0.00000000000E+00 -0.35503972679E+03  0.35168011359E+04  0.34988336659E+04 0.  0.
        5    1    3    3  502    0 -0.44876731925E+03  0.15554743036E+04 -0.84390616750E+03  0.18256757997E+04  0.46999998093E+01 0.  1.
       -5    1    3    3    0  502  0.44876731925E+03 -0.15554743036E+04  0.48886644071E+03  0.16911253362E+04  0.46999998093E+01 0. -1.
</event>
<event>
 5   0  0.1072381E-07  0.3503438E+04  0.7818609E-02  0.8112976E-01
       -1   -1    0    0    0  501  0.00000000000E+00  0.00000000000E+00  0.14321319279E+04  0.14321319279E+04  0.50400001928E-02 0. -1.
        1   -1    0    0  501    0  0.00000000000E+00  0.00000000000E+00 -0.21426229730E+04  0.21426229730E+04  0.50400001928E-02 0.  1.
    10030    2    1    2    0    0  0.00000000000E+00  0.00000000000E+00 -0.71049104508E+03  0.35747549009E+04  0.35034376085E+04 0.  0.
        1    1    3    3  502    0 -0.11095137852E+04  0.66101932849E+03 -0.15627851866E+04  0.20273788329E+04  0.50400001928E-02 0.  1.
       -1    1    3    3    0  502  0.11095137852E+04 -0.66101932849E+03  0.85229414157E+03  0.15473760681E+04  0.50400001928E-02 0. -1.
</event>
<event>
 5   0  0.1013863E-07  0.3488619E+04  0.7818609E-02  0.8116492E-01
        1   -1    0    0  501    0  0.00000000000E+00  0.00000000000E+00  0.19478293796E+04  0.19478293796E+04  0.50400001928E-02 0. -1.
       -1   -1    0    0    0  501  0.00000000000E+00  0.00000000000E+00 -0.15620547275E+04  0.15620547275E+04  0.50400001928E-02 0.  1.
    10030    2    1    2    0    0  0.00000000000E+00  0.00000000000E+00  0.38577465212E+03  0.35098841071E+04  0.34886192631E+04 0.  0.
        2    1    3    3  502    0  0.16299450307E+04 -0.42293185100E+03 -0.26488494663E+03  0.17046278740E+04  0.25500000920E-02 0.  1.
       -2    1    3    3    0  502 -0.16299450307E+04  0.42293185100E+03  0.65065959875E+03  0.18052562331E+04  0.25500000920E-02 0. -1.
</event>
<event>
 5   0  0.1098171E-07  0.3503648E+04  0.7818609E-02  0.8112926E-01
       -1   -1    0    0    0  501  0.00000000000E+00  0.00000000000E+00  0.15599715739E+04  0.15599715739E+04  0.50400001928E-02 0.  1.
        1   -1    0    0  501    0  0.00000000000E+00  0.00000000000E+00 -0.19672709524E+04  0.19672709524E+04  0.50400001928E-02 0. -1.
    10030    2    1    2    0    0  0.00000000000E+00  0.00000000000E+00 -0.40729937849E+03  0.35272425263E+04  0.35036476786E+04 0.  0.
        4    1    3    3  502    0 -0.70715277747E+03 -0.15465237032E+04 -0.62729774047E+03  0.18125409466E+04  0.12699999809E+01 0. -1.
       -4    1    3    3    0  502  0.70715277747E+03  0.15465237032E+04  0.21999836198E+03  0.17147015797E+04  0.12699999809E+01 0.  1.
</event>
<event>
 5   0  0.3219205E-07  0.3492630E+04  0.7818609E-02  0.8115539E-01
       -2   -1    0    0    0  501  0.00000000000E+00  0.00000000000E+00  0.16197812497E+04  0.16197812497E+04  0.25500000920E-02 0. -1.
        2   -1    0    0  501    0  0.00000000000E+00  0.00000000000E+00 -0.18827338188E+04  0.18827338188E+04  0.25500000920E-02 0.  1.
    10030    2    1    2    0    0  0.00000000000E+00  0.00000000000E+00 -0.26295256912E+03  0.35025150685E+04  0.34926304917E+04 0.  0.
        2    1    3    3  502    0 -0.49122234401E+03  0.19697184194E+03 -0.18003735222E+04  0.18765505901E+04  0.25500000920E-02 0.  1.
       -2    1    3    3    0  502  0.49122234401E+03 -0.19697184194E+03  0.15374209531E+04  0.16259644784E+04  0.25500000920E-02 0. -1.
</event>
<event>
 5   0  0.3219205E-07  0.3513964E+04  0.7818609E-02  0.8110489E-01
        2   -1    0    0  501    0  0.00000000000E+00  0.00000000000E+00  0.27401586828E+04  0.27401586828E+04  0.25500000920E-02 0. -1.
       -2   -1    0    0    0  501  0.00000000000E+00  0.00000000000E+00 -0.11265719015E+04  0.11265719015E+04  0.25500000920E-02 0.  1.
    10030    2    1    2    0    0  0.00000000000E+00  0.00000000000E+00  0.16135867813E+04  0.38667305843E+04  0.35139640168E+04 0.  0.
        2    1    3    3  502    0 -0.20957060165E+03  0.10269480401E+04 -0.74489049193E+03  0.12858475645E+04  0.25500000920E-02 0.  1.
       -2    1    3    3    0  502  0.20957060165E+03 -0.10269480401E+04  0.23584772732E+04  0.25808830199E+04  0.25500000920E-02 0. -1.
</event>
<event>
 5   0  0.2180451E-07  0.3524345E+04  0.7818609E-02  0.8108045E-01
       -2   -1    0    0    0  501  0.00000000000E+00  0.00000000000E+00  0.25056684531E+04  0.25056684532E+04  0.25500000920E-02 0. -1.
        2   -1    0    0  501    0  0.00000000000E+00  0.00000000000E+00 -0.12392911674E+04  0.12392911674E+04  0.25500000920E-02 0.  1.
    10030    2    1    2    0    0  0.00000000000E+00  0.00000000000E+00  0.12663772858E+04  0.37449596205E+04  0.35243454895E+04 0.  0.
        4    1    3    3  502    0  0.12307389298E+04  0.12528156105E+04  0.78712191027E+03  0.19245331334E+04  0.12699999809E+01 0.  1.
       -4    1    3    3    0  502 -0.12307389298E+04 -0.12528156105E+04  0.47925537550E+03  0.18204264871E+04  0.12699999809E+01 0. -1.
</event>
<event>
 5   0  0.3119048E-07  0.3296116E+04  0.7818609E-02  0.8163884E-01
       -2   -1    0    0    0  501  0.00000000000E+00  0.00000000000E+00  0.93876608215E+03  0.93876608215E+03  0.25500000920E-02 0. -1.
        2   -1    0    0  501    0  0.00000000000E+00  0.00000000000E+00 -0.28932617407E+04  0.28932617407E+04  0.25500000920E-02 0.  1.
    10030    2    1    2    0    0  0.00000000000E+00  0.00000000000E+00 -0.19544956586E+04  0.38320278229E+04  0.32961164961E+04 0.  0.
        3    1    3    3  502    0 -0.59399739283E+02 -0.63076167124E+03  0.79153350908E+03  0.10138608983E+04  0.10100000352E+00 0. -1.
       -3    1    3    3    0  502  0.59399739283E+02  0.63076167124E+03 -0.27460291677E+04  0.28181669246E+04  0.10100000352E+00 0.  1.
</event>
<event>
 5   0  0.3219205E-07  0.3507669E+04  0.7818609E-02  0.8111975E-01
       -2   -1    0    0    0  501  0.00000000000E+00  0.00000000000E+00  0.14806614436E+04  0.14806614436E+04  0.25500000920E-02 0.  1.
        2   -1    0    0  501    0  0.00000000000E+00  0.00000000000E+00 -0.20774060224E+04  0.20774060224E+04  0.25500000920E-02 0. -1.
    10030    2    1    2    0    0  0.00000000000E+00  0.00000000000E+00 -0.59674457875E+03  0.35580674660E+04  0.35076687416E+04 0.  0.
        2    1    3    3  502    0  0.93582096444E+02 -0.16680704835E+04  0.24288438093E+03  0.16882563695E+04  0.25500000920E-02 0.  1.
       -2    1    3    3    0  502 -0.93582096444E+02  0.16680704835E+04 -0.83962895968E+03  0.18698110965E+04  0.25500000920E-02 0. -1.
</event>
<event>
 5   0  0.2180451E-07  0.3507027E+04  0.7818609E-02  0.8112127E-01
        2   -1    0    0  501    0  0.00000000000E+00  0.00000000000E+00  0.19767856185E+04  0.19767856185E+04  0.25500000920E-02 0. -1.
       -2   -1    0    0    0  501  0.00000000000E+00  0.00000000000E+00 -0.15554589377E+04  0.15554589377E+04  0.25500000920E-02 0.  1.
    10030    2    1    2    0    0  0.00000000000E+00  0.00000000000E+00  0.42132668076E+03  0.35322445562E+04  0.35070265800E+04 0.  0.
        4    1    3    3  502    0  0.12091900852E+04 -0.11783736652E+04  0.68746159692E+03  0.18229948484E+04  0.12699999809E+01 0.  1.
       -4    1    3    3    0  502 -0.12091900852E+04  0.11783736652E+04 -0.26613491616E+03  0.17092497078E+04  0.12699999809E+01 0. -1.
</event>
<event>
 5   0  0.2180451E-07  0.3498517E+04  0.7818609E-02  0.8114142E-01
        2   -1    0    0  501    0  0.00000000000E+00  0.00000000000E+00  0.16947504879E+04  0.16947504879E+04  0.25500000920E-02 0.  1.
       -2   -1    0    0    0  501  0.00000000000E+00  0.00000000000E+00 -0.18055193489E+04  0.18055193489E+04  0.25500000920E-02 0. -1.
    10030    2    1    2    0    0  0.00000000000E+00  0.00000000000E+00 -0.11076886097E+03  0.35002698368E+04  0.34985167128E+04 0.  0.
        4    1    3    3  502    0  0.64756718913E+01  0.41435617565E+03  0.16449289194E+04  0.16963271316E+04  0.12699999809E+01 0.  1.
       -4    1    3    3    0  502 -0.64756718913E+01 -0.41435617565E+03 -0.17556977804E+04  0.18039427052E+04  0.12699999809E+01 0. -1.
</event>
<event>
 5   0  0.2180451E-07  0.3493107E+04  0.7818609E-02  0.8115425E-01
       -2   -1    0    0    0  501  0.00000000000E+00  0.00000000000E+00  0.13520933543E+04  0.13520933543E+04  0.25500000920E-02 0.  1.
        2   -1    0    0  501    0  0.00000000000E+00  0.00000000000E+00 -0.22560934736E+04  0.22560934736E+04  0.25500000920E-02 0. -1.
    10030    2    1    2    0    0  0.00000000000E+00  0.00000000000E+00 -0.90400011923E+03  0.36081868279E+04  0.34931069221E+04 0.  0.
        4    1    3    3  502    0  0.48319018721E+03 -0.12066479525E+04 -0.16570422864E+04  0.21060063604E+04  0.12699999809E+01 0. -1.
       -4    1    3    3    0  502 -0.48319018721E+03  0.12066479525E+04  0.75304216720E+03  0.15021804674E+04  0.12699999809E+01 0.  1.
</event>
<event>
 5   0  0.3119048E-07  0.3501474E+04  0.7818609E-02  0.8113441E-01
       -2   -1    0    0    0  501  0.00000000000E+00  0.00000000000E+00  0.13434334868E+04  0.13434334868E+04  0.25500000920E-02 0. -1.
        2   -1    0    0  501    0  0.00000000000E+00  0.00000000000E+00 -0.22815267219E+04  0.22815267219E+04  0.25500000920E-02 0.  1.
    10030    2    1    2    0    0  0.00000000000E+00  0.00000000000E+00 -0.93809323502E+03  0.36249602087E+04  0.35014736322E+04 0.  0.
        3    1    3    3  502    0 -0.13406577931E+04 -0.96933489537E+03  0.12395984234E+03  0.16590176341E+04  0.10100000352E+00 0. -1.
       -3    1    3    3    0  502  0.13406577931E+04  0.96933489537E+03 -0.10620530774E+04  0.19659425746E+04  0.10100000352E+00 0.  1.
</event>
<event>
 5   0  0.1013863E-07  0.3491280E+04  0.7818609E-02  0.8115860E-01
        1   -1    0    0  501    0  0.00000000000E+00  0.00000000000E+00  0.28393119823E+04  0.28393119823E+04  0.50400001928E-02 0.  1.
       -1   -1    0    0    0  501  0.00000000000E+00  0.00000000000E+00 -0.10732385600E+04  0.10732385600E+04  0.50400001928E-02 0. -1.
    10030    2    1    2    0    0  0.00000000000E+00  0.00000000000E+00  0.17660734222E+04  0.39125505423E+04  0.34912800537E+04 0.  0.
        2    1    3    3  502    0  0.57937839165E+03  0.17754061449E+03  0.27176623571E+04  0.27844009549E+04  0.25500000920E-02 0.  1.
       -2    1    3    3    0  502 -0.57937839165E+03 -0.17754061449E+03 -0.95158893487E+03  0.11281495874E+04  0.25500000920E-02 0. -1.
</event>
<event>
 5   0  0.3119048E-07  0.3473173E+04  0.7818609E-02  0.8120177E-01
       -2   -1    0    0    0  501  0.00000000000E+00  0.00000000000E+00  0.23776773278E+04  0.23776773278E+04  0.25500000920E-02 0.  1.
        2   -1    0    0  501    0  0.00000000000E+00  0.00000000000E+00 -0.12683522306E+04  0.12683522306E+04  0.25500000920E-02 0. -1.
    10030    2    1    2    0    0  0.00000000000E+00  0.00000000000E+00  0.11093250972E+04  0.36460295584E+04  0.34731728102E+04 0.  0.
        3    1    3    3  502    0 -0.77271628971E+03 -0.14868212881E+04  0.10334359063E+04  0.19686842789E+04  0.10100000352E+00 0.  1.
       -3    1    3    3    0  502  0.77271628971E+03  0.14868212881E+04  0.75889190855E+02  0.16773452795E+04  0.10100000352E+00 0. -1.
</event>
<event>
 5   0  0.3119048E-07  0.3499123E+04  0.7818609E-02  0.8113998E-01
        2   -1    0    0  501    0  0.00000000000E+00  0.00000000000E+00  0.19699861434E+04  0.19699861434E+04  0.25500000920E-02 0. -1.
       -2   -1    0    0    0  501  0.00000000000E+00  0.00000000000E+00 -0.15538003655E+04  0.15538003655E+04  0.25500000920E-02 0.  1.
    10030    2    1    2    0    0  0.00000000000E+00  0.00000000000E+00  0.41618577793E+03  0.35237865089E+04  0.34991228556E+04 0.  0.
        3    1    3    3  502    0 -0.70027403201E+03  0.98785038279E+03  0.14798213742E+04  0.19120939853E+04  0.10100000352E+00 0. -1.
       -3    1    3    3    0  502  0.70027403201E+03 -0.98785038279E+03 -0.10636355963E+04  0.16116925236E+04  0.10100000352E+00 0.  1.
</event>
<event>
 5   0  0.3190112E-07  0.3482353E+04  0.7818609E-02  0.8117985E-01
        2   -1    0    0  501    0  0.00000000000E+00  0.00000000000E+00  0.13211462643E+04  0.13211462643E+04  0.25500000920E-02 0.  1.
       -2   -1    0    0    0  501  0.00000000000E+00  0.00000000000E+00 -0.22947469148E+04  0.22947469148E+04  0.25500000920E-02 0. -1.
    10030    2    1    2    0    0  0.00000000000E+00  0.00000000000E+00 -0.97360065057E+03  0.36158931791E+04  0.34823534077E+04 0.  0.
        5    1    3    3  502    0  0.12576613933E+04  0.22696071807E+03 -0.17147098164E+04  0.21385684913E+04  0.46999998093E+01 0. -1.
       -5    1    3    3    0  502 -0.12576613933E+04 -0.22696071807E+03  0.74110916579E+03  0.14773246878E+04  0.46999998093E+01 0.  1.
</event>
<event>
 5   0  0.1098171E-07  0.3510022E+04  0.7818609E-02  0.8111419E-01
       -1   -1    0    0    0  501  0.00000000000E+00  0.00000000000E+00  0.12384731649E+04  0.12384731649E+04  0.50400001928E-02 0.  1.
        1   -1    0    0  501    0  0.00000000000E+00  0.00000000000E+00 -0.24869844877E+04  0.24869844877E+04  0.50400001928E-02 0. -1.
    10030    2    1    2    0    0  0.00000000000E+00  0.00000000000E+00 -0.12485113228E+04  0.37254576526E+04  0.35100219655E+04 0.  0.
        4    1    3    3  502    0  0.11206739136E+04  0.10416218700E+04 -0.15367783380E+04  0.21685422324E+04  0.12699999809E+01 0. -1.
       -4    1    3    3    0  502 -0.11206739136E+04 -0.10416218700E+04  0.28826701525E+03  0.15569154202E+04  0.12699999809E+01 0.  1.
</event>
<event>
 5   0  0.1013863E-07  0.3458221E+04  0.7818609E-02  0.8123763E-01
       -1   -1    0    0    0  501  0.00000000000E+00  0.00000000000E+00  0.13166398354E+04  0.13166398354E+04  0.50400001928E-02 0.  1.
        1   -1    0    0  501    0  0.00000000000E+00  0.00000000000E+00 -0.22707984904E+04  0.22707984904E+04  0.50400001928E-02 0. -1.
    10030    2    1    2    0    0  0.00000000000E+00  0.00000000000E+00 -0.95415865500E+03  0.35874383258E+04  0.34582213640E+04 0.  0.
        5    1    3    3  502    0  0.89870403188E+02  0.40574337661E+03  0.12640561970E+04  0.13306256183E+04  0.46999998093E+01 0.  1.
       -5    1    3    3    0  502 -0.89870403188E+02 -0.40574337661E+03 -0.22182148520E+04  0.22568127075E+04  0.46999998093E+01 0. -1.
</event>
<event>
 5   0  0.1013863E-07  0.3493617E+04  0.7818609E-02  0.8115304E-01
        1   -1    0    0  501    0  0.00000000000E+00  0.00000000000E+00  0.99034503403E+03  0.99034503404E+03  0.50400001928E-02 0. -1.
       -1   -1    0    0    0  501  0.00000000000E+00  0.00000000000E+00 -0.30810869149E+04  0.30810869149E+04  0.50400001928E-02 0.  1.
    10030    2    1    2    0    0  0.00000000000E+00  0.00000000000E+00 -0.20907418809E+04  0.40714319490E+04  0.34936165363E+04 0.  0.
        5    1    3    3  502    0  0.20590276684E+03 -0.77523829302E+03 -0.28537670942E+04  0.29643547491E+04  0.46999998093E+01 0.  1.
       -5    1    3    3    0  502 -0.20590276684E+03  0.77523829302E+03  0.76302521332E+03  0.11070771999E+04  0.46999998093E+01 0. -1.
</event>
<event>
 5   0  0.1013863E-07  0.3502484E+04  0.7818609E-02  0.8113201E-01
        3   -1    0    0  501    0  0.00000000000E+00  0.00000000000E+00  0.15397131598E+04  0.15397131631E+04  0.10100000352E+00 0. -1.
       -3   -1    0    0    0  501  0.00000000000E+00  0.00000000000E+00 -0.19918313000E+04  0.19918313025E+04  0.10100000352E+00 0.  1.
    10030    2    1    2    0    0  0.00000000000E+00  0.00000000000E+00 -0.45211814015E+03  0.35315444656E+04  0.35024841898E+04 0.  0.
        3    1    3    3  502    0  0.10585281440E+04 -0.13780067530E+04 -0.44573000215E+03  0.17938951162E+04  0.10100000352E+00 0.  1.
       -3    1    3    3    0  502 -0.10585281440E+04  0.13780067530E+04 -0.63881380050E+01  0.17376493494E+04  0.10100000352E+00 0. -1.
</event>
<event>
 5   0  0.3190185E-07  0.3497066E+04  0.7818609E-02  0.8114486E-01
       -2   -1    0    0    0  501  0.00000000000E+00  0.00000000000E+00  0.13602646283E+04  0.13602646283E+04  0.25500000920E-02 0. -1.
        2   -1    0    0  501    0  0.00000000000E+00  0.00000000000E+00 -0.22476271246E+04  0.22476271246E+04  0.25500000920E-02 0.  1.
    10030    2    1    2    0    0  0.00000000000E+00  0.00000000000E+00 -0.88736249637E+03  0.36078917529E+04  0.34970660132E+04 0.  0.
        1    1    3    3  502    0 -0.10344001722E+04 -0.12118955154E+04  0.29934636465E+03  0.16211979221E+04  0.50400001928E-02 0. -1.
       -1    1    3    3    0  502  0.10344001722E+04  0.12118955154E+04 -0.11867088610E+04  0.19866938308E+04  0.50400001928E-02 0.  1.
</event>
<event>
 5   0  0.3190185E-07  0.3490500E+04  0.7818609E-02  0.8116045E-01
       -2   -1    0    0    0  501  0.00000000000E+00  0.00000000000E+00  0.10273513118E+04  0.10273513118E+04  0.25500000920E-02 0. -1.
        2   -1    0    0  501    0  0.00000000000E+00  0.00000000000E+00 -0.29648054243E+04  0.29648054243E+04  0.25500000920E-02 0.  1.
    10030    2    1    2    0    0  0.00000000000E+00  0.00000000000E+00 -0.19374541125E+04  0.39921567362E+04  0.34904995299E+04 0.  0.
        1    1    3    3  502    0 -0.23565914556E+03 -0.16985667976E+04 -0.59770936359E+03  0.18160178640E+04  0.50400001928E-02 0. -1.
       -1    1    3    3    0  502  0.23565914556E+03  0.16985667976E+04 -0.13397447489E+04  0.21761388722E+04  0.50400001928E-02 0.  1.
</event>
<event>
 5   0  0.1098171E-07  0.3486937E+04  0.7818609E-02  0.8116893E-01
       -1   -1    0    0    0  501  0.00000000000E+00  0.00000000000E+00  0.16362875354E+04  0.16362875354E+04  0.50400001928E-02 0. -1.
        1   -1    0    0  501    0  0.00000000000E+00  0.00000000000E+00 -0.18576703155E+04  0.18576703155E+04  0.50400001928E-02 0.  1.
    10030    2    1    2    0    0  0.00000000000E+00  0.00000000000E+00 -0.22138278011E+03  0.34939578508E+04  0.34869372131E+04 0.  0.
        4    1    3    3  502    0 -0.17034359026E+04 -0.81773965360E+02 -0.47377480852E+03  0.17699844739E+04  0.12699999809E+01 0.  1.
       -4    1    3    3    0  502  0.17034359026E+04  0.81773965360E+02  0.25239202841E+03  0.17239733770E+04  0.12699999809E+01 0. -1.
</event>
<event>
 5   0  0.3219205E-07  0.3506235E+04  0.7818609E-02  0.8112314E-01
        2   -1    0    0  501    0  0.00000000000E+00  0.00000000000E+00  0.12201593273E+04  0.12201593273E+04  0.25500000920E-02 0.  1.
       -2   -1    0    0    0  501  0.00000000000E+00  0.00000000000E+00 -0.25188684656E+04  0.25188684656E+04  0.25500000920E-02 0. -1.
    10030    2    1    2    0    0  0.00000000000E+00  0.00000000000E+00 -0.12987091384E+04  0.37390277929E+04  0.35062349337E+04 0.  0.
        2    1    3    3  502    0  0.16329496772E+03 -0.67873770514E+03 -0.23642509376E+04  0.24651638109E+04  0.25500000920E-02 0. -1.
       -2    1    3    3    0  502 -0.16329496772E+03  0.67873770514E+03  0.10655417992E+04  0.12738639820E+04  0.25500000920E-02 0.  1.
</event>
<event>
 5   0  0.1013863E-07  0.3499789E+04  0.7818609E-02  0.8113840E-01
        1   -1    0    0  501    0  0.00000000000E+00  0.00000000000E+00  0.21360534190E+04  0.21360534190E+04  0.50400001928E-02 0.  1.
       -1   -1    0    0    0  501  0.00000000000E+00  0.00000000000E+00 -0.14335463113E+04  0.14335463113E+04  0.50400001928E-02 0. -1.
    10030    2    1    2    0    0  0.00000000000E+00  0.00000000000E+00  0.70250710764E+03  0.35695997303E+04  0.34997894220E+04 0.  0.
        5    1    3    3  502    0  0.74555544429E+03 -0.49606650603E+03 -0.11821222020E+04  0.14830272720E+04  0.46999998093E+01 0. -1.
       -5    1    3    3    0  502 -0.74555544429E+03  0.49606650603E+03  0.18846293097E+04  0.20865724583E+04  0.46999998093E+01 0.  1.
</event>
<event>
 5   0  0.3190112E-07  0.3497894E+04  0.7818609E-02  0.8114289E-01
        2   -1    0    0  501    0  0.00000000000E+00  0.00000000000E+00  0.13411265467E+04  0.13411265467E+04  0.25500000920E-02 0. -1.
       -2   -1    0    0    0  501  0.00000000000E+00  0.00000000000E+00 -0.22807810358E+04  0.22807810358E+04  0.25500000920E-02 0.  1.
    10030    2    1    2    0    0  0.00000000000E+00  0.00000000000E+00 -0.93965448906E+03  0.36219075825E+04  0.34978942204E+04 0.  0.
        5    1    3    3  502    0  0.65329976307E+03  0.97906481923E+03  0.86964547043E+03  0.14634458770E+04  0.46999998093E+01 0. -1.
       -5    1    3    3    0  502 -0.65329976307E+03 -0.97906481923E+03 -0.18092999595E+04  0.21584617055E+04  0.46999998093E+01 0.  1.
</event>
<event>
 5   0  0.3190112E-07  0.3512654E+04  0.7818609E-02  0.8110798E-01
        2   -1    0    0  501    0  0.00000000000E+00  0.00000000000E+00  0.11844565074E+04  0.11844565074E+04  0.25500000920E-02 0.  1.
       -2   -1    0    0    0  501  0.00000000000E+00  0.00000000000E+00 -0.26043032266E+04  0.26043032266E+04  0.25500000920E-02 0. -1.
    10030    2    1    2    0    0  0.00000000000E+00  0.00000000000E+00 -0.14198467192E+04  0.37887597339E+04  0.35126536430E+04 0.  0.
        5    1    3    3  502    0 -0.12261524576E+04 -0.28024859967E+02  0.64604294420E+03  0.13862282704E+04  0.46999998093E+01 0.  1.
       -5    1    3    3    0  502  0.12261524576E+04  0.28024859967E+02 -0.20658896634E+04  0.24025314635E+04  0.46999998093E+01 0. -1.
</event>
<event>
 5   0  0.1072381E-07  0.3510108E+04  0.7818609E-02  0.8111399E-01
        1   -1    0    0  501    0  0.00000000000E+00  0.00000000000E+00  0.18688745223E+04  0.18688745223E+04  0.50400001928E-02 0.  1.
       -1   -1    0    0    0  501  0.00000000000E+00  0.00000000000E+00 -0.16481653115E+04  0.16481653115E+04  0.50400001928E-02 0. -1.
    10030    2    1    2    0    0  0.00000000000E+00  0.00000000000E+00  0.22070921078E+03  0.35170398339E+04  0.35101077814E+04 0.  0.
        1    1    3    3  502    0 -0.11894572923E+04  0.61001495077E+03 -0.10291191746E+04  0.16870130900E+04  0.50400001928E-02 0. -1.
       -1    1    3    3    0  502  0.11894572923E+04 -0.61001495077E+03  0.12498283853E+04  0.18300267439E+04  0.50400001928E-02 0.  1.
</event>
<event>
 5   0  0.1013863E-07  0.3480945E+04  0.7818609E-02  0.8118321E-01
       -1   -1    0    0    0  501  0.00000000000E+00  0.00000000000E+00  0.12723157022E+04  0.12723157022E+04  0.50400001928E-02 0. -1.
        1   -1    0    0  501    0  0.00000000000E+00  0.00000000000E+00 -0.23808911222E+04  0.23808911222E+04  0.50400001928E-02 0.  1.
    10030    2    1    2    0    0  0.00000000000E+00  0.00000000000E+00 -0.11085754200E+04  0.36532068243E+04  0.34809453658E+04 0.  0.
        2    1    3    3  502    0 -0.78808220978E+03 -0.11220461717E+04  0.57076231765E+03  0.14852039604E+04  0.25500000920E-02 0. -1.
       -2    1    3    3    0  502  0.78808220978E+03  0.11220461717E+04 -0.16793377377E+04  0.21680028639E+04  0.25500000920E-02 0.  1.
</event>
<event>
 5   0  0.3119048E-07  0.3499367E+04  0.7818609E-02  0.8113940E-01
        2   -1    0    0  501    0  0.00000000000E+00  0.00000000000E+00  0.25262987029E+04  0.25262987029E+04  0.25500000920E-02 0. -1.
       -2   -1    0    0    0  501  0.00000000000E+00  0.00000000000E+00 -0.12118095713E+04  0.12118095713E+04  0.25500000920E-02 0.  1.
    10030    2    1    2    0    0  0.00000000000E+00  0.00000000000E+00  0.13144891316E+04  0.37381082742E+04  0.34993673418E+04 0.  0.
        3    1    3    3  502    0  0.95250929337E+02  0.10687458584E+04  0.21335991515E+04  0.23882076541E+04  0.10100000352E+00 0. -1.
       -3    1    3    3    0  502 -0.95250929337E+02 -0.10687458584E+04 -0.81911001994E+03  0.13499006201E+04  0.10100000352E+00 0.  1.
</event>
<event>
 5   0  0.2180451E-07  0.3487916E+04  0.7818609E-02  0.8116660E-01
        2   -1    0    0  501    0  0.00000000000E+00  0.00000000000E+00  0.16148300616E+04  0.16148300616E+04  0.25500000920E-02 0.  1.
       -2   -1    0    0    0  501  0.00000000000E+00  0.00000000000E+00 -0.18834119518E+04  0.18834119518E+04  0.25500000920E-02 0. -1.
    10030    2    1    2    0    0  0.00000000000E+00  0.00000000000E+00 -0.26858189022E+03  0.34982420135E+04  0.34879164200E+04 0.  0.
        4    1    3    3  502    0  0.10035918852E+04  0.14257487697E+04 -0.96331855330E+02  0.17462066503E+04  0.12699999809E+01 0. -1.
       -4    1    3    3    0  502 -0.10035918852E+04 -0.14257487697E+04 -0.17225003489E+03  0.17520353632E+04  0.12699999809E+01 0.  1.
</event>
<event>
 5   0  0.3190112E-07  0.3510615E+04  0.7818609E-02  0.8111279E-01
        2   -1    0    0  501    0  0.00000000000E+00  0.00000000000E+00  0.16244945947E+04  0.16244945947E+04  0.25500000920E-02 0. -1.
       -2   -1    0    0    0  501  0.00000000000E+00  0.00000000000E+00 -0.18966542333E+04  0.18966542333E+04  0.25500000920E-02 0.  1.
    10030    2    1    2    0    0  0.00000000000E+00  0.00000000000E+00 -0.27215963859E+03  0.35211488281E+04  0.35106150744E+04 0.  0.
        5    1    3    3  502    0  0.14104725244E+04 -0.88364253886E+03 -0.69527001200E+03  0.18037958194E+04  0.46999998093E+01 0.  1.
       -5    1    3    3    0  502 -0.14104725244E+04  0.88364253886E+03  0.42311037341E+03  0.17173530087E+04  0.46999998093E+01 0. -1.
</event>
<event>
 5   0  0.3190112E-07  0.3520574E+04  0.7818609E-02  0.8108931E-01
       -2   -1    0    0    0  501  0.00000000000E+00  0.00000000000E+00  0.15618890289E+04  0.15618890289E+04  0.25500000920E-02 0. -1.
        2   -1    0    0  501    0  0.00000000000E+00  0.00000000000E+00 -0.19838863753E+04  0.19838863753E+04  0.25500000920E-02 0.  1.
    10030    2    1    2    0    0  0.00000000000E+00  0.00000000000E+00 -0.42199734641E+03  0.35457754042E+04  0.35205740238E+04 0.  0.
        5    1    3    3  502    0  0.60117324031E+03  0.10742022751E+04  0.10562884615E+04  0.16220626365E+04  0.46999998093E+01 0. -1.
       -5    1    3    3    0  502 -0.60117324031E+03 -0.10742022751E+04 -0.14782858080E+04  0.19237127677E+04  0.46999998093E+01 0.  1.
</event>
<event>
 5   0  0.3190185E-07  0.3458221E+04  0.7818609E-02  0.8123763E-01
       -2   -1    0    0    0  501  0.00000000000E+00  0.00000000000E+00  0.21264371454E+04  0.21264371454E+04  0.25500000920E-02 0. -1.
        2   -1    0    0  501    0  0.00000000000E+00  0.00000000000E+00 -0.14060246291E+04  0.14060246291E+04  0.25500000920E-02 0.  1.
    10030    2    1    2    0    0  0.00000000000E+00  0.00000000000E+00  0.72041251629E+03  0.35324617745E+04  0.34582209291E+04 0.  0.
        1    1    3    3  502    0  0.95643820783E+03  0.21093146954E+03  0.18157736394E+04  0.20630802310E+04  0.50400001928E-02 0. -1.
       -1    1    3    3    0  502 -0.95643820783E+03 -0.21093146954E+03 -0.10953611231E+04  0.14693815434E+04  0.50400001928E-02 0.  1.
</event>
<event>
 5   0  0.2180451E-07  0.3526795E+04  0.7818609E-02  0.8107469E-01
        2   -1    0    0  501    0  0.00000000000E+00  0.00000000000E+00  0.18815665146E+04  0.18815665146E+04  0.25500000920E-02 0.  1.
       -2   -1    0    0    0  501  0.00000000000E+00  0.00000000000E+00 -0.16526498737E+04  0.16526498737E+04  0.25500000920E-02 0. -1.
    10030    2    1    2    0    0  0.00000000000E+00  0.00000000000E+00  0.22891664081E+03  0.35342163883E+04  0.35267949545E+04 0.  0.
        4    1    3    3  502    0  0.83972222244E+02  0.15863564430E+04  0.88156962113E+03  0.18167951750E+04  0.12699999809E+01 0.  1.
       -4    1    3    3    0  502 -0.83972222244E+02 -0.15863564430E+04 -0.65265298031E+03  0.17174212133E+04  0.12699999809E+01 0. -1.
</event>
<event>
 5   0  0.1013863E-07  0.3577064E+04  0.7818609E-02  0.8095766E-01
        1   -1    0    0  501    0  0.00000000000E+00  0.00000000000E+00  0.19111541257E+04  0.19111541257E+04  0.50400001928E-02 0. -1.
       -1   -1    0    0    0  501  0.00000000000E+00  0.00000000000E+00 -0.16737779235E+04  0.16737779235E+04  0.50400001928E-02 0.  1.
    10030    2    1    2    0    0  0.00000000000E+00  0.00000000000E+00  0.23737620219E+03  0.35849320493E+04  0.35770644859E+04 0.  0.
        5    1    3    3  502    0  0.16550220708E+04 -0.10181248112E+03 -0.55313071818E+03  0.17479815553E+04  0.46999998093E+01 0.  1.
       -5    1    3    3    0  502 -0.16550220708E+04  0.10181248112E+03  0.79050692038E+03  0.18369504940E+04  0.46999998093E+01 0. -1.
</event>
<event>
 5   0  0.3119048E-07  0.3478023E+04  0.7818609E-02  0.8119018E-01
        2   -1    0    0  501    0  0.00000000000E+00  0.00000000000E+00  0.19306893269E+04  0.19306893270E+04  0.25500000920E-02 0.  1.
       -2   -1    0    0    0  501  0.00000000000E+00  0.00000000000E+00 -0.15663630360E+04  0.15663630360E+04  0.25500000920E-02 0. -1.
    10030    2    1    2    0    0  0.00000000000E+00  0.00000000000E+00  0.36432629092E+03  0.34970523630E+04  0.34780226542E+04 0.  0.
        3    1    3    3  502    0  0.12584576191E+03  0.10641588854E+04  0.15592879739E+04  0.18919963755E+04  0.10100000352E+00 0.  1.
       -3    1    3    3    0  502 -0.12584576191E+03 -0.10641588854E+04 -0.11949616830E+04  0.16050559875E+04  0.10100000352E+00 0. -1.
</event>
<event>
 5   0  0.2180451E-07  0.3519294E+04  0.7818609E-02  0.8109233E-01
       -2   -1    0    0    0  501  0.00000000000E+00  0.00000000000E+00  0.15952732972E+04  0.15952732972E+04  0.25500000920E-02 0.  1.
        2   -1    0    0  501    0  0.00000000000E+00  0.00000000000E+00 -0.19409569146E+04  0.19409569146E+04  0.25500000920E-02 0. -1.
    10030    2    1    2    0    0  0.00000000000E+00  0.00000000000E+00 -0.34568361736E+03  0.35362302118E+04  0.35192935296E+04 0.  0.
        4    1    3    3  502    0  0.96012675643E+03 -0.39286655222E+03 -0.16010079766E+04  0.19077252607E+04  0.12699999809E+01 0. -1.
       -4    1    3    3    0  502 -0.96012675643E+03  0.39286655222E+03  0.12553243592E+04  0.16285049512E+04  0.12699999809E+01 0.  1.
</event>
<event>
 5   0  0.2180451E-07  0.3507396E+04  0.7818609E-02  0.8112039E-01
        2   -1    0    0  501    0  0.00000000000E+00  0.00000000000E+00  0.18257510521E+04  0.18257510521E+04  0.25500000920E-02 0.  1.
       -2   -1    0    0    0  501  0.00000000000E+00  0.00000000000E+00 -0.16844886847E+04  0.16844886847E+04  0.25500000920E-02 0. -1.
    10030    2    1    2    0    0  0.00000000000E+00  0.00000000000E+00  0.14126236749E+03  0.35102397368E+04  0.35073961786E+04 0.  0.
        4    1    3    3  502    0  0.45756419011E+03  0.59241036050E+03 -0.15165739746E+04  0.16912460663E+04  0.12699999809E+01 0. -1.
       -4    1    3    3    0  502 -0.45756419011E+03 -0.59241036050E+03  0.16578363421E+04  0.18189936705E+04  0.12699999809E+01 0.  1.
</event>
<event>
 5   0  0.1098171E-07  0.3500381E+04  0.7818609E-02  0.8113700E-01
       -1   -1    0    0    0  501  0.00000000000E+00  0.00000000000E+00  0.22832864704E+04  0.22832864704E+04  0.50400001928E-02 0.  1.
        1   -1    0    0  501    0  0.00000000000E+00  0.00000000000E+00 -0.13415606074E+04  0.13415606074E+04  0.50400001928E-02 0. -1.
    10030    2    1    2    0    0  0.00000000000E+00  0.00000000000E+00  0.94172586302E+03  0.36248470778E+04  0.35003812273E+04 0.  0.
        4    1    3    3  502    0  0.87685610175E+01  0.16393323898E+04  0.11055829923E+04  0.19773221633E+04  0.12699999809E+01 0.  1.
       -4    1    3    3    0  502 -0.87685610175E+01 -0.16393323898E+04 -0.16385712924E+03  0.16475249144E+04  0.12699999809E+01 0. -1.
</event>
<event>
 5   0  0.3190185E-07  0.3496774E+04  0.7818609E-02  0.8114555E-01
       -2   -1    0    0    0  501  0.00000000000E+00  0.00000000000E+00  0.17663364341E+04  0.17663364341E+04  0.25500000920E-02 0. -1.
        2   -1    0    0  501    0  0.00000000000E+00  0.00000000000E+00 -0.17306199109E+04  0.17306199109E+04  0.25500000920E-02 0.  1.
    10030    2    1    2    0    0  0.00000000000E+00  0.00000000000E+00  0.35716523221E+02  0.34969563450E+04  0.34967739431E+04 0.  0.
        1    1    3    3  502    0 -0.50148890962E+03 -0.24470773093E+03  0.16748949041E+04  0.17654024866E+04  0.50400001928E-02 0. -1.
       -1    1    3    3    0  502  0.50148890962E+03  0.24470773093E+03 -0.16391783809E+04  0.17315538584E+04  0.50400001928E-02 0.  1.
</event>
<event>
 5   0  0.3190112E-07  0.3502291E+04  0.7818609E-02  0.8113247E-01
        2   -1    0    0  501    0  0.00000000000E+00  0.00000000000E+00  0.19789042950E+04  0.19789042950E+04  0.25500000920E-02 0.  1.
       -2   -1    0    0    0  501  0.00000000000E+00  0.00000000000E+00 -0.15496005711E+04  0.15496005711E+04  0.25500000920E-02 0. -1.
    10030    2    1    2    0    0  0.00000000000E+00  0.00000000000E+00  0.42930372387E+03  0.35285048661E+04  0.35022913789E+04 0.  0.
        5    1    3    3  502    0 -0.13898719657E+04  0.99419556712E+02 -0.85388088920E+03  0.16342469190E+04  0.46999998093E+01 0. -1.
       -5    1    3    3    0  502  0.13898719657E+04 -0.99419556712E+02  0.12831846131E+04  0.18942579472E+04  0.46999998093E+01 0.  1.
</event>
<event>
 5   0  0.1072381E-07  0.3514464E+04  0.7818609E-02  0.8110371E-01
       -1   -1    0    0    0  501  0.00000000000E+00  0.00000000000E+00  0.13947145904E+04  0.13947145904E+04  0.50400001928E-02 0. -1.
        1   -1    0    0  501    0  0.00000000000E+00  0.00000000000E+00 -0.22139760521E+04  0.22139760521E+04  0.50400001928E-02 0.  1.
    10030    2    1    2    0    0  0.00000000000E+00  0.00000000000E+00 -0.81926146165E+03  0.36086906425E+04  0.35144642281E+04 0.  0.
        1    1    3    3  502    0  0.11522104678E+04 -0.78539706647E+03  0.68835016464E+03  0.15550766744E+04  0.50400001928E-02 0. -1.
       -1    1    3    3    0  502 -0.11522104678E+04  0.78539706647E+03 -0.15076116263E+04  0.20536139681E+04  0.50400001928E-02 0.  1.
</event>
<event>
 5   0  0.1013863E-07  0.3501975E+04  0.7818609E-02  0.8113322E-01
       -3   -1    0    0    0  501  0.00000000000E+00  0.00000000000E+00  0.21207134512E+04  0.21207134536E+04  0.10100000352E+00 0.  1.
        3   -1    0    0  501    0  0.00000000000E+00  0.00000000000E+00 -0.14457196215E+04  0.14457196250E+04  0.10100000352E+00 0. -1.
    10030    2    1    2    0    0  0.00000000000E+00  0.00000000000E+00  0.67499382969E+03  0.35664330786E+04  0.35019749048E+04 0.  0.
        2    1    3    3  502    0 -0.51162272317E+03 -0.14182751187E+04  0.12442187856E+04  0.19548254422E+04  0.25500000920E-02 0.  1.
       -2    1    3    3    0  502  0.51162272317E+03  0.14182751187E+04 -0.56922495588E+03  0.16116076364E+04  0.25500000920E-02 0. -1.
</event>
<event>
 5   0  0.1013863E-07  0.3493259E+04  0.7818609E-02  0.8115389E-01
        1   -1    0    0  501    0  0.00000000000E+00  0.00000000000E+00  0.26055171004E+04  0.26055171004E+04  0.50400001928E-02 0.  1.
       -1   -1    0    0    0  501  0.00000000000E+00  0.00000000000E+00 -0.11708671175E+04  0.11708671175E+04  0.50400001928E-02 0. -1.
    10030    2    1    2    0    0  0.00000000000E+00  0.00000000000E+00  0.14346499829E+04  0.37763842179E+04  0.34932588206E+04 0.  0.
        2    1    3    3  502    0  0.22189937649E+03 -0.55578817047E+03 -0.10565755722E+04  0.12142865245E+04  0.25500000920E-02 0. -1.
       -2    1    3    3    0  502 -0.22189937649E+03  0.55578817047E+03  0.24912255552E+04  0.25620976934E+04  0.25500000920E-02 0.  1.
</event>
<event>
 5   0  0.2180451E-07  0.3490951E+04  0.7818609E-02  0.8115938E-01
       -2   -1    0    0    0  501  0.00000000000E+00  0.00000000000E+00  0.17314515366E+04  0.17314515366E+04  0.25500000920E-02 0. -1.
        2   -1    0    0  501    0  0.00000000000E+00  0.00000000000E+00 -0.17596126060E+04  0.17596126060E+04  0.25500000920E-02 0.  1.
    10030    2    1    2    0    0  0.00000000000E+00  0.00000000000E+00 -0.28161069346E+02  0.34910641426E+04  0.34909505585E+04 0.  0.
        4    1    3    3  502    0  0.11317521916E+02 -0.73317654497E+03  0.15699553480E+04  0.17327542642E+04  0.12699999809E+01 0. -1.
       -4    1    3    3    0  502 -0.11317521916E+02  0.73317654497E+03 -0.15981164173E+04  0.17583098785E+04  0.12699999809E+01 0.  1.
</event>
<event>
 5   0  0.1033796E-07  0.3511054E+04  0.7818609E-02  0.8111175E-01
        1   -1    0    0  501    0  0.00000000000E+00  0.00000000000E+00  0.15769726934E+04  0.15769726934E+04  0.50400001928E-02 0. -1.
       -1   -1    0    0    0  501  0.00000000000E+00  0.00000000000E+00 -0.19542981295E+04  0.19542981295E+04  0.50400001928E-02 0.  1.
    10030    2    1    2    0    0  0.00000000000E+00  0.00000000000E+00 -0.37732543610E+03  0.35312708230E+04  0.35110538504E+04 0.  0.
        3    1    3    3  502    0  0.18524153294E+03  0.15190937454E+04 -0.10537985843E+04  0.18580774202E+04  0.10100000352E+00 0.  1.
       -3    1    3    3    0  502 -0.18524153294E+03 -0.15190937454E+04  0.67647314822E+03  0.16731934028E+04  0.10100000352E+00 0. -1.
</event>
<event>
 5   0  0.3190112E-07  0.3483111E+04  0.7818609E-02  0.8117804E-01
        2   -1    0    0  501    0  0.00000000000E+00  0.00000000000E+00  0.18394206403E+04  0.18394206403E+04  0.25500000920E-02 0.  1.
       -2   -1    0    0    0  501  0.00000000000E+00  0.00000000000E+00 -0.16488970378E+04  0.16488970378E+04  0.25500000920E-02 0. -1.
    10030    2    1    2    0    0  0.00000000000E+00  0.00000000000E+00  0.19052360244E+03  0.34883176781E+04  0.34831108194E+04 0.  0.
        5    1    3    3  502    0 -0.13917898038E+04 -0.41014898797E+03  0.10598693734E+04  0.17968434070E+04  0.46999998093E+01 0. -1.
       -5    1    3    3    0  502  0.13917898038E+04  0.41014898797E+03 -0.86934577096E+03  0.16914742711E+04  0.46999998093E+01 0.  1.
</event>
<event>
 5   0  0.3219205E-07  0.3513836E+04  0.7818609E-02  0.8110519E-01
       -2   -1    0    0    0  501  0.00000000000E+00  0.00000000000E+00  0.18672442686E+04  0.18672442686E+04  0.25500000920E-02 0.  1.
        2   -1    0    0  501    0  0.00000000000E+00  0.00000000000E+00 -0.16531103571E+04  0.16531103571E+04  0.25500000920E-02 0. -1.
    10030    2    1    2    0    0  0.00000000000E+00  0.00000000000E+00  0.21413391148E+03  0.35203546257E+04  0.35138359891E+04 0.  0.
        2    1    3    3  502    0 -0.10972653833E+04  0.13496683862E+03  0.14750866488E+04  0.18433903522E+04  0.25500000920E-02 0.  1.
       -2    1    3    3    0  502  0.10972653833E+04 -0.13496683862E+03 -0.12609527373E+04  0.16769642735E+04  0.25500000920E-02 0. -1.
</event>
<event>
 5   0  0.3119048E-07  0.3472598E+04  0.7818609E-02  0.8120315E-01
        2   -1    0    0  501    0  0.00000000000E+00  0.00000000000E+00  0.20052276299E+04  0.20052276299E+04  0.25500000920E-02 0. -1.
       -2   -1    0    0    0  501  0.00000000000E+00  0.00000000000E+00 -0.15034372324E+04  0.15034372324E+04  0.25500000920E-02 0.  1.
    10030    2    1    2    0    0  0.00000000000E+00  0.00000000000E+00  0.50179039749E+03  0.35086648623E+04  0.34725978046E+04 0.  0.
        3    1    3    3  502    0 -0.14069326228E+04  0.48564764755E+03  0.11542848893E+04  0.18835303710E+04  0.10100000352E+00 0. -1.
       -3    1    3    3    0  502  0.14069326228E+04 -0.48564764755E+03 -0.65249449177E+03  0.16251344913E+04  0.10100000352E+00 0.  1.
</event>
<event>
 5   0  0.1033796E-07  0.3499177E+04  0.7818609E-02  0.8113985E-01
       -1   -1    0    0    0  501  0.00000000000E+00  0.00000000000E+00  0.27585393763E+04  0.27585393763E+04  0.50400001928E-02 0. -1.
        1   -1    0    0  501    0  0.00000000000E+00  0.00000000000E+00 -0.11096670891E+04  0.11096670891E+04  0.50400001928E-02 0.  1.
    10030    2    1    2    0    0  0.00000000000E+00  0.00000000000E+00  0.16488722872E+04  0.38682064655E+04  0.34991772519E+04 0.  0.
        3    1    3    3  502    0 -0.15553632119E+04 -0.17255792119E+03 -0.40462708802E+02  0.15654290780E+04  0.10100000352E+00 0.  1.
       -3    1    3    3    0  502  0.15553632119E+04  0.17255792119E+03  0.16893349960E+04  0.23027773875E+04  0.10100000352E+00 0. -1.
</event>
<event>
 5   0  0.1013863E-07  0.3470338E+04  0.7818609E-02  0.8120856E-01
       -1   -1    0    0    0  501  0.00000000000E+00  0.00000000000E+00  0.14049670250E+04  0.14049670251E+04  0.50400001928E-02 0. -1.
        1   -1    0    0  501    0  0.00000000000E+00  0.00000000000E+00 -0.21429764266E+04  0.21429764266E+04  0.50400001928E-02 0.  1.
    10030    2    1    2    0    0  0.00000000000E+00  0.00000000000E+00 -0.73800940151E+03  0.35479434516E+04  0.34703378595E+04 0.  0.
        2    1    3    3  502    0  0.12256310122E+04  0.40406255892E+03 -0.15548453434E+04  0.20206390008E+04  0.25500000920E-02 0.  1.
       -2    1    3    3    0  502 -0.12256310122E+04 -0.40406255892E+03  0.81683594188E+03  0.15273044508E+04  0.25500000920E-02 0. -1.
</event>
<event>
 5   0  0.3119048E-07  0.3490045E+04  0.7818609E-02  0.8116153E-01
       -2   -1    0    0    0  501  0.00000000000E+00  0.00000000000E+00  0.13512680807E+04  0.13512680807E+04  0.25500000920E-02 0.  1.
        2   -1    0    0  501    0  0.00000000000E+00  0.00000000000E+00 -0.22535154705E+04  0.22535154705E+04  0.25500000920E-02 0. -1.
    10030    2    1    2    0    0  0.00000000000E+00  0.00000000000E+00 -0.90224738987E+03  0.36047835512E+04  0.34900449995E+04 0.  0.
        3    1    3    3  502    0 -0.57450675229E+03 -0.16216165451E+04 -0.14927413768E+03  0.17268413379E+04  0.10100000352E+00 0.  1.
       -3    1    3    3    0  502  0.57450675229E+03  0.16216165451E+04 -0.75297325219E+03  0.18779422133E+04  0.10100000352E+00 0. -1.
</event>
<event>
 5   0  0.3190112E-07  0.3518689E+04  0.7818609E-02  0.8109375E-01
       -2   -1    0    0    0  501  0.00000000000E+00  0.00000000000E+00  0.14075243939E+04  0.14075243939E+04  0.25500000920E-02 0. -1.
        2   -1    0    0  501    0  0.00000000000E+00  0.00000000000E+00 -0.21991043526E+04  0.21991043526E+04  0.25500000920E-02 0.  1.
    10030    2    1    2    0    0  0.00000000000E+00  0.00000000000E+00 -0.79157995874E+03  0.36066287465E+04  0.35186889723E+04 0.  0.
        5    1    3    3  502    0 -0.66092516554E+03  0.13924688831E+04 -0.12652101296E+04  0.19941340043E+04  0.46999998093E+01 0. -1.
       -5    1    3    3    0  502  0.66092516554E+03 -0.13924688831E+04  0.47363017083E+03  0.16124947422E+04  0.46999998093E+01 0.  1.
</event>
<event>
 5   0  0.2180451E-07  0.3353195E+04  0.7818609E-02  0.8149490E-01
        2   -1    0    0  501    0  0.00000000000E+00  0.00000000000E+00  0.11697023974E+04  0.11697023974E+04  0.25500000920E-02 0. -1.
       -2   -1    0    0    0  501  0.00000000000E+00  0.00000000000E+00 -0.24031576404E+04  0.24031576404E+04  0.25500000920E-02 0.  1.
    10030    2    1    2    0    0  0.00000000000E+00  0.00000000000E+00 -0.12334552430E+04  0.35728600378E+04  0.33531950455E+04 0.  0.
        4    1    3    3  502    0  0.36345710939E+03  0.33317100290E+03 -0.23241619684E+04  0.23758860359E+04  0.12699999809E+01 0.  1.
       -4    1    3    3    0  502 -0.36345710939E+03 -0.33317100290E+03  0.10907067253E+04  0.11969740019E+04  0.12699999809E+01 0. -1.
</event>
<event>
 5   0  0.1098171E-07  0.3507642E+04  0.7818609E-02  0.8111981E-01
       -1   -1    0    0    0  501  0.00000000000E+00  0.00000000000E+00  0.12564655833E+04  0.12564655833E+04  0.50400001928E-02 0.  1.
        1   -1    0    0  501    0  0.00000000000E+00  0.00000000000E+00 -0.24480480362E+04  0.24480480362E+04  0.50400001928E-02 0. -1.
    10030    2    1    2    0    0  0.00000000000E+00  0.00000000000E+00 -0.11915824529E+04  0.37045136195E+04  0.35076420021E+04 0.  0.
        4    1    3    3  502    0 -0.33429175016E+03 -0.11681321452E+04  0.73994902364E+03  0.14226067107E+04  0.12699999809E+01 0.  1.
       -4    1    3    3    0  502  0.33429175016E+03  0.11681321452E+04 -0.19315314765E+04  0.22819069088E+04  0.12699999809E+01 0. -1.
</event>
<event>
 5   0  0.1072381E-07  0.3487148E+04  0.7818609E-02  0.8116842E-01
        1   -1    0    0  501    0  0.00000000000E+00  0.00000000000E+00  0.14166281028E+04  0.14166281028E+04  0.50400001928E-02 0. -1.
       -1   -1    0    0    0  501  0.00000000000E+00  0.00000000000E+00 -0.21459763903E+04  0.21459763903E+04  0.50400001928E-02 0.  1.
    10030    2    1    2    0    0  0.00000000000E+00  0.00000000000E+00 -0.72934828749E+03  0.35626044931E+04  0.34871480969E+04 0.  0.
        1    1    3    3  502    0  0.26038044289E+03 -0.11937123174E+04 -0.16354968266E+04  0.20414693095E+04  0.50400001928E-02 0.  1.
       -1    1    3    3    0  502 -0.26038044289E+03  0.11937123174E+04  0.90614853914E+03  0.15211351836E+04  0.50400001928E-02 0. -1.
</event>
<event>
 5   0  0.1033796E-07  0.3470901E+04  0.7818609E-02  0.8120721E-01
       -1   -1    0    0    0  501  0.00000000000E+00  0.00000000000E+00  0.16836051976E+04  0.16836051976E+04  0.50400001928E-02 0.  1.
        1   -1    0    0  501    0  0.00000000000E+00  0.00000000000E+00 -0.17888926748E+04  0.17888926748E+04  0.50400001928E-02 0. -1.
    10030    2    1    2    0    0  0.00000000000E+00  0.00000000000E+00 -0.10528747722E+03  0.34724978724E+04  0.34709013269E+04 0.  0.
        3    1    3    3  502    0  0.79968147116E+03 -0.67368227795E+03 -0.14383623364E+04  0.17782644595E+04  0.10100000352E+00 0. -1.
       -3    1    3    3    0  502 -0.79968147116E+03  0.67368227795E+03  0.13330748592E+04  0.16942334129E+04  0.10100000352E+00 0.  1.
</event>
<event>
 5   0  0.1072381E-07  0.3471056E+04  0.7818609E-02  0.8120684E-01
       -1   -1    0    0    0  501  0.00000000000E+00  0.00000000000E+00  0.11427952069E+04  0.11427952069E+04  0.50400001928E-02 0. -1.
        1   -1    0    0  501    0  0.00000000000E+00  0.00000000000E+00 -0.26356923818E+04  0.26356923818E+04  0.50400001928E-02 0.  1.
    10030    2    1    2    0    0  0.00000000000E+00  0.00000000000E+00 -0.14928971749E+04  0.37784875887E+04  0.34710555287E+04 0.  0.
        1    1    3    3  502    0  0.95713499375E+03  0.26135503323E+03  0.80362444421E+03  0.12768030768E+04  0.50400001928E-02 0. -1.
       -1    1    3    3    0  502 -0.95713499375E+03 -0.26135503323E+03 -0.22965216191E+04  0.25016845119E+04  0.50400001928E-02 0.  1.
</event>
<event>
 5   0  0.3219205E-07  0.3493137E+04  0.7818609E-02  0.8115418E-01
        2   -1    0    0  501    0  0.00000000000E+00  0.00000000000E+00  0.21443857320E+04  0.21443857320E+04  0.25500000920E-02 0. -1.
       -2   -1    0    0    0  501  0.00000000000E+00  0.00000000000E+00 -0.14225522883E+04  0.14225522883E+04  0.25500000920E-02 0.  1.
    10030    2    1    2    0    0  0.00000000000E+00  0.00000000000E+00  0.72183344369E+03  0.35669380203E+04  0.34931366021E+04 0.  0.
        2    1    3    3  502    0 -0.12260734009E+04 -0.10844339971E+04 -0.26125735168E+03  0.16575610041E+04  0.25500000920E-02 0.  1.
       -2    1    3    3    0  502  0.12260734009E+04  0.10844339971E+04  0.98309079537E+03  0.19093770163E+04  0.25500000920E-02 0. -1.
</event>
<event>
 5   0  0.1098171E-07  0.3501014E+04  0.7818609E-02  0.8113550E-01
        1   -1    0    0  501    0  0.00000000000E+00  0.00000000000E+00  0.21858883630E+04  0.21858883630E+04  0.50400001928E-02 0.  1.
       -1   -1    0    0    0  501  0.00000000000E+00  0.00000000000E+00 -0.14018442085E+04  0.14018442085E+04  0.50400001928E-02 0. -1.
    10030    2    1    2    0    0  0.00000000000E+00  0.00000000000E+00  0.78404415454E+03  0.35877325715E+04  0.35010141057E+04 0.  0.
        4    1    3    3  502    0  0.11421705335E+04  0.30467648435E+03  0.17150832951E+04  0.20830011065E+04  0.12699999809E+01 0.  1.
       -4    1    3    3    0  502 -0.11421705335E+04 -0.30467648435E+03 -0.93103914053E+03  0.15047314650E+04  0.12699999809E+01 0. -1.
</event>
<event>
 5   0  0.3119048E-07  0.3515459E+04  0.7818609E-02  0.8110136E-01
       -2   -1    0    0    0  501  0.00000000000E+00  0.00000000000E+00  0.18686686741E+04  0.18686686741E+04  0.25500000920E-02 0.  1.
        2   -1    0    0  501    0  0.00000000000E+00  0.00000000000E+00 -0.16533766554E+04  0.16533766554E+04  0.25500000920E-02 0. -1.
    10030    2    1    2    0    0  0.00000000000E+00  0.00000000000E+00  0.21529201874E+03  0.35220453295E+04  0.35154590951E+04 0.  0.
        3    1    3    3  502    0 -0.16774595753E+04 -0.49741775659E+03 -0.60949092420E+02  0.17507169542E+04  0.10100000352E+00 0.  1.
       -3    1    3    3    0  502  0.16774595753E+04  0.49741775659E+03  0.27624111116E+03  0.17713283753E+04  0.10100000352E+00 0. -1.
</event>
<event>
 5   0  0.1013863E-07  0.3487890E+04  0.7818609E-02  0.8116666E-01
       -3   -1    0    0    0  501  0.00000000000E+00  0.00000000000E+00  0.17255614275E+04  0.17255614305E+04  0.10100000352E+00 0.  1.
        3   -1    0    0  501    0  0.00000000000E+00  0.00000000000E+00 -0.17625240920E+04  0.17625240949E+04  0.10100000352E+00 0. -1.
    10030    2    1    2    0    0  0.00000000000E+00  0.00000000000E+00 -0.36962664466E+02  0.34880855253E+04  0.34878896762E+04 0.  0.
        4    1    3    3  502    0  0.13394414531E+04 -0.10730621664E+04 -0.32797595653E+03  0.17473224259E+04  0.12699999809E+01 0. -1.
       -4    1    3    3    0  502 -0.13394414531E+04  0.10730621664E+04  0.29101329206E+03  0.17407630994E+04  0.12699999809E+01 0.  1.
</event>
<event>
 5   0  0.2180451E-07  0.3490681E+04  0.7818609E-02  0.8116002E-01
        2   -1    0    0  501    0  0.00000000000E+00  0.00000000000E+00  0.15103563779E+04  0.15103563779E+04  0.25500000920E-02 0. -1.
       -2   -1    0    0    0  501  0.00000000000E+00  0.00000000000E+00 -0.20168839914E+04  0.20168839914E+04  0.25500000920E-02 0.  1.
    10030    2    1    2    0    0  0.00000000000E+00  0.00000000000E+00 -0.50652761350E+03  0.35272403692E+04  0.34906810796E+04 0.  0.
        4    1    3    3  502    0 -0.22577005804E+03  0.70436225820E+03  0.13441516779E+04  0.15342241218E+04  0.12699999809E+01 0. -1.
       -4    1    3    3    0  502  0.22577005804E+03 -0.70436225820E+03 -0.18506792914E+04  0.19930162474E+04  0.12699999809E+01 0.  1.
</event>
<event>
 5   0  0.1072381E-07  0.3498676E+04  0.7818609E-02  0.8114104E-01
        1   -1    0    0  501    0  0.00000000000E+00  0.00000000000E+00  0.21068378239E+04  0.21068378239E+04  0.50400001928E-02 0. -1.
       -1   -1    0    0    0  501  0.00000000000E+00  0.00000000000E+00 -0.14525006837E+04  0.14525006837E+04  0.50400001928E-02 0.  1.
    10030    2    1    2    0    0  0.00000000000E+00  0.00000000000E+00  0.65433714014E+03  0.35593385076E+04  0.34986759665E+04 0.  0.
        1    1    3    3  502    0  0.16581612224E+04  0.51977564754E+03  0.53194957011E+03  0.18173155225E+04  0.50400001928E-02 0. -1.
       -1    1    3    3    0  502 -0.16581612224E+04 -0.51977564754E+03  0.12238757003E+03  0.17420229851E+04  0.50400001928E-02 0.  1.
</event>
<event>
 5   0  0.3119048E-07  0.3497416E+04  0.7818609E-02  0.8114403E-01
        2   -1    0    0  501    0  0.00000000000E+00  0.00000000000E+00  0.17042029513E+04  0.17042029513E+04  0.25500000920E-02 0.  1.
       -2   -1    0    0    0  501  0.00000000000E+00  0.00000000000E+00 -0.17943755628E+04  0.17943755628E+04  0.25500000920E-02 0. -1.
    10030    2    1    2    0    0  0.00000000000E+00  0.00000000000E+00 -0.90172611486E+02  0.34985785141E+04  0.34974162634E+04 0.  0.
        3    1    3    3  502    0  0.51772923238E+03  0.15394379682E+04 -0.69342768280E+03  0.17659996538E+04  0.10100000352E+00 0. -1.
       -3    1    3    3    0  502 -0.51772923238E+03 -0.15394379682E+04  0.60325507132E+03  0.17325788603E+04  0.10100000352E+00 0.  1.
</event>
<event>
 5   0  0.1013863E-07  0.3501363E+04  0.7818609E-02  0.8113467E-01
       -1   -1    0    0    0  501  0.00000000000E+00  0.00000000000E+00  0.26584166724E+04  0.26584166724E+04  0.50400001928E-02 0. -1.
        1   -1    0    0  501    0  0.00000000000E+00  0.00000000000E+00 -0.11528988606E+04  0.11528988606E+04  0.50400001928E-02 0.  1.
    10030    2    1    2    0    0  0.00000000000E+00  0.00000000000E+00  0.15055178117E+04  0.38113155330E+04  0.35013629076E+04 0.  0.
        5    1    3    3  502    0  0.15196518896E+04 -0.62227980633E+03  0.92168272926E+02  0.16447161164E+04  0.46999998093E+01 0.  1.
       -5    1    3    3    0  502 -0.15196518896E+04  0.62227980633E+03  0.14133495388E+04  0.21665994166E+04  0.46999998093E+01 0. -1.
</event>
<event>
 5   0  0.3190185E-07  0.3499300E+04  0.7818609E-02  0.8113956E-01
       -2   -1    0    0    0  501  0.00000000000E+00  0.00000000000E+00  0.12598102376E+04  0.12598102376E+04  0.25500000920E-02 0. -1.
        2   -1    0    0  501    0  0.00000000000E+00  0.00000000000E+00 -0.24299493148E+04  0.24299493148E+04  0.25500000920E-02 0.  1.
    10030    2    1    2    0    0  0.00000000000E+00  0.00000000000E+00 -0.11701390772E+04  0.36897595524E+04  0.34992999435E+04 0.  0.
        1    1    3    3  502    0  0.14762975543E+03  0.73165833045E+03  0.10835127727E+04  0.13157197216E+04  0.50400001928E-02 0. -1.
       -1    1    3    3    0  502 -0.14762975543E+03 -0.73165833045E+03 -0.22536518500E+04  0.23740398308E+04  0.50400001928E-02 0.  1.
</event>
<event>
 5   0  0.3119048E-07  0.3505154E+04  0.7818609E-02  0.8112570E-01
        2   -1    0    0  501    0  0.00000000000E+00  0.00000000000E+00  0.21033823180E+04  0.21033823180E+04  0.25500000920E-02 0.  1.
       -2   -1    0    0    0  501  0.00000000000E+00  0.00000000000E+00 -0.14602793851E+04  0.14602793851E+04  0.25500000920E-02 0. -1.
    10030    2    1    2    0    0  0.00000000000E+00  0.00000000000E+00  0.64310293286E+03  0.35636617031E+04  0.35051538272E+04 0.  0.
        3    1    3    3  502    0 -0.53921406800E+03  0.86781813130E+03  0.17692814396E+04  0.20430900477E+04  0.10100000352E+00 0.  1.
       -3    1    3    3    0  502  0.53921406800E+03 -0.86781813130E+03 -0.11261785067E+04  0.15205716555E+04  0.10100000352E+00 0. -1.
</event>
<event>
 5   0  0.1098171E-07  0.3496585E+04  0.7818609E-02  0.8114600E-01
        1   -1    0    0  501    0  0.00000000000E+00  0.00000000000E+00  0.22935427221E+04  0.22935427221E+04  0.50400001928E-02 0.  1.
       -1   -1    0    0    0  501  0.00000000000E+00  0.00000000000E+00 -0.13326658363E+04  0.13326658363E+04  0.50400001928E-02 0. -1.
    10030    2    1    2    0    0  0.00000000000E+00  0.00000000000E+00  0.96087688574E+03  0.36262085584E+04  0.34965846364E+04 0.  0.
        4    1    3    3  502    0  0.18323344785E+03 -0.16969966676E+04  0.87281928392E+03  0.19170778026E+04  0.12699999809E+01 0.  1.
       -4    1    3    3    0  502 -0.18323344785E+03  0.16969966676E+04  0.88057601812E+02  0.17091307558E+04  0.12699999809E+01 0. -1.
</event>
<event>
 5   0  0.3190112E-07  0.3441004E+04  0.7818609E-02  0.8127915E-01
        2   -1    0    0  501    0  0.00000000000E+00  0.00000000000E+00  0.28819129376E+04  0.28819129376E+04  0.25500000920E-02 0. -1.
       -2   -1    0    0    0  501  0.00000000000E+00  0.00000000000E+00 -0.10271396136E+04  0.10271396136E+04  0.25500000920E-02 0.  1.
    10030    2    1    2    0    0  0.00000000000E+00  0.00000000000E+00  0.18547733241E+04  0.39090525512E+04  0.34410038890E+04 0.  0.
        5    1    3    3  502    0 -0.84978363934E+03  0.12161924827E+04  0.19169962051E+04  0.24240777481E+04  0.46999998093E+01 0. -1.
       -5    1    3    3    0  502  0.84978363934E+03 -0.12161924827E+04 -0.62222881027E+02  0.14849748030E+04  0.46999998093E+01 0.  1.
</event>
<event>
 5   0  0.3190185E-07  0.3503485E+04  0.7818609E-02  0.8112964E-01
        2   -1    0    0  501    0  0.00000000000E+00  0.00000000000E+00  0.19268514367E+04  0.19268514367E+04  0.25500000920E-02 0.  1.
       -2   -1    0    0    0  501  0.00000000000E+00  0.00000000000E+00 -0.15925476113E+04  0.15925476113E+04  0.25500000920E-02 0. -1.
    10030    2    1    2    0    0  0.00000000000E+00  0.00000000000E+00  0.33430382539E+03  0.35193990479E+04  0.35034854946E+04 0.  0.
        1    1    3    3  502    0 -0.54392513759E+01  0.14405362868E+04 -0.83408406439E+03  0.16645932252E+04  0.50400001928E-02 0. -1.
       -1    1    3    3    0  502  0.54392513759E+01 -0.14405362868E+04  0.11683878898E+04  0.18548058227E+04  0.50400001928E-02 0.  1.
</event>
<event>
 5   0  0.3190185E-07  0.3492036E+04  0.7818609E-02  0.8115680E-01
        2   -1    0    0  501    0  0.00000000000E+00  0.00000000000E+00  0.25686272980E+04  0.25686272980E+04  0.25500000920E-02 0. -1.
       -2   -1    0    0    0  501  0.00000000000E+00  0.00000000000E+00 -0.11868516130E+04  0.11868516130E+04  0.25500000920E-02 0.  1.
    10030    2    1    2    0    0  0.00000000000E+00  0.00000000000E+00  0.13817756850E+04  0.37554789110E+04  0.34920363410E+04 0.  0.
        1    1    3    3  502    0  0.54707802480E+03 -0.12692063792E+04 -0.45656293539E+03  0.14555510683E+04  0.50400001928E-02 0.  1.
       -1    1    3    3    0  502 -0.54707802480E+03  0.12692063792E+04  0.18383386204E+04  0.22999278427E+04  0.50400001928E-02 0. -1.
</event>
<event>
 5   0  0.1013863E-07  0.3485557E+04  0.7818609E-02  0.8117221E-01
        1   -1    0    0  501    0  0.00000000000E+00  0.00000000000E+00  0.16621468060E+04  0.16621468060E+04  0.50400001928E-02 0. -1.
       -1   -1    0    0    0  501  0.00000000000E+00  0.00000000000E+00 -0.18273213390E+04  0.18273213390E+04  0.50400001928E-02 0.  1.
    10030    2    1    2    0    0  0.00000000000E+00  0.00000000000E+00 -0.16517453300E+03  0.34894681450E+04  0.34855566712E+04 0.  0.
        5    1    3    3  502    0 -0.10245149585E+04 -0.91429569275E+03  0.99178371561E+03  0.16938785501E+04  0.46999998093E+01 0. -1.
       -5    1    3    3    0  502  0.10245149585E+04  0.91429569275E+03 -0.11569582486E+04  0.17955895948E+04  0.46999998093E+01 0.  1.
</event>
<event>
 5   0  0.3119048E-07  0.3494606E+04  0.7818609E-02  0.8115069E-01
       -2   -1    0    0    0  501  0.00000000000E+00  0.00000000000E+00  0.11261286232E+04  0.11261286232E+04  0.25500000920E-02 0. -1.
        2   -1    0    0  501    0  0.00000000000E+00  0.00000000000E+00 -0.27111184031E+04  0.27111184031E+04  0.25500000920E-02 0.  1.
    10030    2    1    2    0    0  0.00000000000E+00  0.00000000000E+00 -0.15849897800E+04  0.38372470263E+04  0.34946061492E+04 0.  0.
        3    1    3    3  502    0 -0.34130374829E+03 -0.13781890103E+04  0.32577725018E+03  0.14567168646E+04  0.10100000352E+00 0. -1.
       -3    1    3    3    0  502  0.34130374829E+03  0.13781890103E+04 -0.19107670302E+04  0.23805301617E+04  0.10100000352E+00 0.  1.
</event>
<event>
 5   0  0.1013863E-07  0.3477310E+04  0.7818609E-02  0.8119188E-01
       -1   -1    0    0    0  501  0.00000000000E+00  0.00000000000E+00  0.17320372630E+04  0.17320372630E+04  0.50400001928E-02 0. -1.
        1   -1    0    0  501    0  0.00000000000E+00  0.00000000000E+00 -0.17452976074E+04  0.17452976074E+04  0.50400001928E-02 0.  1.
    10030    2    1    2    0    0  0.00000000000E+00  0.00000000000E+00 -0.13260344383E+02  0.34773348704E+04  0.34773095870E+04 0.  0.
        2    1    3    3  502    0 -0.53572499083E+03  0.34799239948E+03 -0.16236825955E+04  0.17448338450E+04  0.25500000920E-02 0.  1.
       -2    1    3    3    0  502  0.53572499083E+03 -0.34799239948E+03  0.16104222511E+04  0.17325010253E+04  0.25500000920E-02 0. -1.
</event>
<event>
 5   0  0.1098171E-07  0.3496591E+04  0.7818609E-02  0.8114598E-01
       -1   -1    0    0    0  501  0.00000000000E+00  0.00000000000E+00  0.16107452374E+04  0.16107452374E+04  0.50400001928E-02 0. -1.
        1   -1    0    0  501    0  0.00000000000E+00  0.00000000000E+00 -0.18975923018E+04  0.18975923018E+04  0.50400001928E-02 0.  1.
    10030    2    1    2    0    0  0.00000000000E+00  0.00000000000E+00 -0.28684706441E+03  0.35083375392E+04  0.34965913474E+04 0.  0.
        4    1    3    3  502    0  0.58843353386E+03 -0.12949973292E+03 -0.17901290655E+04  0.18888059426E+04  0.12699999809E+01 0.  1.
       -4    1    3    3    0  502 -0.58843353386E+03  0.12949973292E+03  0.15032820011E+04  0.16195315966E+04  0.12699999809E+01 0. -1.
</event>
<event>
 5   0  0.3190185E-07  0.3481559E+04  0.7818609E-02  0.8118174E-01
       -2   -1    0    0    0  501  0.00000000000E+00  0.00000000000E+00  0.13399093599E+04  0.13399093599E+04  0.25500000920E-02 0. -1.
        2   -1    0    0  501    0  0.00000000000E+00  0.00000000000E+00 -0.22615811742E+04  0.22615811742E+04  0.25500000920E-02 0.  1.
    10030    2    1    2    0    0  0.00000000000E+00  0.00000000000E+00 -0.92167181425E+03  0.36014905341E+04  0.34815592964E+04 0.  0.
        1    1    3    3  502    0 -0.21395604394E+03  0.17270081561E+04 -0.50685921822E+03  0.18125232763E+04  0.50400001928E-02 0.  1.
       -1    1    3    3    0  502  0.21395604394E+03 -0.17270081561E+04 -0.41481259603E+03  0.17889672579E+04  0.50400001928E-02 0. -1.
</event>
<event>
 5   0  0.1033796E-07  0.3479958E+04  0.7818609E-02  0.8118556E-01
       -1   -1    0    0    0  501  0.00000000000E+00  0.00000000000E+00  0.15348269614E+04  0.15348269614E+04  0.50400001928E-02 0. -1.
        1   -1    0    0  501    0  0.00000000000E+00  0.00000000000E+00 -0.19725525630E+04  0.19725525630E+04  0.50400001928E-02 0.  1.
    10030    2    1    2    0    0  0.00000000000E+00  0.00000000000E+00 -0.43772560156E+03  0.35073795245E+04  0.34799579633E+04 0.  0.
        3    1    3    3  502    0  0.71456562934E+03  0.15492049603E+04 -0.56344393559E+03  0.17966939434E+04  0.10100000352E+00 0.  1.
       -3    1    3    3    0  502 -0.71456562934E+03 -0.15492049603E+04  0.12571833403E+03  0.17106855811E+04  0.10100000352E+00 0. -1.
</event>
<event>
 5   0  0.1098171E-07  0.3491134E+04  0.7818609E-02  0.8115894E-01
        1   -1    0    0  501    0  0.00000000000E+00  0.00000000000E+00  0.19155469694E+04  0.19155469694E+04  0.50400001928E-02 0. -1.
       -1   -1    0    0    0  501  0.00000000000E+00  0.00000000000E+00 -0.15906707709E+04  0.15906707709E+04  0.50400001928E-02 0.  1.
    10030    2    1    2    0    0  0.00000000000E+00  0.00000000000E+00  0.32487619849E+03  0.35062177403E+04  0.34911342423E+04 0.  0.
        4    1    3    3  502    0 -0.13451319671E+03  0.15115661212E+04 -0.70388776567E+03  0.16728375708E+04  0.12699999809E+01 0.  1.
       -4    1    3    3    0  502  0.13451319671E+03 -0.15115661212E+04  0.10287639642E+04  0.18333801695E+04  0.12699999809E+01 0. -1.
</event>
<event>
 5   0  0.1013863E-07  0.3506823E+04  0.7818609E-02  0.8112175E-01
       -1   -1    0    0    0  501  0.00000000000E+00  0.00000000000E+00  0.16518455104E+04  0.16518455104E+04  0.50400001928E-02 0.  1.
        1   -1    0    0  501    0  0.00000000000E+00  0.00000000000E+00 -0.18612222024E+04  0.18612222024E+04  0.50400001928E-02 0. -1.
    10030    2    1    2    0    0  0.00000000000E+00  0.00000000000E+00 -0.20937669202E+03  0.35130677127E+04  0.35068228007E+04 0.  0.
        2    1    3    3  502    0 -0.47735914846E+03  0.16866249473E+04 -0.61297598211E+02  0.17539477943E+04  0.25500000920E-02 0. -1.
       -2    1    3    3    0  502  0.47735914846E+03 -0.16866249473E+04 -0.14807909381E+03  0.17591199185E+04  0.25500000920E-02 0.  1.
</event>
<event>
 5   0  0.3219205E-07  0.3497698E+04  0.7818609E-02  0.8114336E-01
        2   -1    0    0  501    0  0.00000000000E+00  0.00000000000E+00  0.26548050145E+04  0.26548050145E+04  0.25500000920E-02 0. -1.
       -2   -1    0    0    0  501  0.00000000000E+00  0.00000000000E+00 -0.11520516182E+04  0.11520516182E+04  0.25500000920E-02 0.  1.
    10030    2    1    2    0    0  0.00000000000E+00  0.00000000000E+00  0.15027533963E+04  0.38068566327E+04  0.34976977645E+04 0.  0.
        2    1    3    3  502    0 -0.10154398137E+04  0.13549661045E+04  0.27518774120E+03  0.17154531333E+04  0.25500000920E-02 0.  1.
       -2    1    3    3    0  502  0.10154398137E+04 -0.13549661045E+04  0.12275656551E+04  0.20914034994E+04  0.25500000920E-02 0. -1.
</event>
<event>
 5   0  0.3219205E-07  0.3499857E+04  0.7818609E-02  0.8113824E-01
        2   -1    0    0  501    0  0.00000000000E+00  0.00000000000E+00  0.10095660027E+04  0.10095660027E+04  0.25500000920E-02 0. -1.
       -2   -1    0    0    0  501  0.00000000000E+00  0.00000000000E+00 -0.30332341028E+04  0.30332341028E+04  0.25500000920E-02 0.  1.
    10030    2    1    2    0    0  0.00000000000E+00  0.00000000000E+00 -0.20236681001E+04  0.40428001055E+04  0.34998571563E+04 0.  0.
        2    1    3    3  502    0  0.11116915460E+04  0.13422822209E+04 -0.11932685278E+04  0.21122190780E+04  0.25500000920E-02 0.  1.
       -2    1    3    3    0  502 -0.11116915460E+04 -0.13422822209E+04 -0.83039957223E+03  0.19305810275E+04  0.25500000920E-02 0. -1.
</event>
<event>
 5   0  0.3219205E-07  0.3493434E+04  0.7818609E-02  0.8115348E-01
        2   -1    0    0  501    0  0.00000000000E+00  0.00000000000E+00  0.16260119137E+04  0.16260119137E+04  0.25500000920E-02 0.  1.
       -2   -1    0    0    0  501  0.00000000000E+00  0.00000000000E+00 -0.18763824983E+04  0.18763824983E+04  0.25500000920E-02 0. -1.
    10030    2    1    2    0    0  0.00000000000E+00  0.00000000000E+00 -0.25037058456E+03  0.35023944120E+04  0.34934340108E+04 0.  0.
        2    1    3    3  502    0 -0.93010731753E+02  0.15128806524E+04  0.74512042936E+03  0.16889829244E+04  0.25500000920E-02 0.  1.
       -2    1    3    3    0  502  0.93010731753E+02 -0.15128806524E+04 -0.99549101392E+03  0.18134114876E+04  0.25500000920E-02 0. -1.
</event>
<event>
 5   0  0.3190112E-07  0.3479911E+04  0.7818609E-02  0.8118567E-01
       -2   -1    0    0    0  501  0.00000000000E+00  0.00000000000E+00  0.24573276344E+04  0.24573276344E+04  0.25500000920E-02 0.  1.
        2   -1    0    0  501    0  0.00000000000E+00  0.00000000000E+00 -0.12320071082E+04  0.12320071082E+04  0.25500000920E-02 0. -1.
    10030    2    1    2    0    0  0.00000000000E+00  0.00000000000E+00  0.12253205262E+04  0.36893347426E+04  0.34799109832E+04 0.  0.
        5    1    3    3  502    0  0.10147988532E+03 -0.39949120393E+03 -0.11794942503E+04  0.12494479444E+04  0.46999998093E+01 0. -1.
       -5    1    3    3    0  502 -0.10147988532E+03  0.39949120393E+03  0.24048147765E+04  0.24398867983E+04  0.46999998093E+01 0.  1.
</event>
<event>
 5   0  0.1098171E-07  0.3504910E+04  0.7818609E-02  0.8112627E-01
        1   -1    0    0  501    0  0.00000000000E+00  0.00000000000E+00  0.19015028612E+04  0.19015028612E+04  0.50400001928E-02 0. -1.
       -1   -1    0    0    0  501  0.00000000000E+00  0.00000000000E+00 -0.16150905545E+04  0.16150905545E+04  0.50400001928E-02 0.  1.
    10030    2    1    2    0    0  0.00000000000E+00  0.00000000000E+00  0.28641230668E+03  0.35165934157E+04  0.35049104471E+04 0.  0.
        4    1    3    3  502    0  0.97220925652E+02  0.15209574012E+04  0.10111529002E+04  0.18289874589E+04  0.12699999809E+01 0. -1.
       -4    1    3    3    0  502 -0.97220925652E+02 -0.15209574012E+04 -0.72474059348E+03  0.16876059568E+04  0.12699999809E+01 0.  1.
</event>
<event>
 5   0  0.1033796E-07  0.3499435E+04  0.7818609E-02  0.8113924E-01
        1   -1    0    0  501    0  0.00000000000E+00  0.00000000000E+00  0.26441851887E+04  0.26441851887E+04  0.50400001928E-02 0. -1.
       -1   -1    0    0    0  501  0.00000000000E+00  0.00000000000E+00 -0.11578280373E+04  0.11578280373E+04  0.50400001928E-02 0.  1.
    10030    2    1    2    0    0  0.00000000000E+00  0.00000000000E+00  0.14863571514E+04  0.38020132260E+04  0.34994352386E+04 0.  0.
        3    1    3    3  502    0 -0.43198531362E+03 -0.35935657688E+03  0.25434882226E+04  0.26048187671E+04  0.10100000352E+00 0. -1.
       -3    1    3    3    0  502  0.43198531362E+03  0.35935657688E+03 -0.10571310712E+04  0.11971944589E+04  0.10100000352E+00 0.  1.
</event>
<event>
 5   0  0.3119048E-07  0.3498096E+04  0.7818609E-02  0.8114241E-01
       -2   -1    0    0    0  501  0.00000000000E+00  0.00000000000E+00  0.96723072244E+03  0.96723072245E+03  0.25500000920E-02 0.  1.
        2   -1    0    0  501    0  0.00000000000E+00  0.00000000000E+00 -0.31628111034E+04  0.31628111034E+04  0.25500000920E-02 0. -1.
    10030    2    1    2    0    0  0.00000000000E+00  0.00000000000E+00 -0.21955803809E+04  0.41300418258E+04  0.34980955210E+04 0.  0.
        3    1    3    3  502    0  0.94288466259E+03 -0.70933647699E+03 -0.26221509589E+04  0.28753896060E+04  0.10100000352E+00 0. -1.
       -3    1    3    3    0  502 -0.94288466259E+03  0.70933647699E+03  0.42657057800E+03  0.12546522198E+04  0.10100000352E+00 0.  1.
</event>
<event>
 5   0  0.1013863E-07  0.3495842E+04  0.7818609E-02  0.8114776E-01
        1   -1    0    0  501    0  0.00000000000E+00  0.00000000000E+00  0.19129699236E+04  0.19129699237E+04  0.50400001928E-02 0. -1.
       -1   -1    0    0    0  501  0.00000000000E+00  0.00000000000E+00 -0.15971122986E+04  0.15971122986E+04  0.50400001928E-02 0.  1.
    10030    2    1    2    0    0  0.00000000000E+00  0.00000000000E+00  0.31585762505E+03  0.35100822223E+04  0.34958419827E+04 0.  0.
        2    1    3    3  502    0  0.84225606023E+03 -0.32087326126E+03 -0.13457941273E+04  0.16197273702E+04  0.25500000920E-02 0.  1.
       -2    1    3    3    0  502 -0.84225606023E+03  0.32087326126E+03  0.16616517523E+04  0.18903548521E+04  0.25500000920E-02 0. -1.
</event>
<event>
 5   0  0.3119048E-07  0.3491060E+04  0.7818609E-02  0.8115912E-01
        2   -1    0    0  501    0  0.00000000000E+00  0.00000000000E+00  0.24331269123E+04  0.24331269123E+04  0.25500000920E-02 0.  1.
       -2   -1    0    0    0  501  0.00000000000E+00  0.00000000000E+00 -0.12522463815E+04  0.12522463815E+04  0.25500000920E-02 0. -1.
    10030    2    1    2    0    0  0.00000000000E+00  0.00000000000E+00  0.11808805308E+04  0.36853732939E+04  0.34910596510E+04 0.  0.
        3    1    3    3  502    0  0.15023717952E+04 -0.38196945996E+03  0.14375066932E+04  0.21141067103E+04  0.10100000352E+00 0.  1.
       -3    1    3    3    0  502 -0.15023717952E+04  0.38196945996E+03 -0.25662616239E+03  0.15712665836E+04  0.10100000352E+00 0. -1.
</event>
<event>
 5   0  0.1098171E-07  0.3506215E+04  0.7818609E-02  0.8112319E-01
        1   -1    0    0  501    0  0.00000000000E+00  0.00000000000E+00  0.15793110698E+04  0.15793110698E+04  0.50400001928E-02 0. -1.
       -1   -1    0    0    0  501  0.00000000000E+00  0.00000000000E+00 -0.19460292631E+04  0.19460292632E+04  0.50400001928E-02 0.  1.
    10030    2    1    2    0    0  0.00000000000E+00  0.00000000000E+00 -0.36671819334E+03  0.35253403330E+04  0.35062148009E+04 0.  0.
        4    1    3    3  502    0  0.37868528654E+03  0.43478836028E+03 -0.18479684610E+04  0.19358286366E+04  0.12699999809E+01 0.  1.
       -4    1    3    3    0  502 -0.37868528654E+03 -0.43478836028E+03  0.14812502677E+04  0.15895116964E+04  0.12699999809E+01 0. -1.
</event>
<event>
 5   0  0.1013863E-07  0.3488828E+04  0.7818609E-02  0.8116443E-01
        1   -1    0    0  501    0  0.00000000000E+00  0.00000000000E+00  0.15370667023E+04  0.15370667023E+04  0.50400001928E-02 0. -1.
       -1   -1    0    0    0  501  0.00000000000E+00  0.00000000000E+00 -0.19797322737E+04  0.19797322737E+04  0.50400001928E-02 0.  1.
    10030    2    1    2    0    0  0.00000000000E+00  0.00000000000E+00 -0.44266557134E+03  0.35167989760E+04  0.34888282029E+04 0.  0.
        5    1    3    3  502    0  0.55330310756E+03 -0.16158685749E+04 -0.57883500293E+03  0.18033989106E+04  0.46999998093E+01 0.  1.
       -5    1    3    3    0  502 -0.55330310756E+03  0.16158685749E+04  0.13616943159E+03  0.17134000654E+04  0.46999998093E+01 0. -1.
</event>
<event>
 5   0  0.1033796E-07  0.3480364E+04  0.7818609E-02  0.8118459E-01
        1   -1    0    0  501    0  0.00000000000E+00  0.00000000000E+00  0.27459346894E+04  0.27459346894E+04  0.50400001928E-02 0.  1.
       -1   -1    0    0    0  501  0.00000000000E+00  0.00000000000E+00 -0.11028059020E+04  0.11028059020E+04  0.50400001928E-02 0. -1.
    10030    2    1    2    0    0  0.00000000000E+00  0.00000000000E+00  0.16431287874E+04  0.38487405914E+04  0.34803637638E+04 0.  0.
        3    1    3    3  502    0 -0.13274688946E+04  0.11251929722E+04  0.82187909323E+03  0.19245046492E+04  0.10100000352E+00 0. -1.
       -3    1    3    3    0  502  0.13274688946E+04 -0.11251929722E+04  0.82124969418E+03  0.19242359422E+04  0.10100000352E+00 0.  1.
</event>
<event>
 5   0  0.1072381E-07  0.3499776E+04  0.7818609E-02  0.8113843E-01
       -1   -1    0    0    0  501  0.00000000000E+00  0.00000000000E+00  0.29593940978E+04  0.29593940978E+04  0.50400001928E-02 0.  1.
        1   -1    0    0  501    0  0.00000000000E+00  0.00000000000E+00 -0.10347078380E+04  0.10347078380E+04  0.50400001928E-02 0. -1.
    10030    2    1    2    0    0  0.00000000000E+00  0.00000000000E+00  0.19246862598E+04  0.39941019358E+04  0.34997761464E+04 0.  0.
        1    1    3    3  502    0 -0.10947800018E+04  0.65731435536E+03 -0.40310430824E+03  0.13390662783E+04  0.50400001928E-02 0. -1.
       -1    1    3    3    0  502  0.10947800018E+04 -0.65731435536E+03  0.23277905681E+04  0.26550356576E+04  0.50400001928E-02 0.  1.
</event>
<event>
 5   0  0.2180451E-07  0.3493194E+04  0.7818609E-02  0.8115405E-01
        2   -1    0    0  501    0  0.00000000000E+00  0.00000000000E+00  0.18561542356E+04  0.18561542356E+04  0.25500000920E-02 0.  1.
       -2   -1    0    0    0  501  0.00000000000E+00  0.00000000000E+00 -0.16435063551E+04  0.16435063551E+04  0.25500000920E-02 0. -1.
    10030    2    1    2    0    0  0.00000000000E+00  0.00000000000E+00  0.21264788053E+03  0.34996605908E+04  0.34931941156E+04 0.  0.
        4    1    3    3  502    0  0.11469056308E+04  0.68945541086E+03  0.12308358816E+04  0.18181583731E+04  0.12699999809E+01 0.  1.
       -4    1    3    3    0  502 -0.11469056308E+04 -0.68945541086E+03 -0.10181880010E+04  0.16815022176E+04  0.12699999809E+01 0. -1.
</event>
<event>
 5   0  0.3219205E-07  0.3508854E+04  0.7818609E-02  0.8111695E-01
        2   -1    0    0  501    0  0.00000000000E+00  0.00000000000E+00  0.21711284622E+04  0.21711284622E+04  0.25500000920E-02 0. -1.
       -2   -1    0    0    0  501  0.00000000000E+00  0.00000000000E+00 -0.14177025513E+04  0.14177025513E+04  0.25500000920E-02 0.  1.
    10030    2    1    2    0    0  0.00000000000E+00  0.00000000000E+00  0.75342591094E+03  0.35888310135E+04  0.35088541492E+04 0.  0.
        2    1    3    3  502    0 -0.79459135955E+03  0.36032794011E+03  0.19335107898E+04  0.21212438868E+04  0.25500000920E-02 0. -1.
       -2    1    3    3    0  502  0.79459135955E+03 -0.36032794011E+03 -0.11800848789E+04  0.14675871267E+04  0.25500000920E-02 0.  1.
</event>
<event>
 5   0  0.1033796E-07  0.3496468E+04  0.7818609E-02  0.8114628E-01
        1   -1    0    0  501    0  0.00000000000E+00  0.00000000000E+00  0.25757484444E+04  0.25757484444E+04  0.50400001928E-02 0. -1.
       -1   -1    0    0    0  501  0.00000000000E+00  0.00000000000E+00 -0.11865761817E+04  0.11865761817E+04  0.50400001928E-02 0.  1.
    10030    2    1    2    0    0  0.00000000000E+00  0.00000000000E+00  0.13891722627E+04  0.37623246261E+04  0.34964677914E+04 0.  0.
        3    1    3    3  502    0  0.11988248316E+04  0.60320684356E+03  0.19001700070E+04  0.23263029766E+04  0.10100000352E+00 0. -1.
       -3    1    3    3    0  502 -0.11988248316E+04 -0.60320684356E+03 -0.51099774434E+03  0.14360216495E+04  0.10100000352E+00 0.  1.
</event>
<event>
 5   0  0.3190185E-07  0.3516334E+04  0.7818609E-02  0.8109930E-01
        2   -1    0    0  501    0  0.00000000000E+00  0.00000000000E+00  0.16147865324E+04  0.16147865324E+04  0.25500000920E-02 0. -1.
       -2   -1    0    0    0  501  0.00000000000E+00  0.00000000000E+00 -0.19142783585E+04  0.19142783585E+04  0.25500000920E-02 0.  1.
    10030    2    1    2    0    0  0.00000000000E+00  0.00000000000E+00 -0.29949182615E+03  0.35290648909E+04  0.35163338366E+04 0.  0.
        1    1    3    3  502    0  0.17360521170E+04  0.15082449795E+03 -0.38409922037E+03  0.17844206884E+04  0.50400001928E-02 0.  1.
       -1    1    3    3    0  502 -0.17360521170E+04 -0.15082449795E+03  0.84607394226E+02  0.17446442025E+04  0.50400001928E-02 0. -1.
</event>
<event>
 5   0  0.1098171E-07  0.3495074E+04  0.7818609E-02  0.8114958E-01
        1   -1    0    0  501    0  0.00000000000E+00  0.00000000000E+00  0.15321387868E+04  0.15321387868E+04  0.50400001928E-02 0. -1.
       -1   -1    0    0    0  501  0.00000000000E+00  0.00000000000E+00 -0.19932176074E+04  0.19932176075E+04  0.50400001928E-02 0.  1.
    10030    2    1    2    0    0  0.00000000000E+00  0.00000000000E+00 -0.46107882061E+03  0.35253563943E+04  0.34950742521E+04 0.  0.
        4    1    3    3  502    0  0.11575454776E+04 -0.34624011334E+03  0.10429728439E+04  0.15961164478E+04  0.12699999809E+01 0. -1.
       -4    1    3    3    0  502 -0.11575454776E+04  0.34624011334E+03 -0.15040516645E+04  0.19292399465E+04  0.12699999809E+01 0.  1.
</event>
<event>
 5   0  0.1098171E-07  0.3499278E+04  0.7818609E-02  0.8113961E-01
       -1   -1    0    0    0  501  0.00000000000E+00  0.00000000000E+00  0.13221782562E+04  0.13221782562E+04  0.50400001928E-02 0.  1.
        1   -1    0    0  501    0  0.00000000000E+00  0.00000000000E+00 -0.23152974953E+04  0.23152974953E+04  0.50400001928E-02 0. -1.
    10030    2    1    2    0    0  0.00000000000E+00  0.00000000000E+00 -0.99311923913E+03  0.36374757515E+04  0.34992776425E+04 0.  0.
        4    1    3    3  502    0  0.86263596234E+03 -0.14340622345E+04  0.34049639813E+02  0.16738686587E+04  0.12699999809E+01 0.  1.
       -4    1    3    3    0  502 -0.86263596234E+03  0.14340622345E+04 -0.10271688789E+04  0.19636070927E+04  0.12699999809E+01 0. -1.
</event>
<event>
 5   0  0.1013863E-07  0.3496327E+04  0.7818609E-02  0.8114661E-01
        1   -1    0    0  501    0  0.00000000000E+00  0.00000000000E+00  0.17765788632E+04  0.17765788632E+04  0.50400001928E-02 0. -1.
       -1   -1    0    0    0  501  0.00000000000E+00  0.00000000000E+00 -0.17202031121E+04  0.17202031121E+04  0.50400001928E-02 0.  1.
    10030    2    1    2    0    0  0.00000000000E+00  0.00000000000E+00  0.56375751074E+02  0.34967819753E+04  0.34963274957E+04 0.  0.
        5    1    3    3  502    0  0.12347251857E+04  0.11275059811E+04 -0.48201408216E+03  0.17401654195E+04  0.46999998093E+01 0.  1.
       -5    1    3    3    0  502 -0.12347251857E+04 -0.11275059811E+04  0.53838983323E+03  0.17566165558E+04  0.46999998093E+01 0. -1.
</event>
<event>
 5   0  0.3119048E-07  0.3499768E+04  0.7818609E-02  0.8113845E-01
        2   -1    0    0  501    0  0.00000000000E+00  0.00000000000E+00  0.25702861384E+04  0.25702861384E+04  0.25500000920E-02 0. -1.
       -2   -1    0    0    0  501  0.00000000000E+00  0.00000000000E+00 -0.11913433880E+04  0.11913433880E+04  0.25500000920E-02 0.  1.
    10030    2    1    2    0    0  0.00000000000E+00  0.00000000000E+00  0.13789427504E+04  0.37616295264E+04  0.34997676473E+04 0.  0.
        3    1    3    3  502    0  0.11410909810E+04  0.11904092344E+04  0.60052247112E+02  0.16500815298E+04  0.10100000352E+00 0.  1.
       -3    1    3    3    0  502 -0.11410909810E+04 -0.11904092344E+04  0.13188905033E+04  0.21115479967E+04  0.10100000352E+00 0. -1.
</event>
<event>
 5   0  0.1098171E-07  0.3501335E+04  0.7818609E-02  0.8113474E-01
       -1   -1    0    0    0  501  0.00000000000E+00  0.00000000000E+00  0.17595825368E+04  0.17595825368E+04  0.50400001928E-02 0.  1.
        1   -1    0    0  501    0  0.00000000000E+00  0.00000000000E+00 -0.17417971364E+04  0.17417971364E+04  0.50400001928E-02 0. -1.
    10030    2    1    2    0    0  0.00000000000E+00  0.00000000000E+00  0.17785400380E+02  0.35013796732E+04  0.35013345021E+04 0.  0.
        4    1    3    3  502    0 -0.83610240290E+03 -0.80269471896E+03  0.13209493257E+04  0.17573544816E+04  0.12699999809E+01 0. -1.
       -4    1    3    3    0  502  0.83610240290E+03  0.80269471896E+03 -0.13031639253E+04  0.17440251917E+04  0.12699999809E+01 0.  1.
</event>
<event>
 5   0  0.3190185E-07  0.3500064E+04  0.7818609E-02  0.8113775E-01
        2   -1    0    0  501    0  0.00000000000E+00  0.00000000000E+00  0.25456725224E+04  0.25456725224E+04  0.25500000920E-02 0. -1.
       -2   -1    0    0    0  501  0.00000000000E+00  0.00000000000E+00 -0.12030658412E+04  0.12030658412E+04  0.25500000920E-02 0.  1.
    10030    2    1    2    0    0  0.00000000000E+00  0.00000000000E+00  0.13426066813E+04  0.37487383636E+04  0.35000638020E+04 0.  0.
        1    1    3    3  502    0 -0.11463308249E+04 -0.58040436687E+03 -0.60124844510E+03  0.14186061052E+04  0.50400001928E-02 0.  1.
       -1    1    3    3    0  502  0.11463308249E+04  0.58040436687E+03  0.19438551264E+04  0.23301322584E+04  0.50400001928E-02 0. -1.
</event>
<event>
 5   0  0.1098171E-07  0.3558487E+04  0.7818609E-02  0.8100068E-01
        1   -1    0    0  501    0  0.00000000000E+00  0.00000000000E+00  0.11551172971E+04  0.11551172971E+04  0.50400001928E-02 0. -1.
       -1   -1    0    0    0  501  0.00000000000E+00  0.00000000000E+00 -0.27405936428E+04  0.27405936428E+04  0.50400001928E-02 0.  1.
    10030    2    1    2    0    0  0.00000000000E+00  0.00000000000E+00 -0.15854763457E+04  0.38957109398E+04  0.35584868250E+04 0.  0.
        4    1    3    3  502    0  0.91828650110E+03 -0.59341763169E+03  0.74396060312E+03  0.13224498386E+04  0.12699999809E+01 0. -1.
       -4    1    3    3    0  502 -0.91828650110E+03  0.59341763169E+03 -0.23294369488E+04  0.25732611012E+04  0.12699999809E+01 0.  1.
</event>
<event>
 5   0  0.1013863E-07  0.3436056E+04  0.7818609E-02  0.8129113E-01
        1   -1    0    0  501    0  0.00000000000E+00  0.00000000000E+00  0.19023091206E+04  0.19023091206E+04  0.50400001928E-02 0.  1.
       -1   -1    0    0    0  501  0.00000000000E+00  0.00000000000E+00 -0.15515982486E+04  0.15515982486E+04  0.50400001928E-02 0. -1.
    10030    2    1    2    0    0  0.00000000000E+00  0.00000000000E+00  0.35071087197E+03  0.34539073692E+04  0.34360555873E+04 0.  0.
        5    1    3    3  502    0 -0.56313607152E+03  0.15262707143E+04  0.73046807596E+03  0.17833200017E+04  0.46999998093E+01 0.  1.
       -5    1    3    3    0  502  0.56313607152E+03 -0.15262707143E+04 -0.37975720399E+03  0.16705873675E+04  0.46999998093E+01 0. -1.
</event>
<event>
 5   0  0.3190112E-07  0.3522813E+04  0.7818609E-02  0.8108405E-01
        2   -1    0    0  501    0  0.00000000000E+00  0.00000000000E+00  0.32021207266E+04  0.32021207266E+04  0.25500000920E-02 0. -1.
       -2   -1    0    0    0  501  0.00000000000E+00  0.00000000000E+00 -0.96890585557E+03  0.96890585557E+03  0.25500000920E-02 0.  1.
    10030    2    1    2    0    0  0.00000000000E+00  0.00000000000E+00  0.22332148710E+04  0.41710265822E+04  0.35228133770E+04 0.  0.
        5    1    3    3  502    0  0.48391610360E+03 -0.13032809187E+04  0.23972030304E+04  0.27711586760E+04  0.46999998093E+01 0. -1.
       -5    1    3    3    0  502 -0.48391610360E+03  0.13032809187E+04 -0.16398815941E+03  0.13998679062E+04  0.46999998093E+01 0.  1.
</event>
<event>
 5   0  0.1013863E-07  0.3498341E+04  0.7818609E-02  0.8114183E-01
       -1   -1    0    0    0  501  0.00000000000E+00  0.00000000000E+00  0.11570666650E+04  0.11570666650E+04  0.50400001928E-02 0. -1.
        1   -1    0    0  501    0  0.00000000000E+00  0.00000000000E+00 -0.26442707437E+04  0.26442707437E+04  0.50400001928E-02 0.  1.
    10030    2    1    2    0    0  0.00000000000E+00  0.00000000000E+00 -0.14872040787E+04  0.38013374086E+04  0.34983410529E+04 0.  0.
        2    1    3    3  502    0  0.11473217036E+04  0.91768388118E+03  0.28788171047E+03  0.14971194597E+04  0.25500000920E-02 0. -1.
       -2    1    3    3    0  502 -0.11473217036E+04 -0.91768388118E+03 -0.17750857892E+04  0.23042179490E+04  0.25500000920E-02 0.  1.
</event>
<event>
 5   0  0.1013863E-07  0.3531975E+04  0.7818609E-02  0.8106254E-01
       -1   -1    0    0    0  501  0.00000000000E+00  0.00000000000E+00  0.12152075296E+04  0.12152075296E+04  0.50400001928E-02 0.  1.
        1   -1    0    0  501    0  0.00000000000E+00  0.00000000000E+00 -0.25664020404E+04  0.25664020404E+04  0.50400001928E-02 0. -1.
    10030    2    1    2    0    0  0.00000000000E+00  0.00000000000E+00 -0.13511945108E+04  0.37816095701E+04  0.35319745660E+04 0.  0.
        5    1    3    3  502    0 -0.15398400331E+04 -0.76339562891E+03 -0.24093763854E+03  0.17354979831E+04  0.46999998093E+01 0.  1.
       -5    1    3    3    0  502  0.15398400331E+04  0.76339562891E+03 -0.11102568723E+04  0.20461115869E+04  0.46999998093E+01 0. -1.
</event>
<event>
 5   0  0.3219205E-07  0.3503364E+04  0.7818609E-02  0.8112993E-01
        2   -1    0    0  501    0  0.00000000000E+00  0.00000000000E+00  0.18251679882E+04  0.18251679882E+04  0.25500000920E-02 0. -1.
       -2   -1    0    0    0  501  0.00000000000E+00  0.00000000000E+00 -0.16811545674E+04  0.16811545674E+04  0.25500000920E-02 0.  1.
    10030    2    1    2    0    0  0.00000000000E+00  0.00000000000E+00  0.14401342085E+03  0.35063225556E+04  0.35033638119E+04 0.  0.
        2    1    3    3  502    0 -0.67457740682E+03 -0.15792776834E+04 -0.27356278081E+03  0.17389678761E+04  0.25500000920E-02 0.  1.
       -2    1    3    3    0  502  0.67457740682E+03  0.15792776834E+04  0.41757620167E+03  0.17673546795E+04  0.25500000920E-02 0. -1.
</event>
<event>
 5   0  0.1098171E-07  0.3510211E+04  0.7818609E-02  0.8111374E-01
        1   -1    0    0  501    0  0.00000000000E+00  0.00000000000E+00  0.15341196651E+04  0.15341196651E+04  0.50400001928E-02 0.  1.
       -1   -1    0    0    0  501  0.00000000000E+00  0.00000000000E+00 -0.20079233272E+04  0.20079233272E+04  0.50400001928E-02 0. -1.
    10030    2    1    2    0    0  0.00000000000E+00  0.00000000000E+00 -0.47380366208E+03  0.35420429923E+04  0.35102106274E+04 0.  0.
        4    1    3    3  502    0  0.16429071154E+04 -0.59410921973E+03 -0.67199743552E+02  0.17483211871E+04  0.12699999809E+01 0.  1.
       -4    1    3    3    0  502 -0.16429071154E+04  0.59410921973E+03 -0.40660391853E+03  0.17937218052E+04  0.12699999809E+01 0. -1.
</event>
<event>
 5   0  0.1098171E-07  0.3494474E+04  0.7818609E-02  0.8115101E-01
       -1   -1    0    0    0  501  0.00000000000E+00  0.00000000000E+00  0.18755582815E+04  0.18755582815E+04  0.50400001928E-02 0. -1.
        1   -1    0    0  501    0  0.00000000000E+00  0.00000000000E+00 -0.16276950042E+04  0.16276950042E+04  0.50400001928E-02 0.  1.
    10030    2    1    2    0    0  0.00000000000E+00  0.00000000000E+00  0.24786327732E+03  0.35032532858E+04  0.34944738345E+04 0.  0.
        4    1    3    3  502    0 -0.72726231966E+03  0.78446375639E+03 -0.12610388954E+04  0.16536367724E+04  0.12699999809E+01 0.  1.
       -4    1    3    3    0  502  0.72726231966E+03 -0.78446375639E+03  0.15089021727E+04  0.18496165133E+04  0.12699999809E+01 0. -1.
</event>
<event>
 5   0  0.1072381E-07  0.3538374E+04  0.7818609E-02  0.8104756E-01
       -1   -1    0    0    0  501  0.00000000000E+00  0.00000000000E+00  0.14237003852E+04  0.14237003852E+04  0.50400001928E-02 0.  1.
        1   -1    0    0  501    0  0.00000000000E+00  0.00000000000E+00 -0.21985117924E+04  0.21985117924E+04  0.50400001928E-02 0. -1.
    10030    2    1    2    0    0  0.00000000000E+00  0.00000000000E+00 -0.77481140725E+03  0.36222121776E+04  0.35383736861E+04 0.  0.
        1    1    3    3  502    0  0.17396881802E+04 -0.31998780854E+03 -0.42158733076E+03  0.18184177297E+04  0.50400001928E-02 0. -1.
       -1    1    3    3    0  502 -0.17396881802E+04  0.31998780854E+03 -0.35322407650E+03  0.18037944479E+04  0.50400001928E-02 0.  1.
</event>
<event>
 5   0  0.1013863E-07  0.3491263E+04  0.7818609E-02  0.8115864E-01
       -3   -1    0    0    0  501  0.00000000000E+00  0.00000000000E+00  0.11394895838E+04  0.11394895883E+04  0.10100000352E+00 0.  1.
        3   -1    0    0  501    0  0.00000000000E+00  0.00000000000E+00 -0.26742053761E+04  0.26742053780E+04  0.10100000352E+00 0. -1.
    10030    2    1    2    0    0  0.00000000000E+00  0.00000000000E+00 -0.15347157923E+04  0.38136949662E+04  0.34912629137E+04 0.  0.
        4    1    3    3  502    0 -0.95368328482E+03  0.13606804366E+04 -0.18290817660E+03  0.16716518992E+04  0.12699999809E+01 0. -1.
       -4    1    3    3    0  502  0.95368328482E+03 -0.13606804366E+04 -0.13518076157E+04  0.21420430670E+04  0.12699999809E+01 0.  1.
</event>
<event>
 5   0  0.2180451E-07  0.3520051E+04  0.7818609E-02  0.8109054E-01
       -2   -1    0    0    0  501  0.00000000000E+00  0.00000000000E+00  0.13856269658E+04  0.13856269658E+04  0.25500000920E-02 0.  1.
        2   -1    0    0  501    0  0.00000000000E+00  0.00000000000E+00 -0.22355873675E+04  0.22355873676E+04  0.25500000920E-02 0. -1.
    10030    2    1    2    0    0  0.00000000000E+00  0.00000000000E+00 -0.84996040176E+03  0.36212143333E+04  0.35200512160E+04 0.  0.
        4    1    3    3  502    0 -0.94568072781E+03  0.11236359573E+04 -0.14228140320E+04  0.20448156851E+04  0.12699999809E+01 0. -1.
       -4    1    3    3    0  502  0.94568072781E+03 -0.11236359573E+04  0.57285363021E+03  0.15763986482E+04  0.12699999809E+01 0.  1.
</event>
<event>
 5   0  0.1072381E-07  0.3490523E+04  0.7818609E-02  0.8116039E-01
        1   -1    0    0  501    0  0.00000000000E+00  0.00000000000E+00  0.18646570609E+04  0.18646570609E+04  0.50400001928E-02 0. -1.
       -1   -1    0    0    0  501  0.00000000000E+00  0.00000000000E+00 -0.16335112519E+04  0.16335112519E+04  0.50400001928E-02 0.  1.
    10030    2    1    2    0    0  0.00000000000E+00  0.00000000000E+00  0.23114580899E+03  0.34981683128E+04  0.34905233361E+04 0.  0.
        1    1    3    3  502    0 -0.87150402727E+03  0.84409953046E+03  0.13728783407E+04  0.18321621722E+04  0.50400001928E-02 0. -1.
       -1    1    3    3    0  502  0.87150402727E+03 -0.84409953046E+03 -0.11417325317E+04  0.16660061407E+04  0.50400001928E-02 0.  1.
</event>
<event>
 5   0  0.2180451E-07  0.3503598E+04  0.7818609E-02  0.8112938E-01
        2   -1    0    0  501    0  0.00000000000E+00  0.00000000000E+00  0.22369043277E+04  0.22369043277E+04  0.25500000920E-02 0.  1.
       -2   -1    0    0    0  501  0.00000000000E+00  0.00000000000E+00 -0.13718959821E+04  0.13718959821E+04  0.25500000920E-02 0. -1.
    10030    2    1    2    0    0  0.00000000000E+00  0.00000000000E+00  0.86500834560E+03  0.36088003098E+04  0.35035981845E+04 0.  0.
        4    1    3    3  502    0  0.50769900594E+03  0.15814027546E+04 -0.14118057175E+03  0.16668912741E+04  0.12699999809E+01 0. -1.
       -4    1    3    3    0  502 -0.50769900594E+03 -0.15814027546E+04  0.10061889174E+04  0.19419090358E+04  0.12699999809E+01 0.  1.
</event>
<event>
 5   0  0.3190185E-07  0.3506583E+04  0.7818609E-02  0.8112232E-01
       -2   -1    0    0    0  501  0.00000000000E+00  0.00000000000E+00  0.13874609170E+04  0.13874609170E+04  0.25500000920E-02 0.  1.
        2   -1    0    0  501    0  0.00000000000E+00  0.00000000000E+00 -0.22155797278E+04  0.22155797278E+04  0.25500000920E-02 0. -1.
    10030    2    1    2    0    0  0.00000000000E+00  0.00000000000E+00 -0.82811881077E+03  0.36030406447E+04  0.35065825419E+04 0.  0.
        1    1    3    3  502    0  0.78971488079E+03 -0.54954181120E+03 -0.19201153295E+04  0.21476705227E+04  0.50400001928E-02 0. -1.
       -1    1    3    3    0  502 -0.78971488079E+03  0.54954181120E+03  0.10919965188E+04  0.14553701221E+04  0.50400001928E-02 0.  1.
</event>
<event>
 5   0  0.2180451E-07  0.3497166E+04  0.7818609E-02  0.8114462E-01
        2   -1    0    0  501    0  0.00000000000E+00  0.00000000000E+00  0.20358975593E+04  0.20358975593E+04  0.25500000920E-02 0.  1.
       -2   -1    0    0    0  501  0.00000000000E+00  0.00000000000E+00 -0.15018157014E+04  0.15018157014E+04  0.25500000920E-02 0. -1.
    10030    2    1    2    0    0  0.00000000000E+00  0.00000000000E+00  0.53408185788E+03  0.35377132607E+04  0.34971662363E+04 0.  0.
        4    1    3    3  502    0  0.13641303051E+04  0.16964210363E+03 -0.82618845688E+03  0.16038138645E+04  0.12699999809E+01 0. -1.
       -4    1    3    3    0  502 -0.13641303051E+04 -0.16964210363E+03  0.13602703148E+04  0.19338993962E+04  0.12699999809E+01 0.  1.
</event>
<event>
 5   0  0.2180451E-07  0.3506035E+04  0.7818609E-02  0.8112361E-01
       -2   -1    0    0    0  501  0.00000000000E+00  0.00000000000E+00  0.12003896718E+04  0.12003896718E+04  0.25500000920E-02 0.  1.
        2   -1    0    0  501    0  0.00000000000E+00  0.00000000000E+00 -0.25600605883E+04  0.25600605883E+04  0.25500000920E-02 0. -1.
    10030    2    1    2    0    0  0.00000000000E+00  0.00000000000E+00 -0.13596709165E+04  0.37604502602E+04  0.35060349625E+04 0.  0.
        4    1    3    3  502    0  0.77879527118E+02  0.16318983786E+04  0.18225174206E+01  0.16337571647E+04  0.12699999809E+01 0.  1.
       -4    1    3    3    0  502 -0.77879527118E+02 -0.16318983786E+04 -0.13614934339E+04  0.21266930955E+04  0.12699999809E+01 0. -1.
</event>
<event>
 5   0  0.1072381E-07  0.3505057E+04  0.7818609E-02  0.8112592E-01
       -1   -1    0    0    0  501  0.00000000000E+00  0.00000000000E+00  0.25026182336E+04  0.25026182336E+04  0.50400001928E-02 0.  1.
        1   -1    0    0  501    0  0.00000000000E+00  0.00000000000E+00 -0.12272573121E+04  0.12272573121E+04  0.50400001928E-02 0. -1.
    10030    2    1    2    0    0  0.00000000000E+00  0.00000000000E+00  0.12753609214E+04  0.37298755457E+04  0.35050572187E+04 0.  0.
        1    1    3    3  502    0  0.11954801385E+04 -0.90140097207E+03 -0.33159968909E+03  0.15335106220E+04  0.50400001928E-02 0. -1.
       -1    1    3    3    0  502 -0.11954801385E+04  0.90140097207E+03  0.16069606105E+04  0.21963649237E+04  0.50400001928E-02 0.  1.
</event>
<event>
 5   0  0.3190185E-07  0.3488442E+04  0.7818609E-02  0.8116535E-01
        2   -1    0    0  501    0  0.00000000000E+00  0.00000000000E+00  0.22551780078E+04  0.22551780078E+04  0.25500000920E-02 0. -1.
       -2   -1    0    0    0  501  0.00000000000E+00  0.00000000000E+00 -0.13490317107E+04  0.13490317107E+04  0.25500000920E-02 0.  1.
    10030    2    1    2    0    0  0.00000000000E+00  0.00000000000E+00  0.90614629708E+03  0.36042097185E+04  0.34884418561E+04 0.  0.
        1    1    3    3  502    0 -0.93139225988E+03 -0.19307378045E+03 -0.10574780438E+04  0.14223321833E+04  0.50400001928E-02 0.  1.
       -1    1    3    3    0  502  0.93139225988E+03  0.19307378045E+03  0.19636243409E+04  0.21818775352E+04  0.50400001928E-02 0. -1.
</event>
<event>
 5   0  0.1072381E-07  0.3497333E+04  0.7818609E-02  0.8114422E-01
       -1   -1    0    0    0  501  0.00000000000E+00  0.00000000000E+00  0.20557391198E+04  0.20557391198E+04  0.50400001928E-02 0. -1.
        1   -1    0    0  501    0  0.00000000000E+00  0.00000000000E+00 -0.14874625442E+04  0.14874625442E+04  0.50400001928E-02 0.  1.
    10030    2    1    2    0    0  0.00000000000E+00  0.00000000000E+00  0.56827657554E+03  0.35432016640E+04  0.34973332363E+04 0.  0.
        1    1    3    3  502    0 -0.16152215890E+04  0.26562263407E+03 -0.33902130290E+03  0.16716553500E+04  0.50400001928E-02 0.  1.
       -1    1    3    3    0  502  0.16152215890E+04 -0.26562263407E+03  0.90729787844E+03  0.18715463140E+04  0.50400001928E-02 0. -1.
</event>
<event>
 5   0  0.2180451E-07  0.3488995E+04  0.7818609E-02  0.8116403E-01
        2   -1    0    0  501    0  0.00000000000E+00  0.00000000000E+00  0.18048960445E+04  0.18048960445E+04  0.25500000920E-02 0.  1.
       -2   -1    0    0    0  501  0.00000000000E+00  0.00000000000E+00 -0.16861203451E+04  0.16861203451E+04  0.25500000920E-02 0. -1.
    10030    2    1    2    0    0  0.00000000000E+00  0.00000000000E+00  0.11877569936E+03  0.34910163897E+04  0.34889952373E+04 0.  0.
        4    1    3    3  502    0  0.93178453511E+03  0.83780236523E+03  0.12738187267E+04  0.17868270718E+04  0.12699999809E+01 0.  1.
       -4    1    3    3    0  502 -0.93178453511E+03 -0.83780236523E+03 -0.11550430274E+04  0.17041893178E+04  0.12699999809E+01 0. -1.
</event>
<event>
 5   0  0.3219205E-07  0.3444591E+04  0.7818609E-02  0.8127048E-01
        2   -1    0    0  501    0  0.00000000000E+00  0.00000000000E+00  0.14969336034E+04  0.14969336034E+04  0.25500000920E-02 0.  1.
       -2   -1    0    0    0  501  0.00000000000E+00  0.00000000000E+00 -0.19815857560E+04  0.19815857560E+04  0.25500000920E-02 0. -1.
    10030    2    1    2    0    0  0.00000000000E+00  0.00000000000E+00 -0.48465215261E+03  0.34785193595E+04  0.34445913002E+04 0.  0.
        2    1    3    3  502    0  0.63798003518E+03 -0.13993419706E+04 -0.10252857952E+04  0.18483472178E+04  0.25500000920E-02 0. -1.
       -2    1    3    3    0  502 -0.63798003518E+03  0.13993419706E+04  0.54063364261E+03  0.16301721416E+04  0.25500000920E-02 0.  1.
</event>
<event>
 5   0  0.3190185E-07  0.3492371E+04  0.7818609E-02  0.8115600E-01
        2   -1    0    0  501    0  0.00000000000E+00  0.00000000000E+00  0.16199118043E+04  0.16199118043E+04  0.25500000920E-02 0. -1.
       -2   -1    0    0    0  501  0.00000000000E+00  0.00000000000E+00 -0.18823027352E+04  0.18823027353E+04  0.25500000920E-02 0.  1.
    10030    2    1    2    0    0  0.00000000000E+00  0.00000000000E+00 -0.26239093097E+03  0.35022145395E+04  0.34923713549E+04 0.  0.
        1    1    3    3  502    0 -0.83135763496E+03 -0.93161434501E+03  0.10929430527E+04  0.16593930581E+04  0.50400001928E-02 0. -1.
       -1    1    3    3    0  502  0.83135763496E+03  0.93161434501E+03 -0.13553339836E+04  0.18428214814E+04  0.50400001928E-02 0.  1.
</event>
<event>
 5   0  0.3190185E-07  0.3499200E+04  0.7818609E-02  0.8113979E-01
       -2   -1    0    0    0  501  0.00000000000E+00  0.00000000000E+00  0.13225887388E+04  0.13225887388E+04  0.25500000920E-02 0.  1.
        2   -1    0    0  501    0  0.00000000000E+00  0.00000000000E+00 -0.23144765585E+04  0.23144765585E+04  0.25500000920E-02 0. -1.
    10030    2    1    2    0    0  0.00000000000E+00  0.00000000000E+00 -0.99188781967E+03  0.36370652973E+04  0.34992002701E+04 0.  0.
        1    1    3    3  502    0  0.15495006822E+04  0.71836051526E+03 -0.10137397401E+03  0.17109269057E+04  0.50400001928E-02 0.  1.
       -1    1    3    3    0  502 -0.15495006822E+04 -0.71836051526E+03 -0.89051384566E+03  0.19261383916E+04  0.50400001928E-02 0. -1.
</event>
<event>
 5   0  0.1013863E-07  0.3502372E+04  0.7818609E-02  0.8113228E-01
       -3   -1    0    0    0  501  0.00000000000E+00  0.00000000000E+00  0.12594897691E+04  0.12594897732E+04  0.10100000352E+00 0. -1.
        3   -1    0    0  501    0  0.00000000000E+00  0.00000000000E+00 -0.24348377336E+04  0.24348377357E+04  0.10100000352E+00 0.  1.
    10030    2    1    2    0    0  0.00000000000E+00  0.00000000000E+00 -0.11753479645E+04  0.36943275089E+04  0.35023724681E+04 0.  0.
        1    1    3    3  502    0 -0.49132767580E+03 -0.11943530994E+04  0.65984273989E+03  0.14502670970E+04  0.50400001928E-02 0. -1.
       -1    1    3    3    0  502  0.49132767580E+03  0.11943530994E+04 -0.18351907044E+04  0.22440604120E+04  0.50400001928E-02 0.  1.
</event>
<event>
 5   0  0.3219205E-07  0.3488715E+04  0.7818609E-02  0.8116469E-01
        2   -1    0    0  501    0  0.00000000000E+00  0.00000000000E+00  0.21715066055E+04  0.21715066055E+04  0.25500000920E-02 0.  1.
       -2   -1    0    0    0  501  0.00000000000E+00  0.00000000000E+00 -0.14012315727E+04  0.14012315727E+04  0.25500000920E-02 0. -1.
    10030    2    1    2    0    0  0.00000000000E+00  0.00000000000E+00  0.77027503284E+03  0.35727381783E+04  0.34887153028E+04 0.  0.
        2    1    3    3  502    0 -0.86247940817E+03 -0.12085451921E+04 -0.55251846530E+03  0.15842123802E+04  0.25500000920E-02 0.  1.
       -2    1    3    3    0  502  0.86247940817E+03  0.12085451921E+04  0.13227934981E+04  0.19885257981E+04  0.25500000920E-02 0. -1.
</event>
<event>
 5   0  0.1013863E-07  0.3578990E+04  0.7818609E-02  0.8095321E-01
       -1   -1    0    0    0  501  0.00000000000E+00  0.00000000000E+00  0.12613176446E+04  0.12613176446E+04  0.50400001928E-02 0.  1.
        1   -1    0    0  501    0  0.00000000000E+00  0.00000000000E+00 -0.25388463076E+04  0.25388463076E+04  0.50400001928E-02 0. -1.
    10030    2    1    2    0    0  0.00000000000E+00  0.00000000000E+00 -0.12775286630E+04  0.38001639522E+04  0.35789896031E+04 0.  0.
        2    1    3    3  502    0 -0.81905409832E+02 -0.76675443945E+03  0.10758572167E+04  0.13236652210E+04  0.25500000920E-02 0.  1.
       -2    1    3    3    0  502  0.81905409832E+02  0.76675443945E+03 -0.23533858798E+04  0.24764987312E+04  0.25500000920E-02 0. -1.
</event>
<event>
 5   0  0.1013863E-07  0.3489333E+04  0.7818609E-02  0.8116322E-01
       -1   -1    0    0    0  501  0.00000000000E+00  0.00000000000E+00  0.19356199079E+04  0.19356199079E+04  0.50400001928E-02 0.  1.
        1   -1    0    0  501    0  0.00000000000E+00  0.00000000000E+00 -0.15725515333E+04  0.15725515333E+04  0.50400001928E-02 0. -1.
    10030    2    1    2    0    0  0.00000000000E+00  0.00000000000E+00  0.36306837459E+03  0.35081714412E+04  0.34893334917E+04 0.  0.
        2    1    3    3  502    0  0.94413308315E+03 -0.12721388048E+04 -0.55325866006E+03  0.16780403935E+04  0.25500000920E-02 0. -1.
       -2    1    3    3    0  502 -0.94413308315E+03  0.12721388048E+04  0.91632703465E+03  0.18301310477E+04  0.25500000920E-02 0.  1.
</event>
<event>
 5   0  0.1098171E-07  0.3500970E+04  0.7818609E-02  0.8113560E-01
       -1   -1    0    0    0  501  0.00000000000E+00  0.00000000000E+00  0.20907838859E+04  0.20907838859E+04  0.50400001928E-02 0.  1.
        1   -1    0    0  501    0  0.00000000000E+00  0.00000000000E+00 -0.14655738971E+04  0.14655738971E+04  0.50400001928E-02 0. -1.
    10030    2    1    2    0    0  0.00000000000E+00  0.00000000000E+00  0.62520998873E+03  0.35563577830E+04  0.35009703156E+04 0.  0.
        4    1    3    3  502    0  0.17185921851E+04  0.30019465804E+03  0.45812193723E+03  0.18037608638E+04  0.12699999809E+01 0. -1.
       -4    1    3    3    0  502 -0.17185921851E+04 -0.30019465804E+03  0.16708805150E+03  0.17525969192E+04  0.12699999809E+01 0.  1.
</event>
<event>
 5   0  0.1013863E-07  0.3503537E+04  0.7818609E-02  0.8112952E-01
       -1   -1    0    0    0  501  0.00000000000E+00  0.00000000000E+00  0.13971808078E+04  0.13971808078E+04  0.50400001928E-02 0. -1.
        1   -1    0    0  501    0  0.00000000000E+00  0.00000000000E+00 -0.21963466470E+04  0.21963466470E+04  0.50400001928E-02 0.  1.
    10030    2    1    2    0    0  0.00000000000E+00  0.00000000000E+00 -0.79916583915E+03  0.35935274548E+04  0.35035372882E+04 0.  0.
        5    1    3    3  502    0 -0.66214743258E+01  0.44304745315E+03 -0.21379115150E+04  0.21833512373E+04  0.46999998093E+01 0.  1.
       -5    1    3    3    0  502  0.66214743258E+01 -0.44304745315E+03  0.13387456758E+04  0.14101762174E+04  0.46999998093E+01 0. -1.
</event>
<event>
 5   0  0.1013863E-07  0.3525173E+04  0.7818609E-02  0.8107850E-01
        1   -1    0    0  501    0  0.00000000000E+00  0.00000000000E+00  0.14238476018E+04  0.14238476018E+04  0.50400001928E-02 0.  1.
       -1   -1    0    0    0  501  0.00000000000E+00  0.00000000000E+00 -0.21819130486E+04  0.21819130486E+04  0.50400001928E-02 0. -1.
    10030    2    1    2    0    0  0.00000000000E+00  0.00000000000E+00 -0.75806544681E+03  0.36057606505E+04  0.35251732790E+04 0.  0.
        5    1    3    3  502    0  0.58188158414E+03  0.16518141731E+04 -0.17545178645E+03  0.17600800151E+04  0.46999998093E+01 0. -1.
       -5    1    3    3    0  502 -0.58188158414E+03 -0.16518141731E+04 -0.58261366035E+03  0.18456806353E+04  0.46999998093E+01 0.  1.
</event>
<event>
 5   0  0.3119048E-07  0.3493899E+04  0.7818609E-02  0.8115237E-01
       -2   -1    0    0    0  501  0.00000000000E+00  0.00000000000E+00  0.16837128722E+04  0.16837128722E+04  0.25500000920E-02 0.  1.
        2   -1    0    0  501    0  0.00000000000E+00  0.00000000000E+00 -0.18125610757E+04  0.18125610757E+04  0.25500000920E-02 0. -1.
    10030    2    1    2    0    0  0.00000000000E+00  0.00000000000E+00 -0.12884820350E+03  0.34962739479E+04  0.34938989194E+04 0.  0.
        3    1    3    3  502    0  0.11003272583E+04 -0.57453774782E+03 -0.12944947004E+04  0.17934687726E+04  0.10100000352E+00 0. -1.
       -3    1    3    3    0  502 -0.11003272583E+04  0.57453774782E+03  0.11656464969E+04  0.17028051752E+04  0.10100000352E+00 0.  1.
</event>
<event>
 5   0  0.3119048E-07  0.3523726E+04  0.7818609E-02  0.8108190E-01
        2   -1    0    0  501    0  0.00000000000E+00  0.00000000000E+00  0.20429563606E+04  0.20429563606E+04  0.25500000920E-02 0.  1.
       -2   -1    0    0    0  501  0.00000000000E+00  0.00000000000E+00 -0.15194458539E+04  0.15194458539E+04  0.25500000920E-02 0. -1.
    10030    2    1    2    0    0  0.00000000000E+00  0.00000000000E+00  0.52351050670E+03  0.35624022145E+04  0.35237261936E+04 0.  0.
        3    1    3    3  502    0 -0.28897937435E+03  0.10218962425E+04  0.16830235978E+04  0.19900626749E+04  0.10100000352E+00 0.  1.
       -3    1    3    3    0  502  0.28897937435E+03 -0.10218962425E+04 -0.11595130910E+04  0.15723395396E+04  0.10100000352E+00 0. -1.
</event>
<event>
 5   0  0.1013863E-07  0.3487426E+04  0.7818609E-02  0.8116776E-01
        1   -1    0    0  501    0  0.00000000000E+00  0.00000000000E+00  0.19952572269E+04  0.19952572269E+04  0.50400001928E-02 0. -1.
       -1   -1    0    0    0  501  0.00000000000E+00  0.00000000000E+00 -0.15238808299E+04  0.15238808299E+04  0.50400001928E-02 0.  1.
    10030    2    1    2    0    0  0.00000000000E+00  0.00000000000E+00  0.47137639702E+03  0.35191380568E+04  0.34874255483E+04 0.  0.
        5    1    3    3  502    0  0.31422051390E+03 -0.21520072859E+03  0.19527685335E+04  0.19895660131E+04  0.46999998093E+01 0. -1.
       -5    1    3    3    0  502 -0.31422051390E+03  0.21520072859E+03 -0.14813921365E+04  0.15295720437E+04  0.46999998093E+01 0.  1.
</event>
<event>
 5   0  0.3190185E-07  0.3479240E+04  0.7818609E-02  0.8118728E-01
       -2   -1    0    0    0  501  0.00000000000E+00  0.00000000000E+00  0.15465069824E+04  0.15465069824E+04  0.25500000920E-02 0. -1.
        2   -1    0    0  501    0  0.00000000000E+00  0.00000000000E+00 -0.19568466529E+04  0.19568466529E+04  0.25500000920E-02 0.  1.
    10030    2    1    2    0    0  0.00000000000E+00  0.00000000000E+00 -0.41033967050E+03  0.35033536353E+04  0.34792395791E+04 0.  0.
        1    1    3    3  502    0  0.12808488255E+04  0.59594528015E+02 -0.13889675936E+04  0.18903322983E+04  0.50400001928E-02 0.  1.
       -1    1    3    3    0  502 -0.12808488255E+04 -0.59594528015E+02  0.97862792315E+03  0.16130213370E+04  0.50400001928E-02 0. -1.
</event>
<event>
 5   0  0.1013863E-07  0.3498345E+04  0.7818609E-02  0.8114182E-01
        1   -1    0    0  501    0  0.00000000000E+00  0.00000000000E+00  0.23112987698E+04  0.23112987698E+04  0.50400001928E-02 0.  1.
       -1   -1    0    0    0  501  0.00000000000E+00  0.00000000000E+00 -0.13237600980E+04  0.13237600980E+04  0.50400001928E-02 0. -1.
    10030    2    1    2    0    0  0.00000000000E+00  0.00000000000E+00  0.98753867182E+03  0.36350588678E+04  0.34983453723E+04 0.  0.
        2    1    3    3  502    0  0.81405786373E+03 -0.87296089344E+03 -0.83481238780E+03  0.14565928222E+04  0.25500000920E-02 0. -1.
       -2    1    3    3    0  502 -0.81405786373E+03  0.87296089344E+03  0.18223510596E+04  0.21784660455E+04  0.25500000920E-02 0.  1.
</event>
<event>
 5   0  0.3190185E-07  0.3496431E+04  0.7818609E-02  0.8114636E-01
        2   -1    0    0  501    0  0.00000000000E+00  0.00000000000E+00  0.25771548211E+04  0.25771548211E+04  0.25500000920E-02 0.  1.
       -2   -1    0    0    0  501  0.00000000000E+00  0.00000000000E+00 -0.11859037549E+04  0.11859037549E+04  0.25500000920E-02 0. -1.
    10030    2    1    2    0    0  0.00000000000E+00  0.00000000000E+00  0.13912510662E+04  0.37630585760E+04  0.34964310829E+04 0.  0.
        1    1    3    3  502    0 -0.11452593712E+04 -0.65238929878E+03 -0.54044373427E+03  0.14245386110E+04  0.50400001928E-02 0. -1.
       -1    1    3    3    0  502  0.11452593712E+04  0.65238929878E+03  0.19316948005E+04  0.23385199650E+04  0.50400001928E-02 0.  1.
</event>
<event>
 5   0  0.2180451E-07  0.3475211E+04  0.7818609E-02  0.8119690E-01
        2   -1    0    0  501    0  0.00000000000E+00  0.00000000000E+00  0.28629682003E+04  0.28629682003E+04  0.25500000920E-02 0. -1.
       -2   -1    0    0    0  501  0.00000000000E+00  0.00000000000E+00 -0.10545953361E+04  0.10545953361E+04  0.25500000920E-02 0.  1.
    10030    2    1    2    0    0  0.00000000000E+00  0.00000000000E+00  0.18083728642E+04  0.39175635364E+04  0.34752110218E+04 0.  0.
        4    1    3    3  502    0 -0.88199284213E+02 -0.17319349624E+04  0.78124757457E+03  0.19020323902E+04  0.12699999809E+01 0. -1.
       -4    1    3    3    0  502  0.88199284213E+02  0.17319349624E+04  0.10271252896E+04  0.20155311462E+04  0.12699999809E+01 0.  1.
</event>
<event>
 5   0  0.3190112E-07  0.3510894E+04  0.7818609E-02  0.8111213E-01
        2   -1    0    0  501    0  0.00000000000E+00  0.00000000000E+00  0.20009415945E+04  0.20009415945E+04  0.25500000920E-02 0. -1.
       -2   -1    0    0    0  501  0.00000000000E+00  0.00000000000E+00 -0.15400717015E+04  0.15400717015E+04  0.25500000920E-02 0.  1.
    10030    2    1    2    0    0  0.00000000000E+00  0.00000000000E+00  0.46086989308E+03  0.35410132960E+04  0.35108936333E+04 0.  0.
        5    1    3    3  502    0 -0.15109819964E+04  0.47379184855E+02  0.11304242549E+04  0.18876420388E+04  0.46999998093E+01 0. -1.
       -5    1    3    3    0  502  0.15109819964E+04 -0.47379184855E+02 -0.66955436178E+03  0.16533712572E+04  0.46999998093E+01 0.  1.
</event>
<event>
 5   0  0.1072381E-07  0.3555433E+04  0.7818609E-02  0.8100777E-01
        1   -1    0    0  501    0  0.00000000000E+00  0.00000000000E+00  0.15700961619E+04  0.15700961619E+04  0.50400001928E-02 0. -1.
       -1   -1    0    0    0  501  0.00000000000E+00  0.00000000000E+00 -0.20127916179E+04  0.20127916179E+04  0.50400001928E-02 0.  1.
    10030    2    1    2    0    0  0.00000000000E+00  0.00000000000E+00 -0.44269545603E+03  0.35828877798E+04  0.35554332473E+04 0.  0.
        1    1    3    3  502    0  0.74955795816E+03  0.14825622270E+02 -0.18456939113E+04  0.19921453125E+04  0.50400001928E-02 0.  1.
       -1    1    3    3    0  502 -0.74955795816E+03 -0.14825622270E+02  0.14029984553E+04  0.15907424673E+04  0.50400001928E-02 0. -1.
</event>
<event>
 5   0  0.1072381E-07  0.3513758E+04  0.7818609E-02  0.8110537E-01
       -1   -1    0    0    0  501  0.00000000000E+00  0.00000000000E+00  0.24829321591E+04  0.24829321591E+04  0.50400001928E-02 0. -1.
        1   -1    0    0  501    0  0.00000000000E+00  0.00000000000E+00 -0.12431364528E+04  0.12431364528E+04  0.50400001928E-02 0.  1.
    10030    2    1    2    0    0  0.00000000000E+00  0.00000000000E+00  0.12397957063E+04  0.37260686119E+04  0.35137578043E+04 0.  0.
        1    1    3    3  502    0 -0.80836617699E+03  0.14950447225E+04  0.10917667552E+04  0.20200418921E+04  0.50400001928E-02 0.  1.
       -1    1    3    3    0  502  0.80836617699E+03 -0.14950447225E+04  0.14802895115E+03  0.17060267198E+04  0.50400001928E-02 0. -1.
</event>
<event>
 5   0  0.1098171E-07  0.3497739E+04  0.7818609E-02  0.8114326E-01
       -1   -1    0    0    0  501  0.00000000000E+00  0.00000000000E+00  0.14190929333E+04  0.14190929333E+04  0.50400001928E-02 0.  1.
        1   -1    0    0  501    0  0.00000000000E+00  0.00000000000E+00 -0.21552807411E+04  0.21552807411E+04  0.50400001928E-02 0. -1.
    10030    2    1    2    0    0  0.00000000000E+00  0.00000000000E+00 -0.73618780784E+03  0.35743736744E+04  0.34977385088E+04 0.  0.
        4    1    3    3  502    0  0.83631875219E+03  0.18246167916E+03  0.11903843023E+04  0.14661983903E+04  0.12699999809E+01 0.  1.
       -4    1    3    3    0  502 -0.83631875219E+03 -0.18246167916E+03 -0.19265721102E+04  0.21081752840E+04  0.12699999809E+01 0. -1.
</event>
<event>
 5   0  0.1033796E-07  0.3498582E+04  0.7818609E-02  0.8114126E-01
        1   -1    0    0  501    0  0.00000000000E+00  0.00000000000E+00  0.18835385225E+04  0.18835385225E+04  0.50400001928E-02 0. -1.
       -1   -1    0    0    0  501  0.00000000000E+00  0.00000000000E+00 -0.16246114012E+04  0.16246114012E+04  0.50400001928E-02 0.  1.
    10030    2    1    2    0    0  0.00000000000E+00  0.00000000000E+00  0.25892712127E+03  0.35081499237E+04  0.34985815173E+04 0.  0.
        3    1    3    3  502    0 -0.14550726293E+04 -0.33425988835E+03 -0.78465026613E+03  0.16866066761E+04  0.10100000352E+00 0.  1.
       -3    1    3    3    0  502  0.14550726293E+04  0.33425988835E+03  0.10435773874E+04  0.18215432476E+04  0.10100000352E+00 0. -1.
</event>
<event>
 5   0  0.3190185E-07  0.3495047E+04  0.7818609E-02  0.8114965E-01
       -2   -1    0    0    0  501  0.00000000000E+00  0.00000000000E+00  0.11864182019E+04  0.11864182019E+04  0.25500000920E-02 0.  1.
        2   -1    0    0  501    0  0.00000000000E+00  0.00000000000E+00 -0.25739977602E+04  0.25739977602E+04  0.25500000920E-02 0. -1.
    10030    2    1    2    0    0  0.00000000000E+00  0.00000000000E+00 -0.13875795583E+04  0.37604159622E+04  0.34950466632E+04 0.  0.
        1    1    3    3  502    0  0.27484000749E+03  0.33829537370E+03 -0.25145743884E+04  0.25520707562E+04  0.50400001928E-02 0. -1.
       -1    1    3    3    0  502 -0.27484000749E+03 -0.33829537370E+03  0.11269948301E+04  0.12083452060E+04  0.50400001928E-02 0.  1.
</event>
<event>
 5   0  0.1013863E-07  0.3505635E+04  0.7818609E-02  0.8112456E-01
        1   -1    0    0  501    0  0.00000000000E+00  0.00000000000E+00  0.16442675560E+04  0.16442675560E+04  0.50400001928E-02 0. -1.
       -1   -1    0    0    0  501  0.00000000000E+00  0.00000000000E+00 -0.18685331473E+04  0.18685331474E+04  0.50400001928E-02 0.  1.
    10030    2    1    2    0    0  0.00000000000E+00  0.00000000000E+00 -0.22426559131E+03  0.35128007034E+04  0.35056345683E+04 0.  0.
        2    1    3    3  502    0 -0.16840619510E+04  0.45222706067E+03 -0.29080731032E+03  0.17678073597E+04  0.25500000920E-02 0. -1.
       -2    1    3    3    0  502  0.16840619510E+04 -0.45222706067E+03  0.66541719010E+02  0.17449933437E+04  0.25500000920E-02 0.  1.
</event>
<event>
 5   0  0.1013863E-07  0.3477024E+04  0.7818609E-02  0.8119257E-01
       -1   -1    0    0    0  501  0.00000000000E+00  0.00000000000E+00  0.15083472956E+04  0.15083472957E+04  0.50400001928E-02 0. -1.
        1   -1    0    0  501    0  0.00000000000E+00  0.00000000000E+00 -0.20037979202E+04  0.20037979202E+04  0.50400001928E-02 0.  1.
    10030    2    1    2    0    0  0.00000000000E+00  0.00000000000E+00 -0.49545062453E+03  0.35121452158E+04  0.34770235397E+04 0.  0.
        2    1    3    3  502    0 -0.11557749762E+04  0.12369979073E+04 -0.64725004741E+03  0.18124326863E+04  0.25500000920E-02 0.  1.
       -2    1    3    3    0  502  0.11557749762E+04 -0.12369979073E+04  0.15179942288E+03  0.16997125296E+04  0.25500000920E-02 0. -1.
</event>
<event>
 5   0  0.1033796E-07  0.3505035E+04  0.7818609E-02  0.8112598E-01
       -1   -1    0    0    0  501  0.00000000000E+00  0.00000000000E+00  0.12030227513E+04  0.12030227513E+04  0.50400001928E-02 0. -1.
        1   -1    0    0  501    0  0.00000000000E+00  0.00000000000E+00 -0.25530000131E+04  0.25530000131E+04  0.50400001928E-02 0.  1.
    10030    2    1    2    0    0  0.00000000000E+00  0.00000000000E+00 -0.13499772619E+04  0.37560227644E+04  0.35050347215E+04 0.  0.
        3    1    3    3  502    0 -0.11811927159E+04 -0.11447124134E+04 -0.26923334537E+02  0.16450858998E+04  0.10100000352E+00 0. -1.
       -3    1    3    3    0  502  0.11811927159E+04  0.11447124134E+04 -0.13230539273E+04  0.21109368646E+04  0.10100000352E+00 0.  1.
</event>
<event>
 5   0  0.1098171E-07  0.3505328E+04  0.7818609E-02  0.8112529E-01
       -1   -1    0    0    0  501  0.00000000000E+00  0.00000000000E+00  0.14025675718E+04  0.14025675718E+04  0.50400001928E-02 0.  1.
        1   -1    0    0  501    0  0.00000000000E+00  0.00000000000E+00 -0.21901479355E+04  0.21901479355E+04  0.50400001928E-02 0. -1.
    10030    2    1    2    0    0  0.00000000000E+00  0.00000000000E+00 -0.78758036379E+03  0.35927155073E+04  0.35053276433E+04 0.  0.
        4    1    3    3  502    0  0.55885213152E+03  0.14462179185E+04 -0.12314577040E+04  0.19799877935E+04  0.12699999809E+01 0. -1.
       -4    1    3    3    0  502 -0.55885213152E+03 -0.14462179185E+04  0.44387734024E+03  0.16127277138E+04  0.12699999809E+01 0.  1.
</event>
<event>
 5   0  0.3219205E-07  0.3514331E+04  0.7818609E-02  0.8110402E-01
       -2   -1    0    0    0  501  0.00000000000E+00  0.00000000000E+00  0.16614491377E+04  0.16614491377E+04  0.25500000920E-02 0.  1.
        2   -1    0    0  501    0  0.00000000000E+00  0.00000000000E+00 -0.18583956314E+04  0.18583956314E+04  0.25500000920E-02 0. -1.
    10030    2    1    2    0    0  0.00000000000E+00  0.00000000000E+00 -0.19694649365E+03  0.35198447691E+04  0.35143305589E+04 0.  0.
        2    1    3    3  502    0  0.44111975955E+03 -0.33258188276E+03  0.15722065396E+04  0.16664425445E+04  0.25500000920E-02 0.  1.
       -2    1    3    3    0  502 -0.44111975955E+03  0.33258188276E+03 -0.17691530333E+04  0.18534022246E+04  0.25500000920E-02 0. -1.
</event>
<event>
 5   0  0.3119048E-07  0.3503725E+04  0.7818609E-02  0.8112908E-01
       -2   -1    0    0    0  501  0.00000000000E+00  0.00000000000E+00  0.14534405076E+04  0.14534405076E+04  0.25500000920E-02 0. -1.
        2   -1    0    0  501    0  0.00000000000E+00  0.00000000000E+00 -0.21115573797E+04  0.21115573797E+04  0.25500000920E-02 0.  1.
    10030    2    1    2    0    0  0.00000000000E+00  0.00000000000E+00 -0.65811687212E+03  0.35649978873E+04  0.35037254629E+04 0.  0.
        3    1    3    3  502    0 -0.81040937855E+03  0.32426460508E+03  0.12164221654E+04  0.14971953077E+04  0.10100000352E+00 0. -1.
       -3    1    3    3    0  502  0.81040937855E+03 -0.32426460508E+03 -0.18745390375E+04  0.20678025796E+04  0.10100000352E+00 0.  1.
</event>
<event>
 5   0  0.3190185E-07  0.3505262E+04  0.7818609E-02  0.8112544E-01
       -2   -1    0    0    0  501  0.00000000000E+00  0.00000000000E+00  0.13745324612E+04  0.13745324612E+04  0.25500000920E-02 0.  1.
        2   -1    0    0  501    0  0.00000000000E+00  0.00000000000E+00 -0.22347353530E+04  0.22347353530E+04  0.25500000920E-02 0. -1.
    10030    2    1    2    0    0  0.00000000000E+00  0.00000000000E+00 -0.86020289180E+03  0.36092678143E+04  0.35052624923E+04 0.  0.
        1    1    3    3  502    0 -0.56721751519E+02  0.30552824055E+03 -0.22061429073E+04  0.22279208672E+04  0.50400001928E-02 0. -1.
       -1    1    3    3    0  502  0.56721751519E+02 -0.30552824055E+03  0.13459400155E+04  0.13813469471E+04  0.50400001928E-02 0.  1.
</event>
<event>
 5   0  0.3190112E-07  0.3475274E+04  0.7818609E-02  0.8119675E-01
       -2   -1    0    0    0  501  0.00000000000E+00  0.00000000000E+00  0.11561184140E+04  0.11561184141E+04  0.25500000920E-02 0. -1.
        2   -1    0    0  501    0  0.00000000000E+00  0.00000000000E+00 -0.26116549168E+04  0.26116549168E+04  0.25500000920E-02 0.  1.
    10030    2    1    2    0    0  0.00000000000E+00  0.00000000000E+00 -0.14555365028E+04  0.37677733309E+04  0.34752739981E+04 0.  0.
        5    1    3    3  502    0  0.96038117964E+03 -0.61727448217E+03 -0.21479843002E+04  0.24325333380E+04  0.46999998093E+01 0.  1.
       -5    1    3    3    0  502 -0.96038117964E+03  0.61727448217E+03  0.69244779740E+03  0.13352399929E+04  0.46999998093E+01 0. -1.
</event>
<event>
 5   0  0.1098171E-07  0.3506114E+04  0.7818609E-02  0.8112343E-01
        1   -1    0    0  501    0  0.00000000000E+00  0.00000000000E+00  0.18195876499E+04  0.18195876499E+04  0.50400001928E-02 0.  1.
       -1   -1    0    0    0  501  0.00000000000E+00  0.00000000000E+00 -0.16889588092E+04  0.16889588092E+04  0.50400001928E-02 0. -1.
    10030    2    1    2    0    0  0.00000000000E+00  0.00000000000E+00  0.13062884075E+03  0.35085464591E+04  0.35061138547E+04 0.  0.
        4    1    3    3  502    0  0.12553327876E+04  0.48911494759E+03  0.11877490716E+04  0.17960632811E+04  0.12699999809E+01 0.  1.
       -4    1    3    3    0  502 -0.12553327876E+04 -0.48911494759E+03 -0.10571202309E+04  0.17124831780E+04  0.12699999809E+01 0. -1.
</event>
<event>
 5   0  0.1033796E-07  0.3506265E+04  0.7818609E-02  0.8112307E-01
       -1   -1    0    0    0  501  0.00000000000E+00  0.00000000000E+00  0.97666695056E+03  0.97666695057E+03  0.50400001928E-02 0.  1.
        1   -1    0    0  501    0  0.00000000000E+00  0.00000000000E+00 -0.31469003520E+04  0.31469003520E+04  0.50400001928E-02 0. -1.
    10030    2    1    2    0    0  0.00000000000E+00  0.00000000000E+00 -0.21702334014E+04  0.41235673025E+04  0.35062650045E+04 0.  0.
        3    1    3    3  502    0  0.76867142346E+03  0.15756200364E+04 -0.10777436689E+04  0.20579032248E+04  0.10100000352E+00 0. -1.
       -3    1    3    3    0  502 -0.76867142346E+03 -0.15756200364E+04 -0.10924897325E+04  0.20656640778E+04  0.10100000352E+00 0.  1.
</event>
<event>
 5   0  0.1033796E-07  0.3503678E+04  0.7818609E-02  0.8112919E-01
       -1   -1    0    0    0  501  0.00000000000E+00  0.00000000000E+00  0.21900293142E+04  0.21900293142E+04  0.50400001928E-02 0. -1.
        1   -1    0    0  501    0  0.00000000000E+00  0.00000000000E+00 -0.14013233680E+04  0.14013233680E+04  0.50400001928E-02 0.  1.
    10030    2    1    2    0    0  0.00000000000E+00  0.00000000000E+00  0.78870594621E+03  0.35913526822E+04  0.35036776419E+04 0.  0.
        3    1    3    3  502    0  0.62012346298E+03 -0.67278604713E+03  0.19256386015E+04  0.21319658084E+04  0.10100000352E+00 0. -1.
       -3    1    3    3    0  502 -0.62012346298E+03  0.67278604713E+03 -0.11369326552E+04  0.14593868738E+04  0.10100000352E+00 0.  1.
</event>
<event>
 5   0  0.1013863E-07  0.3492670E+04  0.7818609E-02  0.8115529E-01
        1   -1    0    0  501    0  0.00000000000E+00  0.00000000000E+00  0.23507198664E+04  0.23507198664E+04  0.50400001928E-02 0.  1.
       -1   -1    0    0    0  501  0.00000000000E+00  0.00000000000E+00 -0.12973411275E+04  0.12973411275E+04  0.50400001928E-02 0. -1.
    10030    2    1    2    0    0  0.00000000000E+00  0.00000000000E+00  0.10533787390E+04  0.36480609939E+04  0.34926697879E+04 0.  0.
        5    1    3    3  502    0  0.16760509121E+03  0.12674001735E+04  0.17692684295E+04  0.21828255844E+04  0.46999998093E+01 0.  1.
       -5    1    3    3    0  502 -0.16760509121E+03 -0.12674001735E+04 -0.71588969052E+03  0.14652354095E+04  0.46999998093E+01 0. -1.
</event>
<event>
 5   0  0.3219205E-07  0.3490250E+04  0.7818609E-02  0.8116104E-01
       -2   -1    0    0    0  501  0.00000000000E+00  0.00000000000E+00  0.16846342121E+04  0.16846342121E+04  0.25500000920E-02 0.  1.
        2   -1    0    0  501    0  0.00000000000E+00  0.00000000000E+00 -0.18077880504E+04  0.18077880504E+04  0.25500000920E-02 0. -1.
    10030    2    1    2    0    0  0.00000000000E+00  0.00000000000E+00 -0.12315383830E+03  0.34924222624E+04  0.34902501903E+04 0.  0.
        2    1    3    3  502    0 -0.21362129481E+03  0.77382788571E+03  0.14889092315E+04  0.16915360930E+04  0.25500000920E-02 0.  1.
       -2    1    3    3    0  502  0.21362129481E+03 -0.77382788571E+03 -0.16120630698E+04  0.18008861694E+04  0.25500000920E-02 0. -1.
</event>
<event>
 5   0  0.3119048E-07  0.3349317E+04  0.7818609E-02  0.8150459E-01
        2   -1    0    0  501    0  0.00000000000E+00  0.00000000000E+00  0.16712921816E+04  0.16712921816E+04  0.25500000920E-02 0.  1.
       -2   -1    0    0    0  501  0.00000000000E+00  0.00000000000E+00 -0.16780313581E+04  0.16780313581E+04  0.25500000920E-02 0. -1.
    10030    2    1    2    0    0  0.00000000000E+00  0.00000000000E+00 -0.67391765067E+01  0.33493235396E+04  0.33493167597E+04 0.  0.
        3    1    3    3  502    0  0.40244908390E+03 -0.12548152992E+04 -0.10367902685E+04  0.16767411164E+04  0.10100000352E+00 0. -1.
       -3    1    3    3    0  502 -0.40244908390E+03  0.12548152992E+04  0.10300510920E+04  0.16725824233E+04  0.10100000352E+00 0.  1.
</event>
<event>
 5   0  0.3119048E-07  0.3518220E+04  0.7818609E-02  0.8109486E-01
        2   -1    0    0  501    0  0.00000000000E+00  0.00000000000E+00  0.16779958756E+04  0.16779958756E+04  0.25500000920E-02 0. -1.
       -2   -1    0    0    0  501  0.00000000000E+00  0.00000000000E+00 -0.18441447824E+04  0.18441447824E+04  0.25500000920E-02 0.  1.
    10030    2    1    2    0    0  0.00000000000E+00  0.00000000000E+00 -0.16614890676E+03  0.35221406580E+04  0.35182196286E+04 0.  0.
        3    1    3    3  502    0 -0.13034930522E+04  0.75707690643E+03 -0.99084174697E+03  0.18038921689E+04  0.10100000352E+00 0.  1.
       -3    1    3    3    0  502  0.13034930522E+04 -0.75707690643E+03  0.82469284022E+03  0.17182484891E+04  0.10100000352E+00 0. -1.
</event>
<event>
 5   0  0.1013863E-07  0.3477487E+04  0.7818609E-02  0.8119146E-01
       -1   -1    0    0    0  501  0.00000000000E+00  0.00000000000E+00  0.21618818265E+04  0.21618818265E+04  0.50400001928E-02 0. -1.
        1   -1    0    0  501    0  0.00000000000E+00  0.00000000000E+00 -0.13984250453E+04  0.13984250453E+04  0.50400001928E-02 0.  1.
    10030    2    1    2    0    0  0.00000000000E+00  0.00000000000E+00  0.76345678115E+03  0.35603068718E+04  0.34774874212E+04 0.  0.
        2    1    3    3  502    0  0.13039599251E+04 -0.80742203385E+03 -0.45691860880E+03  0.16003176067E+04  0.25500000920E-02 0. -1.
       -2    1    3    3    0  502 -0.13039599251E+04  0.80742203385E+03  0.12203753899E+04  0.19599892652E+04  0.25500000920E-02 0.  1.
</event>
<event>
 5   0  0.2180451E-07  0.3482712E+04  0.7818609E-02  0.8117899E-01
       -2   -1    0    0    0  501  0.00000000000E+00  0.00000000000E+00  0.14357993347E+04  0.14357993347E+04  0.25500000920E-02 0. -1.
        2   -1    0    0  501    0  0.00000000000E+00  0.00000000000E+00 -0.21119392492E+04  0.21119392492E+04  0.25500000920E-02 0.  1.
    10030    2    1    2    0    0  0.00000000000E+00  0.00000000000E+00 -0.67613991452E+03  0.35477385839E+04  0.34827121437E+04 0.  0.
        4    1    3    3  502    0 -0.10222370971E+04  0.14093303330E+04 -0.30369549144E+03  0.17673180910E+04  0.12699999809E+01 0. -1.
       -4    1    3    3    0  502  0.10222370971E+04 -0.14093303330E+04 -0.37244442308E+03  0.17804204929E+04  0.12699999809E+01 0.  1.
</event>
<event>
 5   0  0.3190185E-07  0.3497853E+04  0.7818609E-02  0.8114299E-01
        2   -1    0    0  501    0  0.00000000000E+00  0.00000000000E+00  0.23880669137E+04  0.23880669137E+04  0.25500000920E-02 0. -1.
       -2   -1    0    0    0  501  0.00000000000E+00  0.00000000000E+00 -0.12808453649E+04  0.12808453649E+04  0.25500000920E-02 0.  1.
    10030    2    1    2    0    0  0.00000000000E+00  0.00000000000E+00  0.11072215487E+04  0.36689122786E+04  0.34978533060E+04 0.  0.
        1    1    3    3  502    0  0.66094722881E+03  0.10193377080E+04  0.18732486464E+04  0.22327026433E+04  0.50400001928E-02 0. -1.
       -1    1    3    3    0  502 -0.66094722881E+03 -0.10193377080E+04 -0.76602709765E+03  0.14362096353E+04  0.50400001928E-02 0.  1.
</event>
<event>
 5   0  0.3119048E-07  0.3534941E+04  0.7818609E-02  0.8105559E-01
       -2   -1    0    0    0  501  0.00000000000E+00  0.00000000000E+00  0.11976732969E+04  0.11976732970E+04  0.25500000920E-02 0. -1.
        2   -1    0    0  501    0  0.00000000000E+00  0.00000000000E+00 -0.26083499975E+04  0.26083499975E+04  0.25500000920E-02 0.  1.
    10030    2    1    2    0    0  0.00000000000E+00  0.00000000000E+00 -0.14106767006E+04  0.38060232945E+04  0.35349405320E+04 0.  0.
        3    1    3    3  502    0 -0.14695103535E+04 -0.56220899828E+03  0.16165283564E+03  0.15816672489E+04  0.10100000352E+00 0. -1.
       -3    1    3    3    0  502  0.14695103535E+04  0.56220899828E+03 -0.15723295362E+04  0.22243560456E+04  0.10100000352E+00 0.  1.
</event>
<event>
 5   0  0.1013863E-07  0.3503938E+04  0.7818609E-02  0.8112857E-01
        3   -1    0    0  501    0  0.00000000000E+00  0.00000000000E+00  0.11461301368E+04  0.11461301412E+04  0.10100000352E+00 0.  1.
       -3   -1    0    0    0  501  0.00000000000E+00  0.00000000000E+00 -0.26780510694E+04  0.26780510713E+04  0.10100000352E+00 0. -1.
    10030    2    1    2    0    0  0.00000000000E+00  0.00000000000E+00 -0.15319209327E+04  0.38241812125E+04  0.35039378137E+04 0.  0.
        3    1    3    3  502    0  0.22307525446E+03 -0.15192363030E+04  0.15467109942E+03  0.15432966898E+04  0.10100000352E+00 0.  1.
       -3    1    3    3    0  502 -0.22307525446E+03  0.15192363030E+04 -0.16865920321E+04  0.22808845228E+04  0.10100000352E+00 0. -1.
</event>
<event>
 5   0  0.3190185E-07  0.3510929E+04  0.7818609E-02  0.8111205E-01
       -2   -1    0    0    0  501  0.00000000000E+00  0.00000000000E+00  0.14872597548E+04  0.14872597548E+04  0.25500000920E-02 0. -1.
        2   -1    0    0  501    0  0.00000000000E+00  0.00000000000E+00 -0.20720359131E+04  0.20720359131E+04  0.25500000920E-02 0.  1.
    10030    2    1    2    0    0  0.00000000000E+00  0.00000000000E+00 -0.58477615825E+03  0.35592956679E+04  0.35109290076E+04 0.  0.
        1    1    3    3  502    0 -0.16645470232E+04  0.42539280382E+03 -0.65788181674E+03  0.18396967997E+04  0.50400001928E-02 0. -1.
       -1    1    3    3    0  502  0.16645470232E+04 -0.42539280382E+03  0.73105658481E+02  0.17195988682E+04  0.50400001928E-02 0.  1.
</event>
<event>
 5   0  0.3190112E-07  0.3489763E+04  0.7818609E-02  0.8116220E-01
        2   -1    0    0  501    0  0.00000000000E+00  0.00000000000E+00  0.23713617505E+04  0.23713617505E+04  0.25500000920E-02 0.  1.
       -2   -1    0    0    0  501  0.00000000000E+00  0.00000000000E+00 -0.12839086853E+04  0.12839086853E+04  0.25500000920E-02 0. -1.
    10030    2    1    2    0    0  0.00000000000E+00  0.00000000000E+00  0.10874530652E+04  0.36552704358E+04  0.34897632856E+04 0.  0.
        5    1    3    3  502    0  0.84594695761E+03 -0.15249688049E+04  0.60510381552E+03  0.18458951293E+04  0.46999998093E+01 0. -1.
       -5    1    3    3    0  502 -0.84594695761E+03  0.15249688049E+04  0.48234924969E+03  0.18093753065E+04  0.46999998093E+01 0.  1.
</event>
<event>
 5   0  0.1033796E-07  0.3547150E+04  0.7818609E-02  0.8102706E-01
        1   -1    0    0  501    0  0.00000000000E+00  0.00000000000E+00  0.22520736163E+04  0.22520736163E+04  0.50400001928E-02 0.  1.
       -1   -1    0    0    0  501  0.00000000000E+00  0.00000000000E+00 -0.13967432660E+04  0.13967432660E+04  0.50400001928E-02 0. -1.
    10030    2    1    2    0    0  0.00000000000E+00  0.00000000000E+00  0.85533035033E+03  0.36488168824E+04  0.35471502129E+04 0.  0.
        3    1    3    3  502    0  0.10352346584E+04 -0.57531257408E+03 -0.93035241681E+03  0.15060713746E+04  0.10100000352E+00 0. -1.
       -3    1    3    3    0  502 -0.10352346584E+04  0.57531257408E+03  0.17856827671E+04  0.21427455077E+04  0.10100000352E+00 0.  1.
</event>
<event>
 5   0  0.1013863E-07  0.3495992E+04  0.7818609E-02  0.8114740E-01
        3   -1    0    0  501    0  0.00000000000E+00  0.00000000000E+00  0.23204024666E+04  0.23204024688E+04  0.10100000352E+00 0. -1.
       -3   -1    0    0    0  501  0.00000000000E+00  0.00000000000E+00 -0.13167932316E+04  0.13167932355E+04  0.10100000352E+00 0.  1.
    10030    2    1    2    0    0  0.00000000000E+00  0.00000000000E+00  0.10036092349E+04  0.36371957043E+04  0.34959921474E+04 0.  0.
        4    1    3    3  502    0  0.15916941197E+04  0.20016170115E+03  0.12240585359E+04  0.20178889438E+04  0.12699999809E+01 0. -1.
       -4    1    3    3    0  502 -0.15916941197E+04 -0.20016170115E+03 -0.22044930098E+03  0.16193067605E+04  0.12699999809E+01 0.  1.
</event>
<event>
 5   0  0.1013863E-07  0.3475244E+04  0.7818609E-02  0.8119682E-01
        1   -1    0    0  501    0  0.00000000000E+00  0.00000000000E+00  0.20123553915E+04  0.20123553915E+04  0.50400001928E-02 0. -1.
       -1   -1    0    0    0  501  0.00000000000E+00  0.00000000000E+00 -0.15003962305E+04  0.15003962305E+04  0.50400001928E-02 0.  1.
    10030    2    1    2    0    0  0.00000000000E+00  0.00000000000E+00  0.51195916102E+03  0.35127516220E+04  0.34752441318E+04 0.  0.
        2    1    3    3  502    0  0.35014213132E+02  0.10482571677E+04  0.16563056826E+04  0.19604636184E+04  0.25500000920E-02 0. -1.
       -2    1    3    3    0  502 -0.35014213132E+02 -0.10482571677E+04 -0.11443465216E+04  0.15522880036E+04  0.25500000920E-02 0.  1.
</event>
<event>
 5   0  0.1098171E-07  0.3508066E+04  0.7818609E-02  0.8111881E-01
        1   -1    0    0  501    0  0.00000000000E+00  0.00000000000E+00  0.24951635930E+04  0.24951635930E+04  0.50400001928E-02 0.  1.
       -1   -1    0    0    0  501  0.00000000000E+00  0.00000000000E+00 -0.12330381207E+04  0.12330381207E+04  0.50400001928E-02 0. -1.
    10030    2    1    2    0    0  0.00000000000E+00  0.00000000000E+00  0.12621254723E+04  0.37282017137E+04  0.35080660356E+04 0.  0.
        4    1    3    3  502    0 -0.40778107040E+03  0.86908651769E+03  0.21911850499E+04  0.23922563225E+04  0.12699999809E+01 0.  1.
       -4    1    3    3    0  502  0.40778107040E+03 -0.86908651769E+03 -0.92905957762E+03  0.13359453912E+04  0.12699999809E+01 0. -1.
</event>
<event>
 5   0  0.3190185E-07  0.3495047E+04  0.7818609E-02  0.8114965E-01
        2   -1    0    0  501    0  0.00000000000E+00  0.00000000000E+00  0.30062043297E+04  0.30062043297E+04  0.25500000920E-02 0. -1.
       -2   -1    0    0    0  501  0.00000000000E+00  0.00000000000E+00 -0.10158449609E+04  0.10158449609E+04  0.25500000920E-02 0.  1.
    10030    2    1    2    0    0  0.00000000000E+00  0.00000000000E+00  0.19903593687E+04  0.40220492906E+04  0.34950465061E+04 0.  0.
        1    1    3    3  502    0 -0.11784939720E+04  0.10590499852E+04  0.14686831358E+03  0.15912275811E+04  0.50400001928E-02 0.  1.
       -1    1    3    3    0  502  0.11784939720E+04 -0.10590499852E+04  0.18434910552E+04  0.24308217096E+04  0.50400001928E-02 0. -1.
</event>
<event>
 5   0  0.3190185E-07  0.3494443E+04  0.7818609E-02  0.8115108E-01
        2   -1    0    0  501    0  0.00000000000E+00  0.00000000000E+00  0.15851040310E+04  0.15851040310E+04  0.25500000920E-02 0.  1.
       -2   -1    0    0    0  501  0.00000000000E+00  0.00000000000E+00 -0.19259195226E+04  0.19259195226E+04  0.25500000920E-02 0. -1.
    10030    2    1    2    0    0  0.00000000000E+00  0.00000000000E+00 -0.34081549164E+03  0.35110235536E+04  0.34944429019E+04 0.  0.
        1    1    3    3  502    0  0.87942738370E+03  0.62763797241E+03 -0.15500438592E+04  0.18894332254E+04  0.50400001928E-02 0. -1.
       -1    1    3    3    0  502 -0.87942738370E+03 -0.62763797241E+03  0.12092283676E+04  0.16215903282E+04  0.50400001928E-02 0.  1.
</event>
<event>
 5   0  0.2180451E-07  0.3453400E+04  0.7818609E-02  0.8124923E-01
       -2   -1    0    0    0  501  0.00000000000E+00  0.00000000000E+00  0.22833937629E+04  0.22833937629E+04  0.25500000920E-02 0.  1.
        2   -1    0    0  501    0  0.00000000000E+00  0.00000000000E+00 -0.13057288803E+04  0.13057288803E+04  0.25500000920E-02 0. -1.
    10030    2    1    2    0    0  0.00000000000E+00  0.00000000000E+00  0.97766488261E+03  0.35891226431E+04  0.34534001686E+04 0.  0.
        4    1    3    3  502    0  0.15080988396E+04 -0.48694867095E+03  0.12013493087E+04  0.19886485091E+04  0.12699999809E+01 0.  1.
       -4    1    3    3    0  502 -0.15080988396E+04  0.48694867095E+03 -0.22368442613E+03  0.16004741340E+04  0.12699999809E+01 0. -1.
</event>
<event>
 5   0  0.1072381E-07  0.3495629E+04  0.7818609E-02  0.8114827E-01
       -1   -1    0    0    0  501  0.00000000000E+00  0.00000000000E+00  0.12556039488E+04  0.12556039489E+04  0.50400001928E-02 0.  1.
        1   -1    0    0  501    0  0.00000000000E+00  0.00000000000E+00 -0.24329769076E+04  0.24329769076E+04  0.50400001928E-02 0. -1.
    10030    2    1    2    0    0  0.00000000000E+00  0.00000000000E+00 -0.11773729587E+04  0.36885808564E+04  0.34956289349E+04 0.  0.
        1    1    3    3  502    0 -0.13527712430E+04  0.10063186931E+04 -0.10262135811E+03  0.16891413472E+04  0.50400001928E-02 0. -1.
       -1    1    3    3    0  502  0.13527712430E+04 -0.10063186931E+04 -0.10747516006E+04  0.19994395092E+04  0.50400001928E-02 0.  1.
</event>
<event>
 5   0  0.3219205E-07  0.3505505E+04  0.7818609E-02  0.8112486E-01
        2   -1    0    0  501    0  0.00000000000E+00  0.00000000000E+00  0.13752734631E+04  0.13752734631E+04  0.25500000920E-02 0. -1.
       -2   -1    0    0    0  501  0.00000000000E+00  0.00000000000E+00 -0.22338407114E+04  0.22338407114E+04  0.25500000920E-02 0.  1.
    10030    2    1    2    0    0  0.00000000000E+00  0.00000000000E+00 -0.85856724827E+03  0.36091141745E+04  0.35055052994E+04 0.  0.
        2    1    3    3  502    0 -0.98544257901E+02 -0.13997324117E+03 -0.22252137491E+04  0.22317884551E+04  0.25500000920E-02 0.  1.
       -2    1    3    3    0  502  0.98544257901E+02  0.13997324117E+03  0.13666465008E+04  0.13773257194E+04  0.25500000920E-02 0. -1.
</event>
<event>
 5   0  0.3119048E-07  0.3517630E+04  0.7818609E-02  0.8109624E-01
        2   -1    0    0  501    0  0.00000000000E+00  0.00000000000E+00  0.20190659071E+04  0.20190659071E+04  0.25500000920E-02 0.  1.
       -2   -1    0    0    0  501  0.00000000000E+00  0.00000000000E+00 -0.15321098394E+04  0.15321098394E+04  0.25500000920E-02 0. -1.
    10030    2    1    2    0    0  0.00000000000E+00  0.00000000000E+00  0.48695606771E+03  0.35511757465E+04  0.35176303061E+04 0.  0.
        3    1    3    3  502    0 -0.13708158985E+04 -0.94838594422E+03 -0.32299567164E+03  0.16979099920E+04  0.10100000352E+00 0. -1.
       -3    1    3    3    0  502  0.13708158985E+04  0.94838594422E+03  0.80995173935E+03  0.18532657545E+04  0.10100000352E+00 0.  1.
</event>
<event>
 5   0  0.1072381E-07  0.3508204E+04  0.7818609E-02  0.8111849E-01
       -1   -1    0    0    0  501  0.00000000000E+00  0.00000000000E+00  0.11381849926E+04  0.11381849926E+04  0.50400001928E-02 0.  1.
        1   -1    0    0  501    0  0.00000000000E+00  0.00000000000E+00 -0.27033155036E+04  0.27033155036E+04  0.50400001928E-02 0. -1.
    10030    2    1    2    0    0  0.00000000000E+00  0.00000000000E+00 -0.15651305110E+04  0.38415004962E+04  0.35082036067E+04 0.  0.
        1    1    3    3  502    0  0.37989696028E+03  0.47695551732E+03 -0.25835288967E+04  0.26545112217E+04  0.50400001928E-02 0. -1.
       -1    1    3    3    0  502 -0.37989696028E+03 -0.47695551732E+03  0.10183983857E+04  0.11869892746E+04  0.50400001928E-02 0.  1.
</event>
<event>
 5   0  0.2180451E-07  0.3500059E+04  0.7818609E-02  0.8113776E-01
       -2   -1    0    0    0  501  0.00000000000E+00  0.00000000000E+00  0.16238499982E+04  0.16238499982E+04  0.25500000920E-02 0.  1.
        2   -1    0    0  501    0  0.00000000000E+00  0.00000000000E+00 -0.18860131691E+04  0.18860131691E+04  0.25500000920E-02 0. -1.
    10030    2    1    2    0    0  0.00000000000E+00  0.00000000000E+00 -0.26216317095E+03  0.35098631673E+04  0.35000585602E+04 0.  0.
        4    1    3    3  502    0  0.11428831734E+04  0.13161524530E+04 -0.28695716676E+03  0.17665744411E+04  0.12699999809E+01 0. -1.
       -4    1    3    3    0  502 -0.11428831734E+04 -0.13161524530E+04  0.24793995804E+02  0.17432887261E+04  0.12699999809E+01 0.  1.
</event>
<event>
 5   0  0.1013863E-07  0.3506993E+04  0.7818609E-02  0.8112135E-01
        1   -1    0    0  501    0  0.00000000000E+00  0.00000000000E+00  0.16086192325E+04  0.16086192325E+04  0.50400001928E-02 0. -1.
       -1   -1    0    0    0  501  0.00000000000E+00  0.00000000000E+00 -0.19114216463E+04  0.19114216464E+04  0.50400001928E-02 0.  1.
    10030    2    1    2    0    0  0.00000000000E+00  0.00000000000E+00 -0.30280241388E+03  0.35200408788E+04  0.35069927982E+04 0.  0.
        5    1    3    3  502    0 -0.12027114254E+04  0.50758752436E+03  0.10236669936E+04  0.16589382362E+04  0.46999998093E+01 0. -1.
       -5    1    3    3    0  502  0.12027114254E+04 -0.50758752436E+03 -0.13264694075E+04  0.18611026427E+04  0.46999998093E+01 0.  1.
</event>
<event>
 5   0  0.3119048E-07  0.3503019E+04  0.7818609E-02  0.8113075E-01
        2   -1    0    0  501    0  0.00000000000E+00  0.00000000000E+00  0.21634713480E+04  0.21634713480E+04  0.25500000920E-02 0. -1.
       -2   -1    0    0    0  501  0.00000000000E+00  0.00000000000E+00 -0.14179925072E+04  0.14179925073E+04  0.25500000920E-02 0.  1.
    10030    2    1    2    0    0  0.00000000000E+00  0.00000000000E+00  0.74547884075E+03  0.35814638553E+04  0.35030193611E+04 0.  0.
        3    1    3    3  502    0 -0.13271742025E+04 -0.10199346634E+04 -0.15468881631E+03  0.16809481614E+04  0.10100000352E+00 0.  1.
       -3    1    3    3    0  502  0.13271742025E+04  0.10199346634E+04  0.90016765706E+03  0.19005156938E+04  0.10100000352E+00 0. -1.
</event>
<event>
 5   0  0.2180451E-07  0.3514278E+04  0.7818609E-02  0.8110415E-01
        2   -1    0    0  501    0  0.00000000000E+00  0.00000000000E+00  0.17567332554E+04  0.17567332554E+04  0.25500000920E-02 0. -1.
       -2   -1    0    0    0  501  0.00000000000E+00  0.00000000000E+00 -0.17575449509E+04  0.17575449509E+04  0.25500000920E-02 0.  1.
    10030    2    1    2    0    0  0.00000000000E+00  0.00000000000E+00 -0.81169554671E+00  0.35142782063E+04  0.35142781126E+04 0.  0.
        4    1    3    3  502    0  0.12989621935E+04  0.88078443295E+03 -0.79062865557E+03  0.17573216215E+04  0.12699999809E+01 0.  1.
       -4    1    3    3    0  502 -0.12989621935E+04 -0.88078443295E+03  0.78981696002E+03  0.17569565848E+04  0.12699999809E+01 0. -1.
</event>
<event>
 5   0  0.3119048E-07  0.3482121E+04  0.7818609E-02  0.8118040E-01
        2   -1    0    0  501    0  0.00000000000E+00  0.00000000000E+00  0.24508948906E+04  0.24508948906E+04  0.25500000920E-02 0. -1.
       -2   -1    0    0    0  501  0.00000000000E+00  0.00000000000E+00 -0.12368097968E+04  0.12368097968E+04  0.25500000920E-02 0.  1.
    10030    2    1    2    0    0  0.00000000000E+00  0.00000000000E+00  0.12140850938E+04  0.36877046874E+04  0.34821205100E+04 0.  0.
        3    1    3    3  502    0  0.27961525530E+02 -0.17333643693E+04  0.43641902627E+03  0.17876787911E+04  0.10100000352E+00 0. -1.
       -3    1    3    3    0  502 -0.27961525530E+02  0.17333643693E+04  0.77766606751E+03  0.19000258962E+04  0.10100000352E+00 0.  1.
</event>
<event>
 5   0  0.3119048E-07  0.3349768E+04  0.7818609E-02  0.8150346E-01
       -2   -1    0    0    0  501  0.00000000000E+00  0.00000000000E+00  0.18383001192E+04  0.18383001192E+04  0.25500000920E-02 0. -1.
        2   -1    0    0  501    0  0.00000000000E+00  0.00000000000E+00 -0.15259945578E+04  0.15259945578E+04  0.25500000920E-02 0.  1.
    10030    2    1    2    0    0  0.00000000000E+00  0.00000000000E+00  0.31230556140E+03  0.33642946770E+04  0.33497677397E+04 0.  0.
        3    1    3    3  502    0  0.14861830171E+04 -0.40726666551E+03  0.81522257527E+03  0.17433284127E+04  0.10100000352E+00 0. -1.
       -3    1    3    3    0  502 -0.14861830171E+04  0.40726666551E+03 -0.50291701387E+03  0.16209662643E+04  0.10100000352E+00 0.  1.
</event>
<event>
 5   0  0.2180451E-07  0.3498300E+04  0.7818609E-02  0.8114193E-01
        2   -1    0    0  501    0  0.00000000000E+00  0.00000000000E+00  0.23614330701E+04  0.23614330701E+04  0.25500000920E-02 0.  1.
       -2   -1    0    0    0  501  0.00000000000E+00  0.00000000000E+00 -0.12956227938E+04  0.12956227938E+04  0.25500000920E-02 0. -1.
    10030    2    1    2    0    0  0.00000000000E+00  0.00000000000E+00  0.10658102764E+04  0.36570558639E+04  0.34983004512E+04 0.  0.
        4    1    3    3  502    0 -0.45357611399E+03 -0.16687201627E+04  0.25797472508E+03  0.17484023691E+04  0.12699999809E+01 0.  1.
       -4    1    3    3    0  502  0.45357611399E+03  0.16687201627E+04  0.80783555128E+03  0.19086534948E+04  0.12699999809E+01 0. -1.
</event>
<event>
 5   0  0.3190185E-07  0.3550160E+04  0.7818609E-02  0.8102004E-01
       -2   -1    0    0    0  501  0.00000000000E+00  0.00000000000E+00  0.13054266665E+04  0.13054266665E+04  0.25500000920E-02 0. -1.
        2   -1    0    0  501    0  0.00000000000E+00  0.00000000000E+00 -0.24137011562E+04  0.24137011562E+04  0.25500000920E-02 0.  1.
    10030    2    1    2    0    0  0.00000000000E+00  0.00000000000E+00 -0.11082744897E+04  0.37191278228E+04  0.35501604777E+04 0.  0.
        1    1    3    3  502    0  0.11468295627E+04  0.88972979075E+03 -0.16245677860E+04  0.21785448441E+04  0.50400001928E-02 0. -1.
       -1    1    3    3    0  502 -0.11468295627E+04 -0.88972979075E+03  0.51629329631E+03  0.15405829787E+04  0.50400001928E-02 0.  1.
</event>
<event>
 5   0  0.1013863E-07  0.3483250E+04  0.7818609E-02  0.8117771E-01
       -3   -1    0    0    0  501  0.00000000000E+00  0.00000000000E+00  0.28578399281E+04  0.28578399299E+04  0.10100000352E+00 0. -1.
        3   -1    0    0  501    0  0.00000000000E+00  0.00000000000E+00 -0.10613815202E+04  0.10613815250E+04  0.10100000352E+00 0.  1.
    10030    2    1    2    0    0  0.00000000000E+00  0.00000000000E+00  0.17964584079E+04  0.39192214549E+04  0.34832504936E+04 0.  0.
        4    1    3    3  502    0  0.75265489229E+03 -0.14175877139E+04  0.13742276544E+03  0.16108789349E+04  0.12699999809E+01 0. -1.
       -4    1    3    3    0  502 -0.75265489229E+03  0.14175877139E+04  0.16590356425E+04  0.23083425200E+04  0.12699999809E+01 0.  1.
</event>
<event>
 5   0  0.1033796E-07  0.3491765E+04  0.7818609E-02  0.8115744E-01
       -1   -1    0    0    0  501  0.00000000000E+00  0.00000000000E+00  0.18897379476E+04  0.18897379476E+04  0.50400001928E-02 0.  1.
        1   -1    0    0  501    0  0.00000000000E+00  0.00000000000E+00 -0.16129778641E+04  0.16129778642E+04  0.50400001928E-02 0. -1.
    10030    2    1    2    0    0  0.00000000000E+00  0.00000000000E+00  0.27676008348E+03  0.35027158118E+04  0.34917648710E+04 0.  0.
        3    1    3    3  502    0 -0.38062488523E+03  0.41325267978E+03 -0.15198172940E+04  0.16203387603E+04  0.10100000352E+00 0. -1.
       -3    1    3    3    0  502  0.38062488523E+03 -0.41325267978E+03  0.17965773775E+04  0.18823770515E+04  0.10100000352E+00 0.  1.
</event>
<event>
 5   0  0.3190185E-07  0.3503777E+04  0.7818609E-02  0.8112895E-01
       -2   -1    0    0    0  501  0.00000000000E+00  0.00000000000E+00  0.14454393569E+04  0.14454393569E+04  0.25500000920E-02 0.  1.
        2   -1    0    0  501    0  0.00000000000E+00  0.00000000000E+00 -0.21233080216E+04  0.21233080216E+04  0.25500000920E-02 0. -1.
    10030    2    1    2    0    0  0.00000000000E+00  0.00000000000E+00 -0.67786866474E+03  0.35687473785E+04  0.35037768087E+04 0.  0.
        1    1    3    3  502    0  0.49842810054E+03  0.10552865283E+04  0.99183518394E+03  0.15315995757E+04  0.50400001928E-02 0.  1.
       -1    1    3    3    0  502 -0.49842810054E+03 -0.10552865283E+04 -0.16697038487E+04  0.20371478028E+04  0.50400001928E-02 0. -1.
</event>
<event>
 5   0  0.1072381E-07  0.3497042E+04  0.7818609E-02  0.8114491E-01
       -1   -1    0    0    0  501  0.00000000000E+00  0.00000000000E+00  0.13793195640E+04  0.13793195640E+04  0.50400001928E-02 0.  1.
        1   -1    0    0  501    0  0.00000000000E+00  0.00000000000E+00 -0.22165458495E+04  0.22165458495E+04  0.50400001928E-02 0. -1.
    10030    2    1    2    0    0  0.00000000000E+00  0.00000000000E+00 -0.83722628553E+03  0.35958654136E+04  0.34970416382E+04 0.  0.
        1    1    3    3  502    0 -0.64054725883E+02  0.17059462377E+04 -0.80741138743E+03  0.18884567039E+04  0.50400001928E-02 0.  1.
       -1    1    3    3    0  502  0.64054725883E+02 -0.17059462377E+04 -0.29814898092E+02  0.17074087097E+04  0.50400001928E-02 0. -1.
</event>
<event>
 5   0  0.2180451E-07  0.3494938E+04  0.7818609E-02  0.8114991E-01
        2   -1    0    0  501    0  0.00000000000E+00  0.00000000000E+00  0.21104345026E+04  0.21104345026E+04  0.25500000920E-02 0.  1.
       -2   -1    0    0    0  501  0.00000000000E+00  0.00000000000E+00 -0.14469282934E+04  0.14469282934E+04  0.25500000920E-02 0. -1.
    10030    2    1    2    0    0  0.00000000000E+00  0.00000000000E+00  0.66350620917E+03  0.35573627960E+04  0.34949377066E+04 0.  0.
        4    1    3    3  502    0 -0.43740587690E+01 -0.20816063879E+03  0.20977637027E+04  0.21080711916E+04  0.12699999809E+01 0.  1.
       -4    1    3    3    0  502  0.43740587690E+01  0.20816063879E+03 -0.14342574935E+04  0.14492916044E+04  0.12699999809E+01 0. -1.
</event>
<event>
 5   0  0.2180451E-07  0.3505069E+04  0.7818609E-02  0.8112590E-01
        2   -1    0    0  501    0  0.00000000000E+00  0.00000000000E+00  0.23414948238E+04  0.23414948238E+04  0.25500000920E-02 0. -1.
       -2   -1    0    0    0  501  0.00000000000E+00  0.00000000000E+00 -0.13117163148E+04  0.13117163148E+04  0.25500000920E-02 0.  1.
    10030    2    1    2    0    0  0.00000000000E+00  0.00000000000E+00  0.10297785091E+04  0.36532111386E+04  0.35050688789E+04 0.  0.
        4    1    3    3  502    0  0.32921088127E+03  0.11020907375E+03  0.23052961701E+04  0.23312910348E+04  0.12699999809E+01 0. -1.
       -4    1    3    3    0  502 -0.32921088127E+03 -0.11020907375E+03 -0.12755176610E+04  0.13219201038E+04  0.12699999809E+01 0.  1.
</event>
<event>
 5   0  0.1013863E-07  0.3518984E+04  0.7818609E-02  0.8109306E-01
        1   -1    0    0  501    0  0.00000000000E+00  0.00000000000E+00  0.15936604434E+04  0.15936604434E+04  0.50400001928E-02 0.  1.
       -1   -1    0    0    0  501  0.00000000000E+00  0.00000000000E+00 -0.19425789864E+04  0.19425789864E+04  0.50400001928E-02 0. -1.
    10030    2    1    2    0    0  0.00000000000E+00  0.00000000000E+00 -0.34891854298E+03  0.35362394299E+04  0.35189835401E+04 0.  0.
        5    1    3    3  502    0 -0.37981365442E+03 -0.30226625201E+02 -0.19006185108E+04  0.19384387724E+04  0.46999998093E+01 0. -1.
       -5    1    3    3    0  502  0.37981365442E+03  0.30226625201E+02  0.15516999678E+04  0.15978006575E+04  0.46999998093E+01 0.  1.
</event>
<event>
 5   0  0.2180451E-07  0.3494637E+04  0.7818609E-02  0.8115062E-01
        2   -1    0    0  501    0  0.00000000000E+00  0.00000000000E+00  0.20412545639E+04  0.20412545639E+04  0.25500000920E-02 0.  1.
       -2   -1    0    0    0  501  0.00000000000E+00  0.00000000000E+00 -0.14957085336E+04  0.14957085336E+04  0.25500000920E-02 0. -1.
    10030    2    1    2    0    0  0.00000000000E+00  0.00000000000E+00  0.54554603032E+03  0.35369630976E+04  0.34946369600E+04 0.  0.
        4    1    3    3  502    0 -0.82348985033E+03  0.12553179029E+04 -0.63201281458E+03  0.16289261437E+04  0.12699999809E+01 0. -1.
       -4    1    3    3    0  502  0.82348985033E+03 -0.12553179029E+04  0.11775588449E+04  0.19080369538E+04  0.12699999809E+01 0.  1.
</event>
<event>
 5   0  0.3190185E-07  0.3523511E+04  0.7818609E-02  0.8108241E-01
       -2   -1    0    0    0  501  0.00000000000E+00  0.00000000000E+00  0.15832254768E+04  0.15832254768E+04  0.25500000920E-02 0.  1.
        2   -1    0    0  501    0  0.00000000000E+00  0.00000000000E+00 -0.19604172974E+04  0.19604172974E+04  0.25500000920E-02 0. -1.
    10030    2    1    2    0    0  0.00000000000E+00  0.00000000000E+00 -0.37719182061E+03  0.35436427742E+04  0.35235110957E+04 0.  0.
        1    1    3    3  502    0  0.62647292374E+02  0.78820143300E+03 -0.17719469135E+04  0.19403561649E+04  0.50400001928E-02 0. -1.
       -1    1    3    3    0  502 -0.62647292374E+02 -0.78820143300E+03  0.13947550929E+04  0.16032866093E+04  0.50400001928E-02 0.  1.
</event>
<event>
 5   0  0.1098171E-07  0.3500354E+04  0.7818609E-02  0.8113706E-01
       -1   -1    0    0    0  501  0.00000000000E+00  0.00000000000E+00  0.28009610578E+04  0.28009610578E+04  0.50400001928E-02 0.  1.
        1   -1    0    0  501    0  0.00000000000E+00  0.00000000000E+00 -0.10935960204E+04  0.10935960205E+04  0.50400001928E-02 0. -1.
    10030    2    1    2    0    0  0.00000000000E+00  0.00000000000E+00  0.17073650374E+04  0.38945570783E+04  0.35003541914E+04 0.  0.
        4    1    3    3  502    0 -0.33780160518E+03 -0.16318035179E+04  0.14489337806E+04  0.22082353495E+04  0.12699999809E+01 0. -1.
       -4    1    3    3    0  502  0.33780160518E+03  0.16318035179E+04  0.25843125682E+03  0.16863217288E+04  0.12699999809E+01 0.  1.
</event>
<event>
 5   0  0.1013863E-07  0.3502329E+04  0.7818609E-02  0.8113238E-01
       -1   -1    0    0    0  501  0.00000000000E+00  0.00000000000E+00  0.23418274088E+04  0.23418274088E+04  0.50400001928E-02 0. -1.
        1   -1    0    0  501    0  0.00000000000E+00  0.00000000000E+00 -0.13094806703E+04  0.13094806703E+04  0.50400001928E-02 0.  1.
    10030    2    1    2    0    0  0.00000000000E+00  0.00000000000E+00  0.10323467385E+04  0.36513080791E+04  0.35023293534E+04 0.  0.
        5    1    3    3  502    0  0.65431061692E+03 -0.30339350892E+03 -0.11474445188E+04  0.13552937019E+04  0.46999998093E+01 0.  1.
       -5    1    3    3    0  502 -0.65431061692E+03  0.30339350892E+03  0.21797912574E+04  0.22960143772E+04  0.46999998093E+01 0. -1.
</event>
<event>
 5   0  0.1033796E-07  0.3496488E+04  0.7818609E-02  0.8114623E-01
        1   -1    0    0  501    0  0.00000000000E+00  0.00000000000E+00  0.25083918086E+04  0.25083918086E+04  0.50400001928E-02 0.  1.
       -1   -1    0    0    0  501  0.00000000000E+00  0.00000000000E+00 -0.12184527612E+04  0.12184527613E+04  0.50400001928E-02 0. -1.
    10030    2    1    2    0    0  0.00000000000E+00  0.00000000000E+00  0.12899390473E+04  0.37268445698E+04  0.34964879096E+04 0.  0.
        3    1    3    3  502    0 -0.10066579927E+04 -0.35188905630E+03 -0.83164131294E+03  0.13523363139E+04  0.10100000352E+00 0. -1.
       -3    1    3    3    0  502  0.10066579927E+04  0.35188905630E+03  0.21215803603E+04  0.23745082559E+04  0.10100000352E+00 0.  1.
</event>
<event>
 5   0  0.2180451E-07  0.3494058E+04  0.7818609E-02  0.8115200E-01
        2   -1    0    0  501    0  0.00000000000E+00  0.00000000000E+00  0.19642960249E+04  0.19642960249E+04  0.25500000920E-02 0. -1.
       -2   -1    0    0    0  501  0.00000000000E+00  0.00000000000E+00 -0.15537931145E+04  0.15537931145E+04  0.25500000920E-02 0.  1.
    10030    2    1    2    0    0  0.00000000000E+00  0.00000000000E+00  0.41050291042E+03  0.35180891395E+04  0.34940576060E+04 0.  0.
        4    1    3    3  502    0 -0.13475436200E+04 -0.48030936899E+03  0.12149130425E+04  0.18768554050E+04  0.12699999809E+01 0. -1.
       -4    1    3    3    0  502  0.13475436200E+04  0.48030936899E+03 -0.80441013207E+03  0.16412337345E+04  0.12699999809E+01 0.  1.
</event>
<event>
 5   0  0.3190185E-07  0.3445285E+04  0.7818609E-02  0.8126880E-01
       -2   -1    0    0    0  501  0.00000000000E+00  0.00000000000E+00  0.21331444682E+04  0.21331444682E+04  0.25500000920E-02 0. -1.
        2   -1    0    0  501    0  0.00000000000E+00  0.00000000000E+00 -0.13911374496E+04  0.13911374496E+04  0.25500000920E-02 0.  1.
    10030    2    1    2    0    0  0.00000000000E+00  0.00000000000E+00  0.74200701859E+03  0.35242819178E+04  0.34452849839E+04 0.  0.
        1    1    3    3  502    0  0.62976434390E+03 -0.12711876436E+04 -0.62863210199E+03  0.15516763431E+04  0.50400001928E-02 0.  1.
       -1    1    3    3    0  502 -0.62976434390E+03  0.12711876436E+04  0.13706391206E+04  0.19726055746E+04  0.50400001928E-02 0. -1.
</event>
<event>
 5   0  0.3219205E-07  0.3504522E+04  0.7818609E-02  0.8112719E-01
        2   -1    0    0  501    0  0.00000000000E+00  0.00000000000E+00  0.17792579872E+04  0.17792579872E+04  0.25500000920E-02 0. -1.
       -2   -1    0    0    0  501  0.00000000000E+00  0.00000000000E+00 -0.17256736343E+04  0.17256736343E+04  0.25500000920E-02 0.  1.
    10030    2    1    2    0    0  0.00000000000E+00  0.00000000000E+00  0.53584352924E+02  0.35049316215E+04  0.35045219915E+04 0.  0.
        2    1    3    3  502    0  0.10796171747E+03 -0.87379901090E+03  0.15419736005E+04  0.17756303187E+04  0.25500000920E-02 0. -1.
       -2    1    3    3    0  502 -0.10796171747E+03  0.87379901090E+03 -0.14883892476E+04  0.17293013029E+04  0.25500000920E-02 0.  1.
</event>
<event>
 5   0  0.3119048E-07  0.3497933E+04  0.7818609E-02  0.8114280E-01
        2   -1    0    0  501    0  0.00000000000E+00  0.00000000000E+00  0.10017081530E+04  0.10017081530E+04  0.25500000920E-02 0.  1.
       -2   -1    0    0    0  501  0.00000000000E+00  0.00000000000E+00 -0.30536683118E+04  0.30536683118E+04  0.25500000920E-02 0. -1.
    10030    2    1    2    0    0  0.00000000000E+00  0.00000000000E+00 -0.20519601588E+04  0.40553764648E+04  0.34979333581E+04 0.  0.
        3    1    3    3  502    0 -0.32099702318E+03  0.10558378644E+04  0.54710656302E+03  0.12317297944E+04  0.10100000352E+00 0.  1.
       -3    1    3    3    0  502  0.32099702318E+03 -0.10558378644E+04 -0.25990667218E+04  0.28236466704E+04  0.10100000352E+00 0. -1.
</event>
<event>
 5   0  0.3219205E-07  0.3495827E+04  0.7818609E-02  0.8114780E-01
        2   -1    0    0  501    0  0.00000000000E+00  0.00000000000E+00  0.17220342455E+04  0.17220342455E+04  0.25500000920E-02 0.  1.
       -2   -1    0    0    0  501  0.00000000000E+00  0.00000000000E+00 -0.17741814291E+04  0.17741814291E+04  0.25500000920E-02 0. -1.
    10030    2    1    2    0    0  0.00000000000E+00  0.00000000000E+00 -0.52147183661E+02  0.34962156746E+04  0.34958267570E+04 0.  0.
        2    1    3    3  502    0  0.44188899266E+03 -0.11863405754E+04 -0.12314177534E+04  0.17660859340E+04  0.25500000920E-02 0. -1.
       -2    1    3    3    0  502 -0.44188899266E+03  0.11863405754E+04  0.11792705698E+04  0.17301297406E+04  0.25500000920E-02 0.  1.
</event>
<event>
 5   0  0.1033796E-07  0.3514670E+04  0.7818609E-02  0.8110322E-01
        1   -1    0    0  501    0  0.00000000000E+00  0.00000000000E+00  0.30259832423E+04  0.30259832423E+04  0.50400001928E-02 0. -1.
       -1   -1    0    0    0  501  0.00000000000E+00  0.00000000000E+00 -0.10205695010E+04  0.10205695010E+04  0.50400001928E-02 0.  1.
    10030    2    1    2    0    0  0.00000000000E+00  0.00000000000E+00  0.20054137413E+04  0.40465527432E+04  0.35146699461E+04 0.  0.
        3    1    3    3  502    0  0.16316601595E+04 -0.37588722742E+03  0.16169403032E+04  0.23276816875E+04  0.10100000352E+00 0. -1.
       -3    1    3    3    0  502 -0.16316601595E+04  0.37588722742E+03  0.38847343807E+03  0.17188710557E+04  0.10100000352E+00 0.  1.
</event>
<event>
 5   0  0.2180451E-07  0.3507283E+04  0.7818609E-02  0.8112066E-01
       -2   -1    0    0    0  501  0.00000000000E+00  0.00000000000E+00  0.11815852633E+04  0.11815852633E+04  0.25500000920E-02 0. -1.
        2   -1    0    0  501    0  0.00000000000E+00  0.00000000000E+00 -0.26026546592E+04  0.26026546592E+04  0.25500000920E-02 0.  1.
    10030    2    1    2    0    0  0.00000000000E+00  0.00000000000E+00 -0.14210693959E+04  0.37842399225E+04  0.35072829317E+04 0.  0.
        4    1    3    3  502    0 -0.51247869843E+03  0.14685333605E+04  0.16338276273E+03  0.15639437929E+04  0.12699999809E+01 0. -1.
       -4    1    3    3    0  502  0.51247869843E+03 -0.14685333605E+04 -0.15844521586E+04  0.22202961296E+04  0.12699999809E+01 0.  1.
</event>
<event>
 5   0  0.1013863E-07  0.3526897E+04  0.7818609E-02  0.8107445E-01
       -1   -1    0    0    0  501  0.00000000000E+00  0.00000000000E+00  0.10917473060E+04  0.10917473060E+04  0.50400001928E-02 0.  1.
        1   -1    0    0  501    0  0.00000000000E+00  0.00000000000E+00 -0.28484158207E+04  0.28484158207E+04  0.50400001928E-02 0. -1.
    10030    2    1    2    0    0  0.00000000000E+00  0.00000000000E+00 -0.17566685147E+04  0.39401631267E+04  0.35268968222E+04 0.  0.
        2    1    3    3  502    0  0.92400089354E+03  0.22081346493E+03  0.78141955450E+03  0.12301027427E+04  0.25500000920E-02 0.  1.
       -2    1    3    3    0  502 -0.92400089354E+03 -0.22081346493E+03 -0.25380880692E+04  0.27100603839E+04  0.25500000920E-02 0. -1.
</event>
<event>
 5   0  0.1013863E-07  0.3496358E+04  0.7818609E-02  0.8114654E-01
       -1   -1    0    0    0  501  0.00000000000E+00  0.00000000000E+00  0.14719176406E+04  0.14719176406E+04  0.50400001928E-02 0.  1.
        1   -1    0    0  501    0  0.00000000000E+00  0.00000000000E+00 -0.20762907805E+04  0.20762907805E+04  0.50400001928E-02 0. -1.
    10030    2    1    2    0    0  0.00000000000E+00  0.00000000000E+00 -0.60437313991E+03  0.35482084211E+04  0.34963575486E+04 0.  0.
        2    1    3    3  502    0 -0.26826715263E+03  0.12597279796E+04  0.89739533066E+03  0.15697771266E+04  0.25500000920E-02 0.  1.
       -2    1    3    3    0  502  0.26826715263E+03 -0.12597279796E+04 -0.15017684706E+04  0.19784312945E+04  0.25500000920E-02 0. -1.
</event>
<event>
 5   0  0.3119048E-07  0.3492551E+04  0.7818609E-02  0.8115557E-01
        2   -1    0    0  501    0  0.00000000000E+00  0.00000000000E+00  0.20358156346E+04  0.20358156346E+04  0.25500000920E-02 0. -1.
       -2   -1    0    0    0  501  0.00000000000E+00  0.00000000000E+00 -0.14979149250E+04  0.14979149250E+04  0.25500000920E-02 0.  1.
    10030    2    1    2    0    0  0.00000000000E+00  0.00000000000E+00  0.53790070958E+03  0.35337305596E+04  0.34925512873E+04 0.  0.
        3    1    3    3  502    0  0.13867719915E+04 -0.62201848862E+03  0.11389932367E+04  0.18993022825E+04  0.10100000352E+00 0. -1.
       -3    1    3    3    0  502 -0.13867719915E+04  0.62201848862E+03 -0.60109252713E+03  0.16344282771E+04  0.10100000352E+00 0.  1.
</event>
<event>
 5   0  0.3119048E-07  0.3487957E+04  0.7818609E-02  0.8116650E-01
       -2   -1    0    0    0  501  0.00000000000E+00  0.00000000000E+00  0.95952671678E+03  0.95952671678E+03  0.25500000920E-02 0.  1.
        2   -1    0    0  501    0  0.00000000000E+00  0.00000000000E+00 -0.31697521554E+04  0.31697521554E+04  0.25500000920E-02 0. -1.
    10030    2    1    2    0    0  0.00000000000E+00  0.00000000000E+00 -0.22102254386E+04  0.41292788722E+04  0.34879574990E+04 0.  0.
        3    1    3    3  502    0 -0.15337691579E+04  0.90519116040E+02 -0.20819433897E+04  0.25874948943E+04  0.10100000352E+00 0. -1.
       -3    1    3    3    0  502  0.15337691579E+04 -0.90519116040E+02 -0.12828204898E+03  0.15417839779E+04  0.10100000352E+00 0.  1.
</event>
<event>
 5   0  0.1013863E-07  0.3472447E+04  0.7818609E-02  0.8120351E-01
        3   -1    0    0  501    0  0.00000000000E+00  0.00000000000E+00  0.16653864590E+04  0.16653864621E+04  0.10100000352E+00 0.  1.
       -3   -1    0    0    0  501  0.00000000000E+00  0.00000000000E+00 -0.18100731868E+04  0.18100731897E+04  0.10100000352E+00 0. -1.
    10030    2    1    2    0    0  0.00000000000E+00  0.00000000000E+00 -0.14468672780E+03  0.34754596518E+04  0.34724466219E+04 0.  0.
        3    1    3    3  502    0 -0.13965324565E+04 -0.17217951705E+03  0.94565406712E+03  0.16953496138E+04  0.10100000352E+00 0.  1.
       -3    1    3    3    0  502  0.13965324565E+04  0.17217951705E+03 -0.10903407949E+04  0.17801100380E+04  0.10100000352E+00 0. -1.
</event>
<event>
 5   0  0.1013863E-07  0.3541099E+04  0.7818609E-02  0.8104118E-01
       -1   -1    0    0    0  501  0.00000000000E+00  0.00000000000E+00  0.15630516996E+04  0.15630516996E+04  0.50400001928E-02 0.  1.
        1   -1    0    0  501    0  0.00000000000E+00  0.00000000000E+00 -0.20055933709E+04  0.20055933709E+04  0.50400001928E-02 0. -1.
    10030    2    1    2    0    0  0.00000000000E+00  0.00000000000E+00 -0.44254167123E+03  0.35686450705E+04  0.35410993362E+04 0.  0.
        5    1    3    3  502    0  0.10792527520E+04 -0.11980693788E+04  0.51562662044E+03  0.16929411215E+04  0.46999998093E+01 0.  1.
       -5    1    3    3    0  502 -0.10792527520E+04  0.11980693788E+04 -0.95816829167E+03  0.18757039490E+04  0.46999998093E+01 0. -1.
</event>
<event>
 5   0  0.3119048E-07  0.3491107E+04  0.7818609E-02  0.8115901E-01
        2   -1    0    0  501    0  0.00000000000E+00  0.00000000000E+00  0.12728289048E+04  0.12728289048E+04  0.25500000920E-02 0.  1.
       -2   -1    0    0    0  501  0.00000000000E+00  0.00000000000E+00 -0.23938461155E+04  0.23938461155E+04  0.25500000920E-02 0. -1.
    10030    2    1    2    0    0  0.00000000000E+00  0.00000000000E+00 -0.11210172106E+04  0.36666750203E+04  0.34911067182E+04 0.  0.
        3    1    3    3  502    0  0.49798576285E+03 -0.16670661775E+04 -0.41250688639E+03  0.17880887567E+04  0.10100000352E+00 0.  1.
       -3    1    3    3    0  502 -0.49798576285E+03  0.16670661775E+04 -0.70851032422E+03  0.18785862636E+04  0.10100000352E+00 0. -1.
</event>
<event>
 5   0  0.3190185E-07  0.3499758E+04  0.7818609E-02  0.8113847E-01
       -2   -1    0    0    0  501  0.00000000000E+00  0.00000000000E+00  0.13511438387E+04  0.13511438387E+04  0.25500000920E-02 0.  1.
        2   -1    0    0  501    0  0.00000000000E+00  0.00000000000E+00 -0.22662840920E+04  0.22662840920E+04  0.25500000920E-02 0. -1.
    10030    2    1    2    0    0  0.00000000000E+00  0.00000000000E+00 -0.91514025329E+03  0.36174279307E+04  0.34997575846E+04 0.  0.
        1    1    3    3  502    0 -0.14890988338E+04 -0.32687730448E+03  0.43026983098E+03  0.15841073943E+04  0.50400001928E-02 0.  1.
       -1    1    3    3    0  502  0.14890988338E+04  0.32687730448E+03 -0.13454100843E+04  0.20333205364E+04  0.50400001928E-02 0. -1.
</event>
<event>
 5   0  0.1098171E-07  0.3494708E+04  0.7818609E-02  0.8115045E-01
        1   -1    0    0  501    0  0.00000000000E+00  0.00000000000E+00  0.27048271756E+04  0.27048271756E+04  0.50400001928E-02 0.  1.
       -1   -1    0    0    0  501  0.00000000000E+00  0.00000000000E+00 -0.11288134225E+04  0.11288134225E+04  0.50400001928E-02 0. -1.
    10030    2    1    2    0    0  0.00000000000E+00  0.00000000000E+00  0.15760137531E+04  0.38336405982E+04  0.34947075537E+04 0.  0.
        4    1    3    3  502    0  0.10267309857E+04 -0.43230526209E+03  0.22647369990E+04  0.25239056330E+04  0.12699999809E+01 0.  1.
       -4    1    3    3    0  502 -0.10267309857E+04  0.43230526209E+03 -0.68872324594E+03  0.13097349652E+04  0.12699999809E+01 0. -1.
</event>
<event>
 5   0  0.1013863E-07  0.3502501E+04  0.7818609E-02  0.8113197E-01
        1   -1    0    0  501    0  0.00000000000E+00  0.00000000000E+00  0.23357611931E+04  0.23357611931E+04  0.50400001928E-02 0. -1.
       -1   -1    0    0    0  501  0.00000000000E+00  0.00000000000E+00 -0.13130104171E+04  0.13130104171E+04  0.50400001928E-02 0.  1.
    10030    2    1    2    0    0  0.00000000000E+00  0.00000000000E+00  0.10227507760E+04  0.36487716102E+04  0.35025012653E+04 0.  0.
        5    1    3    3  502    0 -0.29405111336E+03  0.83346991225E+03 -0.10636216974E+04  0.13829140816E+04  0.46999998093E+01 0.  1.
       -5    1    3    3    0  502  0.29405111336E+03 -0.83346991225E+03  0.20863724734E+04  0.22658575285E+04  0.46999998093E+01 0. -1.
</event>
<event>
 5   0  0.3190112E-07  0.3511121E+04  0.7818609E-02  0.8111159E-01
       -2   -1    0    0    0  501  0.00000000000E+00  0.00000000000E+00  0.11278509812E+04  0.11278509812E+04  0.25500000920E-02 0. -1.
        2   -1    0    0  501    0  0.00000000000E+00  0.00000000000E+00 -0.27326244109E+04  0.27326244109E+04  0.25500000920E-02 0.  1.
    10030    2    1    2    0    0  0.00000000000E+00  0.00000000000E+00 -0.16047734298E+04  0.38604753921E+04  0.35111212585E+04 0.  0.
        5    1    3    3  502    0 -0.13315168141E+04  0.95059780761E+03 -0.10232607293E+03  0.16392272366E+04  0.46999998093E+01 0. -1.
       -5    1    3    3    0  502  0.13315168141E+04 -0.95059780761E+03 -0.15024473568E+04  0.22212481555E+04  0.46999998093E+01 0.  1.
</event>
<event>
 5   0  0.3219205E-07  0.3503445E+04  0.7818609E-02  0.8112974E-01
       -2   -1    0    0    0  501  0.00000000000E+00  0.00000000000E+00  0.14869234450E+04  0.14869234450E+04  0.25500000920E-02 0.  1.
        2   -1    0    0  501    0  0.00000000000E+00  0.00000000000E+00 -0.20636783844E+04  0.20636783844E+04  0.25500000920E-02 0. -1.
    10030    2    1    2    0    0  0.00000000000E+00  0.00000000000E+00 -0.57675493944E+03  0.35506018295E+04  0.35034450319E+04 0.  0.
        2    1    3    3  502    0  0.11802547060E+04 -0.10379130534E+04  0.49551090396E+03  0.16479671518E+04  0.25500000920E-02 0. -1.
       -2    1    3    3    0  502 -0.11802547060E+04  0.10379130534E+04 -0.10722658434E+04  0.19026346776E+04  0.25500000920E-02 0.  1.
</event>
<event>
 5   0  0.3190185E-07  0.3262709E+04  0.7818609E-02  0.8172449E-01
        2   -1    0    0  501    0  0.00000000000E+00  0.00000000000E+00  0.21126818225E+04  0.21126818225E+04  0.25500000920E-02 0. -1.
       -2   -1    0    0    0  501  0.00000000000E+00  0.00000000000E+00 -0.12596871636E+04  0.12596871636E+04  0.25500000920E-02 0.  1.
    10030    2    1    2    0    0  0.00000000000E+00  0.00000000000E+00  0.85299465893E+03  0.33723689861E+04  0.32627094094E+04 0.  0.
        1    1    3    3  502    0 -0.40063595216E+03 -0.27922740460E+03 -0.11823660039E+04  0.12792444945E+04  0.50400001928E-02 0.  1.
       -1    1    3    3    0  502  0.40063595216E+03  0.27922740460E+03  0.20353606628E+04  0.20931244916E+04  0.50400001928E-02 0. -1.
</event>
<event>
 5   0  0.1072381E-07  0.3367518E+04  0.7818609E-02  0.8145925E-01
       -1   -1    0    0    0  501  0.00000000000E+00  0.00000000000E+00  0.17663651410E+04  0.17663651410E+04  0.50400001928E-02 0. -1.
        1   -1    0    0  501    0  0.00000000000E+00  0.00000000000E+00 -0.16050159506E+04  0.16050159506E+04  0.50400001928E-02 0.  1.
    10030    2    1    2    0    0  0.00000000000E+00  0.00000000000E+00  0.16134919036E+03  0.33713810916E+04  0.33675179143E+04 0.  0.
        1    1    3    3  502    0 -0.13660694160E+03 -0.98960075569E+03  0.14376161816E+04  0.17506317139E+04  0.50400001928E-02 0. -1.
       -1    1    3    3    0  502  0.13660694160E+03  0.98960075569E+03 -0.12762669912E+04  0.16207493776E+04  0.50400001928E-02 0.  1.
</event>
<event>
 5   0  0.3119048E-07  0.3483536E+04  0.7818609E-02  0.8117703E-01
       -2   -1    0    0    0  501  0.00000000000E+00  0.00000000000E+00  0.16844350522E+04  0.16844350522E+04  0.25500000920E-02 0. -1.
        2   -1    0    0  501    0  0.00000000000E+00  0.00000000000E+00 -0.18010520720E+04  0.18010520720E+04  0.25500000920E-02 0.  1.
    10030    2    1    2    0    0  0.00000000000E+00  0.00000000000E+00 -0.11661701987E+03  0.34854871242E+04  0.34835356986E+04 0.  0.
        3    1    3    3  502    0 -0.12229472075E+04  0.12395397593E+04 -0.17096317152E+02  0.17413646894E+04  0.10100000352E+00 0.  1.
       -3    1    3    3    0  502  0.12229472075E+04 -0.12395397593E+04 -0.99520702719E+02  0.17441224348E+04  0.10100000352E+00 0. -1.
</event>
<event>
 5   0  0.3190112E-07  0.3501757E+04  0.7818609E-02  0.8113374E-01
        2   -1    0    0  501    0  0.00000000000E+00  0.00000000000E+00  0.23858031843E+04  0.23858031843E+04  0.25500000920E-02 0. -1.
       -2   -1    0    0    0  501  0.00000000000E+00  0.00000000000E+00 -0.12849238720E+04  0.12849238720E+04  0.25500000920E-02 0.  1.
    10030    2    1    2    0    0  0.00000000000E+00  0.00000000000E+00  0.11008793123E+04  0.36707270563E+04  0.35017569678E+04 0.  0.
        5    1    3    3  502    0 -0.49650384688E+03  0.13324999819E+04 -0.52036040148E+03  0.15142223447E+04  0.46999998093E+01 0.  1.
       -5    1    3    3    0  502  0.49650384688E+03 -0.13324999819E+04  0.16212397138E+04  0.21565047116E+04  0.46999998093E+01 0. -1.
</event>
<event>
 5   0  0.1098171E-07  0.3522744E+04  0.7818609E-02  0.8108421E-01
        1   -1    0    0  501    0  0.00000000000E+00  0.00000000000E+00  0.19175587886E+04  0.19175587886E+04  0.50400001928E-02 0.  1.
       -1   -1    0    0    0  501  0.00000000000E+00  0.00000000000E+00 -0.16179069678E+04  0.16179069678E+04  0.50400001928E-02 0. -1.
    10030    2    1    2    0    0  0.00000000000E+00  0.00000000000E+00  0.29965182086E+03  0.35354657564E+04  0.35227442287E+04 0.  0.
        4    1    3    3  502    0 -0.22620440552E+03 -0.16529381248E+04 -0.41706542814E+03  0.17196854543E+04  0.12699999809E+01 0. -1.
       -4    1    3    3    0  502  0.22620440552E+03  0.16529381248E+04  0.71671724899E+03  0.18157803021E+04  0.12699999809E+01 0.  1.
</event>
<event>
 5   0  0.3190112E-07  0.3508927E+04  0.7818609E-02  0.8111678E-01
       -2   -1    0    0    0  501  0.00000000000E+00  0.00000000000E+00  0.20296587003E+04  0.20296587003E+04  0.25500000920E-02 0. -1.
        2   -1    0    0  501    0  0.00000000000E+00  0.00000000000E+00 -0.15165811216E+04  0.15165811216E+04  0.25500000920E-02 0.  1.
    10030    2    1    2    0    0  0.00000000000E+00  0.00000000000E+00  0.51307757875E+03  0.35462398219E+04  0.35089269403E+04 0.  0.
        5    1    3    3  502    0 -0.50355542745E+03 -0.93574240226E+03 -0.11543500421E+04  0.15689894906E+04  0.46999998093E+01 0.  1.
       -5    1    3    3    0  502  0.50355542745E+03  0.93574240226E+03  0.16674276209E+04  0.19772503313E+04  0.46999998093E+01 0. -1.
</event>
<event>
 5   0  0.2180451E-07  0.3514021E+04  0.7818609E-02  0.8110475E-01
       -2   -1    0    0    0  501  0.00000000000E+00  0.00000000000E+00  0.17442523086E+04  0.17442523086E+04  0.25500000920E-02 0.  1.
        2   -1    0    0  501    0  0.00000000000E+00  0.00000000000E+00 -0.17698619124E+04  0.17698619124E+04  0.25500000920E-02 0. -1.
    10030    2    1    2    0    0  0.00000000000E+00  0.00000000000E+00 -0.25609603809E+02  0.35141142210E+04  0.35140209029E+04 0.  0.
        4    1    3    3  502    0  0.13759486918E+04 -0.39411927772E+03 -0.10319095387E+04  0.17644839802E+04  0.12699999809E+01 0. -1.
       -4    1    3    3    0  502 -0.13759486918E+04  0.39411927772E+03  0.10062999349E+04  0.17496302408E+04  0.12699999809E+01 0.  1.
</event>
<event>
 5   0  0.2180451E-07  0.3383356E+04  0.7818609E-02  0.8142003E-01
        2   -1    0    0  501    0  0.00000000000E+00  0.00000000000E+00  0.15811016928E+04  0.15811016928E+04  0.25500000920E-02 0.  1.
       -2   -1    0    0    0  501  0.00000000000E+00  0.00000000000E+00 -0.18099879566E+04  0.18099879566E+04  0.25500000920E-02 0. -1.
    10030    2    1    2    0    0  0.00000000000E+00  0.00000000000E+00 -0.22888626377E+03  0.33910896494E+04  0.33833563348E+04 0.  0.
        4    1    3    3  502    0 -0.13726164892E+04 -0.98779545651E+03 -0.70098147520E+02  0.16925516989E+04  0.12699999809E+01 0.  1.
       -4    1    3    3    0  502  0.13726164892E+04  0.98779545651E+03 -0.15878811625E+03  0.16985379504E+04  0.12699999809E+01 0. -1.
</event>
<event>
 5   0  0.3219205E-07  0.3524419E+04  0.7818609E-02  0.8108027E-01
        2   -1    0    0  501    0  0.00000000000E+00  0.00000000000E+00  0.12843233364E+04  0.12843233364E+04  0.25500000920E-02 0. -1.
       -2   -1    0    0    0  501  0.00000000000E+00  0.00000000000E+00 -0.24179125068E+04  0.24179125068E+04  0.25500000920E-02 0.  1.
    10030    2    1    2    0    0  0.00000000000E+00  0.00000000000E+00 -0.11335891705E+04  0.37022358432E+04  0.35244185096E+04 0.  0.
        2    1    3    3  502    0  0.52162606918E+03 -0.59506344877E+03  0.10871892761E+04  0.13446838983E+04  0.25500000920E-02 0. -1.
       -2    1    3    3    0  502 -0.52162606918E+03  0.59506344877E+03 -0.22207784466E+04  0.23575519449E+04  0.25500000920E-02 0.  1.
</event>
<event>
 5   0  0.3190185E-07  0.3490617E+04  0.7818609E-02  0.8116017E-01
       -2   -1    0    0    0  501  0.00000000000E+00  0.00000000000E+00  0.15365864322E+04  0.15365864322E+04  0.25500000920E-02 0.  1.
        2   -1    0    0  501    0  0.00000000000E+00  0.00000000000E+00 -0.19823818231E+04  0.19823818231E+04  0.25500000920E-02 0. -1.
    10030    2    1    2    0    0  0.00000000000E+00  0.00000000000E+00 -0.44579539089E+03  0.35189682553E+04  0.34906165718E+04 0.  0.
        1    1    3    3  502    0 -0.41007548499E+03  0.41048441356E+03 -0.18823054094E+04  0.19697037877E+04  0.50400001928E-02 0. -1.
       -1    1    3    3    0  502  0.41007548499E+03 -0.41048441356E+03  0.14365100185E+04  0.15492644675E+04  0.50400001928E-02 0.  1.
</event>
<event>
 5   0  0.2180451E-07  0.3441843E+04  0.7818609E-02  0.8127712E-01
       -2   -1    0    0    0  501  0.00000000000E+00  0.00000000000E+00  0.19470226116E+04  0.19470226116E+04  0.25500000920E-02 0. -1.
        2   -1    0    0  501    0  0.00000000000E+00  0.00000000000E+00 -0.15210770099E+04  0.15210770099E+04  0.25500000920E-02 0.  1.
    10030    2    1    2    0    0  0.00000000000E+00  0.00000000000E+00  0.42594560174E+03  0.34680996215E+04  0.34418433040E+04 0.  0.
        4    1    3    3  502    0  0.10803643007E+04 -0.13324361707E+04  0.74093405519E+02  0.17169928995E+04  0.12699999809E+01 0. -1.
       -4    1    3    3    0  502 -0.10803643007E+04  0.13324361707E+04  0.35185219622E+03  0.17511067221E+04  0.12699999809E+01 0.  1.
</event>
<event>
 5   0  0.3119048E-07  0.3509360E+04  0.7818609E-02  0.8111575E-01
       -2   -1    0    0    0  501  0.00000000000E+00  0.00000000000E+00  0.18541959986E+04  0.18541959986E+04  0.25500000920E-02 0.  1.
        2   -1    0    0  501    0  0.00000000000E+00  0.00000000000E+00 -0.16605054901E+04  0.16605054901E+04  0.25500000920E-02 0. -1.
    10030    2    1    2    0    0  0.00000000000E+00  0.00000000000E+00  0.19369050853E+03  0.35147014888E+04  0.35093604178E+04 0.  0.
        3    1    3    3  502    0  0.70194521147E+03 -0.93024372873E+03  0.14106428593E+04  0.18297523771E+04  0.10100000352E+00 0.  1.
       -3    1    3    3    0  502 -0.70194521147E+03  0.93024372873E+03 -0.12169523508E+04  0.16849491117E+04  0.10100000352E+00 0. -1.
</event>
<event>
 5   0  0.1072381E-07  0.3481008E+04  0.7818609E-02  0.8118306E-01
       -1   -1    0    0    0  501  0.00000000000E+00  0.00000000000E+00  0.14589078669E+04  0.14589078669E+04  0.50400001928E-02 0. -1.
        1   -1    0    0  501    0  0.00000000000E+00  0.00000000000E+00 -0.20764533526E+04  0.20764533526E+04  0.50400001928E-02 0.  1.
    10030    2    1    2    0    0  0.00000000000E+00  0.00000000000E+00 -0.61754548573E+03  0.35353612195E+04  0.34810079755E+04 0.  0.
        1    1    3    3  502    0  0.40254959766E+03 -0.11452626955E+04  0.95797194746E+03  0.15464097363E+04  0.50400001928E-02 0. -1.
       -1    1    3    3    0  502 -0.40254959766E+03  0.11452626955E+04 -0.15755174332E+04  0.19889514832E+04  0.50400001928E-02 0.  1.
</event>
<event>
 5   0  0.1072381E-07  0.3499525E+04  0.7818609E-02  0.8113902E-01
        1   -1    0    0  501    0  0.00000000000E+00  0.00000000000E+00  0.27294849231E+04  0.27294849231E+04  0.50400001928E-02 0. -1.
       -1   -1    0    0    0  501  0.00000000000E+00  0.00000000000E+00 -0.11217022434E+04  0.11217022434E+04  0.50400001928E-02 0.  1.
    10030    2    1    2    0    0  0.00000000000E+00  0.00000000000E+00  0.16077826797E+04  0.38511871666E+04  0.34995253173E+04 0.  0.
        1    1    3    3  502    0  0.76536078691E+02 -0.17356995499E+04  0.10325141064E+04  0.20210383665E+04  0.50400001928E-02 0. -1.
       -1    1    3    3    0  502 -0.76536078691E+02  0.17356995499E+04  0.57526857332E+03  0.18301488001E+04  0.50400001928E-02 0.  1.
</event>
<event>
 5   0  0.1098171E-07  0.3539972E+04  0.7818609E-02  0.8104382E-01
       -1   -1    0    0    0  501  0.00000000000E+00  0.00000000000E+00  0.19368094199E+04  0.19368094199E+04  0.50400001928E-02 0. -1.
        1   -1    0    0  501    0  0.00000000000E+00  0.00000000000E+00 -0.16175314251E+04  0.16175314252E+04  0.50400001928E-02 0.  1.
    10030    2    1    2    0    0  0.00000000000E+00  0.00000000000E+00  0.31927799474E+03  0.35543408450E+04  0.35399718085E+04 0.  0.
        4    1    3    3  502    0 -0.12528506324E+04  0.54325522973E+02 -0.10945359081E+04  0.16645108701E+04  0.12699999809E+01 0.  1.
       -4    1    3    3    0  502  0.12528506324E+04 -0.54325522973E+02  0.14138139028E+04  0.18898299750E+04  0.12699999809E+01 0. -1.
</event>
<event>
 5   0  0.1072381E-07  0.3515588E+04  0.7818609E-02  0.8110106E-01
        1   -1    0    0  501    0  0.00000000000E+00  0.00000000000E+00  0.14658618343E+04  0.14658618343E+04  0.50400001928E-02 0.  1.
       -1   -1    0    0    0  501  0.00000000000E+00  0.00000000000E+00 -0.21078653500E+04  0.21078653500E+04  0.50400001928E-02 0. -1.
    10030    2    1    2    0    0  0.00000000000E+00  0.00000000000E+00 -0.64200351574E+03  0.35737271843E+04  0.35155877849E+04 0.  0.
        1    1    3    3  502    0 -0.12906790327E+04  0.89835057926E+03 -0.11194551558E+04  0.19303020423E+04  0.50400001928E-02 0. -1.
       -1    1    3    3    0  502  0.12906790327E+04 -0.89835057926E+03  0.47745164010E+03  0.16434251420E+04  0.50400001928E-02 0.  1.
</event>
<event>
 5   0  0.2180451E-07  0.3521116E+04  0.7818609E-02  0.8108804E-01
       -2   -1    0    0    0  501  0.00000000000E+00  0.00000000000E+00  0.16017464215E+04  0.16017464215E+04  0.25500000920E-02 0.  1.
        2   -1    0    0  501    0  0.00000000000E+00  0.00000000000E+00 -0.19351159554E+04  0.19351159554E+04  0.25500000920E-02 0. -1.
    10030    2    1    2    0    0  0.00000000000E+00  0.00000000000E+00 -0.33336953385E+03  0.35368623769E+04  0.35211163325E+04 0.  0.
        4    1    3    3  502    0  0.11446142705E+04 -0.93057356552E+03  0.79857794092E+03  0.16774496504E+04  0.12699999809E+01 0.  1.
       -4    1    3    3    0  502 -0.11446142705E+04  0.93057356552E+03 -0.11319474748E+04  0.18594127265E+04  0.12699999809E+01 0. -1.
</event>
<event>
 5   0  0.2180451E-07  0.3503656E+04  0.7818609E-02  0.8112924E-01
        2   -1    0    0  501    0  0.00000000000E+00  0.00000000000E+00  0.24405164832E+04  0.24405164832E+04  0.25500000920E-02 0. -1.
       -2   -1    0    0    0  501  0.00000000000E+00  0.00000000000E+00 -0.12574803027E+04  0.12574803027E+04  0.25500000920E-02 0.  1.
    10030    2    1    2    0    0  0.00000000000E+00  0.00000000000E+00  0.11830361805E+04  0.36979967858E+04  0.35036560367E+04 0.  0.
        4    1    3    3  502    0 -0.12956872588E+04  0.21958955862E+03 -0.63112882203E+03  0.14578581034E+04  0.12699999809E+01 0.  1.
       -4    1    3    3    0  502  0.12956872588E+04 -0.21958955862E+03  0.18141650025E+04  0.22401386824E+04  0.12699999809E+01 0. -1.
</event>
<event>
 5   0  0.3219205E-07  0.3494025E+04  0.7818609E-02  0.8115207E-01
        2   -1    0    0  501    0  0.00000000000E+00  0.00000000000E+00  0.19190040108E+04  0.19190040108E+04  0.25500000920E-02 0.  1.
       -2   -1    0    0    0  501  0.00000000000E+00  0.00000000000E+00 -0.15904354692E+04  0.15904354692E+04  0.25500000920E-02 0. -1.
    10030    2    1    2    0    0  0.00000000000E+00  0.00000000000E+00  0.32856854164E+03  0.35094394800E+04  0.34940246389E+04 0.  0.
        2    1    3    3  502    0  0.56531076415E+03 -0.42532334307E+03  0.17686967628E+04  0.19049316116E+04  0.25500000920E-02 0.  1.
       -2    1    3    3    0  502 -0.56531076415E+03  0.42532334307E+03 -0.14401282212E+04  0.16045078684E+04  0.25500000920E-02 0. -1.
</event>
<event>
 5   0  0.1013863E-07  0.3516530E+04  0.7818609E-02  0.8109884E-01
       -1   -1    0    0    0  501  0.00000000000E+00  0.00000000000E+00  0.18570647454E+04  0.18570647454E+04  0.50400001928E-02 0. -1.
        1   -1    0    0  501    0  0.00000000000E+00  0.00000000000E+00 -0.16647213039E+04  0.16647213039E+04  0.50400001928E-02 0.  1.
    10030    2    1    2    0    0  0.00000000000E+00  0.00000000000E+00  0.19234344154E+03  0.35217860493E+04  0.35165296782E+04 0.  0.
        5    1    3    3  502    0  0.69126111295E+02  0.15429367193E+04  0.93769018044E+03  0.18068528173E+04  0.46999998093E+01 0. -1.
       -5    1    3    3    0  502 -0.69126111295E+02 -0.15429367193E+04 -0.74534673890E+03  0.17149332320E+04  0.46999998093E+01 0.  1.
</event>
<event>
 5   0  0.1033796E-07  0.3503950E+04  0.7818609E-02  0.8112854E-01
       -1   -1    0    0    0  501  0.00000000000E+00  0.00000000000E+00  0.15415492932E+04  0.15415492932E+04  0.50400001928E-02 0.  1.
        1   -1    0    0  501    0  0.00000000000E+00  0.00000000000E+00 -0.19911248543E+04  0.19911248543E+04  0.50400001928E-02 0. -1.
    10030    2    1    2    0    0  0.00000000000E+00  0.00000000000E+00 -0.44957556105E+03  0.35326741475E+04  0.35039504059E+04 0.  0.
        3    1    3    3  502    0  0.14295339300E+04  0.82315660150E+03  0.37018806052E+03  0.16906191936E+04  0.10100000352E+00 0. -1.
       -3    1    3    3    0  502 -0.14295339300E+04 -0.82315660150E+03 -0.81976362157E+03  0.18420549539E+04  0.10100000352E+00 0.  1.
</event>
<event>
 5   0  0.3190185E-07  0.3501229E+04  0.7818609E-02  0.8113499E-01
       -2   -1    0    0    0  501  0.00000000000E+00  0.00000000000E+00  0.15029840046E+04  0.15029840046E+04  0.25500000920E-02 0.  1.
        2   -1    0    0  501    0  0.00000000000E+00  0.00000000000E+00 -0.20390448212E+04  0.20390448212E+04  0.25500000920E-02 0. -1.
    10030    2    1    2    0    0  0.00000000000E+00  0.00000000000E+00 -0.53606081664E+03  0.35420288259E+04  0.35012293561E+04 0.  0.
        1    1    3    3  502    0  0.94160893262E+03  0.14094821037E+04  0.17454266611E+03  0.17040341326E+04  0.50400001928E-02 0.  1.
       -1    1    3    3    0  502 -0.94160893262E+03 -0.14094821037E+04 -0.71060348275E+03  0.18379946933E+04  0.50400001928E-02 0. -1.
</event>
<event>
 5   0  0.1098171E-07  0.3503206E+04  0.7818609E-02  0.8113031E-01
       -1   -1    0    0    0  501  0.00000000000E+00  0.00000000000E+00  0.16542582061E+04  0.16542582061E+04  0.50400001928E-02 0. -1.
        1   -1    0    0  501    0  0.00000000000E+00  0.00000000000E+00 -0.18546756768E+04  0.18546756768E+04  0.50400001928E-02 0.  1.
    10030    2    1    2    0    0  0.00000000000E+00  0.00000000000E+00 -0.20041747069E+03  0.35089338829E+04  0.35032056509E+04 0.  0.
        4    1    3    3  502    0  0.44868592278E+03  0.16601779882E+04  0.23290209740E+03  0.17354408689E+04  0.12699999809E+01 0. -1.
       -4    1    3    3    0  502 -0.44868592278E+03 -0.16601779882E+04 -0.43331956809E+03  0.17734930140E+04  0.12699999809E+01 0.  1.
</event>
<event>
 5   0  0.1072381E-07  0.3531664E+04  0.7818609E-02  0.8106327E-01
       -1   -1    0    0    0  501  0.00000000000E+00  0.00000000000E+00  0.15729233765E+04  0.15729233765E+04  0.50400001928E-02 0. -1.
        1   -1    0    0  501    0  0.00000000000E+00  0.00000000000E+00 -0.19824000125E+04  0.19824000125E+04  0.50400001928E-02 0.  1.
    10030    2    1    2    0    0  0.00000000000E+00  0.00000000000E+00 -0.40947663607E+03  0.35553233890E+04  0.35316643789E+04 0.  0.
        1    1    3    3  502    0  0.14898441410E+04  0.93456807270E+02  0.74486958283E+03  0.16682926706E+04  0.50400001928E-02 0.  1.
       -1    1    3    3    0  502 -0.14898441410E+04 -0.93456807270E+02 -0.11543462189E+04  0.18870307184E+04  0.50400001928E-02 0. -1.
</event>
<event>
 5   0  0.1072381E-07  0.3494536E+04  0.7818609E-02  0.8115086E-01
       -1   -1    0    0    0  501  0.00000000000E+00  0.00000000000E+00  0.14543372342E+04  0.14543372342E+04  0.50400001928E-02 0. -1.
        1   -1    0    0  501    0  0.00000000000E+00  0.00000000000E+00 -0.20992003168E+04  0.20992003168E+04  0.50400001928E-02 0.  1.
    10030    2    1    2    0    0  0.00000000000E+00  0.00000000000E+00 -0.64486308254E+03  0.35535375510E+04  0.34945358392E+04 0.  0.
        1    1    3    3  502    0 -0.17783070020E+03 -0.13795293617E+04 -0.13977449718E+04  0.19719066975E+04  0.50400001928E-02 0.  1.
       -1    1    3    3    0  502  0.17783070020E+03  0.13795293617E+04  0.75288188922E+03  0.15816308535E+04  0.50400001928E-02 0. -1.
</event>
<event>
 5   0  0.1013863E-07  0.3510877E+04  0.7818609E-02  0.8111217E-01
       -3   -1    0    0    0  501  0.00000000000E+00  0.00000000000E+00  0.13199737246E+04  0.13199737285E+04  0.10100000352E+00 0. -1.
        3   -1    0    0  501    0  0.00000000000E+00  0.00000000000E+00 -0.23345649514E+04  0.23345649535E+04  0.10100000352E+00 0.  1.
    10030    2    1    2    0    0  0.00000000000E+00  0.00000000000E+00 -0.10145912267E+04  0.36545386820E+04  0.35108770444E+04 0.  0.
        1    1    3    3  502    0 -0.65866680671E+03  0.61506682568E+03 -0.20753962340E+04  0.22626132437E+04  0.50400001928E-02 0.  1.
       -1    1    3    3    0  502  0.65866680671E+03 -0.61506682568E+03  0.10608050073E+04  0.13919254383E+04  0.50400001928E-02 0. -1.
</event>
<event>
 5   0  0.1013863E-07  0.3504709E+04  0.7818609E-02  0.8112675E-01
       -1   -1    0    0    0  501  0.00000000000E+00  0.00000000000E+00  0.16094850112E+04  0.16094850112E+04  0.50400001928E-02 0.  1.
        1   -1    0    0  501    0  0.00000000000E+00  0.00000000000E+00 -0.19079065008E+04  0.19079065008E+04  0.50400001928E-02 0. -1.
    10030    2    1    2    0    0  0.00000000000E+00  0.00000000000E+00 -0.29842148955E+03  0.35173915120E+04  0.35047093550E+04 0.  0.
        5    1    3    3  502    0  0.17419729171E+04  0.18198756711E+03 -0.93010726547E+02  0.17539276507E+04  0.46999998093E+01 0. -1.
       -5    1    3    3    0  502 -0.17419729171E+04 -0.18198756711E+03 -0.20541076300E+03  0.17634638613E+04  0.46999998093E+01 0.  1.
</event>
<event>
 5   0  0.1033796E-07  0.3501114E+04  0.7818609E-02  0.8113526E-01
       -1   -1    0    0    0  501  0.00000000000E+00  0.00000000000E+00  0.27646162844E+04  0.27646162844E+04  0.50400001928E-02 0.  1.
        1   -1    0    0  501    0  0.00000000000E+00  0.00000000000E+00 -0.11084542030E+04  0.11084542031E+04  0.50400001928E-02 0. -1.
    10030    2    1    2    0    0  0.00000000000E+00  0.00000000000E+00  0.16561620813E+04  0.38730704874E+04  0.35011144170E+04 0.  0.
        3    1    3    3  502    0 -0.45693734405E+03  0.14462769769E+03  0.26906220225E+04  0.27329756284E+04  0.10100000352E+00 0.  1.
       -3    1    3    3    0  502  0.45693734405E+03 -0.14462769769E+03 -0.10344599412E+04  0.11400948590E+04  0.10100000352E+00 0. -1.
</event>
<event>
 5   0  0.2180451E-07  0.3519639E+04  0.7818609E-02  0.8109151E-01
       -2   -1    0    0    0  501  0.00000000000E+00  0.00000000000E+00  0.19137420292E+04  0.19137420292E+04  0.25500000920E-02 0.  1.
        2   -1    0    0  501    0  0.00000000000E+00  0.00000000000E+00 -0.16182771547E+04  0.16182771547E+04  0.25500000920E-02 0. -1.
    10030    2    1    2    0    0  0.00000000000E+00  0.00000000000E+00  0.29546487443E+03  0.35320191839E+04  0.35196391894E+04 0.  0.
        4    1    3    3  502    0 -0.80302314516E+03  0.88312724082E+02 -0.14211982929E+04  0.16347634415E+04  0.12699999809E+01 0. -1.
       -4    1    3    3    0  502  0.80302314516E+03 -0.88312724082E+02  0.17166631674E+04  0.18972557424E+04  0.12699999809E+01 0.  1.
</event>
<event>
 5   0  0.2180451E-07  0.3482834E+04  0.7818609E-02  0.8117870E-01
       -2   -1    0    0    0  501  0.00000000000E+00  0.00000000000E+00  0.12850367827E+04  0.12850367827E+04  0.25500000920E-02 0. -1.
        2   -1    0    0  501    0  0.00000000000E+00  0.00000000000E+00 -0.23598802773E+04  0.23598802773E+04  0.25500000920E-02 0.  1.
    10030    2    1    2    0    0  0.00000000000E+00  0.00000000000E+00 -0.10748434946E+04  0.36449170600E+04  0.34828338801E+04 0.  0.
        4    1    3    3  502    0  0.47668714874E+03  0.28829674978E+03 -0.22641093204E+04  0.23316385400E+04  0.12699999809E+01 0.  1.
       -4    1    3    3    0  502 -0.47668714874E+03 -0.28829674978E+03  0.11892658258E+04  0.13132785200E+04  0.12699999809E+01 0. -1.
</event>
<event>
 5   0  0.1098171E-07  0.3493324E+04  0.7818609E-02  0.8115374E-01
        1   -1    0    0  501    0  0.00000000000E+00  0.00000000000E+00  0.17906606980E+04  0.17906606980E+04  0.50400001928E-02 0.  1.
       -1   -1    0    0    0  501  0.00000000000E+00  0.00000000000E+00 -0.17037440935E+04  0.17037440935E+04  0.50400001928E-02 0. -1.
    10030    2    1    2    0    0  0.00000000000E+00  0.00000000000E+00  0.86916604521E+02  0.34944047914E+04  0.34933236824E+04 0.  0.
        4    1    3    3  502    0 -0.70393481678E+03  0.15836749694E+04  0.26095452180E+03  0.17526121962E+04  0.12699999809E+01 0.  1.
       -4    1    3    3    0  502  0.70393481678E+03 -0.15836749694E+04 -0.17403791728E+03  0.17417925952E+04  0.12699999809E+01 0. -1.
</event>
<event>
 5   0  0.3190112E-07  0.3504879E+04  0.7818609E-02  0.8112635E-01
        2   -1    0    0  501    0  0.00000000000E+00  0.00000000000E+00  0.13418268660E+04  0.13418268660E+04  0.25500000920E-02 0.  1.
       -2   -1    0    0    0  501  0.00000000000E+00  0.00000000000E+00 -0.22887040621E+04  0.22887040621E+04  0.25500000920E-02 0. -1.
    10030    2    1    2    0    0  0.00000000000E+00  0.00000000000E+00 -0.94687719610E+03  0.36305309280E+04  0.35048792268E+04 0.  0.
        5    1    3    3  502    0 -0.27365013115E+03  0.16565109036E+04 -0.99354463669E+03  0.19509140943E+04  0.46999998093E+01 0. -1.
       -5    1    3    3    0  502  0.27365013115E+03 -0.16565109036E+04  0.46667440584E+02  0.16796168337E+04  0.46999998093E+01 0.  1.
</event>
<event>
 5   0  0.1013863E-07  0.3312312E+04  0.7818609E-02  0.8159770E-01
       -1   -1    0    0    0  501  0.00000000000E+00  0.00000000000E+00  0.16162393749E+04  0.16162393749E+04  0.50400001928E-02 0.  1.
        1   -1    0    0  501    0  0.00000000000E+00  0.00000000000E+00 -0.16970589508E+04  0.16970589508E+04  0.50400001928E-02 0. -1.
    10030    2    1    2    0    0  0.00000000000E+00  0.00000000000E+00 -0.80819575923E+02  0.33132983257E+04  0.33123124839E+04 0.  0.
        2    1    3    3  502    0 -0.84232779417E+03  0.33341829618E+03 -0.14272457493E+04  0.16904775366E+04  0.25500000920E-02 0. -1.
       -2    1    3    3    0  502  0.84232779417E+03 -0.33341829618E+03  0.13464261734E+04  0.16228207890E+04  0.25500000920E-02 0.  1.
</event>
<event>
 5   0  0.1072381E-07  0.3473614E+04  0.7818609E-02  0.8120072E-01
       -1   -1    0    0    0  501  0.00000000000E+00  0.00000000000E+00  0.17156545963E+04  0.17156545963E+04  0.50400001928E-02 0. -1.
        1   -1    0    0  501    0  0.00000000000E+00  0.00000000000E+00 -0.17582203702E+04  0.17582203702E+04  0.50400001928E-02 0.  1.
    10030    2    1    2    0    0  0.00000000000E+00  0.00000000000E+00 -0.42565773915E+02  0.34738749666E+04  0.34736141752E+04 0.  0.
        1    1    3    3  502    0 -0.49220641489E+02  0.79845332573E+03 -0.15630044377E+04  0.17558283678E+04  0.50400001928E-02 0.  1.
       -1    1    3    3    0  502  0.49220641489E+02 -0.79845332573E+03  0.15204386638E+04  0.17180465987E+04  0.50400001928E-02 0. -1.
</event>
<event>
 5   0  0.1072381E-07  0.3501225E+04  0.7818609E-02  0.8113500E-01
       -1   -1    0    0    0  501  0.00000000000E+00  0.00000000000E+00  0.15656102306E+04  0.15656102306E+04  0.50400001928E-02 0.  1.
        1   -1    0    0  501    0  0.00000000000E+00  0.00000000000E+00 -0.19574761525E+04  0.19574761525E+04  0.50400001928E-02 0. -1.
    10030    2    1    2    0    0  0.00000000000E+00  0.00000000000E+00 -0.39186592192E+03  0.35230863831E+04  0.35012253229E+04 0.  0.
        1    1    3    3  502    0 -0.60171677773E+03  0.27422050163E+03  0.14351087460E+04  0.15801256523E+04  0.50400001928E-02 0.  1.
       -1    1    3    3    0  502  0.60171677773E+03 -0.27422050163E+03 -0.18269746679E+04  0.19429607308E+04  0.50400001928E-02 0. -1.
</event>
<event>
 5   0  0.1033796E-07  0.3499036E+04  0.7818609E-02  0.8114019E-01
        1   -1    0    0  501    0  0.00000000000E+00  0.00000000000E+00  0.12385265404E+04  0.12385265405E+04  0.50400001928E-02 0. -1.
       -1   -1    0    0    0  501  0.00000000000E+00  0.00000000000E+00 -0.24713339026E+04  0.24713339026E+04  0.50400001928E-02 0.  1.
    10030    2    1    2    0    0  0.00000000000E+00  0.00000000000E+00 -0.12328073622E+04  0.37098604431E+04  0.34990356550E+04 0.  0.
        3    1    3    3  502    0 -0.13105328163E+04 -0.81400427790E+03 -0.14911685879E+04  0.21456194897E+04  0.10100000352E+00 0.  1.
       -3    1    3    3    0  502  0.13105328163E+04  0.81400427790E+03  0.25836122574E+03  0.15642409533E+04  0.10100000352E+00 0. -1.
</event>
<event>
 5   0  0.3119048E-07  0.3534952E+04  0.7818609E-02  0.8105556E-01
       -2   -1    0    0    0  501  0.00000000000E+00  0.00000000000E+00  0.16607813319E+04  0.16607813319E+04  0.25500000920E-02 0. -1.
        2   -1    0    0  501    0  0.00000000000E+00  0.00000000000E+00 -0.18810253290E+04  0.18810253290E+04  0.25500000920E-02 0.  1.
    10030    2    1    2    0    0  0.00000000000E+00  0.00000000000E+00 -0.22024399713E+03  0.35418066608E+04  0.35349521927E+04 0.  0.
        3    1    3    3  502    0  0.20794233026E+03  0.47019793463E+03 -0.18044497134E+04  0.18762635446E+04  0.10100000352E+00 0.  1.
       -3    1    3    3    0  502 -0.20794233026E+03 -0.47019793463E+03  0.15842057163E+04  0.16655431162E+04  0.10100000352E+00 0. -1.
</event>
<event>
 5   0  0.3190185E-07  0.3492905E+04  0.7818609E-02  0.8115473E-01
       -2   -1    0    0    0  501  0.00000000000E+00  0.00000000000E+00  0.16177968765E+04  0.16177968765E+04  0.25500000920E-02 0.  1.
        2   -1    0    0  501    0  0.00000000000E+00  0.00000000000E+00 -0.18853399257E+04  0.18853399257E+04  0.25500000920E-02 0. -1.
    10030    2    1    2    0    0  0.00000000000E+00  0.00000000000E+00 -0.26754304916E+03  0.35031368022E+04  0.34929054055E+04 0.  0.
        1    1    3    3  502    0 -0.95165728815E+03  0.28138266093E+03 -0.15750855483E+04  0.18616450468E+04  0.50400001928E-02 0. -1.
       -1    1    3    3    0  502  0.95165728815E+03 -0.28138266093E+03  0.13075424991E+04  0.16414917554E+04  0.50400001928E-02 0.  1.
</event>
<event>
 5   0  0.1098171E-07  0.3506097E+04  0.7818609E-02  0.8112347E-01
        1   -1    0    0  501    0  0.00000000000E+00  0.00000000000E+00  0.20611187063E+04  0.20611187063E+04  0.50400001928E-02 0.  1.
       -1   -1    0    0    0  501  0.00000000000E+00  0.00000000000E+00 -0.14910249114E+04  0.14910249114E+04  0.50400001928E-02 0. -1.
    10030    2    1    2    0    0  0.00000000000E+00  0.00000000000E+00  0.57009379489E+03  0.35521436177E+04  0.35060971672E+04 0.  0.
        4    1    3    3  502    0 -0.53054482232E+03  0.53459233655E+03 -0.13187500609E+04  0.15186738000E+04  0.12699999809E+01 0. -1.
       -4    1    3    3    0  502  0.53054482232E+03 -0.53459233655E+03  0.18888438558E+04  0.20334698177E+04  0.12699999809E+01 0.  1.
</event>
<event>
 5   0  0.1033796E-07  0.3257863E+04  0.7818609E-02  0.8173701E-01
       -1   -1    0    0    0  501  0.00000000000E+00  0.00000000000E+00  0.12384660532E+04  0.12384660532E+04  0.50400001928E-02 0. -1.
        1   -1    0    0  501    0  0.00000000000E+00  0.00000000000E+00 -0.21425030191E+04  0.21425030191E+04  0.50400001928E-02 0.  1.
    10030    2    1    2    0    0  0.00000000000E+00  0.00000000000E+00 -0.90403696590E+03  0.33809690723E+04  0.32578626478E+04 0.  0.
        3    1    3    3  502    0 -0.10665407001E+04 -0.77960889619E+03 -0.14409804861E+04  0.19549229825E+04  0.10100000352E+00 0.  1.
       -3    1    3    3    0  502  0.10665407001E+04  0.77960889619E+03  0.53694352020E+03  0.14260460898E+04  0.10100000352E+00 0. -1.
</event>
<event>
 5   0  0.3119048E-07  0.3486830E+04  0.7818609E-02  0.8116918E-01
        2   -1    0    0  501    0  0.00000000000E+00  0.00000000000E+00  0.16130262297E+04  0.16130262297E+04  0.25500000920E-02 0.  1.
       -2   -1    0    0    0  501  0.00000000000E+00  0.00000000000E+00 -0.18843432055E+04  0.18843432055E+04  0.25500000920E-02 0. -1.
    10030    2    1    2    0    0  0.00000000000E+00  0.00000000000E+00 -0.27131697579E+03  0.34973694352E+04  0.34868295148E+04 0.  0.
        3    1    3    3  502    0  0.79057385787E+03  0.11159059432E+04  0.94892498709E+03  0.16645455056E+04  0.10100000352E+00 0.  1.
       -3    1    3    3    0  502 -0.79057385787E+03 -0.11159059432E+04 -0.12202419629E+04  0.18328239296E+04  0.10100000352E+00 0. -1.
</event>
<event>
 5   0  0.1033796E-07  0.3494428E+04  0.7818609E-02  0.8115112E-01
       -1   -1    0    0    0  501  0.00000000000E+00  0.00000000000E+00  0.13218855177E+04  0.13218855177E+04  0.50400001928E-02 0.  1.
        1   -1    0    0  501    0  0.00000000000E+00  0.00000000000E+00 -0.23093961159E+04  0.23093961159E+04  0.50400001928E-02 0. -1.
    10030    2    1    2    0    0  0.00000000000E+00  0.00000000000E+00 -0.98751059823E+03  0.36312816336E+04  0.34944282967E+04 0.  0.
        3    1    3    3  502    0 -0.28891286121E+03  0.33134644972E+02 -0.22840707305E+04  0.23025089920E+04  0.10100000352E+00 0. -1.
       -3    1    3    3    0  502  0.28891286121E+03 -0.33134644972E+02  0.12965601323E+04  0.13287726416E+04  0.10100000352E+00 0.  1.
</event>
<event>
 5   0  0.1072381E-07  0.3507962E+04  0.7818609E-02  0.8111906E-01
        1   -1    0    0  501    0  0.00000000000E+00  0.00000000000E+00  0.18183621853E+04  0.18183621853E+04  0.50400001928E-02 0.  1.
       -1   -1    0    0    0  501  0.00000000000E+00  0.00000000000E+00 -0.16918790712E+04  0.16918790712E+04  0.50400001928E-02 0. -1.
    10030    2    1    2    0    0  0.00000000000E+00  0.00000000000E+00  0.12648311412E+03  0.35102412565E+04  0.35079617587E+04 0.  0.
        1    1    3    3  502    0 -0.11160822223E+04  0.11053577429E+04  0.84412911114E+03  0.17832580360E+04  0.50400001928E-02 0.  1.
       -1    1    3    3    0  502  0.11160822223E+04 -0.11053577429E+04 -0.71764599702E+03  0.17269832205E+04  0.50400001928E-02 0. -1.
</event>
<event>
 5   0  0.2180451E-07  0.3501683E+04  0.7818609E-02  0.8113391E-01
       -2   -1    0    0    0  501  0.00000000000E+00  0.00000000000E+00  0.21839939116E+04  0.21839939116E+04  0.25500000920E-02 0.  1.
        2   -1    0    0  501    0  0.00000000000E+00  0.00000000000E+00 -0.14035961379E+04  0.14035961379E+04  0.25500000920E-02 0. -1.
    10030    2    1    2    0    0  0.00000000000E+00  0.00000000000E+00  0.78039777365E+03  0.35875900495E+04  0.35016826924E+04 0.  0.
        4    1    3    3  502    0  0.15048491483E+04  0.84679262876E+03  0.68680980452E+03  0.18583159139E+04  0.12699999809E+01 0.  1.
       -4    1    3    3    0  502 -0.15048491483E+04 -0.84679262876E+03  0.93587969132E+02  0.17292741357E+04  0.12699999809E+01 0. -1.
</event>
<event>
 5   0  0.3219205E-07  0.3501001E+04  0.7818609E-02  0.8113553E-01
        2   -1    0    0  501    0  0.00000000000E+00  0.00000000000E+00  0.17180587206E+04  0.17180587206E+04  0.25500000920E-02 0. -1.
       -2   -1    0    0    0  501  0.00000000000E+00  0.00000000000E+00 -0.17835548406E+04  0.17835548406E+04  0.25500000920E-02 0.  1.
    10030    2    1    2    0    0  0.00000000000E+00  0.00000000000E+00 -0.65496120054E+02  0.35016135612E+04  0.35010009698E+04 0.  0.
        2    1    3    3  502    0  0.13038423396E+04 -0.11621197870E+04  0.84424911551E+02  0.17486151124E+04  0.25500000920E-02 0. -1.
       -2    1    3    3    0  502 -0.13038423396E+04  0.11621197870E+04 -0.14992103160E+03  0.17529984488E+04  0.25500000920E-02 0.  1.
</event>
<event>
 5   0  0.3190112E-07  0.3503066E+04  0.7818609E-02  0.8113064E-01
       -2   -1    0    0    0  501  0.00000000000E+00  0.00000000000E+00  0.16592150691E+04  0.16592150691E+04  0.25500000920E-02 0. -1.
        2   -1    0    0  501    0  0.00000000000E+00  0.00000000000E+00 -0.18489877388E+04  0.18489877388E+04  0.25500000920E-02 0.  1.
    10030    2    1    2    0    0  0.00000000000E+00  0.00000000000E+00 -0.18977266972E+03  0.35082028079E+04  0.35030662676E+04 0.  0.
        5    1    3    3  502    0 -0.13722565186E+04  0.86823766200E+03  0.56252243006E+03  0.17185395441E+04  0.46999998093E+01 0. -1.
       -5    1    3    3    0  502  0.13722565186E+04 -0.86823766200E+03 -0.75229509978E+03  0.17896632637E+04  0.46999998093E+01 0.  1.
</event>
<event>
 5   0  0.3219205E-07  0.3500216E+04  0.7818609E-02  0.8113739E-01
        2   -1    0    0  501    0  0.00000000000E+00  0.00000000000E+00  0.18487397095E+04  0.18487397095E+04  0.25500000920E-02 0.  1.
       -2   -1    0    0    0  501  0.00000000000E+00  0.00000000000E+00 -0.16567381925E+04  0.16567381925E+04  0.25500000920E-02 0. -1.
    10030    2    1    2    0    0  0.00000000000E+00  0.00000000000E+00  0.19200151698E+03  0.35054779020E+04  0.35002158132E+04 0.  0.
        2    1    3    3  502    0 -0.85898468631E+03  0.10722037977E+04 -0.98978871179E+03  0.16932682508E+04  0.25500000920E-02 0. -1.
       -2    1    3    3    0  502  0.85898468631E+03 -0.10722037977E+04  0.11817902288E+04  0.18122096512E+04  0.25500000920E-02 0.  1.
</event>
<event>
 5   0  0.1013863E-07  0.3499344E+04  0.7818609E-02  0.8113945E-01
       -1   -1    0    0    0  501  0.00000000000E+00  0.00000000000E+00  0.15999871520E+04  0.15999871520E+04  0.50400001928E-02 0. -1.
        1   -1    0    0  501    0  0.00000000000E+00  0.00000000000E+00 -0.19133605699E+04  0.19133605699E+04  0.50400001928E-02 0.  1.
    10030    2    1    2    0    0  0.00000000000E+00  0.00000000000E+00 -0.31337341792E+03  0.35133477219E+04  0.34993441265E+04 0.  0.
        2    1    3    3  502    0 -0.70655297431E+02 -0.14229070257E+04  0.86310224422E+03  0.16657136785E+04  0.25500000920E-02 0. -1.
       -2    1    3    3    0  502  0.70655297431E+02  0.14229070257E+04 -0.11764756621E+04  0.18476340434E+04  0.25500000920E-02 0.  1.
</event>
<event>
 5   0  0.1013863E-07  0.3514444E+04  0.7818609E-02  0.8110375E-01
       -1   -1    0    0    0  501  0.00000000000E+00  0.00000000000E+00  0.34587435121E+04  0.34587435121E+04  0.50400001928E-02 0. -1.
        1   -1    0    0  501    0  0.00000000000E+00  0.00000000000E+00 -0.89276032013E+03  0.89276032015E+03  0.50400001928E-02 0.  1.
    10030    2    1    2    0    0  0.00000000000E+00  0.00000000000E+00  0.25659831920E+04  0.43515038323E+04  0.35144438907E+04 0.  0.
        5    1    3    3  502    0 -0.12460328430E+03 -0.17017190575E+04  0.76290837183E+03  0.18690706255E+04  0.46999998093E+01 0. -1.
       -5    1    3    3    0  502  0.12460328430E+03  0.17017190575E+04  0.18030748201E+04  0.24824332068E+04  0.46999998093E+01 0.  1.
</event>
<event>
 5   0  0.1072381E-07  0.3503124E+04  0.7818609E-02  0.8113050E-01
        1   -1    0    0  501    0  0.00000000000E+00  0.00000000000E+00  0.23686179733E+04  0.23686179733E+04  0.50400001928E-02 0. -1.
       -1   -1    0    0    0  501  0.00000000000E+00  0.00000000000E+00 -0.12952572552E+04  0.12952572552E+04  0.50400001928E-02 0.  1.
    10030    2    1    2    0    0  0.00000000000E+00  0.00000000000E+00  0.10733607181E+04  0.36638752285E+04  0.35031240998E+04 0.  0.
        1    1    3    3  502    0  0.15223220469E+04  0.36582168456E+03 -0.28464451826E+03  0.15913241094E+04  0.50400001928E-02 0.  1.
       -1    1    3    3    0  502 -0.15223220469E+04 -0.36582168456E+03  0.13580052363E+04  0.20725511191E+04  0.50400001928E-02 0. -1.
</event>
<event>
 5   0  0.3219205E-07  0.3509762E+04  0.7818609E-02  0.8111480E-01
        2   -1    0    0  501    0  0.00000000000E+00  0.00000000000E+00  0.23866337376E+04  0.23866337376E+04  0.25500000920E-02 0. -1.
       -2   -1    0    0    0  501  0.00000000000E+00  0.00000000000E+00 -0.12903562213E+04  0.12903562213E+04  0.25500000920E-02 0.  1.
    10030    2    1    2    0    0  0.00000000000E+00  0.00000000000E+00  0.10962775162E+04  0.36769899589E+04  0.35097622092E+04 0.  0.
        2    1    3    3  502    0  0.93621890241E+03  0.11275520223E+04 -0.46311323981E+03  0.15369948826E+04  0.25500000920E-02 0.  1.
       -2    1    3    3    0  502 -0.93621890241E+03 -0.11275520223E+04  0.15593907560E+04  0.21399950762E+04  0.25500000920E-02 0. -1.
</event>
<event>
 5   0  0.2180451E-07  0.3489625E+04  0.7818609E-02  0.8116253E-01
        2   -1    0    0  501    0  0.00000000000E+00  0.00000000000E+00  0.18763979768E+04  0.18763979768E+04  0.25500000920E-02 0. -1.
       -2   -1    0    0    0  501  0.00000000000E+00  0.00000000000E+00 -0.16224551259E+04  0.16224551259E+04  0.25500000920E-02 0.  1.
    10030    2    1    2    0    0  0.00000000000E+00  0.00000000000E+00  0.25394285091E+03  0.34988531027E+04  0.34896254903E+04 0.  0.
        4    1    3    3  502    0 -0.46760785657E+03 -0.53529766032E+03  0.17246621367E+04  0.18653851590E+04  0.12699999809E+01 0. -1.
       -4    1    3    3    0  502  0.46760785657E+03  0.53529766032E+03 -0.14707192858E+04  0.16334679437E+04  0.12699999809E+01 0.  1.
</event>
<event>
 5   0  0.2180451E-07  0.3506059E+04  0.7818609E-02  0.8112355E-01
        2   -1    0    0  501    0  0.00000000000E+00  0.00000000000E+00  0.28220909472E+04  0.28220909472E+04  0.25500000920E-02 0.  1.
       -2   -1    0    0    0  501  0.00000000000E+00  0.00000000000E+00 -0.10889489739E+04  0.10889489739E+04  0.25500000920E-02 0. -1.
    10030    2    1    2    0    0  0.00000000000E+00  0.00000000000E+00  0.17331419733E+04  0.39110399211E+04  0.35060593499E+04 0.  0.
        4    1    3    3  502    0  0.73200052143E+02 -0.58475097703E+02  0.28192957075E+04  0.28208522620E+04  0.12699999809E+01 0.  1.
       -4    1    3    3    0  502 -0.73200052143E+02  0.58475097703E+02 -0.10861537342E+04  0.10901876591E+04  0.12699999809E+01 0. -1.
</event>
<event>
 5   0  0.2180451E-07  0.3620581E+04  0.7818609E-02  0.8085794E-01
       -2   -1    0    0    0  501  0.00000000000E+00  0.00000000000E+00  0.17241365892E+04  0.17241365892E+04  0.25500000920E-02 0.  1.
        2   -1    0    0  501    0  0.00000000000E+00  0.00000000000E+00 -0.19007489865E+04  0.19007489865E+04  0.25500000920E-02 0. -1.
    10030    2    1    2    0    0  0.00000000000E+00  0.00000000000E+00 -0.17661239731E+03  0.36248855756E+04  0.36205805470E+04 0.  0.
        4    1    3    3  502    0  0.13571465813E+04 -0.10552879316E+04  0.47952759171E+03  0.17847766767E+04  0.12699999809E+01 0. -1.
       -4    1    3    3    0  502 -0.13571465813E+04  0.10552879316E+04 -0.65613998902E+03  0.18401088989E+04  0.12699999809E+01 0.  1.
</event>
<event>
 5   0  0.3190112E-07  0.3501653E+04  0.7818609E-02  0.8113398E-01
       -2   -1    0    0    0  501  0.00000000000E+00  0.00000000000E+00  0.16330788115E+04  0.16330788115E+04  0.25500000920E-02 0.  1.
        2   -1    0    0  501    0  0.00000000000E+00  0.00000000000E+00 -0.18770644903E+04  0.18770644903E+04  0.25500000920E-02 0. -1.
    10030    2    1    2    0    0  0.00000000000E+00  0.00000000000E+00 -0.24398567883E+03  0.35101433017E+04  0.35016534648E+04 0.  0.
        5    1    3    3  502    0 -0.92422398132E+03 -0.62790216375E+02 -0.16112730535E+04  0.18585896593E+04  0.46999998093E+01 0. -1.
       -5    1    3    3    0  502  0.92422398132E+03  0.62790216375E+02  0.13672873746E+04  0.16515536424E+04  0.46999998093E+01 0.  1.
</event>
<event>
 5   0  0.3190112E-07  0.3526485E+04  0.7818609E-02  0.8107542E-01
       -2   -1    0    0    0  501  0.00000000000E+00  0.00000000000E+00  0.23202479952E+04  0.23202479952E+04  0.25500000920E-02 0.  1.
        2   -1    0    0  501    0  0.00000000000E+00  0.00000000000E+00 -0.13399531716E+04  0.13399531716E+04  0.25500000920E-02 0. -1.
    10030    2    1    2    0    0  0.00000000000E+00  0.00000000000E+00  0.98029482359E+03  0.36602011668E+04  0.35264847427E+04 0.  0.
        5    1    3    3  502    0  0.59244862833E+03 -0.43953270742E+03 -0.11720827327E+04  0.13849131382E+04  0.46999998093E+01 0. -1.
       -5    1    3    3    0  502 -0.59244862833E+03  0.43953270742E+03  0.21523775563E+04  0.22752880286E+04  0.46999998093E+01 0.  1.
</event>
<event>
 5   0  0.2180451E-07  0.3503970E+04  0.7818609E-02  0.8112850E-01
       -2   -1    0    0    0  501  0.00000000000E+00  0.00000000000E+00  0.12901170373E+04  0.12901170373E+04  0.25500000920E-02 0.  1.
        2   -1    0    0  501    0  0.00000000000E+00  0.00000000000E+00 -0.23792045008E+04  0.23792045008E+04  0.25500000920E-02 0. -1.
    10030    2    1    2    0    0  0.00000000000E+00  0.00000000000E+00 -0.10890874635E+04  0.36693215380E+04  0.35039704688E+04 0.  0.
        4    1    3    3  502    0  0.44142355393E+03  0.16319673536E+04 -0.63202643758E+02  0.16917944273E+04  0.12699999809E+01 0. -1.
       -4    1    3    3    0  502 -0.44142355393E+03 -0.16319673536E+04 -0.10258848197E+04  0.19775271107E+04  0.12699999809E+01 0.  1.
</event>
<event>
 5   0  0.3190112E-07  0.3505717E+04  0.7818609E-02  0.8112436E-01
        2   -1    0    0  501    0  0.00000000000E+00  0.00000000000E+00  0.17369852647E+04  0.17369852647E+04  0.25500000920E-02 0. -1.
       -2   -1    0    0    0  501  0.00000000000E+00  0.00000000000E+00 -0.17688772212E+04  0.17688772212E+04  0.25500000920E-02 0.  1.
    10030    2    1    2    0    0  0.00000000000E+00  0.00000000000E+00 -0.31891956493E+02  0.35058624859E+04  0.35057174263E+04 0.  0.
        5    1    3    3  502    0 -0.85267847248E+03 -0.11029786687E+04  0.10465804825E+04  0.17432657048E+04  0.46999998093E+01 0. -1.
       -5    1    3    3    0  502  0.85267847248E+03  0.11029786687E+04 -0.10784724390E+04  0.17625967811E+04  0.46999998093E+01 0.  1.
</event>
<event>
 5   0  0.2180451E-07  0.3488190E+04  0.7818609E-02  0.8116595E-01
       -2   -1    0    0    0  501  0.00000000000E+00  0.00000000000E+00  0.12762842040E+04  0.12762842040E+04  0.25500000920E-02 0. -1.
        2   -1    0    0  501    0  0.00000000000E+00  0.00000000000E+00 -0.23833775181E+04  0.23833775181E+04  0.25500000920E-02 0.  1.
    10030    2    1    2    0    0  0.00000000000E+00  0.00000000000E+00 -0.11070933141E+04  0.36596617221E+04  0.34881898335E+04 0.  0.
        4    1    3    3  502    0 -0.88029490343E+03  0.14750435590E+04 -0.23672036056E+03  0.17339869549E+04  0.12699999809E+01 0.  1.
       -4    1    3    3    0  502  0.88029490343E+03 -0.14750435590E+04 -0.87037295354E+03  0.19256747672E+04  0.12699999809E+01 0. -1.
</event>
<event>
 5   0  0.1072381E-07  0.3501454E+04  0.7818609E-02  0.8113445E-01
       -1   -1    0    0    0  501  0.00000000000E+00  0.00000000000E+00  0.21953345998E+04  0.21953345998E+04  0.50400001928E-02 0. -1.
        1   -1    0    0  501    0  0.00000000000E+00  0.00000000000E+00 -0.13961630359E+04  0.13961630359E+04  0.50400001928E-02 0.  1.
    10030    2    1    2    0    0  0.00000000000E+00  0.00000000000E+00  0.79917156390E+03  0.35914976358E+04  0.35014539950E+04 0.  0.
        1    1    3    3  502    0 -0.13788340093E+04 -0.86233483338E+03 -0.26534444538E+03  0.16477901156E+04  0.50400001928E-02 0.  1.
       -1    1    3    3    0  502  0.13788340093E+04  0.86233483338E+03  0.10645160093E+04  0.19437075202E+04  0.50400001928E-02 0. -1.
</event>
<event>
 5   0  0.3119048E-07  0.3502206E+04  0.7818609E-02  0.8113267E-01
        2   -1    0    0  501    0  0.00000000000E+00  0.00000000000E+00  0.14402636458E+04  0.14402636458E+04  0.25500000920E-02 0. -1.
       -2   -1    0    0    0  501  0.00000000000E+00  0.00000000000E+00 -0.21290285282E+04  0.21290285282E+04  0.25500000920E-02 0.  1.
    10030    2    1    2    0    0  0.00000000000E+00  0.00000000000E+00 -0.68876488237E+03  0.35692921740E+04  0.35022063846E+04 0.  0.
        3    1    3    3  502    0  0.74048318354E+03 -0.29784857990E+03  0.12441054633E+04  0.14781162118E+04  0.10100000352E+00 0. -1.
       -3    1    3    3    0  502 -0.74048318354E+03  0.29784857990E+03 -0.19328703456E+04  0.20911759622E+04  0.10100000352E+00 0.  1.
</event>
<event>
 5   0  0.3190185E-07  0.3402792E+04  0.7818609E-02  0.8137221E-01
        2   -1    0    0  501    0  0.00000000000E+00  0.00000000000E+00  0.19657750994E+04  0.19657750994E+04  0.25500000920E-02 0.  1.
       -2   -1    0    0    0  501  0.00000000000E+00  0.00000000000E+00 -0.14725735626E+04  0.14725735626E+04  0.25500000920E-02 0. -1.
    10030    2    1    2    0    0  0.00000000000E+00  0.00000000000E+00  0.49320153677E+03  0.34383486620E+04  0.34027920544E+04 0.  0.
        1    1    3    3  502    0 -0.18282735840E+03 -0.19319649533E+02  0.19557090880E+04  0.19643312166E+04  0.50400001928E-02 0.  1.
       -1    1    3    3    0  502  0.18282735840E+03  0.19319649533E+02 -0.14625075512E+04  0.14740174454E+04  0.50400001928E-02 0. -1.
</event>
<event>
 5   0  0.1013863E-07  0.3501591E+04  0.7818609E-02  0.8113413E-01
       -1   -1    0    0    0  501  0.00000000000E+00  0.00000000000E+00  0.11615591837E+04  0.11615591837E+04  0.50400001928E-02 0.  1.
        1   -1    0    0  501    0  0.00000000000E+00  0.00000000000E+00 -0.26389403115E+04  0.26389403115E+04  0.50400001928E-02 0. -1.
    10030    2    1    2    0    0  0.00000000000E+00  0.00000000000E+00 -0.14773811278E+04  0.38004994952E+04  0.35015912692E+04 0.  0.
        2    1    3    3  502    0  0.94243682283E+03 -0.14605013357E+04 -0.96644638338E+03  0.19887860439E+04  0.25500000920E-02 0. -1.
       -2    1    3    3    0  502 -0.94243682283E+03  0.14605013357E+04 -0.51093474444E+03  0.18117134513E+04  0.25500000920E-02 0.  1.
</event>
<event>
 5   0  0.3119048E-07  0.3479849E+04  0.7818609E-02  0.8118582E-01
        2   -1    0    0  501    0  0.00000000000E+00  0.00000000000E+00  0.27795423082E+04  0.27795423082E+04  0.25500000920E-02 0.  1.
       -2   -1    0    0    0  501  0.00000000000E+00  0.00000000000E+00 -0.10891494597E+04  0.10891494597E+04  0.25500000920E-02 0. -1.
    10030    2    1    2    0    0  0.00000000000E+00  0.00000000000E+00  0.16903928485E+04  0.38686917679E+04  0.34798488491E+04 0.  0.
        3    1    3    3  502    0  0.46226317768E+02  0.10013293155E+03  0.27756524091E+04  0.27778426490E+04  0.10100000352E+00 0.  1.
       -3    1    3    3    0  502 -0.46226317768E+02 -0.10013293155E+03 -0.10852595605E+04  0.10908491189E+04  0.10100000352E+00 0. -1.
</event>
<event>
 5   0  0.3190185E-07  0.3466872E+04  0.7818609E-02  0.8121686E-01
        2   -1    0    0  501    0  0.00000000000E+00  0.00000000000E+00  0.25121565345E+04  0.25121565345E+04  0.25500000920E-02 0.  1.
       -2   -1    0    0    0  501  0.00000000000E+00  0.00000000000E+00 -0.11961041702E+04  0.11961041702E+04  0.25500000920E-02 0. -1.
    10030    2    1    2    0    0  0.00000000000E+00  0.00000000000E+00  0.13160523642E+04  0.37082607047E+04  0.34668723121E+04 0.  0.
        1    1    3    3  502    0 -0.20066403983E+03  0.80265653893E+03  0.22873310725E+04  0.24323665455E+04  0.50400001928E-02 0.  1.
       -1    1    3    3    0  502  0.20066403983E+03 -0.80265653893E+03 -0.97127870826E+03  0.12758941592E+04  0.50400001928E-02 0. -1.
</event>
<event>
 5   0  0.1013863E-07  0.3498102E+04  0.7818609E-02  0.8114240E-01
       -1   -1    0    0    0  501  0.00000000000E+00  0.00000000000E+00  0.16146177450E+04  0.16146177450E+04  0.50400001928E-02 0.  1.
        1   -1    0    0  501    0  0.00000000000E+00  0.00000000000E+00 -0.18946774840E+04  0.18946774840E+04  0.50400001928E-02 0. -1.
    10030    2    1    2    0    0  0.00000000000E+00  0.00000000000E+00 -0.28005973895E+03  0.35092952290E+04  0.34981022779E+04 0.  0.
        2    1    3    3  502    0  0.71802508521E+03  0.15752163449E+04 -0.39045498567E+03  0.17746328218E+04  0.25500000920E-02 0. -1.
       -2    1    3    3    0  502 -0.71802508521E+03 -0.15752163449E+04  0.11039524672E+03  0.17346624072E+04  0.25500000920E-02 0.  1.
</event>
<event>
 5   0  0.3119048E-07  0.3503825E+04  0.7818609E-02  0.8112884E-01
        2   -1    0    0  501    0  0.00000000000E+00  0.00000000000E+00  0.17817714637E+04  0.17817714637E+04  0.25500000920E-02 0.  1.
       -2   -1    0    0    0  501  0.00000000000E+00  0.00000000000E+00 -0.17225543730E+04  0.17225543730E+04  0.25500000920E-02 0. -1.
    10030    2    1    2    0    0  0.00000000000E+00  0.00000000000E+00  0.59217090650E+02  0.35043258367E+04  0.35038254674E+04 0.  0.
        3    1    3    3  502    0  0.12614092572E+04  0.28212812309E+03  0.12123376217E+04  0.17721490093E+04  0.10100000352E+00 0.  1.
       -3    1    3    3    0  502 -0.12614092572E+04 -0.28212812309E+03 -0.11531205310E+04  0.17321768274E+04  0.10100000352E+00 0. -1.
</event>
<event>
 5   0  0.1072381E-07  0.3513444E+04  0.7818609E-02  0.8110611E-01
       -1   -1    0    0    0  501  0.00000000000E+00  0.00000000000E+00  0.12646951347E+04  0.12646951347E+04  0.50400001928E-02 0. -1.
        1   -1    0    0  501    0  0.00000000000E+00  0.00000000000E+00 -0.24401710036E+04  0.24401710036E+04  0.50400001928E-02 0.  1.
    10030    2    1    2    0    0  0.00000000000E+00  0.00000000000E+00 -0.11754758689E+04  0.37048661383E+04  0.35134441200E+04 0.  0.
        1    1    3    3  502    0  0.15618116120E+03 -0.71861370161E+03  0.10945748955E+04  0.13186706978E+04  0.50400001928E-02 0. -1.
       -1    1    3    3    0  502 -0.15618116120E+03  0.71861370161E+03 -0.22700507644E+04  0.23861954405E+04  0.50400001928E-02 0.  1.
</event>
<event>
 5   0  0.3190185E-07  0.3502596E+04  0.7818609E-02  0.8113175E-01
       -2   -1    0    0    0  501  0.00000000000E+00  0.00000000000E+00  0.15076808252E+04  0.15076808252E+04  0.25500000920E-02 0.  1.
        2   -1    0    0  501    0  0.00000000000E+00  0.00000000000E+00 -0.20342799008E+04  0.20342799008E+04  0.25500000920E-02 0. -1.
    10030    2    1    2    0    0  0.00000000000E+00  0.00000000000E+00 -0.52659907551E+03  0.35419607260E+04  0.35025960655E+04 0.  0.
        1    1    3    3  502    0 -0.19343509687E+03 -0.17054843897E+04  0.88388669519E+02  0.17186933110E+04  0.50400001928E-02 0.  1.
       -1    1    3    3    0  502  0.19343509687E+03  0.17054843897E+04 -0.61498774503E+03  0.18232674150E+04  0.50400001928E-02 0. -1.
</event>
<event>
 5   0  0.3219205E-07  0.3509424E+04  0.7818609E-02  0.8111560E-01
       -2   -1    0    0    0  501  0.00000000000E+00  0.00000000000E+00  0.14279713065E+04  0.14279713065E+04  0.25500000920E-02 0. -1.
        2   -1    0    0  501    0  0.00000000000E+00  0.00000000000E+00 -0.21562155024E+04  0.21562155024E+04  0.25500000920E-02 0.  1.
    10030    2    1    2    0    0  0.00000000000E+00  0.00000000000E+00 -0.72824419590E+03  0.35841868089E+04  0.35094238092E+04 0.  0.
        2    1    3    3  502    0 -0.12562098846E+03  0.16957448864E+04  0.78330476785E+02  0.17021947645E+04  0.25500000920E-02 0.  1.
       -2    1    3    3    0  502  0.12562098846E+03 -0.16957448864E+04 -0.80657467268E+03  0.18819920444E+04  0.25500000920E-02 0. -1.
</event>
<event>
 5   0  0.1013863E-07  0.3516116E+04  0.7818609E-02  0.8109981E-01
        1   -1    0    0  501    0  0.00000000000E+00  0.00000000000E+00  0.22102086039E+04  0.22102086039E+04  0.50400001928E-02 0.  1.
       -1   -1    0    0    0  501  0.00000000000E+00  0.00000000000E+00 -0.13984052761E+04  0.13984052761E+04  0.50400001928E-02 0. -1.
    10030    2    1    2    0    0  0.00000000000E+00  0.00000000000E+00  0.81180332783E+03  0.36086138800E+04  0.35161156824E+04 0.  0.
        5    1    3    3  502    0 -0.13889525946E+04 -0.34217897808E+03  0.14547800724E+04  0.20402654024E+04  0.46999998093E+01 0.  1.
       -5    1    3    3    0  502  0.13889525946E+04  0.34217897808E+03 -0.64297674459E+03  0.15683484776E+04  0.46999998093E+01 0. -1.
</event>
<event>
 5   0  0.1033796E-07  0.3502707E+04  0.7818609E-02  0.8113149E-01
        1   -1    0    0  501    0  0.00000000000E+00  0.00000000000E+00  0.20683888066E+04  0.20683888066E+04  0.50400001928E-02 0.  1.
       -1   -1    0    0    0  501  0.00000000000E+00  0.00000000000E+00 -0.14829119082E+04  0.14829119082E+04  0.50400001928E-02 0. -1.
    10030    2    1    2    0    0  0.00000000000E+00  0.00000000000E+00  0.58547689843E+03  0.35513007148E+04  0.35027066061E+04 0.  0.
        3    1    3    3  502    0  0.14116565227E+04 -0.89590332725E+03  0.82133651205E+03  0.18627964425E+04  0.10100000352E+00 0.  1.
       -3    1    3    3    0  502 -0.14116565227E+04  0.89590332725E+03 -0.23585961363E+03  0.16885042723E+04  0.10100000352E+00 0. -1.
</event>
<event>
 5   0  0.3190185E-07  0.3478350E+04  0.7818609E-02  0.8118940E-01
        2   -1    0    0  501    0  0.00000000000E+00  0.00000000000E+00  0.22818079951E+04  0.22818079952E+04  0.25500000920E-02 0.  1.
       -2   -1    0    0    0  501  0.00000000000E+00  0.00000000000E+00 -0.13255846668E+04  0.13255846668E+04  0.25500000920E-02 0. -1.
    10030    2    1    2    0    0  0.00000000000E+00  0.00000000000E+00  0.95622332836E+03  0.36073926619E+04  0.34783500059E+04 0.  0.
        1    1    3    3  502    0 -0.15877609641E+04 -0.67334181458E+03  0.71083722097E+03  0.18653856527E+04  0.50400001928E-02 0. -1.
       -1    1    3    3    0  502  0.15877609641E+04  0.67334181458E+03  0.24538610739E+03  0.17420070092E+04  0.50400001928E-02 0.  1.
</event>
<event>
 5   0  0.3190112E-07  0.3504166E+04  0.7818609E-02  0.8112803E-01
        2   -1    0    0  501    0  0.00000000000E+00  0.00000000000E+00  0.10090220867E+04  0.10090220867E+04  0.25500000920E-02 0.  1.
       -2   -1    0    0    0  501  0.00000000000E+00  0.00000000000E+00 -0.30423458519E+04  0.30423458519E+04  0.25500000920E-02 0. -1.
    10030    2    1    2    0    0  0.00000000000E+00  0.00000000000E+00 -0.20333237652E+04  0.40513679386E+04  0.35041656125E+04 0.  0.
        5    1    3    3  502    0  0.91003363668E+03  0.13059117627E+04 -0.18632703777E+04  0.24505846940E+04  0.46999998093E+01 0. -1.
       -5    1    3    3    0  502 -0.91003363668E+03 -0.13059117627E+04 -0.17005338754E+03  0.16007832447E+04  0.46999998093E+01 0.  1.
</event>
<event>
 5   0  0.1013863E-07  0.3530299E+04  0.7818609E-02  0.8106647E-01
        1   -1    0    0  501    0  0.00000000000E+00  0.00000000000E+00  0.20758967637E+04  0.20758967637E+04  0.50400001928E-02 0.  1.
       -1   -1    0    0    0  501  0.00000000000E+00  0.00000000000E+00 -0.15009190046E+04  0.15009190046E+04  0.50400001928E-02 0. -1.
    10030    2    1    2    0    0  0.00000000000E+00  0.00000000000E+00  0.57497775906E+03  0.35768157683E+04  0.35302990832E+04 0.  0.
        5    1    3    3  502    0  0.21214579153E+03 -0.41399999377E+03 -0.14376887579E+04  0.15110833485E+04  0.46999998093E+01 0. -1.
       -5    1    3    3    0  502 -0.21214579153E+03  0.41399999377E+03  0.20126665169E+04  0.20657324198E+04  0.46999998093E+01 0.  1.
</event>
<event>
 5   0  0.2180451E-07  0.3495146E+04  0.7818609E-02  0.8114941E-01
       -2   -1    0    0    0  501  0.00000000000E+00  0.00000000000E+00  0.12199819120E+04  0.12199819120E+04  0.25500000920E-02 0.  1.
        2   -1    0    0  501    0  0.00000000000E+00  0.00000000000E+00 -0.25033245363E+04  0.25033245363E+04  0.25500000920E-02 0. -1.
    10030    2    1    2    0    0  0.00000000000E+00  0.00000000000E+00 -0.12833426242E+04  0.37233064483E+04  0.34951455788E+04 0.  0.
        4    1    3    3  502    0 -0.70744999540E+03  0.69452795995E+03  0.89142612247E+03  0.13332279354E+04  0.12699999809E+01 0.  1.
       -4    1    3    3    0  502  0.70744999540E+03 -0.69452795995E+03 -0.21747687467E+04  0.23900785129E+04  0.12699999809E+01 0. -1.
</event>
<event>
 5   0  0.1098171E-07  0.3494555E+04  0.7818609E-02  0.8115081E-01
        1   -1    0    0  501    0  0.00000000000E+00  0.00000000000E+00  0.16892774172E+04  0.16892774172E+04  0.50400001928E-02 0. -1.
       -1   -1    0    0    0  501  0.00000000000E+00  0.00000000000E+00 -0.18072694615E+04  0.18072694615E+04  0.50400001928E-02 0.  1.
    10030    2    1    2    0    0  0.00000000000E+00  0.00000000000E+00 -0.11799204435E+03  0.34965468787E+04  0.34945554728E+04 0.  0.
        4    1    3    3  502    0  0.42378234439E+03  0.78627125823E+03  0.14435800638E+04  0.16975685496E+04  0.12699999809E+01 0. -1.
       -4    1    3    3    0  502 -0.42378234439E+03 -0.78627125823E+03 -0.15615721082E+04  0.17989783292E+04  0.12699999809E+01 0.  1.
</event>
<event>
 5   0  0.3190185E-07  0.3509782E+04  0.7818609E-02  0.8111476E-01
       -2   -1    0    0    0  501  0.00000000000E+00  0.00000000000E+00  0.13999832864E+04  0.13999832864E+04  0.25500000920E-02 0. -1.
        2   -1    0    0  501    0  0.00000000000E+00  0.00000000000E+00 -0.21997713314E+04  0.21997713314E+04  0.25500000920E-02 0.  1.
    10030    2    1    2    0    0  0.00000000000E+00  0.00000000000E+00 -0.79978804499E+03  0.35997546177E+04  0.35097823851E+04 0.  0.
        1    1    3    3  502    0 -0.44453824299E+03 -0.89774035450E+03 -0.18776948699E+04  0.21282128695E+04  0.50400001928E-02 0.  1.
       -1    1    3    3    0  502  0.44453824299E+03  0.89774035450E+03  0.10779068249E+04  0.14715417482E+04  0.50400001928E-02 0. -1.
</event>
<event>
 5   0  0.2180451E-07  0.3498863E+04  0.7818609E-02  0.8114059E-01
       -2   -1    0    0    0  501  0.00000000000E+00  0.00000000000E+00  0.97017861358E+03  0.97017861358E+03  0.25500000920E-02 0.  1.
        2   -1    0    0  501    0  0.00000000000E+00  0.00000000000E+00 -0.31545844136E+04  0.31545844136E+04  0.25500000920E-02 0. -1.
    10030    2    1    2    0    0  0.00000000000E+00  0.00000000000E+00 -0.21844058000E+04  0.41247630272E+04  0.34988628626E+04 0.  0.
        4    1    3    3  502    0  0.97990127706E+03  0.83602329988E+03 -0.24877614567E+04  0.28014460818E+04  0.12699999809E+01 0. -1.
       -4    1    3    3    0  502 -0.97990127706E+03 -0.83602329988E+03  0.30335565666E+03  0.13233169454E+04  0.12699999809E+01 0.  1.
</event>
<event>
 5   0  0.3219205E-07  0.3506354E+04  0.7818609E-02  0.8112286E-01
       -2   -1    0    0    0  501  0.00000000000E+00  0.00000000000E+00  0.26312120876E+04  0.26312120876E+04  0.25500000920E-02 0.  1.
        2   -1    0    0  501    0  0.00000000000E+00  0.00000000000E+00 -0.11681423935E+04  0.11681423935E+04  0.25500000920E-02 0. -1.
    10030    2    1    2    0    0  0.00000000000E+00  0.00000000000E+00  0.14630696940E+04  0.37993544811E+04  0.35063544521E+04 0.  0.
        2    1    3    3  502    0 -0.12717485390E+04 -0.10967940681E+04  0.18615850821E+03  0.16896616716E+04  0.25500000920E-02 0. -1.
       -2    1    3    3    0  502  0.12717485390E+04  0.10967940681E+04  0.12769111858E+04  0.21096928096E+04  0.25500000920E-02 0.  1.
</event>
<event>
 5   0  0.3219205E-07  0.3509170E+04  0.7818609E-02  0.8111620E-01
        2   -1    0    0  501    0  0.00000000000E+00  0.00000000000E+00  0.11059693271E+04  0.11059693271E+04  0.25500000920E-02 0. -1.
       -2   -1    0    0    0  501  0.00000000000E+00  0.00000000000E+00 -0.27835930888E+04  0.27835930888E+04  0.25500000920E-02 0.  1.
    10030    2    1    2    0    0  0.00000000000E+00  0.00000000000E+00 -0.16776237617E+04  0.38895624159E+04  0.35091700303E+04 0.  0.
        2    1    3    3  502    0 -0.15594266438E+04 -0.24649440442E+03 -0.16872970624E+04  0.23107449720E+04  0.25500000920E-02 0.  1.
       -2    1    3    3    0  502  0.15594266438E+04  0.24649440442E+03  0.96733007009E+01  0.15788174440E+04  0.25500000920E-02 0. -1.
</event>
<event>
 5   0  0.3190185E-07  0.3493176E+04  0.7818609E-02  0.8115409E-01
       -2   -1    0    0    0  501  0.00000000000E+00  0.00000000000E+00  0.24523410906E+04  0.24523410906E+04  0.25500000920E-02 0.  1.
        2   -1    0    0  501    0  0.00000000000E+00  0.00000000000E+00 -0.12439416631E+04  0.12439416631E+04  0.25500000920E-02 0. -1.
    10030    2    1    2    0    0  0.00000000000E+00  0.00000000000E+00  0.12083994275E+04  0.36962827537E+04  0.34931757784E+04 0.  0.
        1    1    3    3  502    0 -0.42548524452E+03  0.13376368924E+04  0.17039870476E+04  0.22076870266E+04  0.50400001928E-02 0.  1.
       -1    1    3    3    0  502  0.42548524452E+03 -0.13376368924E+04 -0.49558762004E+03  0.14885957270E+04  0.50400001928E-02 0. -1.
</event>
<event>
 5   0  0.1013863E-07  0.3489028E+04  0.7818609E-02  0.8116395E-01
        1   -1    0    0  501    0  0.00000000000E+00  0.00000000000E+00  0.22918463252E+04  0.22918463252E+04  0.50400001928E-02 0. -1.
       -1   -1    0    0    0  501  0.00000000000E+00  0.00000000000E+00 -0.13278943843E+04  0.13278943843E+04  0.50400001928E-02 0.  1.
    10030    2    1    2    0    0  0.00000000000E+00  0.00000000000E+00  0.96395194093E+03  0.36197407095E+04  0.34890284407E+04 0.  0.
        5    1    3    3  502    0  0.16220807686E+04  0.24779821031E+03 -0.13245998602E+03  0.16462435151E+04  0.46999998093E+01 0.  1.
       -5    1    3    3    0  502 -0.16220807686E+04 -0.24779821031E+03  0.10964119269E+04  0.19734971945E+04  0.46999998093E+01 0. -1.
</event>
<event>
 5   0  0.1072381E-07  0.3514033E+04  0.7818609E-02  0.8110472E-01
        1   -1    0    0  501    0  0.00000000000E+00  0.00000000000E+00  0.20152804616E+04  0.20152804616E+04  0.50400001928E-02 0.  1.
       -1   -1    0    0    0  501  0.00000000000E+00  0.00000000000E+00 -0.15318501050E+04  0.15318501050E+04  0.50400001928E-02 0. -1.
    10030    2    1    2    0    0  0.00000000000E+00  0.00000000000E+00  0.48343035659E+03  0.35471305666E+04  0.35140333446E+04 0.  0.
        1    1    3    3  502    0  0.12152213718E+04  0.11060923610E+04  0.86959000438E+03  0.18591369152E+04  0.50400001928E-02 0.  1.
       -1    1    3    3    0  502 -0.12152213718E+04 -0.11060923610E+04 -0.38615964779E+03  0.16879936514E+04  0.50400001928E-02 0. -1.
</event>
<event>
 5   0  0.3190185E-07  0.3497984E+04  0.7818609E-02  0.8114268E-01
       -2   -1    0    0    0  501  0.00000000000E+00  0.00000000000E+00  0.34217407693E+04  0.34217407693E+04  0.25500000920E-02 0. -1.
        2   -1    0    0  501    0  0.00000000000E+00  0.00000000000E+00 -0.89398146554E+03  0.89398146554E+03  0.25500000920E-02 0.  1.
    10030    2    1    2    0    0  0.00000000000E+00  0.00000000000E+00  0.25277593038E+04  0.43157222349E+04  0.34979838923E+04 0.  0.
        1    1    3    3  502    0  0.55733185834E+03  0.30564691785E+03  0.32741873867E+04  0.33353173585E+04  0.50400001928E-02 0. -1.
       -1    1    3    3    0  502 -0.55733185834E+03 -0.30564691785E+03 -0.74642808288E+03  0.98040487639E+03  0.50400001928E-02 0.  1.
</event>
<event>
 5   0  0.1013863E-07  0.3423853E+04  0.7818609E-02  0.8132077E-01
       -1   -1    0    0    0  501  0.00000000000E+00  0.00000000000E+00  0.11156655335E+04  0.11156655335E+04  0.50400001928E-02 0.  1.
        1   -1    0    0  501    0  0.00000000000E+00  0.00000000000E+00 -0.26268550911E+04  0.26268550911E+04  0.50400001928E-02 0. -1.
    10030    2    1    2    0    0  0.00000000000E+00  0.00000000000E+00 -0.15111895576E+04  0.37425206246E+04  0.34238526175E+04 0.  0.
        2    1    3    3  502    0  0.15624643768E+04 -0.45116703667E+03 -0.13400005394E+04  0.21072370700E+04  0.25500000920E-02 0. -1.
       -2    1    3    3    0  502 -0.15624643768E+04  0.45116703667E+03 -0.17118901819E+03  0.16352835545E+04  0.25500000920E-02 0.  1.
</event>
<event>
 5   0  0.1033796E-07  0.3531462E+04  0.7818609E-02  0.8106374E-01
        1   -1    0    0  501    0  0.00000000000E+00  0.00000000000E+00  0.21057414800E+04  0.21057414800E+04  0.50400001928E-02 0. -1.
       -1   -1    0    0    0  501  0.00000000000E+00  0.00000000000E+00 -0.14806211128E+04  0.14806211128E+04  0.50400001928E-02 0.  1.
    10030    2    1    2    0    0  0.00000000000E+00  0.00000000000E+00  0.62512036721E+03  0.35863625929E+04  0.35314616201E+04 0.  0.
        3    1    3    3  502    0  0.14320752619E+04 -0.91416012171E+03  0.80094924400E+03  0.18783098747E+04  0.10100000352E+00 0. -1.
       -3    1    3    3    0  502 -0.14320752619E+04  0.91416012171E+03 -0.17582887679E+03  0.17080527181E+04  0.10100000352E+00 0.  1.
</event>
<event>
 5   0  0.1098171E-07  0.3500357E+04  0.7818609E-02  0.8113705E-01
        1   -1    0    0  501    0  0.00000000000E+00  0.00000000000E+00  0.21345945895E+04  0.21345945896E+04  0.50400001928E-02 0. -1.
       -1   -1    0    0    0  501  0.00000000000E+00  0.00000000000E+00 -0.14349911287E+04  0.14349911287E+04  0.50400001928E-02 0.  1.
    10030    2    1    2    0    0  0.00000000000E+00  0.00000000000E+00  0.69960346081E+03  0.35695857183E+04  0.35003567244E+04 0.  0.
        4    1    3    3  502    0  0.87835972175E+03  0.13963777486E+04 -0.24634191529E+03  0.16679546066E+04  0.12699999809E+01 0.  1.
       -4    1    3    3    0  502 -0.87835972175E+03 -0.13963777486E+04  0.94594537610E+03  0.19016311117E+04  0.12699999809E+01 0. -1.
</event>
<event>
 5   0  0.2180451E-07  0.3500909E+04  0.7818609E-02  0.8113575E-01
        2   -1    0    0  501    0  0.00000000000E+00  0.00000000000E+00  0.23013528027E+04  0.23013528027E+04  0.25500000920E-02 0.  1.
       -2   -1    0    0    0  501  0.00000000000E+00  0.00000000000E+00 -0.13314302576E+04  0.13314302576E+04  0.25500000920E-02 0. -1.
    10030    2    1    2    0    0  0.00000000000E+00  0.00000000000E+00  0.96992254510E+03  0.36327830603E+04  0.35009088848E+04 0.  0.
        4    1    3    3  502    0 -0.77327901527E+03 -0.15512786233E+04  0.73842302592E+03  0.18840636881E+04  0.12699999809E+01 0.  1.
       -4    1    3    3    0  502  0.77327901527E+03  0.15512786233E+04  0.23149951918E+03  0.17487193722E+04  0.12699999809E+01 0. -1.
</event>
<event>
 5   0  0.1013863E-07  0.3522298E+04  0.7818609E-02  0.8108526E-01
        1   -1    0    0  501    0  0.00000000000E+00  0.00000000000E+00  0.26056669157E+04  0.26056669157E+04  0.50400001928E-02 0.  1.
       -1   -1    0    0    0  501  0.00000000000E+00  0.00000000000E+00 -0.11903460875E+04  0.11903460875E+04  0.50400001928E-02 0. -1.
    10030    2    1    2    0    0  0.00000000000E+00  0.00000000000E+00  0.14153208282E+04  0.37960130032E+04  0.35222977832E+04 0.  0.
        2    1    3    3  502    0 -0.41631677119E+03  0.67681058324E+02 -0.11351105938E+04  0.12109403122E+04  0.25500000920E-02 0. -1.
       -2    1    3    3    0  502  0.41631677119E+03 -0.67681058324E+02  0.25504314220E+04  0.25850726910E+04  0.25500000920E-02 0.  1.
</event>
<event>
 5   0  0.1033796E-07  0.3498712E+04  0.7818609E-02  0.8114095E-01
        1   -1    0    0  501    0  0.00000000000E+00  0.00000000000E+00  0.24630221148E+04  0.24630221148E+04  0.50400001928E-02 0. -1.
       -1   -1    0    0    0  501  0.00000000000E+00  0.00000000000E+00 -0.12424763394E+04  0.12424763394E+04  0.50400001928E-02 0.  1.
    10030    2    1    2    0    0  0.00000000000E+00  0.00000000000E+00  0.12205457755E+04  0.37054984542E+04  0.34987121637E+04 0.  0.
        3    1    3    3  502    0 -0.46187044615E+03  0.38310023798E+03  0.23506080583E+04  0.24259943024E+04  0.10100000352E+00 0. -1.
       -3    1    3    3    0  502  0.46187044615E+03 -0.38310023798E+03 -0.11300622828E+04  0.12795041518E+04  0.10100000352E+00 0.  1.
</event>
<event>
 5   0  0.1013863E-07  0.3488172E+04  0.7818609E-02  0.8116599E-01
        1   -1    0    0  501    0  0.00000000000E+00  0.00000000000E+00  0.13686811760E+04  0.13686811761E+04  0.50400001928E-02 0.  1.
       -1   -1    0    0    0  501  0.00000000000E+00  0.00000000000E+00 -0.22224572142E+04  0.22224572142E+04  0.50400001928E-02 0. -1.
    10030    2    1    2    0    0  0.00000000000E+00  0.00000000000E+00 -0.85377603816E+03  0.35911383903E+04  0.34881716435E+04 0.  0.
        5    1    3    3  502    0 -0.52444973893E+03  0.69787362739E+03 -0.19813380881E+04  0.21651322911E+04  0.46999998093E+01 0. -1.
       -5    1    3    3    0  502  0.52444973893E+03 -0.69787362739E+03  0.11275620499E+04  0.14260060992E+04  0.46999998093E+01 0.  1.
</event>
<event>
 5   0  0.3190185E-07  0.3500506E+04  0.7818609E-02  0.8113670E-01
        2   -1    0    0  501    0  0.00000000000E+00  0.00000000000E+00  0.16492671588E+04  0.16492671588E+04  0.25500000920E-02 0. -1.
       -2   -1    0    0    0  501  0.00000000000E+00  0.00000000000E+00 -0.18574224347E+04  0.18574224347E+04  0.25500000920E-02 0.  1.
    10030    2    1    2    0    0  0.00000000000E+00  0.00000000000E+00 -0.20815527592E+03  0.35066895936E+04  0.35005061472E+04 0.  0.
        1    1    3    3  502    0  0.13237113881E+04 -0.11372323516E+04  0.29861798846E+02  0.17453942213E+04  0.50400001928E-02 0. -1.
       -1    1    3    3    0  502 -0.13237113881E+04  0.11372323516E+04 -0.23801707477E+03  0.17612953723E+04  0.50400001928E-02 0.  1.
</event>
<event>
 5   0  0.1013863E-07  0.3535791E+04  0.7818609E-02  0.8105360E-01
        1   -1    0    0  501    0  0.00000000000E+00  0.00000000000E+00  0.10814667294E+04  0.10814667295E+04  0.50400001928E-02 0. -1.
       -1   -1    0    0    0  501  0.00000000000E+00  0.00000000000E+00 -0.28900138824E+04  0.28900138824E+04  0.50400001928E-02 0.  1.
    10030    2    1    2    0    0  0.00000000000E+00  0.00000000000E+00 -0.18085471530E+04  0.39714806119E+04  0.35357906395E+04 0.  0.
        5    1    3    3  502    0  0.14796303554E+04 -0.87619015176E+03 -0.44331876356E+03  0.17758290421E+04  0.46999998093E+01 0.  1.
       -5    1    3    3    0  502 -0.14796303554E+04  0.87619015176E+03 -0.13652283894E+04  0.21956515698E+04  0.46999998093E+01 0. -1.
</event>
<event>
 5   0  0.1033796E-07  0.3495811E+04  0.7818609E-02  0.8114783E-01
        1   -1    0    0  501    0  0.00000000000E+00  0.00000000000E+00  0.23424349237E+04  0.23424349237E+04  0.50400001928E-02 0.  1.
       -1   -1    0    0    0  501  0.00000000000E+00  0.00000000000E+00 -0.13042725097E+04  0.13042725097E+04  0.50400001928E-02 0. -1.
    10030    2    1    2    0    0  0.00000000000E+00  0.00000000000E+00  0.10381624141E+04  0.36467074334E+04  0.34958109083E+04 0.  0.
        3    1    3    3  502    0 -0.45287850988E+03 -0.12656735699E+04  0.16845093429E+04  0.21551334685E+04  0.10100000352E+00 0.  1.
       -3    1    3    3    0  502  0.45287850988E+03  0.12656735699E+04 -0.64634692884E+03  0.14915739649E+04  0.10100000352E+00 0. -1.
</event>
<event>
 5   0  0.3219205E-07  0.3494933E+04  0.7818609E-02  0.8114992E-01
       -2   -1    0    0    0  501  0.00000000000E+00  0.00000000000E+00  0.19320525707E+04  0.19320525707E+04  0.25500000920E-02 0. -1.
        2   -1    0    0  501    0  0.00000000000E+00  0.00000000000E+00 -0.15805156990E+04  0.15805156990E+04  0.25500000920E-02 0.  1.
    10030    2    1    2    0    0  0.00000000000E+00  0.00000000000E+00  0.35153687165E+03  0.35125682697E+04  0.34949331435E+04 0.  0.
        2    1    3    3  502    0 -0.16442192857E+04  0.25161702894E+03 -0.36253778640E+03  0.17024105954E+04  0.25500000920E-02 0. -1.
       -2    1    3    3    0  502  0.16442192857E+04 -0.25161702894E+03  0.71407465804E+03  0.18101576743E+04  0.25500000920E-02 0.  1.
</event>
<event>
 5   0  0.1013863E-07  0.3499958E+04  0.7818609E-02  0.8113800E-01
       -1   -1    0    0    0  501  0.00000000000E+00  0.00000000000E+00  0.11008210540E+04  0.11008210540E+04  0.50400001928E-02 0. -1.
        1   -1    0    0  501    0  0.00000000000E+00  0.00000000000E+00 -0.27819468789E+04  0.27819468789E+04  0.50400001928E-02 0.  1.
    10030    2    1    2    0    0  0.00000000000E+00  0.00000000000E+00 -0.16811258250E+04  0.38827679329E+04  0.34999575400E+04 0.  0.
        2    1    3    3  502    0 -0.13087277982E+04  0.92540817716E+03 -0.16197182858E+04  0.22787356296E+04  0.25500000920E-02 0.  1.
       -2    1    3    3    0  502  0.13087277982E+04 -0.92540817716E+03 -0.61407539156E+02  0.16040323033E+04  0.25500000920E-02 0. -1.
</event>
<event>
 5   0  0.3190112E-07  0.3505039E+04  0.7818609E-02  0.8112597E-01
       -2   -1    0    0    0  501  0.00000000000E+00  0.00000000000E+00  0.20781151907E+04  0.20781151907E+04  0.25500000920E-02 0. -1.
        2   -1    0    0  501    0  0.00000000000E+00  0.00000000000E+00 -0.14779374073E+04  0.14779374073E+04  0.25500000920E-02 0.  1.
    10030    2    1    2    0    0  0.00000000000E+00  0.00000000000E+00  0.60017778345E+03  0.35560525980E+04  0.35050387599E+04 0.  0.
        5    1    3    3  502    0  0.92255550949E+03 -0.13921627894E+04 -0.23874953962E+03  0.16870830842E+04  0.46999998093E+01 0.  1.
       -5    1    3    3    0  502 -0.92255550949E+03  0.13921627894E+04  0.83892732306E+03  0.18689695138E+04  0.46999998093E+01 0. -1.
</event>
<event>
 5   0  0.2180451E-07  0.3559582E+04  0.7818609E-02  0.8099813E-01
       -2   -1    0    0    0  501  0.00000000000E+00  0.00000000000E+00  0.10776856884E+04  0.10776856884E+04  0.25500000920E-02 0.  1.
        2   -1    0    0  501    0  0.00000000000E+00  0.00000000000E+00 -0.29393126772E+04  0.29393126772E+04  0.25500000920E-02 0. -1.
    10030    2    1    2    0    0  0.00000000000E+00  0.00000000000E+00 -0.18616269888E+04  0.40169983656E+04  0.35595815518E+04 0.  0.
        4    1    3    3  502    0  0.12620166581E+04 -0.12037678401E+04 -0.13312500730E+04  0.21940764408E+04  0.12699999809E+01 0. -1.
       -4    1    3    3    0  502 -0.12620166581E+04  0.12037678401E+04 -0.53037691575E+03  0.18229219248E+04  0.12699999809E+01 0.  1.
</event>
<event>
 5   0  0.2180451E-07  0.3505189E+04  0.7818609E-02  0.8112561E-01
        2   -1    0    0  501    0  0.00000000000E+00  0.00000000000E+00  0.20740183151E+04  0.20740183151E+04  0.25500000920E-02 0. -1.
       -2   -1    0    0    0  501  0.00000000000E+00  0.00000000000E+00 -0.14809840862E+04  0.14809840862E+04  0.25500000920E-02 0.  1.
    10030    2    1    2    0    0  0.00000000000E+00  0.00000000000E+00  0.59303422892E+03  0.35550024012E+04  0.35051893638E+04 0.  0.
        4    1    3    3  502    0 -0.66950799932E+03 -0.33509165273E+02  0.19388575966E+04  0.20514712326E+04  0.12699999809E+01 0. -1.
       -4    1    3    3    0  502  0.66950799932E+03  0.33509165273E+02 -0.13458233677E+04  0.15035311687E+04  0.12699999809E+01 0.  1.
</event>
<event>
 5   0  0.1013863E-07  0.3534946E+04  0.7818609E-02  0.8105558E-01
       -1   -1    0    0    0  501  0.00000000000E+00  0.00000000000E+00  0.11382261929E+04  0.11382261929E+04  0.50400001928E-02 0. -1.
        1   -1    0    0  501    0  0.00000000000E+00  0.00000000000E+00 -0.27445876769E+04  0.27445876769E+04  0.50400001928E-02 0.  1.
    10030    2    1    2    0    0  0.00000000000E+00  0.00000000000E+00 -0.16063614840E+04  0.38828138698E+04  0.35349464395E+04 0.  0.
        5    1    3    3  502    0 -0.89098641181E+03  0.15251399048E+04 -0.87291864849E+03  0.19702582501E+04  0.46999998093E+01 0. -1.
       -5    1    3    3    0  502  0.89098641181E+03 -0.15251399048E+04 -0.73344283554E+03  0.19125556197E+04  0.46999998093E+01 0.  1.
</event>
<event>
 5   0  0.1013863E-07  0.3490442E+04  0.7818609E-02  0.8116059E-01
       -1   -1    0    0    0  501  0.00000000000E+00  0.00000000000E+00  0.14775419953E+04  0.14775419953E+04  0.50400001928E-02 0. -1.
        1   -1    0    0  501    0  0.00000000000E+00  0.00000000000E+00 -0.20613935607E+04  0.20613935607E+04  0.50400001928E-02 0.  1.
    10030    2    1    2    0    0  0.00000000000E+00  0.00000000000E+00 -0.58385156538E+03  0.35389355560E+04  0.34904415508E+04 0.  0.
        5    1    3    3  502    0 -0.20867546361E+03 -0.16310766420E+03 -0.20408915289E+04  0.20580111472E+04  0.46999998093E+01 0.  1.
       -5    1    3    3    0  502  0.20867546361E+03  0.16310766420E+03  0.14570399635E+04  0.14809244088E+04  0.46999998093E+01 0. -1.
</event>
<event>
 5   0  0.1013863E-07  0.3503359E+04  0.7818609E-02  0.8112994E-01
       -1   -1    0    0    0  501  0.00000000000E+00  0.00000000000E+00  0.18613870596E+04  0.18613870596E+04  0.50400001928E-02 0.  1.
        1   -1    0    0  501    0  0.00000000000E+00  0.00000000000E+00 -0.16484380831E+04  0.16484380831E+04  0.50400001928E-02 0. -1.
    10030    2    1    2    0    0  0.00000000000E+00  0.00000000000E+00  0.21294897657E+03  0.35098251427E+04  0.35033591403E+04 0.  0.
        5    1    3    3  502    0  0.11295028870E+04 -0.95443947012E+02  0.14444066034E+04  0.18360879186E+04  0.46999998093E+01 0.  1.
       -5    1    3    3    0  502 -0.11295028870E+04  0.95443947012E+02 -0.12314576268E+04  0.16737372241E+04  0.46999998093E+01 0. -1.
</event>
<event>
 5   0  0.2180451E-07  0.3521179E+04  0.7818609E-02  0.8108789E-01
        2   -1    0    0  501    0  0.00000000000E+00  0.00000000000E+00  0.13896015814E+04  0.13896015814E+04  0.25500000920E-02 0. -1.
       -2   -1    0    0    0  501  0.00000000000E+00  0.00000000000E+00 -0.22306210604E+04  0.22306210604E+04  0.25500000920E-02 0.  1.
    10030    2    1    2    0    0  0.00000000000E+00  0.00000000000E+00 -0.84101947896E+03  0.36202226419E+04  0.35211785261E+04 0.  0.
        4    1    3    3  502    0 -0.72575599416E+03 -0.88616852942E+02 -0.20671519200E+04  0.21926452935E+04  0.12699999809E+01 0.  1.
       -4    1    3    3    0  502  0.72575599416E+03  0.88616852942E+02  0.12261324411E+04  0.14275773484E+04  0.12699999809E+01 0. -1.
</event>
<event>
 5   0  0.3119048E-07  0.3489052E+04  0.7818609E-02  0.8116389E-01
       -2   -1    0    0    0  501  0.00000000000E+00  0.00000000000E+00  0.16882513902E+04  0.16882513902E+04  0.25500000920E-02 0. -1.
        2   -1    0    0  501    0  0.00000000000E+00  0.00000000000E+00 -0.18026759635E+04  0.18026759635E+04  0.25500000920E-02 0.  1.
    10030    2    1    2    0    0  0.00000000000E+00  0.00000000000E+00 -0.11442457330E+03  0.34909273537E+04  0.34890515625E+04 0.  0.
        3    1    3    3  502    0  0.12856903274E+04  0.70654074741E+03 -0.10017382149E+04  0.17764230654E+04  0.10100000352E+00 0.  1.
       -3    1    3    3    0  502 -0.12856903274E+04 -0.70654074741E+03  0.88731364160E+03  0.17145042883E+04  0.10100000352E+00 0. -1.
</event>
<event>
 5   0  0.1033796E-07  0.3506468E+04  0.7818609E-02  0.8112259E-01
        1   -1    0    0  501    0  0.00000000000E+00  0.00000000000E+00  0.10086872818E+04  0.10086872818E+04  0.50400001928E-02 0. -1.
       -1   -1    0    0    0  501  0.00000000000E+00  0.00000000000E+00 -0.30473569805E+04  0.30473569805E+04  0.50400001928E-02 0.  1.
    10030    2    1    2    0    0  0.00000000000E+00  0.00000000000E+00 -0.20386696987E+04  0.40560442622E+04  0.35064684395E+04 0.  0.
        3    1    3    3  502    0  0.17617897716E+03 -0.48184530333E+02  0.99765202734E+03  0.10142338778E+04  0.10100000352E+00 0. -1.
       -3    1    3    3    0  502 -0.17617897716E+03  0.48184530333E+02 -0.30363217260E+04  0.30418103845E+04  0.10100000352E+00 0.  1.
</event>
<event>
 5   0  0.2180451E-07  0.3511066E+04  0.7818609E-02  0.8111172E-01
        2   -1    0    0  501    0  0.00000000000E+00  0.00000000000E+00  0.30648607375E+04  0.30648607375E+04  0.25500000920E-02 0. -1.
       -2   -1    0    0    0  501  0.00000000000E+00  0.00000000000E+00 -0.10055585302E+04  0.10055585302E+04  0.25500000920E-02 0.  1.
    10030    2    1    2    0    0  0.00000000000E+00  0.00000000000E+00  0.20593022073E+04  0.40704192678E+04  0.35110664241E+04 0.  0.
        4    1    3    3  502    0 -0.96240445908E+03  0.14495835905E+04  0.75930446939E+03  0.18984361508E+04  0.12699999809E+01 0.  1.
       -4    1    3    3    0  502  0.96240445908E+03 -0.14495835905E+04  0.12999977379E+04  0.21719831169E+04  0.12699999809E+01 0. -1.
</event>
<event>
 5   0  0.3190185E-07  0.3503392E+04  0.7818609E-02  0.8112987E-01
        2   -1    0    0  501    0  0.00000000000E+00  0.00000000000E+00  0.20057921239E+04  0.20057921239E+04  0.25500000920E-02 0. -1.
       -2   -1    0    0    0  501  0.00000000000E+00  0.00000000000E+00 -0.15297892561E+04  0.15297892561E+04  0.25500000920E-02 0.  1.
    10030    2    1    2    0    0  0.00000000000E+00  0.00000000000E+00  0.47600286781E+03  0.35355813800E+04  0.35033922082E+04 0.  0.
        1    1    3    3  502    0  0.58394896943E+03 -0.12172706541E+04  0.13643632993E+04  0.19194351921E+04  0.50400001928E-02 0. -1.
       -1    1    3    3    0  502 -0.58394896943E+03  0.12172706541E+04 -0.88836043154E+03  0.16161461879E+04  0.50400001928E-02 0.  1.
</event>
<event>
 5   0  0.1072381E-07  0.3314879E+04  0.7818609E-02  0.8159120E-01
       -1   -1    0    0    0  501  0.00000000000E+00  0.00000000000E+00  0.12050059929E+04  0.12050059929E+04  0.50400001928E-02 0. -1.
        1   -1    0    0  501    0  0.00000000000E+00  0.00000000000E+00 -0.22797450398E+04  0.22797450398E+04  0.50400001928E-02 0.  1.
    10030    2    1    2    0    0  0.00000000000E+00  0.00000000000E+00 -0.10747390468E+04  0.34847510327E+04  0.33148794459E+04 0.  0.
        1    1    3    3  502    0  0.50301579938E+02  0.12715739874E+04  0.57896959460E+03  0.13980831326E+04  0.50400001928E-02 0. -1.
       -1    1    3    3    0  502 -0.50301579938E+02 -0.12715739874E+04 -0.16537086414E+04  0.20866679000E+04  0.50400001928E-02 0.  1.
</event>
<event>
 5   0  0.3119048E-07  0.3486603E+04  0.7818609E-02  0.8116972E-01
       -2   -1    0    0    0  501  0.00000000000E+00  0.00000000000E+00  0.17133803444E+04  0.17133803444E+04  0.25500000920E-02 0.  1.
        2   -1    0    0  501    0  0.00000000000E+00  0.00000000000E+00 -0.17737448258E+04  0.17737448258E+04  0.25500000920E-02 0. -1.
    10030    2    1    2    0    0  0.00000000000E+00  0.00000000000E+00 -0.60364481399E+02  0.34871251702E+04  0.34866026561E+04 0.  0.
        3    1    3    3  502    0 -0.10694395657E+04 -0.38456736989E+03  0.12919487200E+04  0.17206756092E+04  0.10100000352E+00 0.  1.
       -3    1    3    3    0  502  0.10694395657E+04  0.38456736989E+03 -0.13523132014E+04  0.17664495610E+04  0.10100000352E+00 0. -1.
</event>
<event>
 5   0  0.1033796E-07  0.3517400E+04  0.7818609E-02  0.8109679E-01
       -1   -1    0    0    0  501  0.00000000000E+00  0.00000000000E+00  0.32167830057E+04  0.32167830057E+04  0.50400001928E-02 0.  1.
        1   -1    0    0  501    0  0.00000000000E+00  0.00000000000E+00 -0.96152754802E+03  0.96152754803E+03  0.50400001928E-02 0. -1.
    10030    2    1    2    0    0  0.00000000000E+00  0.00000000000E+00  0.22552554577E+04  0.41783105537E+04  0.35173998783E+04 0.  0.
        3    1    3    3  502    0  0.23698930469E+03  0.15869969888E+04  0.19828331649E+04  0.25507549360E+04  0.10100000352E+00 0. -1.
       -3    1    3    3    0  502 -0.23698930469E+03 -0.15869969888E+04  0.27242229273E+03  0.16275556178E+04  0.10100000352E+00 0.  1.
</event>
<event>
 5   0  0.1013863E-07  0.3492648E+04  0.7818609E-02  0.8115534E-01
       -1   -1    0    0    0  501  0.00000000000E+00  0.00000000000E+00  0.20195254989E+04  0.20195254989E+04  0.50400001928E-02 0. -1.
        1   -1    0    0  501    0  0.00000000000E+00  0.00000000000E+00 -0.15100816370E+04  0.15100816371E+04  0.50400001928E-02 0.  1.
    10030    2    1    2    0    0  0.00000000000E+00  0.00000000000E+00  0.50944386184E+03  0.35296071359E+04  0.34926484916E+04 0.  0.
        5    1    3    3  502    0  0.53021476431E+03  0.49570096663E+03 -0.13504113694E+04  0.15331275554E+04  0.46999998093E+01 0.  1.
       -5    1    3    3    0  502 -0.53021476431E+03 -0.49570096663E+03  0.18598552312E+04  0.19964795806E+04  0.46999998093E+01 0. -1.
</event>
<event>
 5   0  0.1072381E-07  0.3461202E+04  0.7818609E-02  0.8123047E-01
        1   -1    0    0  501    0  0.00000000000E+00  0.00000000000E+00  0.19876614687E+04  0.19876614687E+04  0.50400001928E-02 0. -1.
       -1   -1    0    0    0  501  0.00000000000E+00  0.00000000000E+00 -0.15067852527E+04  0.15067852527E+04  0.50400001928E-02 0.  1.
    10030    2    1    2    0    0  0.00000000000E+00  0.00000000000E+00  0.48087621595E+03  0.34944467214E+04  0.34612015188E+04 0.  0.
        1    1    3    3  502    0 -0.10312424981E+04 -0.45946335846E+02  0.16428107920E+04  0.19402060339E+04  0.50400001928E-02 0. -1.
       -1    1    3    3    0  502  0.10312424981E+04  0.45946335846E+02 -0.11619345760E+04  0.15542406875E+04  0.50400001928E-02 0.  1.
</event>
<event>
 5   0  0.1098171E-07  0.3510509E+04  0.7818609E-02  0.8111304E-01
        1   -1    0    0  501    0  0.00000000000E+00  0.00000000000E+00  0.14277214799E+04  0.14277214799E+04  0.50400001928E-02 0.  1.
       -1   -1    0    0    0  501  0.00000000000E+00  0.00000000000E+00 -0.21579266665E+04  0.21579266665E+04  0.50400001928E-02 0. -1.
    10030    2    1    2    0    0  0.00000000000E+00  0.00000000000E+00 -0.73020518657E+03  0.35856481464E+04  0.35105089397E+04 0.  0.
        4    1    3    3  502    0 -0.16274667732E+04 -0.58377058184E+03 -0.67403376797E+03  0.18557368680E+04  0.12699999809E+01 0. -1.
       -4    1    3    3    0  502  0.16274667732E+04  0.58377058184E+03 -0.56171418602E+02  0.17299112784E+04  0.12699999809E+01 0.  1.
</event>
<event>
 5   0  0.3119048E-07  0.3476196E+04  0.7818609E-02  0.8119454E-01
       -2   -1    0    0    0  501  0.00000000000E+00  0.00000000000E+00  0.15423774248E+04  0.15423774248E+04  0.25500000920E-02 0.  1.
        2   -1    0    0  501    0  0.00000000000E+00  0.00000000000E+00 -0.19586547620E+04  0.19586547620E+04  0.25500000920E-02 0. -1.
    10030    2    1    2    0    0  0.00000000000E+00  0.00000000000E+00 -0.41627733725E+03  0.35010321868E+04  0.34761961324E+04 0.  0.
        3    1    3    3  502    0  0.51578840379E+03  0.14786391191E+04  0.55128680333E+03  0.16602194047E+04  0.10100000352E+00 0.  1.
       -3    1    3    3    0  502 -0.51578840379E+03 -0.14786391191E+04 -0.96756414058E+03  0.18408127820E+04  0.10100000352E+00 0. -1.
</event>
<event>
 5   0  0.1072381E-07  0.3480959E+04  0.7818609E-02  0.8118317E-01
       -1   -1    0    0    0  501  0.00000000000E+00  0.00000000000E+00  0.12036557166E+04  0.12036557166E+04  0.50400001928E-02 0. -1.
        1   -1    0    0  501    0  0.00000000000E+00  0.00000000000E+00 -0.25167233316E+04  0.25167233316E+04  0.50400001928E-02 0.  1.
    10030    2    1    2    0    0  0.00000000000E+00  0.00000000000E+00 -0.13130676149E+04  0.37203790482E+04  0.34809587330E+04 0.  0.
        1    1    3    3  502    0 -0.13876165131E+04  0.98673913958E+03 -0.10420875173E+04  0.19962665430E+04  0.50400001928E-02 0.  1.
       -1    1    3    3    0  502  0.13876165131E+04 -0.98673913958E+03 -0.27098009762E+03  0.17241125052E+04  0.50400001928E-02 0. -1.
</event>
<event>
 5   0  0.1013863E-07  0.3539115E+04  0.7818609E-02  0.8104582E-01
        1   -1    0    0  501    0  0.00000000000E+00  0.00000000000E+00  0.23371523183E+04  0.23371523183E+04  0.50400001928E-02 0. -1.
       -1   -1    0    0    0  501  0.00000000000E+00  0.00000000000E+00 -0.13398075556E+04  0.13398075556E+04  0.50400001928E-02 0.  1.
    10030    2    1    2    0    0  0.00000000000E+00  0.00000000000E+00  0.99734476267E+03  0.36769598739E+04  0.35391153327E+04 0.  0.
        2    1    3    3  502    0  0.12670265206E+04 -0.26601854989E+03 -0.75463427888E+03  0.14985309365E+04  0.25500000920E-02 0.  1.
       -2    1    3    3    0  502 -0.12670265206E+04  0.26601854989E+03  0.17519790415E+04  0.21784289373E+04  0.25500000920E-02 0. -1.
</event>
<event>
 5   0  0.1033796E-07  0.3503366E+04  0.7818609E-02  0.8112993E-01
       -1   -1    0    0    0  501  0.00000000000E+00  0.00000000000E+00  0.20099868025E+04  0.20099868025E+04  0.50400001928E-02 0. -1.
        1   -1    0    0  501    0  0.00000000000E+00  0.00000000000E+00 -0.15265738499E+04  0.15265738499E+04  0.50400001928E-02 0.  1.
    10030    2    1    2    0    0  0.00000000000E+00  0.00000000000E+00  0.48341295260E+03  0.35365606524E+04  0.35033659765E+04 0.  0.
        3    1    3    3  502    0  0.60851840342E+03  0.12666813459E+04  0.12973765964E+04  0.19125800173E+04  0.10100000352E+00 0. -1.
       -3    1    3    3    0  502 -0.60851840342E+03 -0.12666813459E+04 -0.81396364381E+03  0.16239806351E+04  0.10100000352E+00 0.  1.
</event>
<event>
 5   0  0.2180451E-07  0.3506884E+04  0.7818609E-02  0.8112161E-01
       -2   -1    0    0    0  501  0.00000000000E+00  0.00000000000E+00  0.11706782597E+04  0.11706782597E+04  0.25500000920E-02 0.  1.
        2   -1    0    0  501    0  0.00000000000E+00  0.00000000000E+00 -0.26263050541E+04  0.26263050541E+04  0.25500000920E-02 0. -1.
    10030    2    1    2    0    0  0.00000000000E+00  0.00000000000E+00 -0.14556267944E+04  0.37969833138E+04  0.35068836480E+04 0.  0.
        4    1    3    3  502    0  0.14487454271E+04  0.61941221573E+03  0.10526559951E+03  0.15791191421E+04  0.12699999809E+01 0.  1.
       -4    1    3    3    0  502 -0.14487454271E+04 -0.61941221573E+03 -0.15608923940E+04  0.22178641717E+04  0.12699999809E+01 0. -1.
</event>
<event>
 5   0  0.3119048E-07  0.3536695E+04  0.7818609E-02  0.8105148E-01
       -2   -1    0    0    0  501  0.00000000000E+00  0.00000000000E+00  0.13913160917E+04  0.13913160917E+04  0.25500000920E-02 0. -1.
        2   -1    0    0  501    0  0.00000000000E+00  0.00000000000E+00 -0.22475508749E+04  0.22475508749E+04  0.25500000920E-02 0.  1.
    10030    2    1    2    0    0  0.00000000000E+00  0.00000000000E+00 -0.85623478317E+03  0.36388669666E+04  0.35366954628E+04 0.  0.
        3    1    3    3  502    0 -0.18205931418E+03  0.17589505488E+04 -0.42917761137E+03  0.18196829558E+04  0.10100000352E+00 0. -1.
       -3    1    3    3    0  502  0.18205931418E+03 -0.17589505488E+04 -0.42705717181E+03  0.18191840109E+04  0.10100000352E+00 0.  1.
</event>
<event>
 5   0  0.1098171E-07  0.3505963E+04  0.7818609E-02  0.8112378E-01
        1   -1    0    0  501    0  0.00000000000E+00  0.00000000000E+00  0.17304152965E+04  0.17304152965E+04  0.50400001928E-02 0. -1.
       -1   -1    0    0    0  501  0.00000000000E+00  0.00000000000E+00 -0.17758422357E+04  0.17758422357E+04  0.50400001928E-02 0.  1.
    10030    2    1    2    0    0  0.00000000000E+00  0.00000000000E+00 -0.45426939131E+02  0.35062575322E+04  0.35059632450E+04 0.  0.
        4    1    3    3  502    0  0.11237830902E+04  0.45551049837E+03  0.12433172389E+04  0.17367261204E+04  0.12699999809E+01 0. -1.
       -4    1    3    3    0  502 -0.11237830902E+04 -0.45551049837E+03 -0.12887441780E+04  0.17695314118E+04  0.12699999809E+01 0.  1.
</event>
<event>
 5   0  0.3190112E-07  0.3503307E+04  0.7818609E-02  0.8113007E-01
        2   -1    0    0  501    0  0.00000000000E+00  0.00000000000E+00  0.20812322927E+04  0.20812322927E+04  0.25500000920E-02 0. -1.
       -2   -1    0    0    0  501  0.00000000000E+00  0.00000000000E+00 -0.14742656138E+04  0.14742656138E+04  0.25500000920E-02 0.  1.
    10030    2    1    2    0    0  0.00000000000E+00  0.00000000000E+00  0.60696667887E+03  0.35554979065E+04  0.35033065544E+04 0.  0.
        5    1    3    3  502    0  0.15650971832E+04 -0.63402839546E+03  0.77597891430E+03  0.18584096870E+04  0.46999998093E+01 0. -1.
       -5    1    3    3    0  502 -0.15650971832E+04  0.63402839546E+03 -0.16901223543E+03  0.16970882195E+04  0.46999998093E+01 0.  1.
</event>
<event>
 5   0  0.1013863E-07  0.3486241E+04  0.7818609E-02  0.8117058E-01
       -1   -1    0    0    0  501  0.00000000000E+00  0.00000000000E+00  0.13248582401E+04  0.13248582401E+04  0.50400001928E-02 0. -1.
        1   -1    0    0  501    0  0.00000000000E+00  0.00000000000E+00 -0.22934301042E+04  0.22934301042E+04  0.50400001928E-02 0.  1.
    10030    2    1    2    0    0  0.00000000000E+00  0.00000000000E+00 -0.96857186410E+03  0.36182883442E+04  0.34862413981E+04 0.  0.
        2    1    3    3  502    0  0.92352860975E+03  0.11928538076E+04 -0.13906704430E+04  0.20517723023E+04  0.25500000920E-02 0.  1.
       -2    1    3    3    0  502 -0.92352860975E+03 -0.11928538076E+04  0.42209857894E+03  0.15665160419E+04  0.25500000920E-02 0. -1.
</event>
<event>
 5   0  0.1072381E-07  0.3490244E+04  0.7818609E-02  0.8116106E-01
       -1   -1    0    0    0  501  0.00000000000E+00  0.00000000000E+00  0.21722424864E+04  0.21722424864E+04  0.50400001928E-02 0. -1.
        1   -1    0    0  501    0  0.00000000000E+00  0.00000000000E+00 -0.14019849972E+04  0.14019849972E+04  0.50400001928E-02 0.  1.
    10030    2    1    2    0    0  0.00000000000E+00  0.00000000000E+00  0.77025748914E+03  0.35742274836E+04  0.34902443332E+04 0.  0.
        1    1    3    3  502    0 -0.10080780445E+04  0.27772283875E+03  0.18159236873E+04  0.20954546421E+04  0.50400001928E-02 0. -1.
       -1    1    3    3    0  502  0.10080780445E+04 -0.27772283875E+03 -0.10456661982E+04  0.14787728415E+04  0.50400001928E-02 0.  1.
</event>
<event>
 5   0  0.1013863E-07  0.3528668E+04  0.7818609E-02  0.8107029E-01
       -1   -1    0    0    0  501  0.00000000000E+00  0.00000000000E+00  0.13872014761E+04  0.13872014761E+04  0.50400001928E-02 0.  1.
        1   -1    0    0  501    0  0.00000000000E+00  0.00000000000E+00 -0.22439962983E+04  0.22439962983E+04  0.50400001928E-02 0. -1.
    10030    2    1    2    0    0  0.00000000000E+00  0.00000000000E+00 -0.85679482220E+03  0.36311977744E+04  0.35286682912E+04 0.  0.
        5    1    3    3  502    0  0.12750914431E+04  0.26800993229E+03  0.79577522010E+03  0.15267507337E+04  0.46999998093E+01 0.  1.
       -5    1    3    3    0  502 -0.12750914431E+04 -0.26800993229E+03 -0.16525700423E+04  0.21044470406E+04  0.46999998093E+01 0. -1.
</event>
<event>
 5   0  0.1098171E-07  0.3474407E+04  0.7818609E-02  0.8119882E-01
       -1   -1    0    0    0  501  0.00000000000E+00  0.00000000000E+00  0.17148152393E+04  0.17148152393E+04  0.50400001928E-02 0. -1.
        1   -1    0    0  501    0  0.00000000000E+00  0.00000000000E+00 -0.17598839286E+04  0.17598839286E+04  0.50400001928E-02 0.  1.
    10030    2    1    2    0    0  0.00000000000E+00  0.00000000000E+00 -0.45068689308E+02  0.34746991680E+04  0.34744068733E+04 0.  0.
        4    1    3    3  502    0 -0.14141077743E+04  0.47036137938E+03 -0.91532079016E+03  0.17489294972E+04  0.12699999809E+01 0.  1.
       -4    1    3    3    0  502  0.14141077743E+04 -0.47036137938E+03  0.87025210085E+03  0.17257696707E+04  0.12699999809E+01 0. -1.
</event>
<event>
 5   0  0.2180451E-07  0.3513480E+04  0.7818609E-02  0.8110603E-01
        2   -1    0    0  501    0  0.00000000000E+00  0.00000000000E+00  0.22710338287E+04  0.22710338287E+04  0.25500000920E-02 0. -1.
       -2   -1    0    0    0  501  0.00000000000E+00  0.00000000000E+00 -0.13589121115E+04  0.13589121115E+04  0.25500000920E-02 0.  1.
    10030    2    1    2    0    0  0.00000000000E+00  0.00000000000E+00  0.91212171712E+03  0.36299459402E+04  0.35134799703E+04 0.  0.
        4    1    3    3  502    0 -0.10679814440E+04 -0.77029195272E+03 -0.74532659923E+03  0.15130920030E+04  0.12699999809E+01 0.  1.
       -4    1    3    3    0  502  0.10679814440E+04  0.77029195272E+03  0.16574483164E+04  0.21168539372E+04  0.12699999809E+01 0. -1.
</event>
<event>
 5   0  0.1013863E-07  0.3498479E+04  0.7818609E-02  0.8114151E-01
       -3   -1    0    0    0  501  0.00000000000E+00  0.00000000000E+00  0.11343462951E+04  0.11343462996E+04  0.10100000352E+00 0.  1.
        3   -1    0    0  501    0  0.00000000000E+00  0.00000000000E+00 -0.26974462425E+04  0.26974462444E+04  0.10100000352E+00 0. -1.
    10030    2    1    2    0    0  0.00000000000E+00  0.00000000000E+00 -0.15630999474E+04  0.38317925440E+04  0.34984786201E+04 0.  0.
        4    1    3    3  502    0 -0.58891923457E+03  0.14170584495E+04  0.13806022864E+03  0.15407604466E+04  0.12699999809E+01 0.  1.
       -4    1    3    3    0  502  0.58891923457E+03 -0.14170584495E+04 -0.17011601760E+04  0.22910320975E+04  0.12699999809E+01 0. -1.
</event>
<event>
 5   0  0.2180451E-07  0.3498984E+04  0.7818609E-02  0.8114031E-01
       -2   -1    0    0    0  501  0.00000000000E+00  0.00000000000E+00  0.10812977549E+04  0.10812977549E+04  0.25500000920E-02 0.  1.
        2   -1    0    0  501    0  0.00000000000E+00  0.00000000000E+00 -0.28306013049E+04  0.28306013049E+04  0.25500000920E-02 0. -1.
    10030    2    1    2    0    0  0.00000000000E+00  0.00000000000E+00 -0.17493035500E+04  0.39118990599E+04  0.34989843304E+04 0.  0.
        4    1    3    3  502    0 -0.11571209268E+04 -0.47088494641E+03 -0.22439559164E+04  0.25682681402E+04  0.12699999809E+01 0. -1.
       -4    1    3    3    0  502  0.11571209268E+04  0.47088494641E+03  0.49465236645E+03  0.13436309197E+04  0.12699999809E+01 0.  1.
</event>
<event>
 5   0  0.1072381E-07  0.3500637E+04  0.7818609E-02  0.8113639E-01
        1   -1    0    0  501    0  0.00000000000E+00  0.00000000000E+00  0.27173684435E+04  0.27173684435E+04  0.50400001928E-02 0. -1.
       -1   -1    0    0    0  501  0.00000000000E+00  0.00000000000E+00 -0.11274200201E+04  0.11274200202E+04  0.50400001928E-02 0.  1.
    10030    2    1    2    0    0  0.00000000000E+00  0.00000000000E+00  0.15899484234E+04  0.38447884637E+04  0.35006374193E+04 0.  0.
        1    1    3    3  502    0  0.11796250936E+04  0.10322252675E+04 -0.60448032596E+02  0.15686485677E+04  0.50400001928E-02 0.  1.
       -1    1    3    3    0  502 -0.11796250936E+04 -0.10322252675E+04  0.16503964559E+04  0.22761398960E+04  0.50400001928E-02 0. -1.
</event>
<event>
 5   0  0.1013863E-07  0.3505423E+04  0.7818609E-02  0.8112506E-01
       -1   -1    0    0    0  501  0.00000000000E+00  0.00000000000E+00  0.22125731060E+04  0.22125731060E+04  0.50400001928E-02 0. -1.
        1   -1    0    0  501    0  0.00000000000E+00  0.00000000000E+00 -0.13884274685E+04  0.13884274685E+04  0.50400001928E-02 0.  1.
    10030    2    1    2    0    0  0.00000000000E+00  0.00000000000E+00  0.82414563744E+03  0.36010005745E+04  0.35054228142E+04 0.  0.
        2    1    3    3  502    0 -0.12420800030E+04  0.82806179177E+03  0.13555637635E+04  0.20164330343E+04  0.25500000920E-02 0. -1.
       -2    1    3    3    0  502  0.12420800030E+04 -0.82806179177E+03 -0.53141812608E+03  0.15845675402E+04  0.25500000920E-02 0.  1.
</event>
<event>
 5   0  0.2180451E-07  0.3502172E+04  0.7818609E-02  0.8113275E-01
        2   -1    0    0  501    0  0.00000000000E+00  0.00000000000E+00  0.15668641607E+04  0.15668641607E+04  0.25500000920E-02 0.  1.
       -2   -1    0    0    0  501  0.00000000000E+00  0.00000000000E+00 -0.19569672168E+04  0.19569672168E+04  0.25500000920E-02 0. -1.
    10030    2    1    2    0    0  0.00000000000E+00  0.00000000000E+00 -0.39010305613E+03  0.35238313775E+04  0.35021717809E+04 0.  0.
        4    1    3    3  502    0 -0.10229157602E+03 -0.17334130659E+04 -0.42253774178E+03  0.17870993760E+04  0.12699999809E+01 0. -1.
       -4    1    3    3    0  502  0.10229157602E+03  0.17334130659E+04  0.32434685651E+02  0.17367320015E+04  0.12699999809E+01 0.  1.
</event>
<event>
 5   0  0.2180451E-07  0.3492493E+04  0.7818609E-02  0.8115571E-01
       -2   -1    0    0    0  501  0.00000000000E+00  0.00000000000E+00  0.94066251040E+03  0.94066251040E+03  0.25500000920E-02 0. -1.
        2   -1    0    0  501    0  0.00000000000E+00  0.00000000000E+00 -0.32417333415E+04  0.32417333415E+04  0.25500000920E-02 0.  1.
    10030    2    1    2    0    0  0.00000000000E+00  0.00000000000E+00 -0.23010708311E+04  0.41823958519E+04  0.34924931055E+04 0.  0.
        4    1    3    3  502    0 -0.45763526609E+03  0.11428562430E+03  0.86292726604E+03  0.98343089237E+03  0.12699999809E+01 0. -1.
       -4    1    3    3    0  502  0.45763526609E+03 -0.11428562430E+03 -0.31639980972E+04  0.31989649595E+04  0.12699999809E+01 0.  1.
</event>
<event>
 5   0  0.3190112E-07  0.3509368E+04  0.7818609E-02  0.8111573E-01
       -2   -1    0    0    0  501  0.00000000000E+00  0.00000000000E+00  0.15748621697E+04  0.15748621697E+04  0.25500000920E-02 0. -1.
        2   -1    0    0  501    0  0.00000000000E+00  0.00000000000E+00 -0.19550388977E+04  0.19550388977E+04  0.25500000920E-02 0.  1.
    10030    2    1    2    0    0  0.00000000000E+00  0.00000000000E+00 -0.38017672796E+03  0.35299010674E+04  0.35093684904E+04 0.  0.
        5    1    3    3  502    0 -0.22630817983E+03  0.16082324874E+04 -0.85825467380E+03  0.18369132535E+04  0.46999998093E+01 0. -1.
       -5    1    3    3    0  502  0.22630817983E+03 -0.16082324874E+04  0.47807794584E+03  0.16929878139E+04  0.46999998093E+01 0.  1.
</event>
<event>
 5   0  0.3190185E-07  0.3503891E+04  0.7818609E-02  0.8112868E-01
       -2   -1    0    0    0  501  0.00000000000E+00  0.00000000000E+00  0.13966871044E+04  0.13966871044E+04  0.25500000920E-02 0.  1.
        2   -1    0    0  501    0  0.00000000000E+00  0.00000000000E+00 -0.21975670931E+04  0.21975670931E+04  0.25500000920E-02 0. -1.
    10030    2    1    2    0    0  0.00000000000E+00  0.00000000000E+00 -0.80087998867E+03  0.35942541975E+04  0.35038913339E+04 0.  0.
        1    1    3    3  502    0 -0.16212874957E+03 -0.15151987066E+04  0.48626022205E+03  0.15995505167E+04  0.50400001928E-02 0.  1.
       -1    1    3    3    0  502  0.16212874957E+03  0.15151987066E+04 -0.12871402107E+04  0.19947036808E+04  0.50400001928E-02 0. -1.
</event>
<event>
 5   0  0.1013863E-07  0.3493460E+04  0.7818609E-02  0.8115342E-01
        1   -1    0    0  501    0  0.00000000000E+00  0.00000000000E+00  0.21170122030E+04  0.21170122031E+04  0.50400001928E-02 0.  1.
       -1   -1    0    0    0  501  0.00000000000E+00  0.00000000000E+00 -0.14412128573E+04  0.14412128573E+04  0.50400001928E-02 0. -1.
    10030    2    1    2    0    0  0.00000000000E+00  0.00000000000E+00  0.67579934574E+03  0.35582250604E+04  0.34934597213E+04 0.  0.
        5    1    3    3  502    0 -0.15668637153E+03 -0.82627965587E+02 -0.14320342974E+04  0.14429561042E+04  0.46999998093E+01 0. -1.
       -5    1    3    3    0  502  0.15668637153E+03  0.82627965587E+02  0.21078336431E+04  0.21152689562E+04  0.46999998093E+01 0.  1.
</event>
<event>
 5   0  0.3119048E-07  0.3500447E+04  0.7818609E-02  0.8113684E-01
       -2   -1    0    0    0  501  0.00000000000E+00  0.00000000000E+00  0.14542658146E+04  0.14542658146E+04  0.25500000920E-02 0.  1.
        2   -1    0    0  501    0  0.00000000000E+00  0.00000000000E+00 -0.21064116131E+04  0.21064116131E+04  0.25500000920E-02 0. -1.
    10030    2    1    2    0    0  0.00000000000E+00  0.00000000000E+00 -0.65214579852E+03  0.35606774277E+04  0.35004470574E+04 0.  0.
        3    1    3    3  502    0  0.18584689298E+03  0.17396621719E+04 -0.27708989017E+03  0.17713673694E+04  0.10100000352E+00 0.  1.
       -3    1    3    3    0  502 -0.18584689298E+03 -0.17396621719E+04 -0.37505590836E+03  0.17893100583E+04  0.10100000352E+00 0. -1.
</event>
<event>
 5   0  0.3190112E-07  0.3479623E+04  0.7818609E-02  0.8118636E-01
        2   -1    0    0  501    0  0.00000000000E+00  0.00000000000E+00  0.17758237913E+04  0.17758237913E+04  0.25500000920E-02 0.  1.
       -2   -1    0    0    0  501  0.00000000000E+00  0.00000000000E+00 -0.17045291681E+04  0.17045291681E+04  0.25500000920E-02 0. -1.
    10030    2    1    2    0    0  0.00000000000E+00  0.00000000000E+00  0.71294623164E+02  0.34803529595E+04  0.34796226518E+04 0.  0.
        5    1    3    3  502    0  0.63508453301E+02  0.97659508180E+03 -0.14031086529E+04  0.17107037321E+04  0.46999998093E+01 0. -1.
       -5    1    3    3    0  502 -0.63508453301E+02 -0.97659508180E+03  0.14744032760E+04  0.17696492273E+04  0.46999998093E+01 0.  1.
</event>
<event>
 5   0  0.3119048E-07  0.3503988E+04  0.7818609E-02  0.8112845E-01
       -2   -1    0    0    0  501  0.00000000000E+00  0.00000000000E+00  0.16028591077E+04  0.16028591077E+04  0.25500000920E-02 0. -1.
        2   -1    0    0  501    0  0.00000000000E+00  0.00000000000E+00 -0.19150049188E+04  0.19150049188E+04  0.25500000920E-02 0.  1.
    10030    2    1    2    0    0  0.00000000000E+00  0.00000000000E+00 -0.31214581113E+03  0.35178640265E+04  0.35039880567E+04 0.  0.
        3    1    3    3  502    0  0.89254425035E+03 -0.14833012434E+04  0.11455950835E+03  0.17349183579E+04  0.10100000352E+00 0.  1.
       -3    1    3    3    0  502 -0.89254425035E+03  0.14833012434E+04 -0.42670531949E+03  0.17829456686E+04  0.10100000352E+00 0. -1.
</event>
<event>
 5   0  0.1072381E-07  0.3486848E+04  0.7818609E-02  0.8116914E-01
       -1   -1    0    0    0  501  0.00000000000E+00  0.00000000000E+00  0.18337797166E+04  0.18337797166E+04  0.50400001928E-02 0.  1.
        1   -1    0    0  501    0  0.00000000000E+00  0.00000000000E+00 -0.16575207206E+04  0.16575207206E+04  0.50400001928E-02 0. -1.
    10030    2    1    2    0    0  0.00000000000E+00  0.00000000000E+00  0.17625899605E+03  0.34913004372E+04  0.34868483634E+04 0.  0.
        1    1    3    3  502    0 -0.11833175391E+04 -0.57774465340E+03  0.12321725449E+04  0.18034074591E+04  0.50400001928E-02 0.  1.
       -1    1    3    3    0  502  0.11833175391E+04  0.57774465340E+03 -0.10559135489E+04  0.16878929782E+04  0.50400001928E-02 0. -1.
</event>
<event>
 5   0  0.1013863E-07  0.3502981E+04  0.7818609E-02  0.8113084E-01
       -1   -1    0    0    0  501  0.00000000000E+00  0.00000000000E+00  0.16027622856E+04  0.16027622856E+04  0.50400001928E-02 0. -1.
        1   -1    0    0  501    0  0.00000000000E+00  0.00000000000E+00 -0.19140201029E+04  0.19140201029E+04  0.50400001928E-02 0.  1.
    10030    2    1    2    0    0  0.00000000000E+00  0.00000000000E+00 -0.31125781732E+03  0.35167823886E+04  0.35029811503E+04 0.  0.
        2    1    3    3  502    0 -0.11496043740E+04 -0.17776594053E+03  0.11589299103E+04  0.16420443000E+04  0.25500000920E-02 0. -1.
       -2    1    3    3    0  502  0.11496043740E+04  0.17776594053E+03 -0.14701877276E+04  0.18747380885E+04  0.25500000920E-02 0.  1.
</event>
<event>
 5   0  0.1033796E-07  0.3481766E+04  0.7818609E-02  0.8118125E-01
        1   -1    0    0  501    0  0.00000000000E+00  0.00000000000E+00  0.19446812327E+04  0.19446812327E+04  0.50400001928E-02 0.  1.
       -1   -1    0    0    0  501  0.00000000000E+00  0.00000000000E+00 -0.15584427419E+04  0.15584427419E+04  0.50400001928E-02 0. -1.
    10030    2    1    2    0    0  0.00000000000E+00  0.00000000000E+00  0.38623849081E+03  0.35031239746E+04  0.34817664209E+04 0.  0.
        3    1    3    3  502    0  0.12873602571E+04 -0.11702329305E+04  0.25621595975E+03  0.17585187436E+04  0.10100000352E+00 0. -1.
       -3    1    3    3    0  502 -0.12873602571E+04  0.11702329305E+04  0.13002253106E+03  0.17446052310E+04  0.10100000352E+00 0.  1.
</event>
<event>
 5   0  0.1033796E-07  0.3496903E+04  0.7818609E-02  0.8114524E-01
        1   -1    0    0  501    0  0.00000000000E+00  0.00000000000E+00  0.14353059072E+04  0.14353059073E+04  0.50400001928E-02 0.  1.
       -1   -1    0    0    0  501  0.00000000000E+00  0.00000000000E+00 -0.21299171408E+04  0.21299171408E+04  0.50400001928E-02 0. -1.
    10030    2    1    2    0    0  0.00000000000E+00  0.00000000000E+00 -0.69461123357E+03  0.35652230481E+04  0.34969030036E+04 0.  0.
        3    1    3    3  502    0 -0.21200267839E+03  0.16885213201E+04 -0.75643522660E+03  0.18623221113E+04  0.10100000352E+00 0. -1.
       -3    1    3    3    0  502  0.21200267839E+03 -0.16885213201E+04  0.61823993033E+02  0.17029009368E+04  0.10100000352E+00 0.  1.
</event>
<event>
 5   0  0.3219205E-07  0.3493659E+04  0.7818609E-02  0.8115294E-01
       -2   -1    0    0    0  501  0.00000000000E+00  0.00000000000E+00  0.14895795789E+04  0.14895795789E+04  0.25500000920E-02 0.  1.
        2   -1    0    0  501    0  0.00000000000E+00  0.00000000000E+00 -0.20485066251E+04  0.20485066252E+04  0.25500000920E-02 0. -1.
    10030    2    1    2    0    0  0.00000000000E+00  0.00000000000E+00 -0.55892704628E+03  0.35380862040E+04  0.34936591912E+04 0.  0.
        2    1    3    3  502    0 -0.60268642163E+03  0.67726910210E+03  0.12326714814E+04  0.15301644815E+04  0.25500000920E-02 0.  1.
       -2    1    3    3    0  502  0.60268642163E+03 -0.67726910210E+03 -0.17915985276E+04  0.20079217225E+04  0.25500000920E-02 0. -1.
</event>
<event>
 5   0  0.1033796E-07  0.3500702E+04  0.7818609E-02  0.8113624E-01
        1   -1    0    0  501    0  0.00000000000E+00  0.00000000000E+00  0.17509002956E+04  0.17509002956E+04  0.50400001928E-02 0.  1.
       -1   -1    0    0    0  501  0.00000000000E+00  0.00000000000E+00 -0.17498019906E+04  0.17498019906E+04  0.50400001928E-02 0. -1.
    10030    2    1    2    0    0  0.00000000000E+00  0.00000000000E+00  0.10983050463E+01  0.35007022862E+04  0.35007021139E+04 0.  0.
        3    1    3    3  502    0 -0.36525811157E+03  0.16308847686E+04 -0.51957604642E+03  0.17501879598E+04  0.10100000352E+00 0. -1.
       -3    1    3    3    0  502  0.36525811157E+03 -0.16308847686E+04  0.52067435147E+03  0.17505143264E+04  0.10100000352E+00 0.  1.
</event>
<event>
 5   0  0.3190112E-07  0.3508064E+04  0.7818609E-02  0.8111881E-01
       -2   -1    0    0    0  501  0.00000000000E+00  0.00000000000E+00  0.14160247985E+04  0.14160247985E+04  0.25500000920E-02 0.  1.
        2   -1    0    0  501    0  0.00000000000E+00  0.00000000000E+00 -0.21727225828E+04  0.21727225828E+04  0.25500000920E-02 0. -1.
    10030    2    1    2    0    0  0.00000000000E+00  0.00000000000E+00 -0.75669778426E+03  0.35887473813E+04  0.35080644564E+04 0.  0.
        5    1    3    3  502    0 -0.45415443221E+03 -0.86986341938E+03  0.11089415984E+04  0.14807741811E+04  0.46999998093E+01 0.  1.
       -5    1    3    3    0  502  0.45415443221E+03  0.86986341938E+03 -0.18656393827E+04  0.21079732002E+04  0.46999998093E+01 0. -1.
</event>
<event>
 5   0  0.1072381E-07  0.3501611E+04  0.7818609E-02  0.8113408E-01
        1   -1    0    0  501    0  0.00000000000E+00  0.00000000000E+00  0.11630402813E+04  0.11630402813E+04  0.50400001928E-02 0.  1.
       -1   -1    0    0    0  501  0.00000000000E+00  0.00000000000E+00 -0.26356087865E+04  0.26356087865E+04  0.50400001928E-02 0. -1.
    10030    2    1    2    0    0  0.00000000000E+00  0.00000000000E+00 -0.14725685052E+04  0.37986490677E+04  0.35016105919E+04 0.  0.
        1    1    3    3  502    0 -0.82200257789E+03  0.15263467884E+04 -0.47078592640E+03  0.17964025565E+04  0.50400001928E-02 0.  1.
       -1    1    3    3    0  502  0.82200257789E+03 -0.15263467884E+04 -0.10017825788E+04  0.20022465112E+04  0.50400001928E-02 0. -1.
</event>
<event>
 5   0  0.2180451E-07  0.3503098E+04  0.7818609E-02  0.8113056E-01
        2   -1    0    0  501    0  0.00000000000E+00  0.00000000000E+00  0.28246403043E+04  0.28246403043E+04  0.25500000920E-02 0.  1.
       -2   -1    0    0    0  501  0.00000000000E+00  0.00000000000E+00 -0.10861288907E+04  0.10861288907E+04  0.25500000920E-02 0. -1.
    10030    2    1    2    0    0  0.00000000000E+00  0.00000000000E+00  0.17385114136E+04  0.39107691950E+04  0.35030977379E+04 0.  0.
        4    1    3    3  502    0 -0.11993370758E+04 -0.23928414263E+03 -0.53056203345E+03  0.13331031492E+04  0.12699999809E+01 0. -1.
       -4    1    3    3    0  502  0.11993370758E+04  0.23928414263E+03  0.22690734471E+04  0.25776660458E+04  0.12699999809E+01 0.  1.
</event>
<event>
 5   0  0.3219205E-07  0.3455872E+04  0.7818609E-02  0.8124328E-01
        2   -1    0    0  501    0  0.00000000000E+00  0.00000000000E+00  0.14694525854E+04  0.14694525854E+04  0.25500000920E-02 0.  1.
       -2   -1    0    0    0  501  0.00000000000E+00  0.00000000000E+00 -0.20318875361E+04  0.20318875361E+04  0.25500000920E-02 0. -1.
    10030    2    1    2    0    0  0.00000000000E+00  0.00000000000E+00 -0.56243495072E+03  0.35013401215E+04  0.34558717530E+04 0.  0.
        2    1    3    3  502    0 -0.82914971043E+03 -0.11425114693E+04  0.72835694361E+03  0.15884978870E+04  0.25500000920E-02 0.  1.
       -2    1    3    3    0  502  0.82914971043E+03  0.11425114693E+04 -0.12907918943E+04  0.19128422345E+04  0.25500000920E-02 0. -1.
</event>
<event>
 5   0  0.1033796E-07  0.3404292E+04  0.7818609E-02  0.8136854E-01
        1   -1    0    0  501    0  0.00000000000E+00  0.00000000000E+00  0.90026417236E+03  0.90026417237E+03  0.50400001928E-02 0.  1.
       -1   -1    0    0    0  501  0.00000000000E+00  0.00000000000E+00 -0.32182779864E+04  0.32182779864E+04  0.50400001928E-02 0. -1.
    10030    2    1    2    0    0  0.00000000000E+00  0.00000000000E+00 -0.23180138140E+04  0.41185421587E+04  0.34042916255E+04 0.  0.
        3    1    3    3  502    0  0.12881478879E+04 -0.95998366659E+03 -0.18395249119E+04  0.24422828527E+04  0.10100000352E+00 0. -1.
       -3    1    3    3    0  502 -0.12881478879E+04  0.95998366659E+03 -0.47848890215E+03  0.16762593060E+04  0.10100000352E+00 0.  1.
</event>
<event>
 5   0  0.3190185E-07  0.3500761E+04  0.7818609E-02  0.8113610E-01
        2   -1    0    0  501    0  0.00000000000E+00  0.00000000000E+00  0.18865087479E+04  0.18865087479E+04  0.25500000920E-02 0. -1.
       -2   -1    0    0    0  501  0.00000000000E+00  0.00000000000E+00 -0.16240749880E+04  0.16240749880E+04  0.25500000920E-02 0.  1.
    10030    2    1    2    0    0  0.00000000000E+00  0.00000000000E+00  0.26243375991E+03  0.35105837359E+04  0.35007608728E+04 0.  0.
        1    1    3    3  502    0 -0.83658371307E+03 -0.14131454856E+04 -0.47627099575E+03  0.17098790992E+04  0.50400001928E-02 0.  1.
       -1    1    3    3    0  502  0.83658371307E+03  0.14131454856E+04  0.73870475566E+03  0.18007046367E+04  0.50400001928E-02 0. -1.
</event>
<event>
 5   0  0.1072381E-07  0.3507790E+04  0.7818609E-02  0.8111946E-01
        1   -1    0    0  501    0  0.00000000000E+00  0.00000000000E+00  0.20610202458E+04  0.20610202458E+04  0.50400001928E-02 0.  1.
       -1   -1    0    0    0  501  0.00000000000E+00  0.00000000000E+00 -0.14925359640E+04  0.14925359640E+04  0.50400001928E-02 0. -1.
    10030    2    1    2    0    0  0.00000000000E+00  0.00000000000E+00  0.56848428178E+03  0.35535562098E+04  0.35077895258E+04 0.  0.
        1    1    3    3  502    0 -0.70207423530E+02  0.47433775577E+03  0.19933284932E+04  0.20501911790E+04  0.50400001928E-02 0.  1.
       -1    1    3    3    0  502  0.70207423530E+02 -0.47433775577E+03 -0.14248442114E+04  0.15033650307E+04  0.50400001928E-02 0. -1.
</event>
<event>
 5   0  0.1033796E-07  0.3507350E+04  0.7818609E-02  0.8112050E-01
       -1   -1    0    0    0  501  0.00000000000E+00  0.00000000000E+00  0.16235904184E+04  0.16235904184E+04  0.50400001928E-02 0. -1.
        1   -1    0    0  501    0  0.00000000000E+00  0.00000000000E+00 -0.18941822333E+04  0.18941822333E+04  0.50400001928E-02 0.  1.
    10030    2    1    2    0    0  0.00000000000E+00  0.00000000000E+00 -0.27059181487E+03  0.35177726517E+04  0.35073500679E+04 0.  0.
        3    1    3    3  502    0  0.10361824830E+04 -0.66348605477E+03  0.11180126675E+04  0.16624801406E+04  0.10100000352E+00 0. -1.
       -3    1    3    3    0  502 -0.10361824830E+04  0.66348605477E+03 -0.13886044824E+04  0.18552925111E+04  0.10100000352E+00 0.  1.
</event>
<event>
 5   0  0.2180451E-07  0.3529202E+04  0.7818609E-02  0.8106904E-01
        2   -1    0    0  501    0  0.00000000000E+00  0.00000000000E+00  0.21060451157E+04  0.21060451157E+04  0.25500000920E-02 0.  1.
       -2   -1    0    0    0  501  0.00000000000E+00  0.00000000000E+00 -0.14785138485E+04  0.14785138485E+04  0.25500000920E-02 0. -1.
    10030    2    1    2    0    0  0.00000000000E+00  0.00000000000E+00  0.62753126714E+03  0.35845589642E+04  0.35292021020E+04 0.  0.
        4    1    3    3  502    0 -0.16942444044E+04 -0.91780039356E+02  0.80606151311E+03  0.18784633223E+04  0.12699999809E+01 0.  1.
       -4    1    3    3    0  502  0.16942444044E+04  0.91780039356E+02 -0.17853024597E+03  0.17060956419E+04  0.12699999809E+01 0. -1.
</event>
<event>
 5   0  0.3190112E-07  0.3504108E+04  0.7818609E-02  0.8112817E-01
       -2   -1    0    0    0  501  0.00000000000E+00  0.00000000000E+00  0.16439616512E+04  0.16439616512E+04  0.25500000920E-02 0. -1.
        2   -1    0    0  501    0  0.00000000000E+00  0.00000000000E+00 -0.18672531675E+04  0.18672531675E+04  0.25500000920E-02 0.  1.
    10030    2    1    2    0    0  0.00000000000E+00  0.00000000000E+00 -0.22329151633E+03  0.35112148186E+04  0.35041076469E+04 0.  0.
        5    1    3    3  502    0  0.13015676281E+04 -0.93333880336E+03  0.60005596964E+03  0.17103475872E+04  0.46999998093E+01 0. -1.
       -5    1    3    3    0  502 -0.13015676281E+04  0.93333880336E+03 -0.82334748597E+03  0.18008672314E+04  0.46999998093E+01 0.  1.
</event>
<event>
 5   0  0.1013863E-07  0.3445204E+04  0.7818609E-02  0.8126900E-01
       -1   -1    0    0    0  501  0.00000000000E+00  0.00000000000E+00  0.15438918177E+04  0.15438918177E+04  0.50400001928E-02 0.  1.
        1   -1    0    0  501    0  0.00000000000E+00  0.00000000000E+00 -0.19219987013E+04  0.19219987013E+04  0.50400001928E-02 0. -1.
    10030    2    1    2    0    0  0.00000000000E+00  0.00000000000E+00 -0.37810688364E+03  0.34658905190E+04  0.34452042427E+04 0.  0.
        5    1    3    3  502    0  0.12896235557E+04  0.47130345950E+03  0.85742328490E+03  0.16187812223E+04  0.46999998093E+01 0.  1.
       -5    1    3    3    0  502 -0.12896235557E+04 -0.47130345950E+03 -0.12355301685E+04  0.18471092966E+04  0.46999998093E+01 0. -1.
</event>
<event>
 5   0  0.3190185E-07  0.3498758E+04  0.7818609E-02  0.8114084E-01
        2   -1    0    0  501    0  0.00000000000E+00  0.00000000000E+00  0.23265383378E+04  0.23265383378E+04  0.25500000920E-02 0. -1.
       -2   -1    0    0    0  501  0.00000000000E+00  0.00000000000E+00 -0.13153995292E+04  0.13153995292E+04  0.25500000920E-02 0.  1.
    10030    2    1    2    0    0  0.00000000000E+00  0.00000000000E+00  0.10111388086E+04  0.36419378670E+04  0.34987583135E+04 0.  0.
        1    1    3    3  502    0  0.63513451612E+03 -0.66253468117E+03  0.20558037006E+04  0.22513722288E+04  0.50400001928E-02 0. -1.
       -1    1    3    3    0  502 -0.63513451612E+03  0.66253468117E+03 -0.10446648920E+04  0.13905656381E+04  0.50400001928E-02 0.  1.
</event>
<event>
 5   0  0.3119048E-07  0.3587976E+04  0.7818609E-02  0.8093252E-01
        2   -1    0    0  501    0  0.00000000000E+00  0.00000000000E+00  0.19928362828E+04  0.19928362828E+04  0.25500000920E-02 0. -1.
       -2   -1    0    0    0  501  0.00000000000E+00  0.00000000000E+00 -0.16149807807E+04  0.16149807807E+04  0.25500000920E-02 0.  1.
    10030    2    1    2    0    0  0.00000000000E+00  0.00000000000E+00  0.37785550208E+03  0.36078170635E+04  0.35879756386E+04 0.  0.
        3    1    3    3  502    0 -0.16483331133E+04  0.62517661420E+03 -0.14539309945E+03  0.17688942917E+04  0.10100000352E+00 0. -1.
       -3    1    3    3    0  502  0.16483331133E+04 -0.62517661420E+03  0.52324860153E+03  0.18389227718E+04  0.10100000352E+00 0.  1.
</event>
<event>
 5   0  0.2180451E-07  0.3506914E+04  0.7818609E-02  0.8112153E-01
        2   -1    0    0  501    0  0.00000000000E+00  0.00000000000E+00  0.19589968755E+04  0.19589968755E+04  0.25500000920E-02 0.  1.
       -2   -1    0    0    0  501  0.00000000000E+00  0.00000000000E+00 -0.15694822464E+04  0.15694822464E+04  0.25500000920E-02 0. -1.
    10030    2    1    2    0    0  0.00000000000E+00  0.00000000000E+00  0.38951462911E+03  0.35284791220E+04  0.35069136385E+04 0.  0.
        4    1    3    3  502    0 -0.98891457811E+03 -0.13864042370E+04  0.61510680983E+03  0.18106426350E+04  0.12699999809E+01 0. -1.
       -4    1    3    3    0  502  0.98891457811E+03  0.13864042370E+04 -0.22559218072E+03  0.17178364870E+04  0.12699999809E+01 0.  1.
</event>
<event>
 5   0  0.1033796E-07  0.3493161E+04  0.7818609E-02  0.8115413E-01
        1   -1    0    0  501    0  0.00000000000E+00  0.00000000000E+00  0.22350968918E+04  0.22350968918E+04  0.50400001928E-02 0. -1.
       -1   -1    0    0    0  501  0.00000000000E+00  0.00000000000E+00 -0.13648373015E+04  0.13648373015E+04  0.50400001928E-02 0.  1.
    10030    2    1    2    0    0  0.00000000000E+00  0.00000000000E+00  0.87025959036E+03  0.35999341933E+04  0.34931610958E+04 0.  0.
        3    1    3    3  502    0 -0.14948262251E+04  0.89941417162E+03  0.34833980347E+03  0.17789862068E+04  0.10100000352E+00 0. -1.
       -3    1    3    3    0  502  0.14948262251E+04 -0.89941417162E+03  0.52191978689E+03  0.18209479865E+04  0.10100000352E+00 0.  1.
</event>
<event>
 5   0  0.1033796E-07  0.3494798E+04  0.7818609E-02  0.8115024E-01
       -1   -1    0    0    0  501  0.00000000000E+00  0.00000000000E+00  0.20486481462E+04  0.20486481463E+04  0.50400001928E-02 0.  1.
        1   -1    0    0  501    0  0.00000000000E+00  0.00000000000E+00 -0.14904481860E+04  0.14904481860E+04  0.50400001928E-02 0. -1.
    10030    2    1    2    0    0  0.00000000000E+00  0.00000000000E+00  0.55819996024E+03  0.35390963323E+04  0.34947983709E+04 0.  0.
        3    1    3    3  502    0 -0.98763896415E+03  0.12634186296E+04  0.98197735565E+03  0.18804087040E+04  0.10100000352E+00 0.  1.
       -3    1    3    3    0  502  0.98763896415E+03 -0.12634186296E+04 -0.42377739541E+03  0.16586876282E+04  0.10100000352E+00 0. -1.
</event>
<event>
 5   0  0.3190185E-07  0.3487056E+04  0.7818609E-02  0.8116864E-01
       -2   -1    0    0    0  501  0.00000000000E+00  0.00000000000E+00  0.17766338907E+04  0.17766338907E+04  0.25500000920E-02 0.  1.
        2   -1    0    0  501    0  0.00000000000E+00  0.00000000000E+00 -0.17110391992E+04  0.17110391992E+04  0.25500000920E-02 0. -1.
    10030    2    1    2    0    0  0.00000000000E+00  0.00000000000E+00  0.65594691500E+02  0.34876730899E+04  0.34870561966E+04 0.  0.
        1    1    3    3  502    0 -0.14678211135E+04  0.93723019854E+03 -0.50829425818E+02  0.17422637277E+04  0.50400001928E-02 0.  1.
       -1    1    3    3    0  502  0.14678211135E+04 -0.93723019854E+03  0.11642411732E+03  0.17454093621E+04  0.50400001928E-02 0. -1.
</event>
<event>
 5   0  0.2180451E-07  0.3397293E+04  0.7818609E-02  0.8138571E-01
        2   -1    0    0  501    0  0.00000000000E+00  0.00000000000E+00  0.15339883419E+04  0.15339883419E+04  0.25500000920E-02 0.  1.
       -2   -1    0    0    0  501  0.00000000000E+00  0.00000000000E+00 -0.18809785146E+04  0.18809785146E+04  0.25500000920E-02 0. -1.
    10030    2    1    2    0    0  0.00000000000E+00  0.00000000000E+00 -0.34699017271E+03  0.34149668564E+04  0.33972925177E+04 0.  0.
        4    1    3    3  502    0 -0.10991853115E+04 -0.88603385647E+03 -0.11229369793E+04  0.18039549374E+04  0.12699999809E+01 0. -1.
       -4    1    3    3    0  502  0.10991853115E+04  0.88603385647E+03  0.77594680659E+03  0.16110119190E+04  0.12699999809E+01 0.  1.
</event>
<event>
 5   0  0.1013863E-07  0.3492646E+04  0.7818609E-02  0.8115535E-01
        1   -1    0    0  501    0  0.00000000000E+00  0.00000000000E+00  0.15619717784E+04  0.15619717784E+04  0.50400001928E-02 0. -1.
       -1   -1    0    0    0  501  0.00000000000E+00  0.00000000000E+00 -0.19524317059E+04  0.19524317059E+04  0.50400001928E-02 0.  1.
    10030    2    1    2    0    0  0.00000000000E+00  0.00000000000E+00 -0.39045992754E+03  0.35144034843E+04  0.34926455439E+04 0.  0.
        2    1    3    3  502    0  0.10592851465E+04 -0.65718014036E+03 -0.14258255618E+04  0.18939243098E+04  0.25500000920E-02 0.  1.
       -2    1    3    3    0  502 -0.10592851465E+04  0.65718014036E+03  0.10353656343E+04  0.16204791745E+04  0.25500000920E-02 0. -1.
</event>
<event>
 5   0  0.1072381E-07  0.3493975E+04  0.7818609E-02  0.8115219E-01
       -1   -1    0    0    0  501  0.00000000000E+00  0.00000000000E+00  0.21141933546E+04  0.21141933546E+04  0.50400001928E-02 0. -1.
        1   -1    0    0  501    0  0.00000000000E+00  0.00000000000E+00 -0.14435598088E+04  0.14435598089E+04  0.50400001928E-02 0.  1.
    10030    2    1    2    0    0  0.00000000000E+00  0.00000000000E+00  0.67063354572E+03  0.35577531634E+04  0.34939745590E+04 0.  0.
        1    1    3    3  502    0 -0.16259546006E+04  0.56370956329E+03  0.29047873882E+02  0.17211451461E+04  0.50400001928E-02 0.  1.
       -1    1    3    3    0  502  0.16259546006E+04 -0.56370956329E+03  0.64158567184E+03  0.18366080173E+04  0.50400001928E-02 0. -1.
</event>
<event>
 5   0  0.3190112E-07  0.3499315E+04  0.7818609E-02  0.8113952E-01
        2   -1    0    0  501    0  0.00000000000E+00  0.00000000000E+00  0.22848109708E+04  0.22848109708E+04  0.25500000920E-02 0.  1.
       -2   -1    0    0    0  501  0.00000000000E+00  0.00000000000E+00 -0.13398487948E+04  0.13398487948E+04  0.25500000920E-02 0. -1.
    10030    2    1    2    0    0  0.00000000000E+00  0.00000000000E+00  0.94496217601E+03  0.36246597656E+04  0.34993149190E+04 0.  0.
        5    1    3    3  502    0  0.38927108866E+03  0.35663483954E+03 -0.12553703142E+04  0.13618726464E+04  0.46999998093E+01 0. -1.
       -5    1    3    3    0  502 -0.38927108866E+03 -0.35663483954E+03  0.22003324902E+04  0.22627871192E+04  0.46999998093E+01 0.  1.
</event>
<event>
 5   0  0.1013863E-07  0.3628893E+04  0.7818609E-02  0.8083905E-01
        3   -1    0    0  501    0  0.00000000000E+00  0.00000000000E+00  0.21413428523E+04  0.21413428547E+04  0.10100000352E+00 0. -1.
       -3   -1    0    0    0  501  0.00000000000E+00  0.00000000000E+00 -0.15374541198E+04  0.15374541232E+04  0.10100000352E+00 0.  1.
    10030    2    1    2    0    0  0.00000000000E+00  0.00000000000E+00  0.60388873249E+03  0.36787969779E+04  0.36288931650E+04 0.  0.
        4    1    3    3  502    0 -0.38803498184E+03  0.16568454244E+04 -0.33640289928E+03  0.17346113198E+04  0.12699999809E+01 0.  1.
       -4    1    3    3    0  502  0.38803498184E+03 -0.16568454244E+04  0.94029163177E+03  0.19441856581E+04  0.12699999809E+01 0. -1.
</event>
<event>
 5   0  0.2180451E-07  0.3497719E+04  0.7818609E-02  0.8114331E-01
       -2   -1    0    0    0  501  0.00000000000E+00  0.00000000000E+00  0.12205838474E+04  0.12205838474E+04  0.25500000920E-02 0.  1.
        2   -1    0    0  501    0  0.00000000000E+00  0.00000000000E+00 -0.25057756284E+04  0.25057756284E+04  0.25500000920E-02 0. -1.
    10030    2    1    2    0    0  0.00000000000E+00  0.00000000000E+00 -0.12851917810E+04  0.37263594758E+04  0.34977188321E+04 0.  0.
        4    1    3    3  502    0  0.14840523680E+03  0.11353240523E+04  0.76575632573E+03  0.13774502464E+04  0.12699999809E+01 0.  1.
       -4    1    3    3    0  502 -0.14840523680E+03 -0.11353240523E+04 -0.20509481068E+04  0.23489092293E+04  0.12699999809E+01 0. -1.
</event>
<event>
 5   0  0.2180451E-07  0.3510499E+04  0.7818609E-02  0.8111306E-01
        2   -1    0    0  501    0  0.00000000000E+00  0.00000000000E+00  0.23022786453E+04  0.23022786453E+04  0.25500000920E-02 0.  1.
       -2   -1    0    0    0  501  0.00000000000E+00  0.00000000000E+00 -0.13381962979E+04  0.13381962979E+04  0.25500000920E-02 0. -1.
    10030    2    1    2    0    0  0.00000000000E+00  0.00000000000E+00  0.96408234742E+03  0.36404749432E+04  0.35104989730E+04 0.  0.
        4    1    3    3  502    0 -0.19320426471E+03  0.56916176907E+03  0.21922289552E+04  0.22731349305E+04  0.12699999809E+01 0.  1.
       -4    1    3    3    0  502  0.19320426471E+03 -0.56916176907E+03 -0.12281466078E+04  0.13673400127E+04  0.12699999809E+01 0. -1.
</event>
<event>
 5   0  0.3190112E-07  0.3494642E+04  0.7818609E-02  0.8115061E-01
       -2   -1    0    0    0  501  0.00000000000E+00  0.00000000000E+00  0.27022934698E+04  0.27022934698E+04  0.25500000920E-02 0. -1.
        2   -1    0    0  501    0  0.00000000000E+00  0.00000000000E+00 -0.11298291548E+04  0.11298291548E+04  0.25500000920E-02 0.  1.
    10030    2    1    2    0    0  0.00000000000E+00  0.00000000000E+00  0.15724643150E+04  0.38321226246E+04  0.34946415822E+04 0.  0.
        5    1    3    3  502    0  0.83775321550E+03  0.14598376425E+04  0.13007465728E+04  0.21271859649E+04  0.46999998093E+01 0. -1.
       -5    1    3    3    0  502 -0.83775321550E+03 -0.14598376425E+04  0.27171774223E+03  0.17049366598E+04  0.46999998093E+01 0.  1.
</event>
<event>
 5   0  0.1033796E-07  0.3500656E+04  0.7818609E-02  0.8113635E-01
       -1   -1    0    0    0  501  0.00000000000E+00  0.00000000000E+00  0.18645594134E+04  0.18645594134E+04  0.50400001928E-02 0.  1.
        1   -1    0    0  501    0  0.00000000000E+00  0.00000000000E+00 -0.16430946717E+04  0.16430946717E+04  0.50400001928E-02 0. -1.
    10030    2    1    2    0    0  0.00000000000E+00  0.00000000000E+00  0.22146474172E+03  0.35076540851E+04  0.35006557313E+04 0.  0.
        3    1    3    3  502    0 -0.78097256317E+03  0.12086917363E+04 -0.88764993801E+03  0.16907916135E+04  0.10100000352E+00 0. -1.
       -3    1    3    3    0  502  0.78097256317E+03 -0.12086917363E+04  0.11091146797E+04  0.18168624716E+04  0.10100000352E+00 0.  1.
</event>
<event>
 5   0  0.1013863E-07  0.3507682E+04  0.7818609E-02  0.8111972E-01
       -1   -1    0    0    0  501  0.00000000000E+00  0.00000000000E+00  0.16720119758E+04  0.16720119758E+04  0.50400001928E-02 0.  1.
        1   -1    0    0  501    0  0.00000000000E+00  0.00000000000E+00 -0.18396745851E+04  0.18396745851E+04  0.50400001928E-02 0. -1.
    10030    2    1    2    0    0  0.00000000000E+00  0.00000000000E+00 -0.16766260931E+03  0.35116865609E+04  0.35076818201E+04 0.  0.
        2    1    3    3  502    0  0.11008163496E+04  0.10896705322E+04 -0.90743659950E+03  0.17951656432E+04  0.25500000920E-02 0. -1.
       -2    1    3    3    0  502 -0.11008163496E+04 -0.10896705322E+04  0.73977399018E+03  0.17165209177E+04  0.25500000920E-02 0.  1.
</event>
<event>
 5   0  0.3190185E-07  0.3388041E+04  0.7818609E-02  0.8140848E-01
        2   -1    0    0  501    0  0.00000000000E+00  0.00000000000E+00  0.17155675369E+04  0.17155675369E+04  0.25500000920E-02 0.  1.
       -2   -1    0    0    0  501  0.00000000000E+00  0.00000000000E+00 -0.16727441720E+04  0.16727441720E+04  0.25500000920E-02 0. -1.
    10030    2    1    2    0    0  0.00000000000E+00  0.00000000000E+00  0.42823364904E+02  0.33883117089E+04  0.33880410854E+04 0.  0.
        1    1    3    3  502    0 -0.67524369805E+03  0.15480660367E+04  0.15273512988E+03  0.16958155931E+04  0.50400001928E-02 0.  1.
       -1    1    3    3    0  502  0.67524369805E+03 -0.15480660367E+04 -0.10991176497E+03  0.16924961158E+04  0.50400001928E-02 0. -1.
</event>
<event>
 5   0  0.1013863E-07  0.3496219E+04  0.7818609E-02  0.8114687E-01
       -1   -1    0    0    0  501  0.00000000000E+00  0.00000000000E+00  0.21261891115E+04  0.21261891115E+04  0.50400001928E-02 0.  1.
        1   -1    0    0  501    0  0.00000000000E+00  0.00000000000E+00 -0.14372598366E+04  0.14372598367E+04  0.50400001928E-02 0. -1.
    10030    2    1    2    0    0  0.00000000000E+00  0.00000000000E+00  0.68892927484E+03  0.35634489481E+04  0.34962186517E+04 0.  0.
        2    1    3    3  502    0 -0.13740730508E+04  0.10286751330E+04  0.69828020872E+01  0.17164783826E+04  0.25500000920E-02 0. -1.
       -2    1    3    3    0  502  0.13740730508E+04 -0.10286751330E+04  0.68194647276E+03  0.18469705656E+04  0.25500000920E-02 0.  1.
</event>
<event>
 5   0  0.2180451E-07  0.3488556E+04  0.7818609E-02  0.8116507E-01
       -2   -1    0    0    0  501  0.00000000000E+00  0.00000000000E+00  0.17599745375E+04  0.17599745375E+04  0.25500000920E-02 0. -1.
        2   -1    0    0  501    0  0.00000000000E+00  0.00000000000E+00 -0.17287209812E+04  0.17287209812E+04  0.25500000920E-02 0.  1.
    10030    2    1    2    0    0  0.00000000000E+00  0.00000000000E+00  0.31253556317E+02  0.34886955187E+04  0.34885555230E+04 0.  0.
        4    1    3    3  502    0 -0.42972204169E+02 -0.66968357225E+03 -0.15944628627E+04  0.17299237355E+04  0.12699999809E+01 0.  1.
       -4    1    3    3    0  502  0.42972204169E+02  0.66968357225E+03  0.16257164190E+04  0.17587717832E+04  0.12699999809E+01 0. -1.
</event>
<event>
 5   0  0.1013863E-07  0.3508056E+04  0.7818609E-02  0.8111883E-01
       -1   -1    0    0    0  501  0.00000000000E+00  0.00000000000E+00  0.29475525017E+04  0.29475525017E+04  0.50400001928E-02 0.  1.
        1   -1    0    0  501    0  0.00000000000E+00  0.00000000000E+00 -0.10437862105E+04  0.10437862105E+04  0.50400001928E-02 0. -1.
    10030    2    1    2    0    0  0.00000000000E+00  0.00000000000E+00  0.19037662912E+04  0.39913387123E+04  0.35080562459E+04 0.  0.
        5    1    3    3  502    0 -0.18502381665E+03 -0.13353035636E+04  0.22286765464E+04  0.26046670916E+04  0.46999998093E+01 0.  1.
       -5    1    3    3    0  502  0.18502381665E+03  0.13353035636E+04 -0.32491025522E+03  0.13866716207E+04  0.46999998093E+01 0. -1.
</event>
<event>
 5   0  0.3219205E-07  0.3488573E+04  0.7818609E-02  0.8116503E-01
        2   -1    0    0  501    0  0.00000000000E+00  0.00000000000E+00  0.10869429544E+04  0.10869429544E+04  0.25500000920E-02 0. -1.
       -2   -1    0    0    0  501  0.00000000000E+00  0.00000000000E+00 -0.27991674310E+04  0.27991674310E+04  0.25500000920E-02 0.  1.
    10030    2    1    2    0    0  0.00000000000E+00  0.00000000000E+00 -0.17122244767E+04  0.38861103854E+04  0.34885729559E+04 0.  0.
        2    1    3    3  502    0  0.69388985545E+03  0.82684863348E+02 -0.26364240873E+04  0.27274625362E+04  0.25500000920E-02 0.  1.
       -2    1    3    3    0  502 -0.69388985545E+03 -0.82684863348E+02  0.92419961064E+03  0.11586478492E+04  0.25500000920E-02 0. -1.
</event>
<event>
 5   0  0.1098171E-07  0.3507403E+04  0.7818609E-02  0.8112038E-01
       -1   -1    0    0    0  501  0.00000000000E+00  0.00000000000E+00  0.13484767558E+04  0.13484767558E+04  0.50400001928E-02 0.  1.
        1   -1    0    0  501    0  0.00000000000E+00  0.00000000000E+00 -0.22806989896E+04  0.22806989896E+04  0.50400001928E-02 0. -1.
    10030    2    1    2    0    0  0.00000000000E+00  0.00000000000E+00 -0.93222223387E+03  0.36291757454E+04  0.35074033555E+04 0.  0.
        4    1    3    3  502    0 -0.15182351218E+04  0.22901634977E+03 -0.13428675078E+04  0.20397992867E+04  0.12699999809E+01 0. -1.
       -4    1    3    3    0  502  0.15182351218E+04 -0.22901634977E+03  0.41064527392E+03  0.15893764587E+04  0.12699999809E+01 0.  1.
</event>
<event>
 5   0  0.2180451E-07  0.3512190E+04  0.7818609E-02  0.8110907E-01
        2   -1    0    0  501    0  0.00000000000E+00  0.00000000000E+00  0.15990939799E+04  0.15990939799E+04  0.25500000920E-02 0.  1.
       -2   -1    0    0    0  501  0.00000000000E+00  0.00000000000E+00 -0.19285104711E+04  0.19285104711E+04  0.25500000920E-02 0. -1.
    10030    2    1    2    0    0  0.00000000000E+00  0.00000000000E+00 -0.32941649122E+03  0.35276044510E+04  0.35121899063E+04 0.  0.
        4    1    3    3  502    0 -0.83040734298E+03 -0.36139508872E+03  0.13464498364E+04  0.16226865194E+04  0.12699999809E+01 0.  1.
       -4    1    3    3    0  502  0.83040734298E+03  0.36139508872E+03 -0.16758663276E+04  0.19049179316E+04  0.12699999809E+01 0. -1.
</event>
<event>
 5   0  0.1033796E-07  0.3513381E+04  0.7818609E-02  0.8110626E-01
        1   -1    0    0  501    0  0.00000000000E+00  0.00000000000E+00  0.19436049937E+04  0.19436049937E+04  0.50400001928E-02 0.  1.
       -1   -1    0    0    0  501  0.00000000000E+00  0.00000000000E+00 -0.15877517309E+04  0.15877517309E+04  0.50400001928E-02 0. -1.
    10030    2    1    2    0    0  0.00000000000E+00  0.00000000000E+00  0.35585326277E+03  0.35313567247E+04  0.35133813872E+04 0.  0.
        3    1    3    3  502    0 -0.13603409418E+04 -0.18709845454E+02  0.12949561653E+04  0.18782409368E+04  0.10100000352E+00 0.  1.
       -3    1    3    3    0  502  0.13603409418E+04  0.18709845454E+02 -0.93910290253E+03  0.16531157879E+04  0.10100000352E+00 0. -1.
</event>
<event>
 5   0  0.3119048E-07  0.3498737E+04  0.7818609E-02  0.8114089E-01
       -2   -1    0    0    0  501  0.00000000000E+00  0.00000000000E+00  0.16164087982E+04  0.16164087982E+04  0.25500000920E-02 0.  1.
        2   -1    0    0  501    0  0.00000000000E+00  0.00000000000E+00 -0.18932649412E+04  0.18932649412E+04  0.25500000920E-02 0. -1.
    10030    2    1    2    0    0  0.00000000000E+00  0.00000000000E+00 -0.27685614303E+03  0.35096737394E+04  0.34987369769E+04 0.  0.
        3    1    3    3  502    0 -0.77722145250E+03 -0.74039269496E+03  0.12472064172E+04  0.16455328578E+04  0.10100000352E+00 0.  1.
       -3    1    3    3    0  502  0.77722145250E+03  0.74039269496E+03 -0.15240625602E+04  0.18641408816E+04  0.10100000352E+00 0. -1.
</event>
<event>
 5   0  0.3190112E-07  0.3497721E+04  0.7818609E-02  0.8114330E-01
       -2   -1    0    0    0  501  0.00000000000E+00  0.00000000000E+00  0.24081153256E+04  0.24081153256E+04  0.25500000920E-02 0. -1.
        2   -1    0    0  501    0  0.00000000000E+00  0.00000000000E+00 -0.12700858124E+04  0.12700858124E+04  0.25500000920E-02 0.  1.
    10030    2    1    2    0    0  0.00000000000E+00  0.00000000000E+00  0.11380295131E+04  0.36782011380E+04  0.34977210350E+04 0.  0.
        5    1    3    3  502    0  0.74199812981E+03  0.14606992151E+04 -0.74343715102E+02  0.16400464932E+04  0.46999998093E+01 0.  1.
       -5    1    3    3    0  502 -0.74199812981E+03 -0.14606992151E+04  0.12123732282E+04  0.20381546449E+04  0.46999998093E+01 0. -1.
</event>
<event>
 5   0  0.3190185E-07  0.3499215E+04  0.7818609E-02  0.8113976E-01
       -2   -1    0    0    0  501  0.00000000000E+00  0.00000000000E+00  0.22964316167E+04  0.22964316167E+04  0.25500000920E-02 0.  1.
        2   -1    0    0  501    0  0.00000000000E+00  0.00000000000E+00 -0.13329928115E+04  0.13329928115E+04  0.25500000920E-02 0. -1.
    10030    2    1    2    0    0  0.00000000000E+00  0.00000000000E+00  0.96343880525E+03  0.36294244282E+04  0.34992152475E+04 0.  0.
        1    1    3    3  502    0 -0.11244634577E+04 -0.39166077094E+03 -0.84789873106E+03  0.14617621165E+04  0.50400001928E-02 0. -1.
       -1    1    3    3    0  502  0.11244634577E+04  0.39166077094E+03  0.18113375363E+04  0.21676623117E+04  0.50400001928E-02 0.  1.
</event>
<event>
 5   0  0.1013863E-07  0.3525113E+04  0.7818609E-02  0.8107864E-01
       -1   -1    0    0    0  501  0.00000000000E+00  0.00000000000E+00  0.19300587278E+04  0.19300587279E+04  0.50400001928E-02 0.  1.
        1   -1    0    0  501    0  0.00000000000E+00  0.00000000000E+00 -0.16095915650E+04  0.16095915650E+04  0.50400001928E-02 0. -1.
    10030    2    1    2    0    0  0.00000000000E+00  0.00000000000E+00  0.32046716284E+03  0.35396502929E+04  0.35251134724E+04 0.  0.
        2    1    3    3  502    0 -0.92199560755E+03  0.13516053325E+04  0.81844677564E+03  0.18294173935E+04  0.25500000920E-02 0. -1.
       -2    1    3    3    0  502  0.92199560755E+03 -0.13516053325E+04 -0.49797961280E+03  0.17102328993E+04  0.25500000920E-02 0.  1.
</event>
<event>
 5   0  0.1033796E-07  0.3516118E+04  0.7818609E-02  0.8109981E-01
        1   -1    0    0  501    0  0.00000000000E+00  0.00000000000E+00  0.30342108091E+04  0.30342108091E+04  0.50400001928E-02 0.  1.
       -1   -1    0    0    0  501  0.00000000000E+00  0.00000000000E+00 -0.10186410914E+04  0.10186410914E+04  0.50400001928E-02 0. -1.
    10030    2    1    2    0    0  0.00000000000E+00  0.00000000000E+00  0.20155697177E+04  0.40528519005E+04  0.35161182063E+04 0.  0.
        3    1    3    3  502    0 -0.82121089784E+03 -0.15407184157E+04  0.76996104510E+03  0.19081510937E+04  0.10100000352E+00 0.  1.
       -3    1    3    3    0  502  0.82121089784E+03  0.15407184157E+04  0.12456086726E+04  0.21447008068E+04  0.10100000352E+00 0. -1.
</event>
<event>
 5   0  0.1072381E-07  0.3495152E+04  0.7818609E-02  0.8114940E-01
        1   -1    0    0  501    0  0.00000000000E+00  0.00000000000E+00  0.17481017399E+04  0.17481017399E+04  0.50400001928E-02 0. -1.
       -1   -1    0    0    0  501  0.00000000000E+00  0.00000000000E+00 -0.17470505179E+04  0.17470505179E+04  0.50400001928E-02 0.  1.
    10030    2    1    2    0    0  0.00000000000E+00  0.00000000000E+00  0.10512219990E+01  0.34951522579E+04  0.34951520998E+04 0.  0.
        1    1    3    3  502    0  0.31154594775E+02  0.15064900346E+04  0.88570315697E+03  0.17478423600E+04  0.50400001928E-02 0. -1.
       -1    1    3    3    0  502 -0.31154594775E+02 -0.15064900346E+04 -0.88465193497E+03  0.17473098979E+04  0.50400001928E-02 0.  1.
</event>
<event>
 5   0  0.2180451E-07  0.3480268E+04  0.7818609E-02  0.8118482E-01
       -2   -1    0    0    0  501  0.00000000000E+00  0.00000000000E+00  0.12873017314E+04  0.12873017314E+04  0.25500000920E-02 0.  1.
        2   -1    0    0  501    0  0.00000000000E+00  0.00000000000E+00 -0.23522587568E+04  0.23522587568E+04  0.25500000920E-02 0. -1.
    10030    2    1    2    0    0  0.00000000000E+00  0.00000000000E+00 -0.10649570254E+04  0.36395604883E+04  0.34802682486E+04 0.  0.
        4    1    3    3  502    0  0.42261676154E+03 -0.88455814230E+03 -0.20359952236E+04  0.22597181678E+04  0.12699999809E+01 0. -1.
       -4    1    3    3    0  502 -0.42261676154E+03  0.88455814230E+03  0.97103819821E+03  0.13798423205E+04  0.12699999809E+01 0.  1.
</event>
<event>
 5   0  0.1013863E-07  0.3492455E+04  0.7818609E-02  0.8115580E-01
       -1   -1    0    0    0  501  0.00000000000E+00  0.00000000000E+00  0.27551320496E+04  0.27551320496E+04  0.50400001928E-02 0.  1.
        1   -1    0    0  501    0  0.00000000000E+00  0.00000000000E+00 -0.11067744424E+04  0.11067744424E+04  0.50400001928E-02 0. -1.
    10030    2    1    2    0    0  0.00000000000E+00  0.00000000000E+00  0.16483576072E+04  0.38619064920E+04  0.34924545741E+04 0.  0.
        5    1    3    3  502    0  0.11548901883E+04  0.92065136089E+03  0.18543518406E+04  0.23706566841E+04  0.46999998093E+01 0.  1.
       -5    1    3    3    0  502 -0.11548901883E+04 -0.92065136089E+03 -0.20599423339E+03  0.14912498079E+04  0.46999998093E+01 0. -1.
</event>
<event>
 5   0  0.1098171E-07  0.3498037E+04  0.7818609E-02  0.8114255E-01
        1   -1    0    0  501    0  0.00000000000E+00  0.00000000000E+00  0.12968311770E+04  0.12968311770E+04  0.50400001928E-02 0. -1.
       -1   -1    0    0    0  501  0.00000000000E+00  0.00000000000E+00 -0.23588779067E+04  0.23588779067E+04  0.50400001928E-02 0.  1.
    10030    2    1    2    0    0  0.00000000000E+00  0.00000000000E+00 -0.10620467298E+04  0.36557090837E+04  0.34980373995E+04 0.  0.
        4    1    3    3  502    0 -0.15734787531E+04  0.46790104892E+03  0.99753252101E+02  0.16446030227E+04  0.12699999809E+01 0. -1.
       -4    1    3    3    0  502  0.15734787531E+04 -0.46790104892E+03 -0.11617999819E+04  0.20111060610E+04  0.12699999809E+01 0.  1.
</event>
<event>
 5   0  0.1013863E-07  0.3487883E+04  0.7818609E-02  0.8116668E-01
       -1   -1    0    0    0  501  0.00000000000E+00  0.00000000000E+00  0.17208778226E+04  0.17208778227E+04  0.50400001928E-02 0. -1.
        1   -1    0    0  501    0  0.00000000000E+00  0.00000000000E+00 -0.17673137933E+04  0.17673137934E+04  0.50400001928E-02 0.  1.
    10030    2    1    2    0    0  0.00000000000E+00  0.00000000000E+00 -0.46435970699E+02  0.34881916160E+04  0.34878825168E+04 0.  0.
        2    1    3    3  502    0 -0.40668890407E+03 -0.45047370263E+03  0.16118607531E+04  0.17223290943E+04  0.25500000920E-02 0. -1.
       -2    1    3    3    0  502  0.40668890407E+03  0.45047370263E+03 -0.16582967238E+04  0.17658625218E+04  0.25500000920E-02 0.  1.
</event>
<event>
 5   0  0.3190185E-07  0.3489734E+04  0.7818609E-02  0.8116227E-01
       -2   -1    0    0    0  501  0.00000000000E+00  0.00000000000E+00  0.13407651800E+04  0.13407651800E+04  0.25500000920E-02 0. -1.
        2   -1    0    0  501    0  0.00000000000E+00  0.00000000000E+00 -0.22707638819E+04  0.22707638819E+04  0.25500000920E-02 0.  1.
    10030    2    1    2    0    0  0.00000000000E+00  0.00000000000E+00 -0.92999870186E+03  0.36115290619E+04  0.34897341703E+04 0.  0.
        1    1    3    3  502    0  0.87416711523E+03 -0.23119657404E+03 -0.20093756839E+04  0.22034542519E+04  0.50400001928E-02 0.  1.
       -1    1    3    3    0  502 -0.87416711523E+03  0.23119657404E+03  0.10793769820E+04  0.14080748100E+04  0.50400001928E-02 0. -1.
</event>
<event>
 5   0  0.2180451E-07  0.3496587E+04  0.7818609E-02  0.8114599E-01
       -2   -1    0    0    0  501  0.00000000000E+00  0.00000000000E+00  0.14208221985E+04  0.14208221985E+04  0.25500000920E-02 0. -1.
        2   -1    0    0  501    0  0.00000000000E+00  0.00000000000E+00 -0.21512400937E+04  0.21512400937E+04  0.25500000920E-02 0.  1.
    10030    2    1    2    0    0  0.00000000000E+00  0.00000000000E+00 -0.73041789524E+03  0.35720622922E+04  0.34965867239E+04 0.  0.
        4    1    3    3  502    0 -0.13123578377E+03  0.41463186410E+03  0.13646782058E+04  0.14323025630E+04  0.12699999809E+01 0. -1.
       -4    1    3    3    0  502  0.13123578377E+03 -0.41463186410E+03 -0.20950961010E+04  0.21397597293E+04  0.12699999809E+01 0.  1.
</event>
<event>
 5   0  0.3190185E-07  0.3503835E+04  0.7818609E-02  0.8112882E-01
       -2   -1    0    0    0  501  0.00000000000E+00  0.00000000000E+00  0.22300082567E+04  0.22300082567E+04  0.25500000920E-02 0. -1.
        2   -1    0    0  501    0  0.00000000000E+00  0.00000000000E+00 -0.13763248325E+04  0.13763248325E+04  0.25500000920E-02 0.  1.
    10030    2    1    2    0    0  0.00000000000E+00  0.00000000000E+00  0.85368342426E+03  0.36063330892E+04  0.35038354644E+04 0.  0.
        1    1    3    3  502    0 -0.65259213849E+03 -0.16117107025E+04  0.20674551661E+03  0.17510658459E+04  0.50400001928E-02 0.  1.
       -1    1    3    3    0  502  0.65259213849E+03  0.16117107025E+04  0.64693790764E+03  0.18552672433E+04  0.50400001928E-02 0. -1.
</event>
<event>
 5   0  0.3190185E-07  0.3500031E+04  0.7818609E-02  0.8113783E-01
       -2   -1    0    0    0  501  0.00000000000E+00  0.00000000000E+00  0.10673033193E+04  0.10673033193E+04  0.25500000920E-02 0. -1.
        2   -1    0    0  501    0  0.00000000000E+00  0.00000000000E+00 -0.28694324552E+04  0.28694324552E+04  0.25500000920E-02 0.  1.
    10030    2    1    2    0    0  0.00000000000E+00  0.00000000000E+00 -0.18021291359E+04  0.39367357745E+04  0.35000313050E+04 0.  0.
        1    1    3    3  502    0  0.77762610774E+03 -0.27117580690E+03 -0.26378503450E+04  0.27634205479E+04  0.50400001928E-02 0.  1.
       -1    1    3    3    0  502 -0.77762610774E+03  0.27117580690E+03  0.83572120913E+03  0.11733152267E+04  0.50400001928E-02 0. -1.
</event>
<event>
 5   0  0.1013863E-07  0.3496735E+04  0.7818609E-02  0.8114564E-01
       -1   -1    0    0    0  501  0.00000000000E+00  0.00000000000E+00  0.12134497555E+04  0.12134497555E+04  0.50400001928E-02 0. -1.
        1   -1    0    0  501    0  0.00000000000E+00  0.00000000000E+00 -0.25190894201E+04  0.25190894201E+04  0.50400001928E-02 0.  1.
    10030    2    1    2    0    0  0.00000000000E+00  0.00000000000E+00 -0.13056396646E+04  0.37325391756E+04  0.34967347288E+04 0.  0.
        5    1    3    3  502    0  0.11323232938E+04 -0.11114869204E+04  0.13100587485E+03  0.15920878886E+04  0.46999998093E+01 0. -1.
       -5    1    3    3    0  502 -0.11323232938E+04  0.11114869204E+04 -0.14366455394E+04  0.21404512870E+04  0.46999998093E+01 0.  1.
</event>
<event>
 5   0  0.1013863E-07  0.3507366E+04  0.7818609E-02  0.8112047E-01
       -1   -1    0    0    0  501  0.00000000000E+00  0.00000000000E+00  0.13718863148E+04  0.13718863148E+04  0.50400001928E-02 0. -1.
        1   -1    0    0  501    0  0.00000000000E+00  0.00000000000E+00 -0.22417334906E+04  0.22417334906E+04  0.50400001928E-02 0.  1.
    10030    2    1    2    0    0  0.00000000000E+00  0.00000000000E+00 -0.86984717581E+03  0.36136198054E+04  0.35073656766E+04 0.  0.
        2    1    3    3  502    0 -0.11967249657E+04 -0.10759927023E+04  0.28295780849E+03  0.16340061384E+04  0.25500000920E-02 0. -1.
       -2    1    3    3    0  502  0.11967249657E+04  0.10759927023E+04 -0.11528049843E+04  0.19796136670E+04  0.25500000920E-02 0.  1.
</event>
<event>
 5   0  0.1033796E-07  0.3494265E+04  0.7818609E-02  0.8115150E-01
        1   -1    0    0  501    0  0.00000000000E+00  0.00000000000E+00  0.16115277390E+04  0.16115277390E+04  0.50400001928E-02 0. -1.
       -1   -1    0    0    0  501  0.00000000000E+00  0.00000000000E+00 -0.18941481305E+04  0.18941481305E+04  0.50400001928E-02 0.  1.
    10030    2    1    2    0    0  0.00000000000E+00  0.00000000000E+00 -0.28262039146E+03  0.35056758695E+04  0.34942651611E+04 0.  0.
        3    1    3    3  502    0 -0.15266792368E+04  0.84795635410E+03 -0.19337158928E+03  0.17570350174E+04  0.10100000352E+00 0.  1.
       -3    1    3    3    0  502  0.15266792368E+04 -0.84795635410E+03 -0.89248802175E+02  0.17486408521E+04  0.10100000352E+00 0. -1.
</event>
<event>
 5   0  0.1072381E-07  0.3490504E+04  0.7818609E-02  0.8116044E-01
        1   -1    0    0  501    0  0.00000000000E+00  0.00000000000E+00  0.15873681946E+04  0.15873681946E+04  0.50400001928E-02 0.  1.
       -1   -1    0    0    0  501  0.00000000000E+00  0.00000000000E+00 -0.19188392822E+04  0.19188392822E+04  0.50400001928E-02 0. -1.
    10030    2    1    2    0    0  0.00000000000E+00  0.00000000000E+00 -0.33147108760E+03  0.35062074769E+04  0.34905039448E+04 0.  0.
        1    1    3    3  502    0 -0.50964766132E+03  0.47361043573E+03  0.14420455186E+04  0.16011067614E+04  0.50400001928E-02 0.  1.
       -1    1    3    3    0  502  0.50964766132E+03 -0.47361043573E+03 -0.17735166062E+04  0.19051007155E+04  0.50400001928E-02 0. -1.
</event>
<event>
 5   0  0.2180451E-07  0.3494237E+04  0.7818609E-02  0.8115157E-01
        2   -1    0    0  501    0  0.00000000000E+00  0.00000000000E+00  0.22506714693E+04  0.22506714693E+04  0.25500000920E-02 0. -1.
       -2   -1    0    0    0  501  0.00000000000E+00  0.00000000000E+00 -0.13562276287E+04  0.13562276287E+04  0.25500000920E-02 0.  1.
    10030    2    1    2    0    0  0.00000000000E+00  0.00000000000E+00  0.89444384056E+03  0.36068990979E+04  0.34942368722E+04 0.  0.
        4    1    3    3  502    0 -0.53058802606E+03  0.69388252007E+03 -0.11146478692E+04  0.14161349125E+04  0.12699999809E+01 0.  1.
       -4    1    3    3    0  502  0.53058802606E+03 -0.69388252007E+03  0.20090917098E+04  0.21907641855E+04  0.12699999809E+01 0. -1.
</event>
<event>
 5   0  0.2180451E-07  0.3459479E+04  0.7818609E-02  0.8123460E-01
       -2   -1    0    0    0  501  0.00000000000E+00  0.00000000000E+00  0.14691208400E+04  0.14691208400E+04  0.25500000920E-02 0. -1.
        2   -1    0    0  501    0  0.00000000000E+00  0.00000000000E+00 -0.20365917478E+04  0.20365917478E+04  0.25500000920E-02 0.  1.
    10030    2    1    2    0    0  0.00000000000E+00  0.00000000000E+00 -0.56747090777E+03  0.35057125878E+04  0.34594793708E+04 0.  0.
        4    1    3    3  502    0 -0.54516358177E+03 -0.34648183053E+03  0.13423099033E+04  0.14896477702E+04  0.12699999809E+01 0. -1.
       -4    1    3    3    0  502  0.54516358177E+03  0.34648183053E+03 -0.19097808111E+04  0.20160648176E+04  0.12699999809E+01 0.  1.
</event>
<event>
 5   0  0.3219205E-07  0.3511895E+04  0.7818609E-02  0.8110977E-01
        2   -1    0    0  501    0  0.00000000000E+00  0.00000000000E+00  0.33505782917E+04  0.33505782917E+04  0.25500000920E-02 0. -1.
       -2   -1    0    0    0  501  0.00000000000E+00  0.00000000000E+00 -0.92024462615E+03  0.92024462615E+03  0.25500000920E-02 0.  1.
    10030    2    1    2    0    0  0.00000000000E+00  0.00000000000E+00  0.24303336655E+04  0.42708229179E+04  0.35118950254E+04 0.  0.
        2    1    3    3  502    0 -0.11906626829E+04  0.25436276449E+03  0.27538957927E+04  0.30110330582E+04  0.25500000920E-02 0. -1.
       -2    1    3    3    0  502  0.11906626829E+04 -0.25436276449E+03 -0.32356212712E+03  0.12597898597E+04  0.25500000920E-02 0.  1.
</event>
<event>
 5   0  0.1072381E-07  0.3502758E+04  0.7818609E-02  0.8113137E-01
       -1   -1    0    0    0  501  0.00000000000E+00  0.00000000000E+00  0.13365008275E+04  0.13365008275E+04  0.50400001928E-02 0.  1.
        1   -1    0    0  501    0  0.00000000000E+00  0.00000000000E+00 -0.22950443582E+04  0.22950443582E+04  0.50400001928E-02 0. -1.
    10030    2    1    2    0    0  0.00000000000E+00  0.00000000000E+00 -0.95854353069E+03  0.36315451856E+04  0.35027581611E+04 0.  0.
        1    1    3    3  502    0 -0.61946839102E+03  0.97492193599E+03 -0.18441533243E+04  0.21760320200E+04  0.50400001928E-02 0. -1.
       -1    1    3    3    0  502  0.61946839102E+03 -0.97492193599E+03  0.88560979358E+03  0.14555131656E+04  0.50400001928E-02 0.  1.
</event>
<event>
 5   0  0.3190185E-07  0.3456001E+04  0.7818609E-02  0.8124297E-01
        2   -1    0    0  501    0  0.00000000000E+00  0.00000000000E+00  0.22399230206E+04  0.22399230206E+04  0.25500000920E-02 0. -1.
       -2   -1    0    0    0  501  0.00000000000E+00  0.00000000000E+00 -0.13330748806E+04  0.13330748806E+04  0.25500000920E-02 0.  1.
    10030    2    1    2    0    0  0.00000000000E+00  0.00000000000E+00  0.90684814005E+03  0.35729979012E+04  0.34560006442E+04 0.  0.
        1    1    3    3  502    0  0.10376387032E+04  0.13677407178E+04  0.25036631050E+03  0.17349616823E+04  0.50400001928E-02 0.  1.
       -1    1    3    3    0  502 -0.10376387032E+04 -0.13677407178E+04  0.65648182955E+03  0.18380362189E+04  0.50400001928E-02 0. -1.
</event>
<event>
 5   0  0.3190112E-07  0.3501943E+04  0.7818609E-02  0.8113330E-01
       -2   -1    0    0    0  501  0.00000000000E+00  0.00000000000E+00  0.12817604795E+04  0.12817604795E+04  0.25500000920E-02 0. -1.
        2   -1    0    0  501    0  0.00000000000E+00  0.00000000000E+00 -0.23919458730E+04  0.23919458730E+04  0.25500000920E-02 0.  1.
    10030    2    1    2    0    0  0.00000000000E+00  0.00000000000E+00 -0.11101853935E+04  0.36737063525E+04  0.35019432829E+04 0.  0.
        5    1    3    3  502    0  0.15368891839E+04  0.76146350706E+03 -0.18564821517E+03  0.17252079254E+04  0.46999998093E+01 0.  1.
       -5    1    3    3    0  502 -0.15368891839E+04 -0.76146350706E+03 -0.92453717830E+03  0.19484984271E+04  0.46999998093E+01 0. -1.
</event>
<event>
 5   0  0.2180451E-07  0.3480104E+04  0.7818609E-02  0.8118521E-01
       -2   -1    0    0    0  501  0.00000000000E+00  0.00000000000E+00  0.15536622094E+04  0.15536622094E+04  0.25500000920E-02 0. -1.
        2   -1    0    0  501    0  0.00000000000E+00  0.00000000000E+00 -0.19488029652E+04  0.19488029652E+04  0.25500000920E-02 0.  1.
    10030    2    1    2    0    0  0.00000000000E+00  0.00000000000E+00 -0.39514075576E+03  0.35024651746E+04  0.34801043206E+04 0.  0.
        4    1    3    3  502    0 -0.82391828531E+03 -0.98756834942E+03 -0.13771280643E+04  0.18843078050E+04  0.12699999809E+01 0.  1.
       -4    1    3    3    0  502  0.82391828531E+03  0.98756834942E+03  0.98198730854E+03  0.16181573696E+04  0.12699999809E+01 0. -1.
</event>
<event>
 5   0  0.1072381E-07  0.3488662E+04  0.7818609E-02  0.8116482E-01
        1   -1    0    0  501    0  0.00000000000E+00  0.00000000000E+00  0.15018858030E+04  0.15018858030E+04  0.50400001928E-02 0.  1.
       -1   -1    0    0    0  501  0.00000000000E+00  0.00000000000E+00 -0.20259132134E+04  0.20259132134E+04  0.50400001928E-02 0. -1.
    10030    2    1    2    0    0  0.00000000000E+00  0.00000000000E+00 -0.52402741041E+03  0.35277990164E+04  0.34886618026E+04 0.  0.
        1    1    3    3  502    0  0.75894920451E+03 -0.14751426175E+04  0.28314524609E+03  0.16829203390E+04  0.50400001928E-02 0.  1.
       -1    1    3    3    0  502 -0.75894920451E+03  0.14751426175E+04 -0.80717265650E+03  0.18448786774E+04  0.50400001928E-02 0. -1.
</event>
<event>
 5   0  0.1098171E-07  0.3476883E+04  0.7818609E-02  0.8119290E-01
        1   -1    0    0  501    0  0.00000000000E+00  0.00000000000E+00  0.10829198148E+04  0.10829198148E+04  0.50400001928E-02 0. -1.
       -1   -1    0    0    0  501  0.00000000000E+00  0.00000000000E+00 -0.27907686557E+04  0.27907686557E+04  0.50400001928E-02 0.  1.
    10030    2    1    2    0    0  0.00000000000E+00  0.00000000000E+00 -0.17078488408E+04  0.38736884705E+04  0.34768829004E+04 0.  0.
        4    1    3    3  502    0  0.75751887366E+03 -0.14229287854E+04 -0.15790625607E+04  0.22565463336E+04  0.12699999809E+01 0.  1.
       -4    1    3    3    0  502 -0.75751887366E+03  0.14229287854E+04 -0.12878628016E+03  0.16171421369E+04  0.12699999809E+01 0. -1.
</event>
<event>
 5   0  0.1033796E-07  0.3495511E+04  0.7818609E-02  0.8114855E-01
        1   -1    0    0  501    0  0.00000000000E+00  0.00000000000E+00  0.10356921377E+04  0.10356921377E+04  0.50400001928E-02 0. -1.
       -1   -1    0    0    0  501  0.00000000000E+00  0.00000000000E+00 -0.29493802017E+04  0.29493802017E+04  0.50400001928E-02 0.  1.
    10030    2    1    2    0    0  0.00000000000E+00  0.00000000000E+00 -0.19136880639E+04  0.39850723394E+04  0.34955113423E+04 0.  0.
        3    1    3    3  502    0 -0.94785664045E+02 -0.58469603286E+03 -0.28314606498E+04  0.28927535661E+04  0.10100000352E+00 0.  1.
       -3    1    3    3    0  502  0.94785664045E+02  0.58469603286E+03  0.91777258581E+03  0.10923187733E+04  0.10100000352E+00 0. -1.
</event>
<event>
 5   0  0.2180451E-07  0.3472149E+04  0.7818609E-02  0.8120422E-01
       -2   -1    0    0    0  501  0.00000000000E+00  0.00000000000E+00  0.17569785111E+04  0.17569785111E+04  0.25500000920E-02 0.  1.
        2   -1    0    0  501    0  0.00000000000E+00  0.00000000000E+00 -0.17154187099E+04  0.17154187099E+04  0.25500000920E-02 0. -1.
    10030    2    1    2    0    0  0.00000000000E+00  0.00000000000E+00  0.41559801205E+02  0.34723972211E+04  0.34721485054E+04 0.  0.
        4    1    3    3  502    0 -0.80392045207E+03 -0.96598039024E+03  0.12185910358E+04  0.17505347563E+04  0.12699999809E+01 0.  1.
       -4    1    3    3    0  502  0.80392045207E+03  0.96598039024E+03 -0.11770312346E+04  0.17218624648E+04  0.12699999809E+01 0. -1.
</event>
<event>
 5   0  0.3190112E-07  0.3480405E+04  0.7818609E-02  0.8118449E-01
        2   -1    0    0  501    0  0.00000000000E+00  0.00000000000E+00  0.17813158827E+04  0.17813158827E+04  0.25500000920E-02 0.  1.
       -2   -1    0    0    0  501  0.00000000000E+00  0.00000000000E+00 -0.17000381765E+04  0.17000381765E+04  0.25500000920E-02 0. -1.
    10030    2    1    2    0    0  0.00000000000E+00  0.00000000000E+00  0.81277706207E+02  0.34813540591E+04  0.34804051516E+04 0.  0.
        5    1    3    3  502    0  0.11908229138E+03 -0.95383030879E+03  0.14916583813E+04  0.17745533710E+04  0.46999998093E+01 0.  1.
       -5    1    3    3    0  502 -0.11908229138E+03  0.95383030879E+03 -0.14103806751E+04  0.17068006881E+04  0.46999998093E+01 0. -1.
</event>
<event>
 5   0  0.3219205E-07  0.3491716E+04  0.7818609E-02  0.8115756E-01
       -2   -1    0    0    0  501  0.00000000000E+00  0.00000000000E+00  0.16880811168E+04  0.16880811168E+04  0.25500000920E-02 0. -1.
        2   -1    0    0  501    0  0.00000000000E+00  0.00000000000E+00 -0.18056126515E+04  0.18056126515E+04  0.25500000920E-02 0.  1.
    10030    2    1    2    0    0  0.00000000000E+00  0.00000000000E+00 -0.11753153465E+03  0.34936937683E+04  0.34917162664E+04 0.  0.
        2    1    3    3  502    0  0.49711838405E+03 -0.11069141192E+04 -0.13147196936E+04  0.17890984958E+04  0.25500000920E-02 0.  1.
       -2    1    3    3    0  502 -0.49711838405E+03  0.11069141192E+04  0.11971881590E+04  0.17045952725E+04  0.25500000920E-02 0. -1.
</event>
<event>
 5   0  0.3190185E-07  0.3518698E+04  0.7818609E-02  0.8109373E-01
       -2   -1    0    0    0  501  0.00000000000E+00  0.00000000000E+00  0.15845282613E+04  0.15845282613E+04  0.25500000920E-02 0. -1.
        2   -1    0    0  501    0  0.00000000000E+00  0.00000000000E+00 -0.19534578865E+04  0.19534578865E+04  0.25500000920E-02 0.  1.
    10030    2    1    2    0    0  0.00000000000E+00  0.00000000000E+00 -0.36892962524E+03  0.35379861478E+04  0.35186981845E+04 0.  0.
        1    1    3    3  502    0 -0.12801143844E+04  0.11492061341E+04  0.18625891544E+03  0.17303352159E+04  0.50400001928E-02 0.  1.
       -1    1    3    3    0  502  0.12801143844E+04 -0.11492061341E+04 -0.55518854068E+03  0.18076509319E+04  0.50400001928E-02 0. -1.
</event>
<event>
 5   0  0.3219205E-07  0.3370366E+04  0.7818609E-02  0.8145218E-01
       -2   -1    0    0    0  501  0.00000000000E+00  0.00000000000E+00  0.14860802478E+04  0.14860802478E+04  0.25500000920E-02 0.  1.
        2   -1    0    0  501    0  0.00000000000E+00  0.00000000000E+00 -0.19109616767E+04  0.19109616767E+04  0.25500000920E-02 0. -1.
    10030    2    1    2    0    0  0.00000000000E+00  0.00000000000E+00 -0.42488142892E+03  0.33970419246E+04  0.33703663909E+04 0.  0.
        2    1    3    3  502    0  0.13601776451E+04 -0.67201173877E+03  0.52695896198E+03  0.16060413291E+04  0.25500000920E-02 0.  1.
       -2    1    3    3    0  502 -0.13601776451E+04  0.67201173877E+03 -0.95184039090E+03  0.17910005955E+04  0.25500000920E-02 0. -1.
</event>
<event>
 5   0  0.3119048E-07  0.3502506E+04  0.7818609E-02  0.8113196E-01
        2   -1    0    0  501    0  0.00000000000E+00  0.00000000000E+00  0.23404767259E+04  0.23404767259E+04  0.25500000920E-02 0. -1.
       -2   -1    0    0    0  501  0.00000000000E+00  0.00000000000E+00 -0.13103684986E+04  0.13103684986E+04  0.25500000920E-02 0.  1.
    10030    2    1    2    0    0  0.00000000000E+00  0.00000000000E+00  0.10301082274E+04  0.36508452245E+04  0.35025059448E+04 0.  0.
        3    1    3    3  502    0  0.44706184845E+03 -0.14802633753E+04 -0.34186030946E+03  0.15836389860E+04  0.10100000352E+00 0.  1.
       -3    1    3    3    0  502 -0.44706184845E+03  0.14802633753E+04  0.13719685368E+04  0.20672062386E+04  0.10100000352E+00 0. -1.
</event>
<event>
 5   0  0.3119048E-07  0.3405577E+04  0.7818609E-02  0.8136539E-01
        2   -1    0    0  501    0  0.00000000000E+00  0.00000000000E+00  0.15426402108E+04  0.15426402108E+04  0.25500000920E-02 0. -1.
       -2   -1    0    0    0  501  0.00000000000E+00  0.00000000000E+00 -0.18795620256E+04  0.18795620256E+04  0.25500000920E-02 0.  1.
    10030    2    1    2    0    0  0.00000000000E+00  0.00000000000E+00 -0.33692181480E+03  0.34222022365E+04  0.34055765794E+04 0.  0.
        3    1    3    3  502    0 -0.35304306340E+03 -0.41457239663E+03  0.14527902227E+04  0.15514860998E+04  0.10100000352E+00 0. -1.
       -3    1    3    3    0  502  0.35304306340E+03  0.41457239663E+03 -0.17897120375E+04  0.18707161366E+04  0.10100000352E+00 0.  1.
</event>
<event>
 5   0  0.2180451E-07  0.3350417E+04  0.7818609E-02  0.8150184E-01
       -2   -1    0    0    0  501  0.00000000000E+00  0.00000000000E+00  0.14019030334E+04  0.14019030334E+04  0.25500000920E-02 0. -1.
        2   -1    0    0  501    0  0.00000000000E+00  0.00000000000E+00 -0.20017961856E+04  0.20017961856E+04  0.25500000920E-02 0.  1.
    10030    2    1    2    0    0  0.00000000000E+00  0.00000000000E+00 -0.59989315219E+03  0.34036992190E+04  0.33504173739E+04 0.  0.
        4    1    3    3  502    0  0.15601254969E+03 -0.12206885607E+04 -0.14546409700E+04  0.19053614991E+04  0.12699999809E+01 0.  1.
       -4    1    3    3    0  502 -0.15601254969E+03  0.12206885607E+04  0.85474781783E+03  0.14983377199E+04  0.12699999809E+01 0. -1.
</event>
<event>
 5   0  0.1033796E-07  0.3347963E+04  0.7818609E-02  0.8150797E-01
        1   -1    0    0  501    0  0.00000000000E+00  0.00000000000E+00  0.10882136788E+04  0.10882136788E+04  0.50400001928E-02 0. -1.
       -1   -1    0    0    0  501  0.00000000000E+00  0.00000000000E+00 -0.25750586235E+04  0.25750586235E+04  0.50400001928E-02 0.  1.
    10030    2    1    2    0    0  0.00000000000E+00  0.00000000000E+00 -0.14868449447E+04  0.36632723023E+04  0.33479629734E+04 0.  0.
        3    1    3    3  502    0 -0.55913237433E+03  0.60734666893E+03  0.84999550283E+03  0.11849014108E+04  0.10100000352E+00 0. -1.
       -3    1    3    3    0  502  0.55913237433E+03 -0.60734666893E+03 -0.23368404476E+04  0.24783708915E+04  0.10100000352E+00 0.  1.
</event>
<event>
 5   0  0.1013863E-07  0.3596576E+04  0.7818609E-02  0.8091276E-01
       -1   -1    0    0    0  501  0.00000000000E+00  0.00000000000E+00  0.10993855316E+04  0.10993855316E+04  0.50400001928E-02 0. -1.
        1   -1    0    0  501    0  0.00000000000E+00  0.00000000000E+00 -0.29414972442E+04  0.29414972442E+04  0.50400001928E-02 0.  1.
    10030    2    1    2    0    0  0.00000000000E+00  0.00000000000E+00 -0.18421117126E+04  0.40408827758E+04  0.35965758780E+04 0.  0.
        2    1    3    3  502    0  0.20078424794E+03  0.16729898326E+04 -0.16268567323E+04  0.23421938694E+04  0.25500000920E-02 0.  1.
       -2    1    3    3    0  502 -0.20078424794E+03 -0.16729898326E+04 -0.21525498032E+03  0.16986889065E+04  0.25500000920E-02 0. -1.
</event>
<event>
 5   0  0.1013863E-07  0.3504237E+04  0.7818609E-02  0.8112786E-01
       -1   -1    0    0    0  501  0.00000000000E+00  0.00000000000E+00  0.12687938622E+04  0.12687938622E+04  0.50400001928E-02 0.  1.
        1   -1    0    0  501    0  0.00000000000E+00  0.00000000000E+00 -0.24195575275E+04  0.24195575275E+04  0.50400001928E-02 0. -1.
    10030    2    1    2    0    0  0.00000000000E+00  0.00000000000E+00 -0.11507636653E+04  0.36883513897E+04  0.35042372866E+04 0.  0.
        2    1    3    3  502    0  0.47107088130E+03 -0.13918260378E+03  0.11948397662E+04  0.12918675007E+04  0.25500000920E-02 0.  1.
       -2    1    3    3    0  502 -0.47107088130E+03  0.13918260378E+03 -0.23456034315E+04  0.23964838890E+04  0.25500000920E-02 0. -1.
</event>
<event>
 5   0  0.1033796E-07  0.3503524E+04  0.7818609E-02  0.8112955E-01
       -1   -1    0    0    0  501  0.00000000000E+00  0.00000000000E+00  0.18205077714E+04  0.18205077714E+04  0.50400001928E-02 0.  1.
        1   -1    0    0  501    0  0.00000000000E+00  0.00000000000E+00 -0.16856123471E+04  0.16856123471E+04  0.50400001928E-02 0. -1.
    10030    2    1    2    0    0  0.00000000000E+00  0.00000000000E+00  0.13489542433E+03  0.35061201185E+04  0.35035241557E+04 0.  0.
        3    1    3    3  502    0  0.13996301701E+04 -0.78183630760E+02  0.11187464858E+04  0.17935080158E+04  0.10100000352E+00 0.  1.
       -3    1    3    3    0  502 -0.13996301701E+04  0.78183630760E+02 -0.98385106144E+03  0.17126121027E+04  0.10100000352E+00 0. -1.
</event>
<event>
 5   0  0.3190185E-07  0.3506180E+04  0.7818609E-02  0.8112327E-01
       -2   -1    0    0    0  501  0.00000000000E+00  0.00000000000E+00  0.22917247343E+04  0.22917247343E+04  0.25500000920E-02 0. -1.
        2   -1    0    0  501    0  0.00000000000E+00  0.00000000000E+00 -0.13410531421E+04  0.13410531421E+04  0.25500000920E-02 0.  1.
    10030    2    1    2    0    0  0.00000000000E+00  0.00000000000E+00  0.95067159218E+03  0.36327778764E+04  0.35061800615E+04 0.  0.
        1    1    3    3  502    0 -0.69068104771E+03  0.15223812236E+04 -0.71587180900E+02  0.16732631664E+04  0.50400001928E-02 0.  1.
       -1    1    3    3    0  502  0.69068104771E+03 -0.15223812236E+04  0.10222587731E+04  0.19595147100E+04  0.50400001928E-02 0. -1.
</event>
<event>
 5   0  0.1033796E-07  0.3502382E+04  0.7818609E-02  0.8113226E-01
       -1   -1    0    0    0  501  0.00000000000E+00  0.00000000000E+00  0.13550775163E+04  0.13550775163E+04  0.50400001928E-02 0. -1.
        1   -1    0    0  501    0  0.00000000000E+00  0.00000000000E+00 -0.22630953724E+04  0.22630953724E+04  0.50400001928E-02 0.  1.
    10030    2    1    2    0    0  0.00000000000E+00  0.00000000000E+00 -0.90801785617E+03  0.36181728887E+04  0.35023818503E+04 0.  0.
        3    1    3    3  502    0 -0.98120112026E+02 -0.60220143164E+03  0.12417202604E+04  0.13835256904E+04  0.10100000352E+00 0. -1.
       -3    1    3    3    0  502  0.98120112026E+02  0.60220143164E+03 -0.21497381166E+04  0.22346471983E+04  0.10100000352E+00 0.  1.
</event>
<event>
 5   0  0.3119048E-07  0.3469732E+04  0.7818609E-02  0.8121001E-01
       -2   -1    0    0    0  501  0.00000000000E+00  0.00000000000E+00  0.17251056441E+04  0.17251056441E+04  0.25500000920E-02 0.  1.
        2   -1    0    0  501    0  0.00000000000E+00  0.00000000000E+00 -0.17446816187E+04  0.17446816187E+04  0.25500000920E-02 0. -1.
    10030    2    1    2    0    0  0.00000000000E+00  0.00000000000E+00 -0.19575974558E+02  0.34697872628E+04  0.34697320401E+04 0.  0.
        3    1    3    3  502    0 -0.87743248993E+03 -0.87891214148E+03  0.12015882876E+04  0.17280592438E+04  0.10100000352E+00 0.  1.
       -3    1    3    3    0  502  0.87743248993E+03  0.87891214148E+03 -0.12211642622E+04  0.17417280190E+04  0.10100000352E+00 0. -1.
</event>
<event>
 5   0  0.1072381E-07  0.3500988E+04  0.7818609E-02  0.8113556E-01
       -1   -1    0    0    0  501  0.00000000000E+00  0.00000000000E+00  0.13444585282E+04  0.13444585282E+04  0.50400001928E-02 0. -1.
        1   -1    0    0  501    0  0.00000000000E+00  0.00000000000E+00 -0.22791544667E+04  0.22791544667E+04  0.50400001928E-02 0.  1.
    10030    2    1    2    0    0  0.00000000000E+00  0.00000000000E+00 -0.93469593847E+03  0.36236129949E+04  0.35009876662E+04 0.  0.
        1    1    3    3  502    0  0.40011096947E+03  0.38083784231E+03 -0.21865825497E+04  0.22552759247E+04  0.50400001928E-02 0.  1.
       -1    1    3    3    0  502 -0.40011096947E+03 -0.38083784231E+03  0.12518866112E+04  0.13683370701E+04  0.50400001928E-02 0. -1.
</event>
<event>
 5   0  0.2180451E-07  0.3497088E+04  0.7818609E-02  0.8114480E-01
        2   -1    0    0  501    0  0.00000000000E+00  0.00000000000E+00  0.15879966406E+04  0.15879966406E+04  0.25500000920E-02 0. -1.
       -2   -1    0    0    0  501  0.00000000000E+00  0.00000000000E+00 -0.19253225628E+04  0.19253225628E+04  0.25500000920E-02 0.  1.
    10030    2    1    2    0    0  0.00000000000E+00  0.00000000000E+00 -0.33732592224E+03  0.35133192034E+04  0.34970877951E+04 0.  0.
        4    1    3    3  502    0 -0.47761067805E+03  0.98382525939E+03  0.12019934482E+04  0.16250581415E+04  0.12699999809E+01 0. -1.
       -4    1    3    3    0  502  0.47761067805E+03 -0.98382525939E+03 -0.15393193704E+04  0.18882610619E+04  0.12699999809E+01 0.  1.
</event>
<event>
 5   0  0.2180451E-07  0.3497027E+04  0.7818609E-02  0.8114495E-01
        2   -1    0    0  501    0  0.00000000000E+00  0.00000000000E+00  0.15973904585E+04  0.15973904585E+04  0.25500000920E-02 0. -1.
       -2   -1    0    0    0  501  0.00000000000E+00  0.00000000000E+00 -0.19139341824E+04  0.19139341824E+04  0.25500000920E-02 0.  1.
    10030    2    1    2    0    0  0.00000000000E+00  0.00000000000E+00 -0.31654372386E+03  0.35113246409E+04  0.34970274241E+04 0.  0.
        4    1    3    3  502    0 -0.51162843339E+03 -0.14452024579E+04 -0.10024975290E+04  0.18317687372E+04  0.12699999809E+01 0.  1.
       -4    1    3    3    0  502  0.51162843339E+03  0.14452024579E+04  0.68595380512E+03  0.16795559037E+04  0.12699999809E+01 0. -1.
</event>
<event>
 5   0  0.1013863E-07  0.3499072E+04  0.7818609E-02  0.8114010E-01
        1   -1    0    0  501    0  0.00000000000E+00  0.00000000000E+00  0.23317593088E+04  0.23317593088E+04  0.50400001928E-02 0. -1.
       -1   -1    0    0    0  501  0.00000000000E+00  0.00000000000E+00 -0.13126892685E+04  0.13126892685E+04  0.50400001928E-02 0.  1.
    10030    2    1    2    0    0  0.00000000000E+00  0.00000000000E+00  0.10190700403E+04  0.36444485772E+04  0.34990715462E+04 0.  0.
        5    1    3    3  502    0  0.99764435273E+03 -0.12126666551E+04  0.13129445853E+04  0.20468757278E+04  0.46999998093E+01 0.  1.
       -5    1    3    3    0  502 -0.99764435273E+03  0.12126666551E+04 -0.29387454502E+03  0.15975728494E+04  0.46999998093E+01 0. -1.
</event>
<event>
 5   0  0.1033796E-07  0.3507469E+04  0.7818609E-02  0.8112022E-01
       -1   -1    0    0    0  501  0.00000000000E+00  0.00000000000E+00  0.11391209152E+04  0.11391209152E+04  0.50400001928E-02 0. -1.
        1   -1    0    0  501    0  0.00000000000E+00  0.00000000000E+00 -0.26999636799E+04  0.26999636799E+04  0.50400001928E-02 0.  1.
    10030    2    1    2    0    0  0.00000000000E+00  0.00000000000E+00 -0.15608427647E+04  0.38390845952E+04  0.35074692290E+04 0.  0.
        3    1    3    3  502    0 -0.20114176357E+03 -0.12252199853E+04 -0.21360516719E+04  0.24706960106E+04  0.10100000352E+00 0.  1.
       -3    1    3    3    0  502  0.20114176357E+03  0.12252199853E+04  0.57520890717E+03  0.13683885846E+04  0.10100000352E+00 0. -1.
</event>
<event>
 5   0  0.1013863E-07  0.3515017E+04  0.7818609E-02  0.8110240E-01
       -1   -1    0    0    0  501  0.00000000000E+00  0.00000000000E+00  0.20901069096E+04  0.20901069096E+04  0.50400001928E-02 0.  1.
        1   -1    0    0  501    0  0.00000000000E+00  0.00000000000E+00 -0.14778360489E+04  0.14778360489E+04  0.50400001928E-02 0. -1.
    10030    2    1    2    0    0  0.00000000000E+00  0.00000000000E+00  0.61227086065E+03  0.35679429585E+04  0.35150165503E+04 0.  0.
        2    1    3    3  502    0  0.42856875490E+03  0.63218336512E+03 -0.13005781180E+04  0.15082540986E+04  0.25500000920E-02 0. -1.
       -2    1    3    3    0  502 -0.42856875490E+03 -0.63218336512E+03  0.19128489786E+04  0.20596888600E+04  0.25500000920E-02 0.  1.
</event>
<event>
 5   0  0.2180451E-07  0.3506669E+04  0.7818609E-02  0.8112211E-01
        2   -1    0    0  501    0  0.00000000000E+00  0.00000000000E+00  0.16608826618E+04  0.16608826618E+04  0.25500000920E-02 0.  1.
       -2   -1    0    0    0  501  0.00000000000E+00  0.00000000000E+00 -0.18509330750E+04  0.18509330750E+04  0.25500000920E-02 0. -1.
    10030    2    1    2    0    0  0.00000000000E+00  0.00000000000E+00 -0.19005041320E+03  0.35118157367E+04  0.35066694468E+04 0.  0.
        4    1    3    3  502    0 -0.15688614644E+04  0.66739839301E+03  0.31476246263E+03  0.17337312163E+04  0.12699999809E+01 0.  1.
       -4    1    3    3    0  502  0.15688614644E+04 -0.66739839301E+03 -0.50481287583E+03  0.17780845205E+04  0.12699999809E+01 0. -1.
</event>
<event>
 5   0  0.1033796E-07  0.3512764E+04  0.7818609E-02  0.8110772E-01
       -1   -1    0    0    0  501  0.00000000000E+00  0.00000000000E+00  0.12722225757E+04  0.12722225757E+04  0.50400001928E-02 0. -1.
        1   -1    0    0  501    0  0.00000000000E+00  0.00000000000E+00 -0.24247940209E+04  0.24247940209E+04  0.50400001928E-02 0.  1.
    10030    2    1    2    0    0  0.00000000000E+00  0.00000000000E+00 -0.11525714451E+04  0.36970165966E+04  0.35127639800E+04 0.  0.
        3    1    3    3  502    0  0.12683486322E+04 -0.59946485296E+03 -0.16885099048E+04  0.21952521658E+04  0.10100000352E+00 0.  1.
       -3    1    3    3    0  502 -0.12683486322E+04  0.59946485296E+03  0.53593845963E+03  0.15017644308E+04  0.10100000352E+00 0. -1.
</event>
<event>
 5   0  0.3219205E-07  0.3512884E+04  0.7818609E-02  0.8110743E-01
        2   -1    0    0  501    0  0.00000000000E+00  0.00000000000E+00  0.23692456739E+04  0.23692456739E+04  0.25500000920E-02 0.  1.
       -2   -1    0    0    0  501  0.00000000000E+00  0.00000000000E+00 -0.13021398195E+04  0.13021398195E+04  0.25500000920E-02 0. -1.
    10030    2    1    2    0    0  0.00000000000E+00  0.00000000000E+00  0.10671058545E+04  0.36713854934E+04  0.35128843614E+04 0.  0.
        2    1    3    3  502    0  0.19030167640E+03 -0.15679875271E+04  0.13365217269E+04  0.20690794909E+04  0.25500000920E-02 0.  1.
       -2    1    3    3    0  502 -0.19030167640E+03  0.15679875271E+04 -0.26941587247E+03  0.16023060025E+04  0.25500000920E-02 0. -1.
</event>
<event>
 5   0  0.2180451E-07  0.3489123E+04  0.7818609E-02  0.8116373E-01
       -2   -1    0    0    0  501  0.00000000000E+00  0.00000000000E+00  0.17059623638E+04  0.17059623638E+04  0.25500000920E-02 0. -1.
        2   -1    0    0  501    0  0.00000000000E+00  0.00000000000E+00 -0.17840338986E+04  0.17840338986E+04  0.25500000920E-02 0.  1.
    10030    2    1    2    0    0  0.00000000000E+00  0.00000000000E+00 -0.78071534806E+02  0.34899962624E+04  0.34891229195E+04 0.  0.
        4    1    3    3  502    0 -0.16904205393E+04  0.39150151376E+03  0.14183548447E+03  0.17409520248E+04  0.12699999809E+01 0.  1.
       -4    1    3    3    0  502  0.16904205393E+04 -0.39150151376E+03 -0.21990701928E+03  0.17490442376E+04  0.12699999809E+01 0. -1.
</event>
<event>
 5   0  0.1013863E-07  0.3501414E+04  0.7818609E-02  0.8113455E-01
        1   -1    0    0  501    0  0.00000000000E+00  0.00000000000E+00  0.24253434035E+04  0.24253434035E+04  0.50400001928E-02 0.  1.
       -1   -1    0    0    0  501  0.00000000000E+00  0.00000000000E+00 -0.12637285423E+04  0.12637285423E+04  0.50400001928E-02 0. -1.
    10030    2    1    2    0    0  0.00000000000E+00  0.00000000000E+00  0.11616148612E+04  0.36890719458E+04  0.35014143907E+04 0.  0.
        5    1    3    3  502    0  0.11190055603E+04  0.13278242450E+04  0.34601193714E+03  0.17706035751E+04  0.46999998093E+01 0. -1.
       -5    1    3    3    0  502 -0.11190055603E+04 -0.13278242450E+04  0.81560292403E+03  0.19184683707E+04  0.46999998093E+01 0.  1.
</event>
<event>
 5   0  0.3190112E-07  0.3517690E+04  0.7818609E-02  0.8109610E-01
        2   -1    0    0  501    0  0.00000000000E+00  0.00000000000E+00  0.12450103968E+04  0.12450103968E+04  0.25500000920E-02 0.  1.
       -2   -1    0    0    0  501  0.00000000000E+00  0.00000000000E+00 -0.24847474835E+04  0.24847474835E+04  0.25500000920E-02 0. -1.
    10030    2    1    2    0    0  0.00000000000E+00  0.00000000000E+00 -0.12397370867E+04  0.37297578803E+04  0.35176904073E+04 0.  0.
        5    1    3    3  502    0  0.41410778972E+03  0.16699892162E+04 -0.10067859451E+04  0.19934867125E+04  0.46999998093E+01 0.  1.
       -5    1    3    3    0  502 -0.41410778972E+03 -0.16699892162E+04 -0.23295114161E+03  0.17362711678E+04  0.46999998093E+01 0. -1.
</event>
<event>
 5   0  0.3219205E-07  0.3495662E+04  0.7818609E-02  0.8114819E-01
       -2   -1    0    0    0  501  0.00000000000E+00  0.00000000000E+00  0.14157761752E+04  0.14157761752E+04  0.25500000920E-02 0.  1.
        2   -1    0    0  501    0  0.00000000000E+00  0.00000000000E+00 -0.21577658340E+04  0.21577658340E+04  0.25500000920E-02 0. -1.
    10030    2    1    2    0    0  0.00000000000E+00  0.00000000000E+00 -0.74198965885E+03  0.35735420092E+04  0.34956621458E+04 0.  0.
        2    1    3    3  502    0  0.14968909689E+04 -0.49984646408E+03 -0.11389872615E+04  0.19462325252E+04  0.25500000920E-02 0. -1.
       -2    1    3    3    0  502 -0.14968909689E+04  0.49984646408E+03  0.39699760263E+03  0.16273094840E+04  0.25500000920E-02 0.  1.
</event>
<event>
 5   0  0.3119048E-07  0.3485781E+04  0.7818609E-02  0.8117168E-01
        2   -1    0    0  501    0  0.00000000000E+00  0.00000000000E+00  0.20980802484E+04  0.20980802484E+04  0.25500000920E-02 0.  1.
       -2   -1    0    0    0  501  0.00000000000E+00  0.00000000000E+00 -0.14478314106E+04  0.14478314106E+04  0.25500000920E-02 0. -1.
    10030    2    1    2    0    0  0.00000000000E+00  0.00000000000E+00  0.65024883780E+03  0.35459116591E+04  0.34857805357E+04 0.  0.
        3    1    3    3  502    0  0.90075491017E+03  0.99046704127E+03 -0.81004777670E+03  0.15647880939E+04  0.10100000352E+00 0. -1.
       -3    1    3    3    0  502 -0.90075491017E+03 -0.99046704127E+03  0.14602966145E+04  0.19811235652E+04  0.10100000352E+00 0.  1.
</event>
<event>
 5   0  0.3119048E-07  0.3528378E+04  0.7818609E-02  0.8107097E-01
        2   -1    0    0  501    0  0.00000000000E+00  0.00000000000E+00  0.14644835242E+04  0.14644835242E+04  0.25500000920E-02 0. -1.
       -2   -1    0    0    0  501  0.00000000000E+00  0.00000000000E+00 -0.21252292159E+04  0.21252292159E+04  0.25500000920E-02 0.  1.
    10030    2    1    2    0    0  0.00000000000E+00  0.00000000000E+00 -0.66074569168E+03  0.35897127402E+04  0.35283781951E+04 0.  0.
        3    1    3    3  502    0 -0.15574242424E+03  0.17541758520E+04 -0.43695333698E+03  0.18144742631E+04  0.10100000352E+00 0.  1.
       -3    1    3    3    0  502  0.15574242424E+03 -0.17541758520E+04 -0.22379235471E+03  0.17752384771E+04  0.10100000352E+00 0. -1.
</event>
<event>
 5   0  0.1013863E-07  0.3502759E+04  0.7818609E-02  0.8113136E-01
       -1   -1    0    0    0  501  0.00000000000E+00  0.00000000000E+00  0.20456187989E+04  0.20456187989E+04  0.50400001928E-02 0.  1.
        1   -1    0    0  501    0  0.00000000000E+00  0.00000000000E+00 -0.14994635562E+04  0.14994635562E+04  0.50400001928E-02 0. -1.
    10030    2    1    2    0    0  0.00000000000E+00  0.00000000000E+00  0.54615524265E+03  0.35450823551E+04  0.35027593916E+04 0.  0.
        2    1    3    3  502    0  0.55445738348E+03 -0.84261073491E+02  0.19522836201E+04  0.20312395851E+04  0.25500000920E-02 0.  1.
       -2    1    3    3    0  502 -0.55445738348E+03  0.84261073491E+02 -0.14061283775E+04  0.15138427701E+04  0.25500000920E-02 0. -1.
</event>
<event>
 5   0  0.3219205E-07  0.3494788E+04  0.7818609E-02  0.8115026E-01
        2   -1    0    0  501    0  0.00000000000E+00  0.00000000000E+00  0.16498138077E+04  0.16498138077E+04  0.25500000920E-02 0.  1.
       -2   -1    0    0    0  501  0.00000000000E+00  0.00000000000E+00 -0.18507452570E+04  0.18507452570E+04  0.25500000920E-02 0. -1.
    10030    2    1    2    0    0  0.00000000000E+00  0.00000000000E+00 -0.20093144934E+03  0.35005590647E+04  0.34947875927E+04 0.  0.
        2    1    3    3  502    0 -0.13821814890E+04  0.58048760148E+03 -0.99971978899E+03  0.18018965510E+04  0.25500000920E-02 0.  1.
       -2    1    3    3    0  502  0.13821814890E+04 -0.58048760148E+03  0.79878833964E+03  0.16986625137E+04  0.25500000920E-02 0. -1.
</event>
<event>
 5   0  0.3190112E-07  0.3495334E+04  0.7818609E-02  0.8114897E-01
        2   -1    0    0  501    0  0.00000000000E+00  0.00000000000E+00  0.23315315171E+04  0.23315315172E+04  0.25500000920E-02 0.  1.
       -2   -1    0    0    0  501  0.00000000000E+00  0.00000000000E+00 -0.13100141784E+04  0.13100141784E+04  0.25500000920E-02 0. -1.
    10030    2    1    2    0    0  0.00000000000E+00  0.00000000000E+00  0.10215173388E+04  0.36415456955E+04  0.34953336578E+04 0.  0.
        5    1    3    3  502    0 -0.86993501078E+03  0.12291736274E+04  0.14347999134E+04  0.20799825986E+04  0.46999998093E+01 0.  1.
       -5    1    3    3    0  502  0.86993501078E+03 -0.12291736274E+04 -0.41328257458E+03  0.15615630969E+04  0.46999998093E+01 0. -1.
</event>
<event>
 5   0  0.3119048E-07  0.3517132E+04  0.7818609E-02  0.8109742E-01
       -2   -1    0    0    0  501  0.00000000000E+00  0.00000000000E+00  0.18915701315E+04  0.18915701315E+04  0.25500000920E-02 0. -1.
        2   -1    0    0  501    0  0.00000000000E+00  0.00000000000E+00 -0.16349138622E+04  0.16349138622E+04  0.25500000920E-02 0.  1.
    10030    2    1    2    0    0  0.00000000000E+00  0.00000000000E+00  0.25665626930E+03  0.35264839938E+04  0.35171319164E+04 0.  0.
        3    1    3    3  502    0 -0.21763929694E+03 -0.85342280785E+03  0.16544979559E+04  0.18743161017E+04  0.10100000352E+00 0. -1.
       -3    1    3    3    0  502  0.21763929694E+03  0.85342280785E+03 -0.13978416866E+04  0.16521678921E+04  0.10100000352E+00 0.  1.
</event>
<event>
 5   0  0.1098171E-07  0.3497345E+04  0.7818609E-02  0.8114419E-01
       -1   -1    0    0    0  501  0.00000000000E+00  0.00000000000E+00  0.12316989544E+04  0.12316989544E+04  0.50400001928E-02 0. -1.
        1   -1    0    0  501    0  0.00000000000E+00  0.00000000000E+00 -0.24826319453E+04  0.24826319453E+04  0.50400001928E-02 0.  1.
    10030    2    1    2    0    0  0.00000000000E+00  0.00000000000E+00 -0.12509329909E+04  0.37143308997E+04  0.34973448050E+04 0.  0.
        4    1    3    3  502    0  0.97983601994E+03  0.64867329277E+02 -0.21621541009E+04  0.23746996368E+04  0.12699999809E+01 0.  1.
       -4    1    3    3    0  502 -0.97983601994E+03 -0.64867329277E+02  0.91122110998E+03  0.13396312629E+04  0.12699999809E+01 0. -1.
</event>
<event>
 5   0  0.1013863E-07  0.3487981E+04  0.7818609E-02  0.8116644E-01
       -1   -1    0    0    0  501  0.00000000000E+00  0.00000000000E+00  0.14364238396E+04  0.14364238396E+04  0.50400001928E-02 0.  1.
        1   -1    0    0  501    0  0.00000000000E+00  0.00000000000E+00 -0.21174134923E+04  0.21174134923E+04  0.50400001928E-02 0. -1.
    10030    2    1    2    0    0  0.00000000000E+00  0.00000000000E+00 -0.68098965270E+03  0.35538373319E+04  0.34879812033E+04 0.  0.
        2    1    3    3  502    0 -0.33027633633E+03 -0.17117182711E+04 -0.39083744724E+03  0.17865653663E+04  0.25500000920E-02 0.  1.
       -2    1    3    3    0  502  0.33027633633E+03  0.17117182711E+04 -0.29015220546E+03  0.17672719656E+04  0.25500000920E-02 0. -1.
</event>
<event>
 5   0  0.1072381E-07  0.3502041E+04  0.7818609E-02  0.8113306E-01
       -1   -1    0    0    0  501  0.00000000000E+00  0.00000000000E+00  0.20930598730E+04  0.20930598730E+04  0.50400001928E-02 0. -1.
        1   -1    0    0  501    0  0.00000000000E+00  0.00000000000E+00 -0.14648762006E+04  0.14648762006E+04  0.50400001928E-02 0.  1.
    10030    2    1    2    0    0  0.00000000000E+00  0.00000000000E+00  0.62818367238E+03  0.35579360737E+04  0.35020414587E+04 0.  0.
        1    1    3    3  502    0  0.90570298304E+03  0.11623808325E+03 -0.12038309314E+04  0.15109659483E+04  0.50400001928E-02 0.  1.
       -1    1    3    3    0  502 -0.90570298304E+03 -0.11623808325E+03  0.18320146038E+04  0.20469701254E+04  0.50400001928E-02 0. -1.
</event>
<event>
 5   0  0.3190112E-07  0.3488615E+04  0.7818609E-02  0.8116493E-01
        2   -1    0    0  501    0  0.00000000000E+00  0.00000000000E+00  0.26229325530E+04  0.26229325531E+04  0.25500000920E-02 0. -1.
       -2   -1    0    0    0  501  0.00000000000E+00  0.00000000000E+00 -0.11600029390E+04  0.11600029390E+04  0.25500000920E-02 0.  1.
    10030    2    1    2    0    0  0.00000000000E+00  0.00000000000E+00  0.14629296140E+04  0.37829354921E+04  0.34886154677E+04 0.  0.
        5    1    3    3  502    0  0.14873712820E+04  0.40824959488E+03  0.16148379234E+04  0.22330841164E+04  0.46999998093E+01 0. -1.
       -5    1    3    3    0  502 -0.14873712820E+04 -0.40824959488E+03 -0.15190830937E+03  0.15498513756E+04  0.46999998093E+01 0.  1.
</event>
<event>
 5   0  0.1013863E-07  0.3493559E+04  0.7818609E-02  0.8115318E-01
        1   -1    0    0  501    0  0.00000000000E+00  0.00000000000E+00  0.17057492041E+04  0.17057492041E+04  0.50400001928E-02 0.  1.
       -1   -1    0    0    0  501  0.00000000000E+00  0.00000000000E+00 -0.17887968592E+04  0.17887968592E+04  0.50400001928E-02 0. -1.
    10030    2    1    2    0    0  0.00000000000E+00  0.00000000000E+00 -0.83047655101E+02  0.34945460634E+04  0.34935591130E+04 0.  0.
        5    1    3    3  502    0 -0.41423949862E+03 -0.66687573211E+03  0.15193333295E+04  0.17101793650E+04  0.46999998093E+01 0.  1.
       -5    1    3    3    0  502  0.41423949862E+03  0.66687573211E+03 -0.16023809846E+04  0.17843666983E+04  0.46999998093E+01 0. -1.
</event>
<event>
 5   0  0.1033796E-07  0.3463111E+04  0.7818609E-02  0.8122588E-01
       -1   -1    0    0    0  501  0.00000000000E+00  0.00000000000E+00  0.16395462759E+04  0.16395462759E+04  0.50400001928E-02 0. -1.
        1   -1    0    0  501    0  0.00000000000E+00  0.00000000000E+00 -0.18287283406E+04  0.18287283406E+04  0.50400001928E-02 0.  1.
    10030    2    1    2    0    0  0.00000000000E+00  0.00000000000E+00 -0.18918206470E+03  0.34682746165E+04  0.34631111680E+04 0.  0.
        3    1    3    3  502    0  0.90186817986E+03  0.11354376331E+04  0.85323428916E+03  0.16824368027E+04  0.10100000352E+00 0.  1.
       -3    1    3    3    0  502 -0.90186817986E+03 -0.11354376331E+04 -0.10424163539E+04  0.17858378139E+04  0.10100000352E+00 0. -1.
</event>
<event>
 5   0  0.3190185E-07  0.3502114E+04  0.7818609E-02  0.8113289E-01
        2   -1    0    0  501    0  0.00000000000E+00  0.00000000000E+00  0.17711403681E+04  0.17711403681E+04  0.25500000920E-02 0. -1.
       -2   -1    0    0    0  501  0.00000000000E+00  0.00000000000E+00 -0.17312011065E+04  0.17312011065E+04  0.25500000920E-02 0.  1.
    10030    2    1    2    0    0  0.00000000000E+00  0.00000000000E+00  0.39939261603E+02  0.35023414746E+04  0.35021137418E+04 0.  0.
        1    1    3    3  502    0 -0.19447909659E+03  0.15168590739E+04 -0.83303166802E+03  0.17414434614E+04  0.50400001928E-02 0.  1.
       -1    1    3    3    0  502  0.19447909659E+03 -0.15168590739E+04  0.87297092962E+03  0.17608980133E+04  0.50400001928E-02 0. -1.
</event>
<event>
 5   0  0.1072381E-07  0.3505163E+04  0.7818609E-02  0.8112567E-01
       -1   -1    0    0    0  501  0.00000000000E+00  0.00000000000E+00  0.13517153876E+04  0.13517153876E+04  0.50400001928E-02 0. -1.
        1   -1    0    0  501    0  0.00000000000E+00  0.00000000000E+00 -0.22723292726E+04  0.22723292726E+04  0.50400001928E-02 0.  1.
    10030    2    1    2    0    0  0.00000000000E+00  0.00000000000E+00 -0.92061388506E+03  0.36240446602E+04  0.35051633020E+04 0.  0.
        1    1    3    3  502    0  0.86124947078E+03  0.66882054780E+03  0.95825863379E+03  0.14516649701E+04  0.50400001928E-02 0. -1.
       -1    1    3    3    0  502 -0.86124947078E+03 -0.66882054780E+03 -0.18788725189E+04  0.21723796902E+04  0.50400001928E-02 0.  1.
</event>
<event>
 5   0  0.3190185E-07  0.3494451E+04  0.7818609E-02  0.8115106E-01
        2   -1    0    0  501    0  0.00000000000E+00  0.00000000000E+00  0.11563283981E+04  0.11563283981E+04  0.25500000920E-02 0.  1.
       -2   -1    0    0    0  501  0.00000000000E+00  0.00000000000E+00 -0.26400778915E+04  0.26400778915E+04  0.25500000920E-02 0. -1.
    10030    2    1    2    0    0  0.00000000000E+00  0.00000000000E+00 -0.14837494934E+04  0.37964062896E+04  0.34944510522E+04 0.  0.
        1    1    3    3  502    0  0.14648572169E+01  0.13588006751E+04 -0.19351740796E+04  0.23645803304E+04  0.50400001928E-02 0. -1.
       -1    1    3    3    0  502 -0.14648572169E+01 -0.13588006751E+04  0.45142458621E+03  0.14318259592E+04  0.50400001928E-02 0.  1.
</event>
<event>
 5   0  0.1072381E-07  0.3487180E+04  0.7818609E-02  0.8116835E-01
       -1   -1    0    0    0  501  0.00000000000E+00  0.00000000000E+00  0.11701692193E+04  0.11701692193E+04  0.50400001928E-02 0. -1.
        1   -1    0    0  501    0  0.00000000000E+00  0.00000000000E+00 -0.25980062496E+04  0.25980062496E+04  0.50400001928E-02 0.  1.
    10030    2    1    2    0    0  0.00000000000E+00  0.00000000000E+00 -0.14278370303E+04  0.37681754689E+04  0.34871804913E+04 0.  0.
        1    1    3    3  502    0  0.10567185380E+04 -0.69281111689E+03  0.58433622113E+03  0.13921530561E+04  0.50400001928E-02 0. -1.
       -1    1    3    3    0  502 -0.10567185380E+04  0.69281111689E+03 -0.20121732515E+04  0.23760224128E+04  0.50400001928E-02 0.  1.
</event>
<event>
 5   0  0.1098171E-07  0.3502583E+04  0.7818609E-02  0.8113178E-01
        1   -1    0    0  501    0  0.00000000000E+00  0.00000000000E+00  0.17982735663E+04  0.17982735663E+04  0.50400001928E-02 0. -1.
       -1   -1    0    0    0  501  0.00000000000E+00  0.00000000000E+00 -0.17055364265E+04  0.17055364265E+04  0.50400001928E-02 0.  1.
    10030    2    1    2    0    0  0.00000000000E+00  0.00000000000E+00  0.92737139799E+02  0.35038099928E+04  0.35025825170E+04 0.  0.
        4    1    3    3  502    0 -0.11015938493E+04  0.10566658586E+04 -0.81240051614E+03  0.17291755136E+04  0.12699999809E+01 0.  1.
       -4    1    3    3    0  502  0.11015938493E+04 -0.10566658586E+04  0.90513765594E+03  0.17746344791E+04  0.12699999809E+01 0. -1.
</event>
<event>
 5   0  0.2180451E-07  0.3500479E+04  0.7818609E-02  0.8113676E-01
        2   -1    0    0  501    0  0.00000000000E+00  0.00000000000E+00  0.22542396682E+04  0.22542396682E+04  0.25500000920E-02 0.  1.
       -2   -1    0    0    0  501  0.00000000000E+00  0.00000000000E+00 -0.13589234292E+04  0.13589234292E+04  0.25500000920E-02 0. -1.
    10030    2    1    2    0    0  0.00000000000E+00  0.00000000000E+00  0.89531623906E+03  0.36131630974E+04  0.35004794529E+04 0.  0.
        4    1    3    3  502    0 -0.16444557846E+04 -0.43407301251E+03  0.87409575096E+03  0.19122497751E+04  0.12699999809E+01 0. -1.
       -4    1    3    3    0  502  0.16444557846E+04  0.43407301251E+03  0.21220488099E+02  0.17009133223E+04  0.12699999809E+01 0.  1.
</event>
<event>
 5   0  0.1072381E-07  0.3496430E+04  0.7818609E-02  0.8114636E-01
       -1   -1    0    0    0  501  0.00000000000E+00  0.00000000000E+00  0.11545159113E+04  0.11545159113E+04  0.50400001928E-02 0.  1.
        1   -1    0    0  501    0  0.00000000000E+00  0.00000000000E+00 -0.26472187988E+04  0.26472187988E+04  0.50400001928E-02 0. -1.
    10030    2    1    2    0    0  0.00000000000E+00  0.00000000000E+00 -0.14927028876E+04  0.38017347101E+04  0.34964303075E+04 0.  0.
        1    1    3    3  502    0 -0.12613268341E+04 -0.95858987506E+03 -0.15500973097E+04  0.22164479693E+04  0.50400001928E-02 0. -1.
       -1    1    3    3    0  502  0.12613268341E+04  0.95858987506E+03  0.57394422126E+02  0.15852867408E+04  0.50400001928E-02 0.  1.
</event>
<event>
 5   0  0.1072381E-07  0.3512442E+04  0.7818609E-02  0.8110848E-01
        1   -1    0    0  501    0  0.00000000000E+00  0.00000000000E+00  0.12094023245E+04  0.12094023246E+04  0.50400001928E-02 0.  1.
       -1   -1    0    0    0  501  0.00000000000E+00  0.00000000000E+00 -0.25502773577E+04  0.25502773577E+04  0.50400001928E-02 0. -1.
    10030    2    1    2    0    0  0.00000000000E+00  0.00000000000E+00 -0.13408750332E+04  0.37596796823E+04  0.35124415239E+04 0.  0.
        1    1    3    3  502    0 -0.10057359308E+04  0.13171218529E+04 -0.12927348295E+04  0.21017797404E+04  0.50400001928E-02 0. -1.
       -1    1    3    3    0  502  0.10057359308E+04 -0.13171218529E+04 -0.48140203665E+02  0.16578999418E+04  0.50400001928E-02 0.  1.
</event>
<event>
 5   0  0.3190185E-07  0.3500427E+04  0.7818609E-02  0.8113689E-01
       -2   -1    0    0    0  501  0.00000000000E+00  0.00000000000E+00  0.14827098818E+04  0.14827098818E+04  0.25500000920E-02 0. -1.
        2   -1    0    0  501    0  0.00000000000E+00  0.00000000000E+00 -0.20659785015E+04  0.20659785015E+04  0.25500000920E-02 0.  1.
    10030    2    1    2    0    0  0.00000000000E+00  0.00000000000E+00 -0.58326861968E+03  0.35486883833E+04  0.35004266824E+04 0.  0.
        1    1    3    3  502    0 -0.15950244931E+04  0.61767069828E+03  0.84461015211E+02  0.17125285073E+04  0.50400001928E-02 0. -1.
       -1    1    3    3    0  502  0.15950244931E+04 -0.61767069828E+03 -0.66772963489E+03  0.18361598760E+04  0.50400001928E-02 0.  1.
</event>
<event>
 5   0  0.3119048E-07  0.3496975E+04  0.7818609E-02  0.8114507E-01
        2   -1    0    0  501    0  0.00000000000E+00  0.00000000000E+00  0.20282765471E+04  0.20282765471E+04  0.25500000920E-02 0. -1.
       -2   -1    0    0    0  501  0.00000000000E+00  0.00000000000E+00 -0.15072938307E+04  0.15072938307E+04  0.25500000920E-02 0.  1.
    10030    2    1    2    0    0  0.00000000000E+00  0.00000000000E+00  0.52098271639E+03  0.35355703777E+04  0.34969751079E+04 0.  0.
        3    1    3    3  502    0  0.13322472740E+04 -0.11195593799E+04  0.43240540312E+03  0.17931175219E+04  0.10100000352E+00 0. -1.
       -3    1    3    3    0  502 -0.13322472740E+04  0.11195593799E+04  0.88577313265E+02  0.17424528559E+04  0.10100000352E+00 0.  1.
</event>
<event>
 5   0  0.3219205E-07  0.3489033E+04  0.7818609E-02  0.8116394E-01
       -2   -1    0    0    0  501  0.00000000000E+00  0.00000000000E+00  0.14262795188E+04  0.14262795188E+04  0.25500000920E-02 0. -1.
        2   -1    0    0  501    0  0.00000000000E+00  0.00000000000E+00 -0.21337598541E+04  0.21337598541E+04  0.25500000920E-02 0.  1.
    10030    2    1    2    0    0  0.00000000000E+00  0.00000000000E+00 -0.70748033533E+03  0.35600393729E+04  0.34890330912E+04 0.  0.
        2    1    3    3  502    0 -0.36255721612E+03  0.12147991107E+04  0.86904488862E+03  0.15370177724E+04  0.25500000920E-02 0. -1.
       -2    1    3    3    0  502  0.36255721612E+03 -0.12147991107E+04 -0.15765252240E+04  0.20230216005E+04  0.25500000920E-02 0.  1.
</event>
<event>
 5   0  0.3219205E-07  0.3569042E+04  0.7818609E-02  0.8097620E-01
       -2   -1    0    0    0  501  0.00000000000E+00  0.00000000000E+00  0.26101559402E+04  0.26101559402E+04  0.25500000920E-02 0. -1.
        2   -1    0    0  501    0  0.00000000000E+00  0.00000000000E+00 -0.12200477412E+04  0.12200477412E+04  0.25500000920E-02 0.  1.
    10030    2    1    2    0    0  0.00000000000E+00  0.00000000000E+00  0.13901081990E+04  0.38302036813E+04  0.35690418092E+04 0.  0.
        2    1    3    3  502    0 -0.28575329982E+02 -0.17372079284E+04  0.25806403394E+03  0.17565036241E+04  0.25500000920E-02 0. -1.
       -2    1    3    3    0  502  0.28575329982E+02  0.17372079284E+04  0.11320441650E+04  0.20737000572E+04  0.25500000920E-02 0.  1.
</event>
<event>
 5   0  0.3190185E-07  0.3481722E+04  0.7818609E-02  0.8118135E-01
        2   -1    0    0  501    0  0.00000000000E+00  0.00000000000E+00  0.23369491674E+04  0.23369491674E+04  0.25500000920E-02 0. -1.
       -2   -1    0    0    0  501  0.00000000000E+00  0.00000000000E+00 -0.12968173770E+04  0.12968173770E+04  0.25500000920E-02 0.  1.
    10030    2    1    2    0    0  0.00000000000E+00  0.00000000000E+00  0.10401317904E+04  0.36337665444E+04  0.34817215796E+04 0.  0.
        1    1    3    3  502    0 -0.39326984121E+03 -0.30765440552E+03 -0.12204806552E+04  0.13186680518E+04  0.50400001928E-02 0.  1.
       -1    1    3    3    0  502  0.39326984121E+03  0.30765440552E+03  0.22606124456E+04  0.23150984926E+04  0.50400001928E-02 0. -1.
</event>
<event>
 5   0  0.1013863E-07  0.3496120E+04  0.7818609E-02  0.8114710E-01
        1   -1    0    0  501    0  0.00000000000E+00  0.00000000000E+00  0.20917231395E+04  0.20917231395E+04  0.50400001928E-02 0.  1.
       -1   -1    0    0    0  501  0.00000000000E+00  0.00000000000E+00 -0.14608598390E+04  0.14608598390E+04  0.50400001928E-02 0. -1.
    10030    2    1    2    0    0  0.00000000000E+00  0.00000000000E+00  0.63086330048E+03  0.35525829785E+04  0.34961203233E+04 0.  0.
        2    1    3    3  502    0 -0.31974572810E+03  0.51029624696E+03  0.19829939295E+04  0.20724151406E+04  0.25500000920E-02 0.  1.
       -2    1    3    3    0  502  0.31974572810E+03 -0.51029624696E+03 -0.13521306291E+04  0.14801678379E+04  0.25500000920E-02 0. -1.
</event>
<event>
 5   0  0.2180451E-07  0.3637124E+04  0.7818609E-02  0.8082040E-01
       -2   -1    0    0    0  501  0.00000000000E+00  0.00000000000E+00  0.17374302854E+04  0.17374302854E+04  0.25500000920E-02 0. -1.
        2   -1    0    0  501    0  0.00000000000E+00  0.00000000000E+00 -0.19034824629E+04  0.19034824629E+04  0.25500000920E-02 0.  1.
    10030    2    1    2    0    0  0.00000000000E+00  0.00000000000E+00 -0.16605217745E+03  0.36409127483E+04  0.36371241820E+04 0.  0.
        4    1    3    3  502    0 -0.71374649380E+02  0.16182336981E+04  0.74451016959E+03  0.17827146849E+04  0.12699999809E+01 0. -1.
       -4    1    3    3    0  502  0.71374649380E+02 -0.16182336981E+04 -0.91056234704E+03  0.18581980634E+04  0.12699999809E+01 0.  1.
</event>
<event>
 5   0  0.1072381E-07  0.3496940E+04  0.7818609E-02  0.8114516E-01
        1   -1    0    0  501    0  0.00000000000E+00  0.00000000000E+00  0.12321186101E+04  0.12321186102E+04  0.50400001928E-02 0. -1.
       -1   -1    0    0    0  501  0.00000000000E+00  0.00000000000E+00 -0.24812116489E+04  0.24812116489E+04  0.50400001928E-02 0.  1.
    10030    2    1    2    0    0  0.00000000000E+00  0.00000000000E+00 -0.12490930388E+04  0.37133302591E+04  0.34969398327E+04 0.  0.
        1    1    3    3  502    0  0.13902585906E+02  0.11176907852E+04  0.80316718139E+03  0.13764096390E+04  0.50400001928E-02 0. -1.
       -1    1    3    3    0  502 -0.13902585906E+02 -0.11176907852E+04 -0.20522602201E+04  0.23369206200E+04  0.50400001928E-02 0.  1.
</event>
<event>
 5   0  0.1033796E-07  0.3502333E+04  0.7818609E-02  0.8113237E-01
       -1   -1    0    0    0  501  0.00000000000E+00  0.00000000000E+00  0.12294100096E+04  0.12294100097E+04  0.50400001928E-02 0. -1.
        1   -1    0    0  501    0  0.00000000000E+00  0.00000000000E+00 -0.24943544878E+04  0.24943544878E+04  0.50400001928E-02 0.  1.
    10030    2    1    2    0    0  0.00000000000E+00  0.00000000000E+00 -0.12649444782E+04  0.37237644975E+04  0.35023331509E+04 0.  0.
        3    1    3    3  502    0 -0.72007760274E+03  0.18065835615E+03  0.10538140795E+04  0.12890590832E+04  0.10100000352E+00 0. -1.
       -3    1    3    3    0  502  0.72007760274E+03 -0.18065835615E+03 -0.23187585576E+04  0.24347054143E+04  0.10100000352E+00 0.  1.
</event>
<event>
 5   0  0.1013863E-07  0.3423176E+04  0.7818609E-02  0.8132242E-01
        1   -1    0    0  501    0  0.00000000000E+00  0.00000000000E+00  0.25829026791E+04  0.25829026791E+04  0.50400001928E-02 0.  1.
       -1   -1    0    0    0  501  0.00000000000E+00  0.00000000000E+00 -0.11342017813E+04  0.11342017813E+04  0.50400001928E-02 0. -1.
    10030    2    1    2    0    0  0.00000000000E+00  0.00000000000E+00  0.14487008978E+04  0.37171044605E+04  0.34231756132E+04 0.  0.
        2    1    3    3  502    0  0.98077105719E+03 -0.68801962504E+03 -0.60300492155E+03  0.13412299603E+04  0.25500000920E-02 0. -1.
       -2    1    3    3    0  502 -0.98077105719E+03  0.68801962504E+03  0.20517058194E+04  0.23758745001E+04  0.25500000920E-02 0.  1.
</event>
<event>
 5   0  0.2180451E-07  0.3514000E+04  0.7818609E-02  0.8110480E-01
        2   -1    0    0  501    0  0.00000000000E+00  0.00000000000E+00  0.23939654378E+04  0.23939654378E+04  0.25500000920E-02 0. -1.
       -2   -1    0    0    0  501  0.00000000000E+00  0.00000000000E+00 -0.12895129486E+04  0.12895129487E+04  0.25500000920E-02 0.  1.
    10030    2    1    2    0    0  0.00000000000E+00  0.00000000000E+00  0.11044524892E+04  0.36834783865E+04  0.35140002451E+04 0.  0.
        4    1    3    3  502    0 -0.72812964497E+03 -0.13779001035E+04  0.14026926508E+04  0.20967426549E+04  0.12699999809E+01 0. -1.
       -4    1    3    3    0  502  0.72812964497E+03  0.13779001035E+04 -0.29824016166E+03  0.15867357316E+04  0.12699999809E+01 0.  1.
</event>
<event>
 5   0  0.1033796E-07  0.3474295E+04  0.7818609E-02  0.8119909E-01
       -1   -1    0    0    0  501  0.00000000000E+00  0.00000000000E+00  0.17311286293E+04  0.17311286293E+04  0.50400001928E-02 0. -1.
        1   -1    0    0  501    0  0.00000000000E+00  0.00000000000E+00 -0.17431876012E+04  0.17431876012E+04  0.50400001928E-02 0.  1.
    10030    2    1    2    0    0  0.00000000000E+00  0.00000000000E+00 -0.12058971854E+02  0.34743162305E+04  0.34742953028E+04 0.  0.
        3    1    3    3  502    0 -0.13357949125E+04 -0.11096201622E+04 -0.51603872937E+02  0.17373162990E+04  0.10100000352E+00 0.  1.
       -3    1    3    3    0  502  0.13357949125E+04  0.11096201622E+04  0.39544901083E+02  0.17369999315E+04  0.10100000352E+00 0. -1.
</event>
<event>
 5   0  0.3119048E-07  0.3659189E+04  0.7818609E-02  0.8077067E-01
       -2   -1    0    0    0  501  0.00000000000E+00  0.00000000000E+00  0.16513847657E+04  0.16513847657E+04  0.25500000920E-02 0. -1.
        2   -1    0    0  501    0  0.00000000000E+00  0.00000000000E+00 -0.20270360531E+04  0.20270360531E+04  0.25500000920E-02 0.  1.
    10030    2    1    2    0    0  0.00000000000E+00  0.00000000000E+00 -0.37565128739E+03  0.36784208188E+04  0.36591892313E+04 0.  0.
        3    1    3    3  502    0 -0.11556097962E+03 -0.81202510954E+03 -0.18318651181E+04  0.20071046161E+04  0.10100000352E+00 0.  1.
       -3    1    3    3    0  502  0.11556097962E+03  0.81202510954E+03  0.14562138307E+04  0.16713162028E+04  0.10100000352E+00 0. -1.
</event>
<event>
 5   0  0.1033796E-07  0.3511127E+04  0.7818609E-02  0.8111158E-01
        1   -1    0    0  501    0  0.00000000000E+00  0.00000000000E+00  0.20175328169E+04  0.20175328169E+04  0.50400001928E-02 0. -1.
       -1   -1    0    0    0  501  0.00000000000E+00  0.00000000000E+00 -0.15276099550E+04  0.15276099550E+04  0.50400001928E-02 0.  1.
    10030    2    1    2    0    0  0.00000000000E+00  0.00000000000E+00  0.48992286190E+03  0.35451427719E+04  0.35111270075E+04 0.  0.
        3    1    3    3  502    0 -0.19148492478E+03 -0.29288998437E+03  0.19819629241E+04  0.20126172170E+04  0.10100000352E+00 0. -1.
       -3    1    3    3    0  502  0.19148492478E+03  0.29288998437E+03 -0.14920400622E+04  0.15325255550E+04  0.10100000352E+00 0.  1.
</event>
<event>
 5   0  0.2180451E-07  0.3502280E+04  0.7818609E-02  0.8113250E-01
        2   -1    0    0  501    0  0.00000000000E+00  0.00000000000E+00  0.23743363185E+04  0.23743363185E+04  0.25500000920E-02 0. -1.
       -2   -1    0    0    0  501  0.00000000000E+00  0.00000000000E+00 -0.12915148848E+04  0.12915148848E+04  0.25500000920E-02 0.  1.
    10030    2    1    2    0    0  0.00000000000E+00  0.00000000000E+00  0.10828214337E+04  0.36658512034E+04  0.35022796559E+04 0.  0.
        4    1    3    3  502    0  0.17219879301E+04  0.24791145810E+03  0.33262911938E+03  0.17712555621E+04  0.12699999809E+01 0.  1.
       -4    1    3    3    0  502 -0.17219879301E+04 -0.24791145810E+03  0.75019231434E+03  0.18945956412E+04  0.12699999809E+01 0. -1.
</event>
<event>
 5   0  0.1033796E-07  0.3511444E+04  0.7818609E-02  0.8111083E-01
       -1   -1    0    0    0  501  0.00000000000E+00  0.00000000000E+00  0.16140649530E+04  0.16140649530E+04  0.50400001928E-02 0. -1.
        1   -1    0    0  501    0  0.00000000000E+00  0.00000000000E+00 -0.19098115632E+04  0.19098115632E+04  0.50400001928E-02 0.  1.
    10030    2    1    2    0    0  0.00000000000E+00  0.00000000000E+00 -0.29574661019E+03  0.35238765162E+04  0.35114440966E+04 0.  0.
        3    1    3    3  502    0 -0.24855080439E+03 -0.21192716526E+03  0.15833051855E+04  0.16166465125E+04  0.10100000352E+00 0. -1.
       -3    1    3    3    0  502  0.24855080439E+03  0.21192716526E+03 -0.18790517957E+04  0.19072300037E+04  0.10100000352E+00 0.  1.
</event>
<event>
 5   0  0.3190112E-07  0.3543327E+04  0.7818609E-02  0.8103598E-01
       -2   -1    0    0    0  501  0.00000000000E+00  0.00000000000E+00  0.13061804545E+04  0.13061804545E+04  0.25500000920E-02 0. -1.
        2   -1    0    0  501    0  0.00000000000E+00  0.00000000000E+00 -0.24030311599E+04  0.24030311599E+04  0.25500000920E-02 0.  1.
    10030    2    1    2    0    0  0.00000000000E+00  0.00000000000E+00 -0.10968507054E+04  0.37092116144E+04  0.35433274376E+04 0.  0.
        5    1    3    3  502    0 -0.19633062747E+03 -0.15112549258E+04  0.39738490700E+03  0.15749203219E+04  0.46999998093E+01 0. -1.
       -5    1    3    3    0  502  0.19633062747E+03  0.15112549258E+04 -0.14942356124E+04  0.21342912925E+04  0.46999998093E+01 0.  1.
</event>
<event>
 5   0  0.3119048E-07  0.3515255E+04  0.7818609E-02  0.8110184E-01
       -2   -1    0    0    0  501  0.00000000000E+00  0.00000000000E+00  0.19301578219E+04  0.19301578219E+04  0.25500000920E-02 0.  1.
        2   -1    0    0  501    0  0.00000000000E+00  0.00000000000E+00 -0.16005189767E+04  0.16005189767E+04  0.25500000920E-02 0. -1.
    10030    2    1    2    0    0  0.00000000000E+00  0.00000000000E+00  0.32963884521E+03  0.35306767985E+04  0.35152548823E+04 0.  0.
        3    1    3    3  502    0  0.73970907339E+03 -0.54606745554E+03 -0.13397159825E+04  0.16248686418E+04  0.10100000352E+00 0. -1.
       -3    1    3    3    0  502 -0.73970907339E+03  0.54606745554E+03  0.16693548277E+04  0.19058081567E+04  0.10100000352E+00 0.  1.
</event>
<event>
 5   0  0.3119048E-07  0.3511276E+04  0.7818609E-02  0.8111123E-01
       -2   -1    0    0    0  501  0.00000000000E+00  0.00000000000E+00  0.13282715823E+04  0.13282715823E+04  0.25500000920E-02 0.  1.
        2   -1    0    0  501    0  0.00000000000E+00  0.00000000000E+00 -0.23205076325E+04  0.23205076325E+04  0.25500000920E-02 0. -1.
    10030    2    1    2    0    0  0.00000000000E+00  0.00000000000E+00 -0.99223605023E+03  0.36487792149E+04  0.35112757481E+04 0.  0.
        3    1    3    3  502    0 -0.13677104203E+04 -0.28225265008E+02 -0.16395893770E+04  0.21353411424E+04  0.10100000352E+00 0. -1.
       -3    1    3    3    0  502  0.13677104203E+04  0.28225265008E+02  0.64735332673E+03  0.15134380724E+04  0.10100000352E+00 0.  1.
</event>
<event>
 5   0  0.1098171E-07  0.3506524E+04  0.7818609E-02  0.8112246E-01
        1   -1    0    0  501    0  0.00000000000E+00  0.00000000000E+00  0.20395572746E+04  0.20395572746E+04  0.50400001928E-02 0.  1.
       -1   -1    0    0    0  501  0.00000000000E+00  0.00000000000E+00 -0.15071542193E+04  0.15071542193E+04  0.50400001928E-02 0. -1.
    10030    2    1    2    0    0  0.00000000000E+00  0.00000000000E+00  0.53240305529E+03  0.35467114940E+04  0.35065238354E+04 0.  0.
        4    1    3    3  502    0 -0.50187161071E+03 -0.15931405095E+03 -0.14252893206E+04  0.15194431022E+04  0.12699999809E+01 0. -1.
       -4    1    3    3    0  502  0.50187161071E+03  0.15931405095E+03  0.19576923759E+04  0.20272683917E+04  0.12699999809E+01 0.  1.
</event>
<event>
 5   0  0.1098171E-07  0.3500951E+04  0.7818609E-02  0.8113565E-01
       -1   -1    0    0    0  501  0.00000000000E+00  0.00000000000E+00  0.15450116141E+04  0.15450116141E+04  0.50400001928E-02 0. -1.
        1   -1    0    0  501    0  0.00000000000E+00  0.00000000000E+00 -0.19832630256E+04  0.19832630256E+04  0.50400001928E-02 0.  1.
    10030    2    1    2    0    0  0.00000000000E+00  0.00000000000E+00 -0.43825141157E+03  0.35282746397E+04  0.35009509613E+04 0.  0.
        4    1    3    3  502    0 -0.34625168274E+03 -0.11229190717E+04 -0.15266819661E+04  0.19265505204E+04  0.12699999809E+01 0.  1.
       -4    1    3    3    0  502  0.34625168274E+03  0.11229190717E+04  0.10884305545E+04  0.16017241193E+04  0.12699999809E+01 0. -1.
</event>
<event>
 5   0  0.1072381E-07  0.3528678E+04  0.7818609E-02  0.8107027E-01
        1   -1    0    0  501    0  0.00000000000E+00  0.00000000000E+00  0.18945805137E+04  0.18945805137E+04  0.50400001928E-02 0. -1.
       -1   -1    0    0    0  501  0.00000000000E+00  0.00000000000E+00 -0.16430511764E+04  0.16430511764E+04  0.50400001928E-02 0.  1.
    10030    2    1    2    0    0  0.00000000000E+00  0.00000000000E+00  0.25152933737E+03  0.35376316901E+04  0.35286783598E+04 0.  0.
        1    1    3    3  502    0 -0.14485815933E+04 -0.34638411664E+03  0.10739562430E+04  0.18362332642E+04  0.50400001928E-02 0. -1.
       -1    1    3    3    0  502  0.14485815933E+04  0.34638411664E+03 -0.82242690563E+03  0.17013984259E+04  0.50400001928E-02 0.  1.
</event>
<event>
 5   0  0.1013863E-07  0.3496404E+04  0.7818609E-02  0.8114643E-01
        1   -1    0    0  501    0  0.00000000000E+00  0.00000000000E+00  0.14748898180E+04  0.14748898180E+04  0.50400001928E-02 0. -1.
       -1   -1    0    0    0  501  0.00000000000E+00  0.00000000000E+00 -0.20721618417E+04  0.20721618417E+04  0.50400001928E-02 0.  1.
    10030    2    1    2    0    0  0.00000000000E+00  0.00000000000E+00 -0.59727202375E+03  0.35470516597E+04  0.34964040965E+04 0.  0.
        5    1    3    3  502    0 -0.16873483007E+04  0.39282269747E+03 -0.61293309119E+02  0.17335607631E+04  0.46999998093E+01 0.  1.
       -5    1    3    3    0  502  0.16873483007E+04 -0.39282269747E+03 -0.53597871463E+03  0.18134908966E+04  0.46999998093E+01 0. -1.
</event>
<event>
 5   0  0.1033796E-07  0.3485344E+04  0.7818609E-02  0.8117272E-01
       -1   -1    0    0    0  501  0.00000000000E+00  0.00000000000E+00  0.15034779493E+04  0.15034779493E+04  0.50400001928E-02 0. -1.
        1   -1    0    0  501    0  0.00000000000E+00  0.00000000000E+00 -0.20199203939E+04  0.20199203940E+04  0.50400001928E-02 0.  1.
    10030    2    1    2    0    0  0.00000000000E+00  0.00000000000E+00 -0.51644244462E+03  0.35233983433E+04  0.34853440414E+04 0.  0.
        3    1    3    3  502    0  0.33618338036E+03  0.59425142980E+03 -0.18790836693E+04  0.19992772377E+04  0.10100000352E+00 0.  1.
       -3    1    3    3    0  502 -0.33618338036E+03 -0.59425142980E+03  0.13626412246E+04  0.15241211055E+04  0.10100000352E+00 0. -1.
</event>
<event>
 5   0  0.1013863E-07  0.3502761E+04  0.7818609E-02  0.8113136E-01
        1   -1    0    0  501    0  0.00000000000E+00  0.00000000000E+00  0.19062495561E+04  0.19062495562E+04  0.50400001928E-02 0.  1.
       -1   -1    0    0    0  501  0.00000000000E+00  0.00000000000E+00 -0.16090934055E+04  0.16090934055E+04  0.50400001928E-02 0. -1.
    10030    2    1    2    0    0  0.00000000000E+00  0.00000000000E+00  0.29715615061E+03  0.35153429617E+04  0.35027609625E+04 0.  0.
        2    1    3    3  502    0  0.47957173812E+03  0.74818195206E+03  0.16631604760E+04  0.18857009451E+04  0.25500000920E-02 0.  1.
       -2    1    3    3    0  502 -0.47957173812E+03 -0.74818195206E+03 -0.13660043254E+04  0.16296420166E+04  0.25500000920E-02 0. -1.
</event>
<event>
 5   0  0.3190112E-07  0.3493772E+04  0.7818609E-02  0.8115268E-01
       -2   -1    0    0    0  501  0.00000000000E+00  0.00000000000E+00  0.20830927805E+04  0.20830927805E+04  0.25500000920E-02 0.  1.
        2   -1    0    0  501    0  0.00000000000E+00  0.00000000000E+00 -0.14649419048E+04  0.14649419048E+04  0.25500000920E-02 0. -1.
    10030    2    1    2    0    0  0.00000000000E+00  0.00000000000E+00  0.61815087565E+03  0.35480346853E+04  0.34937715470E+04 0.  0.
        5    1    3    3  502    0 -0.96244108220E+03 -0.94825383005E+03 -0.81542080554E+03  0.15781037174E+04  0.46999998093E+01 0. -1.
       -5    1    3    3    0  502  0.96244108220E+03  0.94825383005E+03  0.14335716812E+04  0.19699309678E+04  0.46999998093E+01 0.  1.
</event>
<event>
 5   0  0.3219205E-07  0.3504862E+04  0.7818609E-02  0.8112639E-01
       -2   -1    0    0    0  501  0.00000000000E+00  0.00000000000E+00  0.21410337507E+04  0.21410337507E+04  0.25500000920E-02 0.  1.
        2   -1    0    0  501    0  0.00000000000E+00  0.00000000000E+00 -0.14343606259E+04  0.14343606259E+04  0.25500000920E-02 0. -1.
    10030    2    1    2    0    0  0.00000000000E+00  0.00000000000E+00  0.70667312477E+03  0.35753943766E+04  0.35048620576E+04 0.  0.
        2    1    3    3  502    0 -0.34980861210E+03  0.12006466113E+04  0.16056801734E+04  0.20352216513E+04  0.25500000920E-02 0.  1.
       -2    1    3    3    0  502  0.34980861210E+03 -0.12006466113E+04 -0.89900704865E+03  0.15401727254E+04  0.25500000920E-02 0. -1.
</event>
<event>
 5   0  0.1033796E-07  0.3497530E+04  0.7818609E-02  0.8114376E-01
       -1   -1    0    0    0  501  0.00000000000E+00  0.00000000000E+00  0.15859099572E+04  0.15859099572E+04  0.50400001928E-02 0. -1.
        1   -1    0    0  501    0  0.00000000000E+00  0.00000000000E+00 -0.19283429343E+04  0.19283429343E+04  0.50400001928E-02 0.  1.
    10030    2    1    2    0    0  0.00000000000E+00  0.00000000000E+00 -0.34243297709E+03  0.35142528915E+04  0.34975295626E+04 0.  0.
        3    1    3    3  502    0  0.28419486194E+03  0.44937388233E+03 -0.18451578824E+04  0.19202372840E+04  0.10100000352E+00 0.  1.
       -3    1    3    3    0  502 -0.28419486194E+03 -0.44937388233E+03  0.15027249053E+04  0.15940156075E+04  0.10100000352E+00 0. -1.
</event>
<event>
 5   0  0.1072381E-07  0.3489616E+04  0.7818609E-02  0.8116255E-01
       -1   -1    0    0    0  501  0.00000000000E+00  0.00000000000E+00  0.15461182967E+04  0.15461182967E+04  0.50400001928E-02 0. -1.
        1   -1    0    0  501    0  0.00000000000E+00  0.00000000000E+00 -0.19690305061E+04  0.19690305061E+04  0.50400001928E-02 0.  1.
    10030    2    1    2    0    0  0.00000000000E+00  0.00000000000E+00 -0.42291220942E+03  0.35151488028E+04  0.34896155045E+04 0.  0.
        1    1    3    3  502    0  0.97179490665E+03 -0.13358892180E+04  0.35422993879E+03  0.16895159641E+04  0.50400001928E-02 0. -1.
       -1    1    3    3    0  502 -0.97179490665E+03  0.13358892180E+04 -0.77714214821E+03  0.18256328387E+04  0.50400001928E-02 0.  1.
</event>
<event>
 5   0  0.3219205E-07  0.3488791E+04  0.7818609E-02  0.8116451E-01
       -2   -1    0    0    0  501  0.00000000000E+00  0.00000000000E+00  0.25348349523E+04  0.25348349523E+04  0.25500000920E-02 0. -1.
        2   -1    0    0  501    0  0.00000000000E+00  0.00000000000E+00 -0.12004393909E+04  0.12004393909E+04  0.25500000920E-02 0.  1.
    10030    2    1    2    0    0  0.00000000000E+00  0.00000000000E+00  0.13343955614E+04  0.37352743432E+04  0.34887910377E+04 0.  0.
        2    1    3    3  502    0  0.14804657992E+04 -0.18547740511E+03 -0.30038492481E+03  0.15219763315E+04  0.25500000920E-02 0.  1.
       -2    1    3    3    0  502 -0.14804657992E+04  0.18547740511E+03  0.16347804862E+04  0.22132980117E+04  0.25500000920E-02 0. -1.
</event>
<event>
 5   0  0.1013863E-07  0.3497077E+04  0.7818609E-02  0.8114483E-01
        1   -1    0    0  501    0  0.00000000000E+00  0.00000000000E+00  0.20519495341E+04  0.20519495341E+04  0.50400001928E-02 0. -1.
       -1   -1    0    0    0  501  0.00000000000E+00  0.00000000000E+00 -0.14899911568E+04  0.14899911568E+04  0.50400001928E-02 0.  1.
    10030    2    1    2    0    0  0.00000000000E+00  0.00000000000E+00  0.56195837735E+03  0.35419406909E+04  0.34970768708E+04 0.  0.
        2    1    3    3  502    0  0.13710286914E+03  0.93628800081E+03 -0.12082425081E+04  0.15346929255E+04  0.25500000920E-02 0.  1.
       -2    1    3    3    0  502 -0.13710286914E+03 -0.93628800081E+03  0.17702008854E+04  0.20072477654E+04  0.25500000920E-02 0. -1.
</event>
<event>
 5   0  0.1033796E-07  0.3497424E+04  0.7818609E-02  0.8114401E-01
        1   -1    0    0  501    0  0.00000000000E+00  0.00000000000E+00  0.20728614403E+04  0.20728614403E+04  0.50400001928E-02 0. -1.
       -1   -1    0    0    0  501  0.00000000000E+00  0.00000000000E+00 -0.14752525331E+04  0.14752525331E+04  0.50400001928E-02 0.  1.
    10030    2    1    2    0    0  0.00000000000E+00  0.00000000000E+00  0.59760890713E+03  0.35481139734E+04  0.34974242469E+04 0.  0.
        3    1    3    3  502    0 -0.13292923061E+04  0.85905203760E+02  0.14481840427E+04  0.19676470138E+04  0.10100000352E+00 0. -1.
       -3    1    3    3    0  502  0.13292923061E+04 -0.85905203760E+02 -0.85057513556E+03  0.15804669596E+04  0.10100000352E+00 0.  1.
</event>
<event>
 5   0  0.2180451E-07  0.3505638E+04  0.7818609E-02  0.8112455E-01
        2   -1    0    0  501    0  0.00000000000E+00  0.00000000000E+00  0.18939552942E+04  0.18939552942E+04  0.25500000920E-02 0. -1.
       -2   -1    0    0    0  501  0.00000000000E+00  0.00000000000E+00 -0.16222003655E+04  0.16222003655E+04  0.25500000920E-02 0.  1.
    10030    2    1    2    0    0  0.00000000000E+00  0.00000000000E+00  0.27175492869E+03  0.35161556597E+04  0.35056382988E+04 0.  0.
        4    1    3    3  502    0  0.13342981203E+04  0.10501394649E+04 -0.30043218875E+03  0.17243565416E+04  0.12699999809E+01 0. -1.
       -4    1    3    3    0  502 -0.13342981203E+04 -0.10501394649E+04  0.57218711744E+03  0.17917991181E+04  0.12699999809E+01 0.  1.
</event>
<event>
 5   0  0.3219205E-07  0.3487690E+04  0.7818609E-02  0.8116713E-01
       -2   -1    0    0    0  501  0.00000000000E+00  0.00000000000E+00  0.26194952985E+04  0.26194952985E+04  0.25500000920E-02 0. -1.
        2   -1    0    0  501    0  0.00000000000E+00  0.00000000000E+00 -0.11609090059E+04  0.11609090059E+04  0.25500000920E-02 0.  1.
    10030    2    1    2    0    0  0.00000000000E+00  0.00000000000E+00  0.14585862926E+04  0.37804043043E+04  0.34876901713E+04 0.  0.
        2    1    3    3  502    0 -0.14324005310E+04  0.92167158474E+03  0.11344935558E+04  0.20465398652E+04  0.25500000920E-02 0.  1.
       -2    1    3    3    0  502  0.14324005310E+04 -0.92167158474E+03  0.32409273675E+03  0.17338644392E+04  0.25500000920E-02 0. -1.
</event>
<event>
 5   0  0.2180451E-07  0.3502837E+04  0.7818609E-02  0.8113118E-01
        2   -1    0    0  501    0  0.00000000000E+00  0.00000000000E+00  0.24334996853E+04  0.24334996853E+04  0.25500000920E-02 0.  1.
       -2   -1    0    0    0  501  0.00000000000E+00  0.00000000000E+00 -0.12605168288E+04  0.12605168288E+04  0.25500000920E-02 0. -1.
    10030    2    1    2    0    0  0.00000000000E+00  0.00000000000E+00  0.11729828564E+04  0.36940165141E+04  0.35028373107E+04 0.  0.
        4    1    3    3  502    0 -0.16961660117E+04  0.43446093496E+03  0.63035796100E+03  0.18609374560E+04  0.12699999809E+01 0.  1.
       -4    1    3    3    0  502  0.16961660117E+04 -0.43446093496E+03  0.54262489545E+03  0.18330790581E+04  0.12699999809E+01 0. -1.
</event>
<event>
 5   0  0.3119048E-07  0.3507951E+04  0.7818609E-02  0.8111908E-01
        2   -1    0    0  501    0  0.00000000000E+00  0.00000000000E+00  0.24942219440E+04  0.24942219440E+04  0.25500000920E-02 0. -1.
       -2   -1    0    0    0  501  0.00000000000E+00  0.00000000000E+00 -0.12334225575E+04  0.12334225575E+04  0.25500000920E-02 0.  1.
    10030    2    1    2    0    0  0.00000000000E+00  0.00000000000E+00  0.12607993865E+04  0.37276445016E+04  0.35079507461E+04 0.  0.
        3    1    3    3  502    0  0.12290586962E+04 -0.11890653713E+04  0.10446443156E+04  0.20039320079E+04  0.10100000352E+00 0. -1.
       -3    1    3    3    0  502 -0.12290586962E+04  0.11890653713E+04  0.21615507095E+03  0.17237124937E+04  0.10100000352E+00 0.  1.
</event>
<event>
 5   0  0.2180451E-07  0.3499553E+04  0.7818609E-02  0.8113896E-01
       -2   -1    0    0    0  501  0.00000000000E+00  0.00000000000E+00  0.13795287306E+04  0.13795287306E+04  0.25500000920E-02 0. -1.
        2   -1    0    0  501    0  0.00000000000E+00  0.00000000000E+00 -0.22193941489E+04  0.22193941489E+04  0.25500000920E-02 0.  1.
    10030    2    1    2    0    0  0.00000000000E+00  0.00000000000E+00 -0.83986541829E+03  0.35989228794E+04  0.34995531102E+04 0.  0.
        4    1    3    3  502    0 -0.14115219236E+04  0.31350116444E+03  0.59346133107E+03  0.15629699566E+04  0.12699999809E+01 0. -1.
       -4    1    3    3    0  502  0.14115219236E+04 -0.31350116444E+03 -0.14333267494E+04  0.20359529229E+04  0.12699999809E+01 0.  1.
</event>
<event>
 5   0  0.3190185E-07  0.3490835E+04  0.7818609E-02  0.8115965E-01
       -2   -1    0    0    0  501  0.00000000000E+00  0.00000000000E+00  0.21729666732E+04  0.21729666732E+04  0.25500000920E-02 0. -1.
        2   -1    0    0  501    0  0.00000000000E+00  0.00000000000E+00 -0.14019918770E+04  0.14019918770E+04  0.25500000920E-02 0.  1.
    10030    2    1    2    0    0  0.00000000000E+00  0.00000000000E+00  0.77097479619E+03  0.35749585502E+04  0.34908346422E+04 0.  0.
        1    1    3    3  502    0 -0.82368474756E+03  0.12545299504E+04  0.12981307930E+04  0.19842997544E+04  0.50400001928E-02 0. -1.
       -1    1    3    3    0  502  0.82368474756E+03 -0.12545299504E+04 -0.52715599676E+03  0.15906587958E+04  0.50400001928E-02 0.  1.
</event>
<event>
 5   0  0.1013863E-07  0.3460878E+04  0.7818609E-02  0.8123125E-01
       -1   -1    0    0    0  501  0.00000000000E+00  0.00000000000E+00  0.14967380186E+04  0.14967380186E+04  0.50400001928E-02 0.  1.
        1   -1    0    0  501    0  0.00000000000E+00  0.00000000000E+00 -0.20006295251E+04  0.20006295251E+04  0.50400001928E-02 0. -1.
    10030    2    1    2    0    0  0.00000000000E+00  0.00000000000E+00 -0.50389150652E+03  0.34973675438E+04  0.34608775023E+04 0.  0.
        2    1    3    3  502    0  0.92952750292E+03 -0.49419161943E+03 -0.16398056958E+04  0.19486429779E+04  0.25500000920E-02 0. -1.
       -2    1    3    3    0  502 -0.92952750292E+03  0.49419161943E+03  0.11359141893E+04  0.15487245658E+04  0.25500000920E-02 0.  1.
</event>
<event>
 5   0  0.3219205E-07  0.3507289E+04  0.7818609E-02  0.8112065E-01
        2   -1    0    0  501    0  0.00000000000E+00  0.00000000000E+00  0.19106672948E+04  0.19106672948E+04  0.25500000920E-02 0.  1.
       -2   -1    0    0    0  501  0.00000000000E+00  0.00000000000E+00 -0.16095261272E+04  0.16095261272E+04  0.25500000920E-02 0. -1.
    10030    2    1    2    0    0  0.00000000000E+00  0.00000000000E+00  0.30114116756E+03  0.35201934220E+04  0.35072889424E+04 0.  0.
        2    1    3    3  502    0  0.52621272868E+03 -0.11827400675E+04 -0.10367846230E+04  0.16585223114E+04  0.25500000920E-02 0. -1.
       -2    1    3    3    0  502 -0.52621272868E+03  0.11827400675E+04  0.13379257905E+04  0.18616711106E+04  0.25500000920E-02 0.  1.
</event>
<event>
 5   0  0.3119048E-07  0.3499548E+04  0.7818609E-02  0.8113897E-01
       -2   -1    0    0    0  501  0.00000000000E+00  0.00000000000E+00  0.12422594039E+04  0.12422594039E+04  0.25500000920E-02 0. -1.
        2   -1    0    0  501    0  0.00000000000E+00  0.00000000000E+00 -0.24646299855E+04  0.24646299855E+04  0.25500000920E-02 0.  1.
    10030    2    1    2    0    0  0.00000000000E+00  0.00000000000E+00 -0.12223705816E+04  0.37068893894E+04  0.34995484147E+04 0.  0.
        3    1    3    3  502    0  0.24466590757E+03 -0.54363759096E+03 -0.23537387629E+04  0.24280628927E+04  0.10100000352E+00 0.  1.
       -3    1    3    3    0  502 -0.24466590757E+03  0.54363759096E+03  0.11313681814E+04  0.12788264967E+04  0.10100000352E+00 0. -1.
</event>
<event>
 5   0  0.3190112E-07  0.3494605E+04  0.7818609E-02  0.8115070E-01
        2   -1    0    0  501    0  0.00000000000E+00  0.00000000000E+00  0.16109890377E+04  0.16109890377E+04  0.25500000920E-02 0.  1.
       -2   -1    0    0    0  501  0.00000000000E+00  0.00000000000E+00 -0.18951505824E+04  0.18951505824E+04  0.25500000920E-02 0. -1.
    10030    2    1    2    0    0  0.00000000000E+00  0.00000000000E+00 -0.28416154478E+03  0.35061396201E+04  0.34946054501E+04 0.  0.
        5    1    3    3  502    0 -0.13265838525E+04  0.10450921110E+04  0.30773198602E+03  0.17166139064E+04  0.46999998093E+01 0.  1.
       -5    1    3    3    0  502  0.13265838525E+04 -0.10450921110E+04 -0.59189353081E+03  0.17895257137E+04  0.46999998093E+01 0. -1.
</event>
<event>
 5   0  0.3190185E-07  0.3507463E+04  0.7818609E-02  0.8112024E-01
       -2   -1    0    0    0  501  0.00000000000E+00  0.00000000000E+00  0.19763654390E+04  0.19763654390E+04  0.25500000920E-02 0. -1.
        2   -1    0    0  501    0  0.00000000000E+00  0.00000000000E+00 -0.15561766905E+04  0.15561766905E+04  0.25500000920E-02 0.  1.
    10030    2    1    2    0    0  0.00000000000E+00  0.00000000000E+00  0.42018874850E+03  0.35325421294E+04  0.35074628026E+04 0.  0.
        1    1    3    3  502    0 -0.15522117233E+04  0.68225101643E+03 -0.24115631955E+03  0.17125957065E+04  0.50400001928E-02 0. -1.
       -1    1    3    3    0  502  0.15522117233E+04 -0.68225101643E+03  0.66134506804E+03  0.18199464230E+04  0.50400001928E-02 0.  1.
</event>
<event>
 5   0  0.1072381E-07  0.3504097E+04  0.7818609E-02  0.8112820E-01
        1   -1    0    0  501    0  0.00000000000E+00  0.00000000000E+00  0.22730253755E+04  0.22730253755E+04  0.50400001928E-02 0. -1.
       -1   -1    0    0    0  501  0.00000000000E+00  0.00000000000E+00 -0.13504797670E+04  0.13504797670E+04  0.50400001928E-02 0.  1.
    10030    2    1    2    0    0  0.00000000000E+00  0.00000000000E+00  0.92254560851E+03  0.36235051425E+04  0.35040974755E+04 0.  0.
        1    1    3    3  502    0  0.54131251342E+03  0.81339142260E+03  0.19651522236E+04  0.21946407691E+04  0.50400001928E-02 0. -1.
       -1    1    3    3    0  502 -0.54131251342E+03 -0.81339142260E+03 -0.10426066151E+04  0.14288643733E+04  0.50400001928E-02 0.  1.
</event>
<event>
 5   0  0.3219205E-07  0.3508128E+04  0.7818609E-02  0.8111866E-01
       -2   -1    0    0    0  501  0.00000000000E+00  0.00000000000E+00  0.18544249499E+04  0.18544249499E+04  0.25500000920E-02 0. -1.
        2   -1    0    0  501    0  0.00000000000E+00  0.00000000000E+00 -0.16591345759E+04  0.16591345759E+04  0.25500000920E-02 0.  1.
    10030    2    1    2    0    0  0.00000000000E+00  0.00000000000E+00  0.19529037400E+03  0.35135595257E+04  0.35081280208E+04 0.  0.
        2    1    3    3  502    0 -0.48570796452E+03 -0.12127775129E+04 -0.10746365845E+04  0.16916220947E+04  0.25500000920E-02 0. -1.
       -2    1    3    3    0  502  0.48570796452E+03  0.12127775129E+04  0.12699269585E+04  0.18219374310E+04  0.25500000920E-02 0.  1.
</event>
<event>
 5   0  0.1033796E-07  0.3491886E+04  0.7818609E-02  0.8115716E-01
       -1   -1    0    0    0  501  0.00000000000E+00  0.00000000000E+00  0.14190976479E+04  0.14190976480E+04  0.50400001928E-02 0.  1.
        1   -1    0    0  501    0  0.00000000000E+00  0.00000000000E+00 -0.21480672209E+04  0.21480672209E+04  0.50400001928E-02 0. -1.
    10030    2    1    2    0    0  0.00000000000E+00  0.00000000000E+00 -0.72896957299E+03  0.35671648689E+04  0.34918861040E+04 0.  0.
        3    1    3    3  502    0 -0.93283460311E+03  0.12014187911E+04  0.51115782469E+03  0.16046400968E+04  0.10100000352E+00 0.  1.
       -3    1    3    3    0  502  0.93283460311E+03 -0.12014187911E+04 -0.12401273977E+04  0.19625247721E+04  0.10100000352E+00 0. -1.
</event>
<event>
 5   0  0.3119048E-07  0.3526037E+04  0.7818609E-02  0.8107647E-01
        2   -1    0    0  501    0  0.00000000000E+00  0.00000000000E+00  0.16134075107E+04  0.16134075108E+04  0.25500000920E-02 0.  1.
       -2   -1    0    0    0  501  0.00000000000E+00  0.00000000000E+00 -0.19265032629E+04  0.19265032629E+04  0.25500000920E-02 0. -1.
    10030    2    1    2    0    0  0.00000000000E+00  0.00000000000E+00 -0.31309575219E+03  0.35399107737E+04  0.35260373418E+04 0.  0.
        3    1    3    3  502    0 -0.25625972140E+03  0.15797864657E+04 -0.89894408360E+03  0.18356183693E+04  0.10100000352E+00 0. -1.
       -3    1    3    3    0  502  0.25625972140E+03 -0.15797864657E+04  0.58584833141E+03  0.17042924044E+04  0.10100000352E+00 0.  1.
</event>
<event>
 5   0  0.1013863E-07  0.3472777E+04  0.7818609E-02  0.8120272E-01
       -1   -1    0    0    0  501  0.00000000000E+00  0.00000000000E+00  0.14607428002E+04  0.14607428002E+04  0.50400001928E-02 0.  1.
        1   -1    0    0  501    0  0.00000000000E+00  0.00000000000E+00 -0.20640492078E+04  0.20640492078E+04  0.50400001928E-02 0. -1.
    10030    2    1    2    0    0  0.00000000000E+00  0.00000000000E+00 -0.60330640757E+03  0.35247920080E+04  0.34727769980E+04 0.  0.
        2    1    3    3  502    0  0.13358504701E+04  0.67972562541E+02  0.82214705853E+03  0.15700453922E+04  0.25500000920E-02 0.  1.
       -2    1    3    3    0  502 -0.13358504701E+04 -0.67972562541E+02 -0.14254534661E+04  0.19547466158E+04  0.25500000920E-02 0. -1.
</event>
<event>
 5   0  0.2180451E-07  0.3491875E+04  0.7818609E-02  0.8115718E-01
       -2   -1    0    0    0  501  0.00000000000E+00  0.00000000000E+00  0.13192557661E+04  0.13192557662E+04  0.25500000920E-02 0.  1.
        2   -1    0    0  501    0  0.00000000000E+00  0.00000000000E+00 -0.23106195221E+04  0.23106195221E+04  0.25500000920E-02 0. -1.
    10030    2    1    2    0    0  0.00000000000E+00  0.00000000000E+00 -0.99136375592E+03  0.36298752882E+04  0.34918752142E+04 0.  0.
        4    1    3    3  502    0 -0.54893964280E+03 -0.60300705975E+03 -0.21005020654E+04  0.22532338505E+04  0.12699999809E+01 0. -1.
       -4    1    3    3    0  502  0.54893964280E+03  0.60300705975E+03  0.11091383095E+04  0.13766414377E+04  0.12699999809E+01 0.  1.
</event>
<event>
 5   0  0.1072381E-07  0.3516217E+04  0.7818609E-02  0.8109957E-01
       -1   -1    0    0    0  501  0.00000000000E+00  0.00000000000E+00  0.15329140734E+04  0.15329140734E+04  0.50400001928E-02 0.  1.
        1   -1    0    0  501    0  0.00000000000E+00  0.00000000000E+00 -0.20163851766E+04  0.20163851766E+04  0.50400001928E-02 0. -1.
    10030    2    1    2    0    0  0.00000000000E+00  0.00000000000E+00 -0.48347110323E+03  0.35492992499E+04  0.35162168389E+04 0.  0.
        1    1    3    3  502    0 -0.10081794329E+03 -0.94736989241E+03  0.12497560602E+04  0.15714847059E+04  0.50400001928E-02 0.  1.
       -1    1    3    3    0  502  0.10081794329E+03  0.94736989241E+03 -0.17332271634E+04  0.19778145441E+04  0.50400001928E-02 0. -1.
</event>
<event>
 5   0  0.3190185E-07  0.3506951E+04  0.7818609E-02  0.8112145E-01
       -2   -1    0    0    0  501  0.00000000000E+00  0.00000000000E+00  0.14157471627E+04  0.14157471627E+04  0.25500000920E-02 0.  1.
        2   -1    0    0  501    0  0.00000000000E+00  0.00000000000E+00 -0.21717691004E+04  0.21717691004E+04  0.25500000920E-02 0. -1.
    10030    2    1    2    0    0  0.00000000000E+00  0.00000000000E+00 -0.75602193777E+03  0.35875162631E+04  0.35069507792E+04 0.  0.
        1    1    3    3  502    0 -0.10317818770E+03 -0.13856019371E+03  0.14070202829E+04  0.14175862380E+04  0.50400001928E-02 0.  1.
       -1    1    3    3    0  502  0.10317818770E+03  0.13856019371E+03 -0.21630422206E+04  0.21699300251E+04  0.50400001928E-02 0. -1.
</event>
<event>
 5   0  0.1013863E-07  0.3508273E+04  0.7818609E-02  0.8111832E-01
       -1   -1    0    0    0  501  0.00000000000E+00  0.00000000000E+00  0.14895432199E+04  0.14895432199E+04  0.50400001928E-02 0.  1.
        1   -1    0    0  501    0  0.00000000000E+00  0.00000000000E+00 -0.20657300695E+04  0.20657300695E+04  0.50400001928E-02 0. -1.
    10030    2    1    2    0    0  0.00000000000E+00  0.00000000000E+00 -0.57618684965E+03  0.35552732894E+04  0.35082726343E+04 0.  0.
        2    1    3    3  502    0  0.14725392065E+04 -0.95169742480E+03 -0.34261490437E+03  0.17864726910E+04  0.25500000920E-02 0. -1.
       -2    1    3    3    0  502 -0.14725392065E+04  0.95169742480E+03 -0.23357194528E+03  0.17688005984E+04  0.25500000920E-02 0.  1.
</event>
<event>
 5   0  0.1013863E-07  0.3508714E+04  0.7818609E-02  0.8111728E-01
        1   -1    0    0  501    0  0.00000000000E+00  0.00000000000E+00  0.20122381257E+04  0.20122381257E+04  0.50400001928E-02 0. -1.
       -1   -1    0    0    0  501  0.00000000000E+00  0.00000000000E+00 -0.15295252292E+04  0.15295252292E+04  0.50400001928E-02 0.  1.
    10030    2    1    2    0    0  0.00000000000E+00  0.00000000000E+00  0.48271289658E+03  0.35417633549E+04  0.35087142833E+04 0.  0.
        5    1    3    3  502    0  0.96239347436E+03 -0.10141196937E+03  0.17184444474E+04  0.19721964902E+04  0.46999998093E+01 0. -1.
       -5    1    3    3    0  502 -0.96239347436E+03  0.10141196937E+03 -0.12357315509E+04  0.15695668647E+04  0.46999998093E+01 0.  1.
</event>
<event>
 5   0  0.3119048E-07  0.3499713E+04  0.7818609E-02  0.8113858E-01
       -2   -1    0    0    0  501  0.00000000000E+00  0.00000000000E+00  0.20356510988E+04  0.20356510988E+04  0.25500000920E-02 0.  1.
        2   -1    0    0  501    0  0.00000000000E+00  0.00000000000E+00 -0.15041857180E+04  0.15041857180E+04  0.25500000920E-02 0. -1.
    10030    2    1    2    0    0  0.00000000000E+00  0.00000000000E+00  0.53146538079E+03  0.35398368169E+04  0.34997127367E+04 0.  0.
        3    1    3    3  502    0  0.10054882971E+04  0.14059906741E+04 -0.97514645868E+01  0.17285576625E+04  0.10100000352E+00 0.  1.
       -3    1    3    3    0  502 -0.10054882971E+04 -0.14059906741E+04  0.54121684538E+03  0.18112791544E+04  0.10100000352E+00 0. -1.
</event>
<event>
 5   0  0.1033796E-07  0.3414244E+04  0.7818609E-02  0.8134419E-01
       -1   -1    0    0    0  501  0.00000000000E+00  0.00000000000E+00  0.25838336512E+04  0.25838336512E+04  0.50400001928E-02 0.  1.
        1   -1    0    0  501    0  0.00000000000E+00  0.00000000000E+00 -0.11278845225E+04  0.11278845225E+04  0.50400001928E-02 0. -1.
    10030    2    1    2    0    0  0.00000000000E+00  0.00000000000E+00  0.14559491287E+04  0.37117181737E+04  0.34142442700E+04 0.  0.
        3    1    3    3  502    0 -0.46169890422E+03 -0.21425650842E+03  0.24994231547E+04  0.25507230046E+04  0.10100000352E+00 0.  1.
       -3    1    3    3    0  502  0.46169890422E+03  0.21425650842E+03 -0.10434740260E+04  0.11609951691E+04  0.10100000352E+00 0. -1.
</event>
<event>
 5   0  0.3190185E-07  0.3492937E+04  0.7818609E-02  0.8115466E-01
       -2   -1    0    0    0  501  0.00000000000E+00  0.00000000000E+00  0.13834252260E+04  0.13834252260E+04  0.25500000920E-02 0. -1.
        2   -1    0    0  501    0  0.00000000000E+00  0.00000000000E+00 -0.22047825901E+04  0.22047825901E+04  0.25500000920E-02 0.  1.
    10030    2    1    2    0    0  0.00000000000E+00  0.00000000000E+00 -0.82135736413E+03  0.35882078161E+04  0.34929367890E+04 0.  0.
        1    1    3    3  502    0 -0.63198433960E+03 -0.84639669116E+03  0.10180690216E+04  0.14670569509E+04  0.50400001928E-02 0. -1.
       -1    1    3    3    0  502  0.63198433960E+03  0.84639669116E+03 -0.18394263858E+04  0.21211508652E+04  0.50400001928E-02 0.  1.
</event>
<event>
 5   0  0.1098171E-07  0.3489339E+04  0.7818609E-02  0.8116321E-01
        1   -1    0    0  501    0  0.00000000000E+00  0.00000000000E+00  0.23449591615E+04  0.23449591615E+04  0.50400001928E-02 0.  1.
       -1   -1    0    0    0  501  0.00000000000E+00  0.00000000000E+00 -0.12980492482E+04  0.12980492482E+04  0.50400001928E-02 0. -1.
    10030    2    1    2    0    0  0.00000000000E+00  0.00000000000E+00  0.10469099133E+04  0.36430084097E+04  0.34893394656E+04 0.  0.
        4    1    3    3  502    0  0.13487231605E+04 -0.68643946320E+03  0.14297976896E+04  0.20819645402E+04  0.12699999809E+01 0.  1.
       -4    1    3    3    0  502 -0.13487231605E+04  0.68643946320E+03 -0.38288777633E+03  0.15610438695E+04  0.12699999809E+01 0. -1.
</event>
<event>
 5   0  0.3190185E-07  0.3456031E+04  0.7818609E-02  0.8124290E-01
       -2   -1    0    0    0  501  0.00000000000E+00  0.00000000000E+00  0.16474653978E+04  0.16474653978E+04  0.25500000920E-02 0. -1.
        2   -1    0    0  501    0  0.00000000000E+00  0.00000000000E+00 -0.18125038855E+04  0.18125038855E+04  0.25500000920E-02 0.  1.
    10030    2    1    2    0    0  0.00000000000E+00  0.00000000000E+00 -0.16503848765E+03  0.34599692833E+04  0.34560309228E+04 0.  0.
        1    1    3    3  502    0 -0.45357387960E+03 -0.16029387272E+04  0.37723779893E+03  0.17080545027E+04  0.50400001928E-02 0. -1.
       -1    1    3    3    0  502  0.45357387960E+03  0.16029387272E+04 -0.54227628658E+03  0.17519147806E+04  0.50400001928E-02 0.  1.
</event>
<event>
 5   0  0.1098171E-07  0.3505946E+04  0.7818609E-02  0.8112382E-01
        1   -1    0    0  501    0  0.00000000000E+00  0.00000000000E+00  0.21246671144E+04  0.21246671144E+04  0.50400001928E-02 0.  1.
       -1   -1    0    0    0  501  0.00000000000E+00  0.00000000000E+00 -0.14463036842E+04  0.14463036842E+04  0.50400001928E-02 0. -1.
    10030    2    1    2    0    0  0.00000000000E+00  0.00000000000E+00  0.67836343022E+03  0.35709707986E+04  0.35059457356E+04 0.  0.
        4    1    3    3  502    0 -0.13092448915E+04 -0.38536035425E+03 -0.78135316065E+03  0.15726217483E+04  0.12699999809E+01 0. -1.
       -4    1    3    3    0  502  0.13092448915E+04  0.38536035425E+03  0.14597165909E+04  0.19983490504E+04  0.12699999809E+01 0.  1.
</event>
<event>
 5   0  0.1013863E-07  0.3457908E+04  0.7818609E-02  0.8123838E-01
       -1   -1    0    0    0  501  0.00000000000E+00  0.00000000000E+00  0.10133308916E+04  0.10133308916E+04  0.50400001928E-02 0. -1.
        1   -1    0    0  501    0  0.00000000000E+00  0.00000000000E+00 -0.29499559666E+04  0.29499559666E+04  0.50400001928E-02 0.  1.
    10030    2    1    2    0    0  0.00000000000E+00  0.00000000000E+00 -0.19366250750E+04  0.39632868582E+04  0.34579077546E+04 0.  0.
        5    1    3    3  502    0  0.18136933198E+02 -0.10772455588E+04 -0.25181505819E+04  0.27389580840E+04  0.46999998093E+01 0.  1.
       -5    1    3    3    0  502 -0.18136933198E+02  0.10772455588E+04  0.58152550692E+03  0.12243287743E+04  0.46999998093E+01 0. -1.
</event>
<event>
 5   0  0.1013863E-07  0.3483082E+04  0.7818609E-02  0.8117811E-01
        1   -1    0    0  501    0  0.00000000000E+00  0.00000000000E+00  0.27821129832E+04  0.27821129832E+04  0.50400001928E-02 0. -1.
       -1   -1    0    0    0  501  0.00000000000E+00  0.00000000000E+00 -0.10901662668E+04  0.10901662668E+04  0.50400001928E-02 0.  1.
    10030    2    1    2    0    0  0.00000000000E+00  0.00000000000E+00  0.16919467164E+04  0.38722792500E+04  0.34830823847E+04 0.  0.
        2    1    3    3  502    0 -0.99578643570E+03  0.59318044043E+03  0.22910256755E+04  0.25675381801E+04  0.25500000920E-02 0. -1.
       -2    1    3    3    0  502  0.99578643570E+03 -0.59318044043E+03 -0.59907895903E+03  0.13047410699E+04  0.25500000920E-02 0.  1.
</event>
<event>
 5   0  0.1033796E-07  0.3493791E+04  0.7818609E-02  0.8115263E-01
        1   -1    0    0  501    0  0.00000000000E+00  0.00000000000E+00  0.15835351197E+04  0.15835351197E+04  0.50400001928E-02 0.  1.
       -1   -1    0    0    0  501  0.00000000000E+00  0.00000000000E+00 -0.19271078891E+04  0.19271078891E+04  0.50400001928E-02 0. -1.
    10030    2    1    2    0    0  0.00000000000E+00  0.00000000000E+00 -0.34357276943E+03  0.35106430088E+04  0.34937905042E+04 0.  0.
        3    1    3    3  502    0 -0.20253570734E+02 -0.74504419282E+03 -0.17593255522E+04  0.19106876943E+04  0.10100000352E+00 0. -1.
       -3    1    3    3    0  502  0.20253570734E+02  0.74504419282E+03  0.14157527828E+04  0.15999553145E+04  0.10100000352E+00 0.  1.
</event>
<event>
 5   0  0.3219205E-07  0.3505114E+04  0.7818609E-02  0.8112579E-01
       -2   -1    0    0    0  501  0.00000000000E+00  0.00000000000E+00  0.15705764485E+04  0.15705764485E+04  0.25500000920E-02 0. -1.
        2   -1    0    0  501    0  0.00000000000E+00  0.00000000000E+00 -0.19556238649E+04  0.19556238649E+04  0.25500000920E-02 0.  1.
    10030    2    1    2    0    0  0.00000000000E+00  0.00000000000E+00 -0.38504741645E+03  0.35262003134E+04  0.35051144257E+04 0.  0.
        2    1    3    3  502    0 -0.76301772819E+03 -0.41348879775E+03 -0.17242756839E+04  0.19303615396E+04  0.25500000920E-02 0.  1.
       -2    1    3    3    0  502  0.76301772819E+03  0.41348879775E+03  0.13392282675E+04  0.15958387738E+04  0.25500000920E-02 0. -1.
</event>
<event>
 5   0  0.2180451E-07  0.3496158E+04  0.7818609E-02  0.8114701E-01
       -2   -1    0    0    0  501  0.00000000000E+00  0.00000000000E+00  0.12805062729E+04  0.12805062729E+04  0.25500000920E-02 0.  1.
        2   -1    0    0  501    0  0.00000000000E+00  0.00000000000E+00 -0.23863848571E+04  0.23863848571E+04  0.25500000920E-02 0. -1.
    10030    2    1    2    0    0  0.00000000000E+00  0.00000000000E+00 -0.11058785843E+04  0.36668911300E+04  0.34961583368E+04 0.  0.
        4    1    3    3  502    0 -0.14416718250E+04  0.11523644955E+03  0.47688688547E+03  0.15228656555E+04  0.12699999809E+01 0.  1.
       -4    1    3    3    0  502  0.14416718250E+04 -0.11523644955E+03 -0.15827654697E+04  0.21440254745E+04  0.12699999809E+01 0. -1.
</event>
<event>
 5   0  0.3119048E-07  0.3512543E+04  0.7818609E-02  0.8110824E-01
       -2   -1    0    0    0  501  0.00000000000E+00  0.00000000000E+00  0.17475074013E+04  0.17475074013E+04  0.25500000920E-02 0. -1.
        2   -1    0    0  501    0  0.00000000000E+00  0.00000000000E+00 -0.17650796348E+04  0.17650796348E+04  0.25500000920E-02 0.  1.
    10030    2    1    2    0    0  0.00000000000E+00  0.00000000000E+00 -0.17572233434E+02  0.35125870361E+04  0.35125430820E+04 0.  0.
        3    1    3    3  502    0  0.51191771435E+03  0.31271529963E+03  0.16418826267E+04  0.17480358048E+04  0.10100000352E+00 0. -1.
       -3    1    3    3    0  502 -0.51191771435E+03 -0.31271529963E+03 -0.16594548601E+04  0.17645512313E+04  0.10100000352E+00 0.  1.
</event>
<event>
 5   0  0.3190112E-07  0.3492526E+04  0.7818609E-02  0.8115563E-01
        2   -1    0    0  501    0  0.00000000000E+00  0.00000000000E+00  0.27882342680E+04  0.27882342680E+04  0.25500000920E-02 0. -1.
       -2   -1    0    0    0  501  0.00000000000E+00  0.00000000000E+00 -0.10936795535E+04  0.10936795535E+04  0.25500000920E-02 0.  1.
    10030    2    1    2    0    0  0.00000000000E+00  0.00000000000E+00  0.16945547145E+04  0.38819138214E+04  0.34925261970E+04 0.  0.
        5    1    3    3  502    0 -0.16022627756E+04 -0.61250946628E+03  0.12108538655E+04  0.20996673599E+04  0.46999998093E+01 0.  1.
       -5    1    3    3    0  502  0.16022627756E+04  0.61250946628E+03  0.48370084903E+03  0.17822464616E+04  0.46999998093E+01 0. -1.
</event>
<event>
 5   0  0.1013863E-07  0.3485822E+04  0.7818609E-02  0.8117158E-01
        1   -1    0    0  501    0  0.00000000000E+00  0.00000000000E+00  0.23033869103E+04  0.23033869103E+04  0.50400001928E-02 0.  1.
       -1   -1    0    0    0  501  0.00000000000E+00  0.00000000000E+00 -0.13188139467E+04  0.13188139467E+04  0.50400001928E-02 0. -1.
    10030    2    1    2    0    0  0.00000000000E+00  0.00000000000E+00  0.98457296361E+03  0.36222008571E+04  0.34858220162E+04 0.  0.
        2    1    3    3  502    0  0.17185554251E+04 -0.28128533682E+03  0.56710767486E+03  0.18314380428E+04  0.25500000920E-02 0.  1.
       -2    1    3    3    0  502 -0.17185554251E+04  0.28128533682E+03  0.41746528874E+03  0.17907628143E+04  0.25500000920E-02 0. -1.
</event>
<event>
 5   0  0.1098171E-07  0.3475350E+04  0.7818609E-02  0.8119657E-01
       -1   -1    0    0    0  501  0.00000000000E+00  0.00000000000E+00  0.30122356653E+04  0.30122356653E+04  0.50400001928E-02 0.  1.
        1   -1    0    0  501    0  0.00000000000E+00  0.00000000000E+00 -0.10024161580E+04  0.10024161580E+04  0.50400001928E-02 0. -1.
    10030    2    1    2    0    0  0.00000000000E+00  0.00000000000E+00  0.20098195073E+04  0.40146518232E+04  0.34753495953E+04 0.  0.
        4    1    3    3  502    0  0.15829245609E+04 -0.31803263368E+03  0.26278715662E+03  0.16358036631E+04  0.12699999809E+01 0. -1.
       -4    1    3    3    0  502 -0.15829245609E+04  0.31803263368E+03  0.17470323507E+04  0.23788481601E+04  0.12699999809E+01 0.  1.
</event>
<event>
 5   0  0.3190185E-07  0.3509679E+04  0.7818609E-02  0.8111500E-01
        2   -1    0    0  501    0  0.00000000000E+00  0.00000000000E+00  0.89486025298E+03  0.89486025299E+03  0.25500000920E-02 0.  1.
       -2   -1    0    0    0  501  0.00000000000E+00  0.00000000000E+00 -0.34412761480E+04  0.34412761480E+04  0.25500000920E-02 0. -1.
    10030    2    1    2    0    0  0.00000000000E+00  0.00000000000E+00 -0.25464158951E+04  0.43361364010E+04  0.35096787571E+04 0.  0.
        1    1    3    3  502    0 -0.90205219340E+03  0.87349150187E+03  0.24133867695E+03  0.12786437817E+04  0.50400001928E-02 0.  1.
       -1    1    3    3    0  502  0.90205219340E+03 -0.87349150187E+03 -0.27877545720E+04  0.30574926193E+04  0.50400001928E-02 0. -1.
</event>
<event>
 5   0  0.3190185E-07  0.3507223E+04  0.7818609E-02  0.8112080E-01
       -2   -1    0    0    0  501  0.00000000000E+00  0.00000000000E+00  0.19092753496E+04  0.19092753496E+04  0.25500000920E-02 0. -1.
        2   -1    0    0  501    0  0.00000000000E+00  0.00000000000E+00 -0.16106393067E+04  0.16106393067E+04  0.25500000920E-02 0.  1.
    10030    2    1    2    0    0  0.00000000000E+00  0.00000000000E+00  0.29863604291E+03  0.35199146564E+04  0.35072233607E+04 0.  0.
        1    1    3    3  502    0 -0.14375656183E+04  0.31719777046E+03 -0.80699128424E+03  0.16788222852E+04  0.50400001928E-02 0.  1.
       -1    1    3    3    0  502  0.14375656183E+04 -0.31719777046E+03  0.11056273272E+04  0.18410923712E+04  0.50400001928E-02 0. -1.
</event>
<event>
 5   0  0.1013863E-07  0.3490455E+04  0.7818609E-02  0.8116056E-01
       -1   -1    0    0    0  501  0.00000000000E+00  0.00000000000E+00  0.19111732209E+04  0.19111732209E+04  0.50400001928E-02 0.  1.
        1   -1    0    0  501    0  0.00000000000E+00  0.00000000000E+00 -0.15936910268E+04  0.15936910268E+04  0.50400001928E-02 0. -1.
    10030    2    1    2    0    0  0.00000000000E+00  0.00000000000E+00  0.31748219410E+03  0.35048642477E+04  0.34904553358E+04 0.  0.
        5    1    3    3  502    0  0.17387106273E+04  0.14006885120E+03  0.21431932962E+03  0.17574665840E+04  0.46999998093E+01 0. -1.
       -5    1    3    3    0  502 -0.17387106273E+04 -0.14006885120E+03  0.10316286448E+03  0.17473976638E+04  0.46999998093E+01 0.  1.
</event>
<event>
 5   0  0.3119048E-07  0.3510458E+04  0.7818609E-02  0.8111316E-01
       -2   -1    0    0    0  501  0.00000000000E+00  0.00000000000E+00  0.16324696130E+04  0.16324696130E+04  0.25500000920E-02 0. -1.
        2   -1    0    0  501    0  0.00000000000E+00  0.00000000000E+00 -0.18872198000E+04  0.18872198000E+04  0.25500000920E-02 0.  1.
    10030    2    1    2    0    0  0.00000000000E+00  0.00000000000E+00 -0.25475018705E+03  0.35196894130E+04  0.35104580764E+04 0.  0.
        3    1    3    3  502    0  0.98553642700E+03  0.68300551791E+03  0.11578109215E+04  0.16668247438E+04  0.10100000352E+00 0. -1.
       -3    1    3    3    0  502 -0.98553642700E+03 -0.68300551791E+03 -0.14125611086E+04  0.18528646691E+04  0.10100000352E+00 0.  1.
</event>
<event>
 5   0  0.1033796E-07  0.3489680E+04  0.7818609E-02  0.8116240E-01
       -1   -1    0    0    0  501  0.00000000000E+00  0.00000000000E+00  0.16508972615E+04  0.16508972615E+04  0.50400001928E-02 0. -1.
        1   -1    0    0  501    0  0.00000000000E+00  0.00000000000E+00 -0.18441283858E+04  0.18441283858E+04  0.50400001928E-02 0.  1.
    10030    2    1    2    0    0  0.00000000000E+00  0.00000000000E+00 -0.19323112432E+03  0.34950256473E+04  0.34896799291E+04 0.  0.
        3    1    3    3  502    0  0.10836397055E+04  0.13062890919E+04  0.30872690175E+03  0.17251024645E+04  0.10100000352E+00 0.  1.
       -3    1    3    3    0  502 -0.10836397055E+04 -0.13062890919E+04 -0.50195802608E+03  0.17699231828E+04  0.10100000352E+00 0. -1.
</event>
<event>
 5   0  0.1013863E-07  0.3507726E+04  0.7818609E-02  0.8111961E-01
        3   -1    0    0  501    0  0.00000000000E+00  0.00000000000E+00  0.13646851331E+04  0.13646851368E+04  0.10100000352E+00 0. -1.
       -3   -1    0    0    0  501  0.00000000000E+00  0.00000000000E+00 -0.22540262112E+04  0.22540262134E+04  0.10100000352E+00 0.  1.
    10030    2    1    2    0    0  0.00000000000E+00  0.00000000000E+00 -0.88934107807E+03  0.36187113502E+04  0.35077263695E+04 0.  0.
        4    1    3    3  502    0 -0.20602312258E+03  0.17012262813E+04 -0.59469216618E+02  0.17146878981E+04  0.12699999809E+01 0.  1.
       -4    1    3    3    0  502  0.20602312258E+03 -0.17012262813E+04 -0.82987186145E+03  0.19040234522E+04  0.12699999809E+01 0. -1.
</event>
<event>
 5   0  0.3219205E-07  0.3542077E+04  0.7818609E-02  0.8103890E-01
       -2   -1    0    0    0  501  0.00000000000E+00  0.00000000000E+00  0.11039962618E+04  0.11039962618E+04  0.25500000920E-02 0.  1.
        2   -1    0    0  501    0  0.00000000000E+00  0.00000000000E+00 -0.28411115737E+04  0.28411115737E+04  0.25500000920E-02 0. -1.
    10030    2    1    2    0    0  0.00000000000E+00  0.00000000000E+00 -0.17371153119E+04  0.39451078355E+04  0.35420765417E+04 0.  0.
        2    1    3    3  502    0 -0.11447259216E+04  0.10709015763E+04 -0.17865676017E+04  0.23767733206E+04  0.25500000920E-02 0. -1.
       -2    1    3    3    0  502  0.11447259216E+04 -0.10709015763E+04  0.49452289730E+02  0.15683345150E+04  0.25500000920E-02 0.  1.
</event>
<event>
 5   0  0.1072381E-07  0.3507957E+04  0.7818609E-02  0.8111907E-01
        1   -1    0    0  501    0  0.00000000000E+00  0.00000000000E+00  0.27061522447E+04  0.27061522447E+04  0.50400001928E-02 0.  1.
       -1   -1    0    0    0  501  0.00000000000E+00  0.00000000000E+00 -0.11368322944E+04  0.11368322944E+04  0.50400001928E-02 0. -1.
    10030    2    1    2    0    0  0.00000000000E+00  0.00000000000E+00  0.15693199503E+04  0.38429845391E+04  0.35079573916E+04 0.  0.
        1    1    3    3  502    0 -0.11727968805E+04 -0.25616325149E+03  0.21856086523E+04  0.24935832280E+04  0.50400001928E-02 0.  1.
       -1    1    3    3    0  502  0.11727968805E+04  0.25616325149E+03 -0.61628870194E+03  0.13494013111E+04  0.50400001928E-02 0. -1.
</event>
<event>
 5   0  0.3190185E-07  0.3479745E+04  0.7818609E-02  0.8118607E-01
        2   -1    0    0  501    0  0.00000000000E+00  0.00000000000E+00  0.19375598398E+04  0.19375598398E+04  0.25500000920E-02 0. -1.
       -2   -1    0    0    0  501  0.00000000000E+00  0.00000000000E+00 -0.15623552741E+04  0.15623552741E+04  0.25500000920E-02 0.  1.
    10030    2    1    2    0    0  0.00000000000E+00  0.00000000000E+00  0.37520456571E+03  0.34999151139E+04  0.34797452979E+04 0.  0.
        1    1    3    3  502    0  0.16595910531E+04 -0.50551934607E+03  0.32014075743E+03  0.17641661989E+04  0.50400001928E-02 0. -1.
       -1    1    3    3    0  502 -0.16595910531E+04  0.50551934607E+03  0.55063808276E+02  0.17357489150E+04  0.50400001928E-02 0.  1.
</event>
<event>
 5   0  0.3219205E-07  0.3496505E+04  0.7818609E-02  0.8114619E-01
        2   -1    0    0  501    0  0.00000000000E+00  0.00000000000E+00  0.20112943316E+04  0.20112943316E+04  0.25500000920E-02 0. -1.
       -2   -1    0    0    0  501  0.00000000000E+00  0.00000000000E+00 -0.15196117122E+04  0.15196117122E+04  0.25500000920E-02 0.  1.
    10030    2    1    2    0    0  0.00000000000E+00  0.00000000000E+00  0.49168261948E+03  0.35309060438E+04  0.34965047822E+04 0.  0.
        2    1    3    3  502    0  0.83861452998E+03 -0.65958955388E+03  0.16444055424E+04  0.19602046570E+04  0.25500000920E-02 0. -1.
       -2    1    3    3    0  502 -0.83861452998E+03  0.65958955388E+03 -0.11527229229E+04  0.15707013868E+04  0.25500000920E-02 0.  1.
</event>
<event>
 5   0  0.1072381E-07  0.3500498E+04  0.7818609E-02  0.8113672E-01
       -1   -1    0    0    0  501  0.00000000000E+00  0.00000000000E+00  0.19403531443E+04  0.19403531443E+04  0.50400001928E-02 0. -1.
        1   -1    0    0  501    0  0.00000000000E+00  0.00000000000E+00 -0.15787704007E+04  0.15787704007E+04  0.50400001928E-02 0.  1.
    10030    2    1    2    0    0  0.00000000000E+00  0.00000000000E+00  0.36158274355E+03  0.35191235450E+04  0.35004983138E+04 0.  0.
        1    1    3    3  502    0 -0.11511762021E+04 -0.79282230186E+03 -0.87818805899E+03  0.16507538029E+04  0.50400001928E-02 0. -1.
       -1    1    3    3    0  502  0.11511762021E+04  0.79282230186E+03  0.12397708025E+04  0.18683697422E+04  0.50400001928E-02 0.  1.
</event>
<event>
 5   0  0.3119048E-07  0.3513988E+04  0.7818609E-02  0.8110483E-01
        2   -1    0    0  501    0  0.00000000000E+00  0.00000000000E+00  0.26370877584E+04  0.26370877584E+04  0.25500000920E-02 0.  1.
       -2   -1    0    0    0  501  0.00000000000E+00  0.00000000000E+00 -0.11706200127E+04  0.11706200127E+04  0.25500000920E-02 0. -1.
    10030    2    1    2    0    0  0.00000000000E+00  0.00000000000E+00  0.14664677457E+04  0.38077077711E+04  0.35139878800E+04 0.  0.
        3    1    3    3  502    0  0.47311715826E+03  0.36869561266E+03  0.25227101169E+04  0.25930373395E+04  0.10100000352E+00 0.  1.
       -3    1    3    3    0  502 -0.47311715826E+03 -0.36869561266E+03 -0.10562423712E+04  0.12146704315E+04  0.10100000352E+00 0. -1.
</event>
<event>
 5   0  0.3219205E-07  0.3534901E+04  0.7818609E-02  0.8105568E-01
       -2   -1    0    0    0  501  0.00000000000E+00  0.00000000000E+00  0.11625740182E+04  0.11625740182E+04  0.25500000920E-02 0. -1.
        2   -1    0    0  501    0  0.00000000000E+00  0.00000000000E+00 -0.26870385551E+04  0.26870385551E+04  0.25500000920E-02 0.  1.
    10030    2    1    2    0    0  0.00000000000E+00  0.00000000000E+00 -0.15244645368E+04  0.38496125733E+04  0.35349009662E+04 0.  0.
        2    1    3    3  502    0 -0.53854898605E+03 -0.15848294170E+04 -0.13803580736E+04  0.21695869890E+04  0.25500000920E-02 0.  1.
       -2    1    3    3    0  502  0.53854898605E+03  0.15848294170E+04 -0.14410646322E+03  0.16800255843E+04  0.25500000920E-02 0. -1.
</event>
<event>
 5   0  0.3190112E-07  0.3494612E+04  0.7818609E-02  0.8115068E-01
       -2   -1    0    0    0  501  0.00000000000E+00  0.00000000000E+00  0.23367342501E+04  0.23367342501E+04  0.25500000920E-02 0.  1.
        2   -1    0    0  501    0  0.00000000000E+00  0.00000000000E+00 -0.13065579168E+04  0.13065579168E+04  0.25500000920E-02 0. -1.
    10030    2    1    2    0    0  0.00000000000E+00  0.00000000000E+00  0.10301763332E+04  0.36432921669E+04  0.34946122154E+04 0.  0.
        5    1    3    3  502    0  0.95223647716E+03 -0.46988629936E+03  0.19617525764E+04  0.22307045308E+04  0.46999998093E+01 0.  1.
       -5    1    3    3    0  502 -0.95223647716E+03  0.46988629936E+03 -0.93157624320E+03  0.14125876361E+04  0.46999998093E+01 0. -1.
</event>
<event>
 5   0  0.1098171E-07  0.3496128E+04  0.7818609E-02  0.8114708E-01
        1   -1    0    0  501    0  0.00000000000E+00  0.00000000000E+00  0.14810690848E+04  0.14810690848E+04  0.50400001928E-02 0. -1.
       -1   -1    0    0    0  501  0.00000000000E+00  0.00000000000E+00 -0.20631907509E+04  0.20631907509E+04  0.50400001928E-02 0.  1.
    10030    2    1    2    0    0  0.00000000000E+00  0.00000000000E+00 -0.58212166614E+03  0.35442598357E+04  0.34961281654E+04 0.  0.
        4    1    3    3  502    0 -0.17100266125E+04  0.51685478384E+02  0.72857593270E+02  0.17123586792E+04  0.12699999809E+01 0. -1.
       -4    1    3    3    0  502  0.17100266125E+04 -0.51685478384E+02 -0.65497925941E+03  0.18319011566E+04  0.12699999809E+01 0.  1.
</event>
<event>
 5   0  0.2180451E-07  0.3463245E+04  0.7818609E-02  0.8122556E-01
        2   -1    0    0  501    0  0.00000000000E+00  0.00000000000E+00  0.20332323685E+04  0.20332323685E+04  0.25500000920E-02 0. -1.
       -2   -1    0    0    0  501  0.00000000000E+00  0.00000000000E+00 -0.14747530632E+04  0.14747530632E+04  0.25500000920E-02 0.  1.
    10030    2    1    2    0    0  0.00000000000E+00  0.00000000000E+00  0.55847930531E+03  0.35079854317E+04  0.34632445271E+04 0.  0.
        4    1    3    3  502    0 -0.65451533801E+03 -0.39183608553E+03 -0.12953810251E+04  0.15033095020E+04  0.12699999809E+01 0.  1.
       -4    1    3    3    0  502  0.65451533801E+03  0.39183608553E+03  0.18538603304E+04  0.20046759297E+04  0.12699999809E+01 0. -1.
</event>
<event>
 5   0  0.3119048E-07  0.3489555E+04  0.7818609E-02  0.8116270E-01
        2   -1    0    0  501    0  0.00000000000E+00  0.00000000000E+00  0.18162075260E+04  0.18162075260E+04  0.25500000920E-02 0. -1.
       -2   -1    0    0    0  501  0.00000000000E+00  0.00000000000E+00 -0.16761571061E+04  0.16761571061E+04  0.25500000920E-02 0.  1.
    10030    2    1    2    0    0  0.00000000000E+00  0.00000000000E+00  0.14005041991E+03  0.34923646322E+04  0.34895553591E+04 0.  0.
        3    1    3    3  502    0 -0.15578434983E+04  0.47540844360E+03 -0.55606581415E+03  0.17210748831E+04  0.10100000352E+00 0.  1.
       -3    1    3    3    0  502  0.15578434983E+04 -0.47540844360E+03  0.69611623405E+03  0.17712897490E+04  0.10100000352E+00 0. -1.
</event>
<event>
 5   0  0.3190112E-07  0.3483445E+04  0.7818609E-02  0.8117724E-01
       -2   -1    0    0    0  501  0.00000000000E+00  0.00000000000E+00  0.26317160812E+04  0.26317160812E+04  0.25500000920E-02 0.  1.
        2   -1    0    0  501    0  0.00000000000E+00  0.00000000000E+00 -0.11527070310E+04  0.11527070310E+04  0.25500000920E-02 0. -1.
    10030    2    1    2    0    0  0.00000000000E+00  0.00000000000E+00  0.14790090502E+04  0.37844231123E+04  0.34834452087E+04 0.  0.
        5    1    3    3  502    0  0.91967271832E+03  0.14587164343E+04  0.10054490692E+04  0.19961466543E+04  0.46999998093E+01 0.  1.
       -5    1    3    3    0  502 -0.91967271832E+03 -0.14587164343E+04  0.47355998097E+03  0.17882764580E+04  0.46999998093E+01 0. -1.
</event>
<event>
 5   0  0.3119048E-07  0.3511072E+04  0.7818609E-02  0.8111171E-01
       -2   -1    0    0    0  501  0.00000000000E+00  0.00000000000E+00  0.10771693350E+04  0.10771693350E+04  0.25500000920E-02 0.  1.
        2   -1    0    0  501    0  0.00000000000E+00  0.00000000000E+00 -0.28611170067E+04  0.28611170067E+04  0.25500000920E-02 0. -1.
    10030    2    1    2    0    0  0.00000000000E+00  0.00000000000E+00 -0.17839476717E+04  0.39382863418E+04  0.35110724878E+04 0.  0.
        3    1    3    3  502    0  0.88853276896E+03 -0.10464340420E+04  0.33542530816E+03  0.14131612907E+04  0.10100000352E+00 0.  1.
       -3    1    3    3    0  502 -0.88853276896E+03  0.10464340420E+04 -0.21193729799E+04  0.25251250511E+04  0.10100000352E+00 0. -1.
</event>
<event>
 5   0  0.1072381E-07  0.3507779E+04  0.7818609E-02  0.8111949E-01
        1   -1    0    0  501    0  0.00000000000E+00  0.00000000000E+00  0.14246741749E+04  0.14246741750E+04  0.50400001928E-02 0.  1.
       -1   -1    0    0    0  501  0.00000000000E+00  0.00000000000E+00 -0.21591803096E+04  0.21591803096E+04  0.50400001928E-02 0. -1.
    10030    2    1    2    0    0  0.00000000000E+00  0.00000000000E+00 -0.73450613466E+03  0.35838544846E+04  0.35077790274E+04 0.  0.
        1    1    3    3  502    0 -0.66008878089E+03  0.14725608085E+04 -0.10691576031E+04  0.19357816286E+04  0.50400001928E-02 0. -1.
       -1    1    3    3    0  502  0.66008878089E+03 -0.14725608085E+04  0.33465146846E+03  0.16480728560E+04  0.50400001928E-02 0.  1.
</event>
<event>
 5   0  0.1033796E-07  0.3443742E+04  0.7818609E-02  0.8127253E-01
       -1   -1    0    0    0  501  0.00000000000E+00  0.00000000000E+00  0.21779649247E+04  0.21779649248E+04  0.50400001928E-02 0. -1.
        1   -1    0    0  501    0  0.00000000000E+00  0.00000000000E+00 -0.13612890612E+04  0.13612890612E+04  0.50400001928E-02 0.  1.
    10030    2    1    2    0    0  0.00000000000E+00  0.00000000000E+00  0.81667586352E+03  0.35392539860E+04  0.34437420506E+04 0.  0.
        3    1    3    3  502    0  0.16227364430E+04 -0.22833357576E+03 -0.13493448670E+03  0.16442679560E+04  0.10100000352E+00 0.  1.
       -3    1    3    3    0  502 -0.16227364430E+04  0.22833357576E+03  0.95161035022E+03  0.18949860300E+04  0.10100000352E+00 0. -1.
</event>
<event>
 5   0  0.2180451E-07  0.3510658E+04  0.7818609E-02  0.8111269E-01
       -2   -1    0    0    0  501  0.00000000000E+00  0.00000000000E+00  0.17801674460E+04  0.17801674460E+04  0.25500000920E-02 0.  1.
        2   -1    0    0  501    0  0.00000000000E+00  0.00000000000E+00 -0.17308367578E+04  0.17308367578E+04  0.25500000920E-02 0. -1.
    10030    2    1    2    0    0  0.00000000000E+00  0.00000000000E+00  0.49330688271E+02  0.35110042038E+04  0.35106576310E+04 0.  0.
        4    1    3    3  502    0 -0.16555791867E+04 -0.10255485576E+03 -0.54960183997E+03  0.17474334714E+04  0.12699999809E+01 0. -1.
       -4    1    3    3    0  502  0.16555791867E+04  0.10255485576E+03  0.59893252825E+03  0.17635707324E+04  0.12699999809E+01 0.  1.
</event>
<event>
 5   0  0.1013863E-07  0.3520311E+04  0.7818609E-02  0.8108993E-01
       -1   -1    0    0    0  501  0.00000000000E+00  0.00000000000E+00  0.17240742313E+04  0.17240742313E+04  0.50400001928E-02 0. -1.
        1   -1    0    0  501    0  0.00000000000E+00  0.00000000000E+00 -0.17969913961E+04  0.17969913962E+04  0.50400001928E-02 0.  1.
    10030    2    1    2    0    0  0.00000000000E+00  0.00000000000E+00 -0.72917164895E+02  0.35210656274E+04  0.35203105317E+04 0.  0.
        5    1    3    3  502    0  0.19121890372E+03 -0.13994328782E+04 -0.10869921205E+04  0.17822881387E+04  0.46999998093E+01 0.  1.
       -5    1    3    3    0  502 -0.19121890372E+03  0.13994328782E+04  0.10140749556E+04  0.17387774887E+04  0.46999998093E+01 0. -1.
</event>
<event>
 5   0  0.1013863E-07  0.3503260E+04  0.7818609E-02  0.8113018E-01
        1   -1    0    0  501    0  0.00000000000E+00  0.00000000000E+00  0.23728422440E+04  0.23728422440E+04  0.50400001928E-02 0. -1.
       -1   -1    0    0    0  501  0.00000000000E+00  0.00000000000E+00 -0.12930515871E+04  0.12930515871E+04  0.50400001928E-02 0.  1.
    10030    2    1    2    0    0  0.00000000000E+00  0.00000000000E+00  0.10797906569E+04  0.36658938311E+04  0.35032598702E+04 0.  0.
        5    1    3    3  502    0 -0.65100447540E+03 -0.23820730632E+03 -0.11433952925E+04  0.13371329151E+04  0.46999998093E+01 0.  1.
       -5    1    3    3    0  502  0.65100447540E+03  0.23820730632E+03  0.22231859494E+04  0.23287609159E+04  0.46999998093E+01 0. -1.
</event>
<event>
 5   0  0.1033796E-07  0.3502655E+04  0.7818609E-02  0.8113161E-01
        1   -1    0    0  501    0  0.00000000000E+00  0.00000000000E+00  0.13198402371E+04  0.13198402371E+04  0.50400001928E-02 0. -1.
       -1   -1    0    0    0  501  0.00000000000E+00  0.00000000000E+00 -0.23238779144E+04  0.23238779144E+04  0.50400001928E-02 0.  1.
    10030    2    1    2    0    0  0.00000000000E+00  0.00000000000E+00 -0.10040376773E+04  0.36437181515E+04  0.35026547518E+04 0.  0.
        3    1    3    3  502    0 -0.14331759969E+04 -0.67500430362E+03 -0.12787647263E+04  0.20358937800E+04  0.10100000352E+00 0.  1.
       -3    1    3    3    0  502  0.14331759969E+04  0.67500430362E+03  0.27472704899E+03  0.16078243715E+04  0.10100000352E+00 0. -1.
</event>
<event>
 5   0  0.1013863E-07  0.3497795E+04  0.7818609E-02  0.8114313E-01
       -1   -1    0    0    0  501  0.00000000000E+00  0.00000000000E+00  0.14727788266E+04  0.14727788266E+04  0.50400001928E-02 0.  1.
        1   -1    0    0  501    0  0.00000000000E+00  0.00000000000E+00 -0.20767836740E+04  0.20767836740E+04  0.50400001928E-02 0. -1.
    10030    2    1    2    0    0  0.00000000000E+00  0.00000000000E+00 -0.60400484741E+03  0.35495625006E+04  0.34977953185E+04 0.  0.
        5    1    3    3  502    0 -0.10890483711E+04  0.81866953677E+03 -0.14147594939E+04  0.19641315334E+04  0.46999998093E+01 0. -1.
       -5    1    3    3    0  502  0.10890483711E+04 -0.81866953677E+03  0.81075464649E+03  0.15854309672E+04  0.46999998093E+01 0.  1.
</event>
<event>
 5   0  0.1072381E-07  0.3502990E+04  0.7818609E-02  0.8113082E-01
       -1   -1    0    0    0  501  0.00000000000E+00  0.00000000000E+00  0.97512820703E+03  0.97512820704E+03  0.50400001928E-02 0.  1.
        1   -1    0    0  501    0  0.00000000000E+00  0.00000000000E+00 -0.31459807394E+04  0.31459807394E+04  0.50400001928E-02 0. -1.
    10030    2    1    2    0    0  0.00000000000E+00  0.00000000000E+00 -0.21708525324E+04  0.41211089465E+04  0.35029898988E+04 0.  0.
        1    1    3    3  502    0  0.22122599818E+03  0.14719603118E+04  0.56725746945E+00  0.14884919965E+04  0.50400001928E-02 0.  1.
       -1    1    3    3    0  502 -0.22122599818E+03 -0.14719603118E+04 -0.21714197899E+04  0.26326169500E+04  0.50400001928E-02 0. -1.
</event>
<event>
 5   0  0.3190185E-07  0.3490890E+04  0.7818609E-02  0.8115952E-01
        2   -1    0    0  501    0  0.00000000000E+00  0.00000000000E+00  0.22268225126E+04  0.22268225126E+04  0.25500000920E-02 0. -1.
       -2   -1    0    0    0  501  0.00000000000E+00  0.00000000000E+00 -0.13681280885E+04  0.13681280885E+04  0.25500000920E-02 0.  1.
    10030    2    1    2    0    0  0.00000000000E+00  0.00000000000E+00  0.85869442408E+03  0.35949506011E+04  0.34908901029E+04 0.  0.
        1    1    3    3  502    0  0.16496014884E+04  0.39691415038E+03  0.85125804406E+03  0.18982534528E+04  0.50400001928E-02 0. -1.
       -1    1    3    3    0  502 -0.16496014884E+04 -0.39691415038E+03  0.74363800182E+01  0.16966971483E+04  0.50400001928E-02 0.  1.
</event>
<event>
 5   0  0.1013863E-07  0.3507042E+04  0.7818609E-02  0.8112123E-01
       -1   -1    0    0    0  501  0.00000000000E+00  0.00000000000E+00  0.13821479566E+04  0.13821479566E+04  0.50400001928E-02 0. -1.
        1   -1    0    0  501    0  0.00000000000E+00  0.00000000000E+00 -0.22246789906E+04  0.22246789906E+04  0.50400001928E-02 0.  1.
    10030    2    1    2    0    0  0.00000000000E+00  0.00000000000E+00 -0.84253103402E+03  0.36068269473E+04  0.35070417854E+04 0.  0.
        2    1    3    3  502    0  0.82678123136E+03 -0.13954160259E+04 -0.11066214256E+04  0.19635081027E+04  0.25500000920E-02 0.  1.
       -2    1    3    3    0  502 -0.82678123136E+03  0.13954160259E+04  0.26409039159E+03  0.16433188445E+04  0.25500000920E-02 0. -1.
</event>
<event>
 5   0  0.1033796E-07  0.3514602E+04  0.7818609E-02  0.8110338E-01
        1   -1    0    0  501    0  0.00000000000E+00  0.00000000000E+00  0.14331589333E+04  0.14331589333E+04  0.50400001928E-02 0.  1.
       -1   -1    0    0    0  501  0.00000000000E+00  0.00000000000E+00 -0.21547558106E+04  0.21547558106E+04  0.50400001928E-02 0. -1.
    10030    2    1    2    0    0  0.00000000000E+00  0.00000000000E+00 -0.72159687727E+03  0.35879147439E+04  0.35146024179E+04 0.  0.
        3    1    3    3  502    0  0.12284733425E+04 -0.47793694525E+03 -0.15471657261E+04  0.20325580609E+04  0.10100000352E+00 0. -1.
       -3    1    3    3    0  502 -0.12284733425E+04  0.47793694525E+03  0.82556884880E+03  0.15553566830E+04  0.10100000352E+00 0.  1.
</event>
<event>
 5   0  0.1013863E-07  0.3521309E+04  0.7818609E-02  0.8108758E-01
       -1   -1    0    0    0  501  0.00000000000E+00  0.00000000000E+00  0.14121241202E+04  0.14121241202E+04  0.50400001928E-02 0. -1.
        1   -1    0    0  501    0  0.00000000000E+00  0.00000000000E+00 -0.21952065953E+04  0.21952065953E+04  0.50400001928E-02 0.  1.
    10030    2    1    2    0    0  0.00000000000E+00  0.00000000000E+00 -0.78308247517E+03  0.36073307155E+04  0.35213089510E+04 0.  0.
        2    1    3    3  502    0  0.45541125497E+03  0.16297543371E+04 -0.88963451802E+03  0.19117918784E+04  0.25500000920E-02 0.  1.
       -2    1    3    3    0  502 -0.45541125497E+03 -0.16297543371E+04  0.10655204285E+03  0.16955388372E+04  0.25500000920E-02 0. -1.
</event>
<event>
 5   0  0.1033796E-07  0.3495875E+04  0.7818609E-02  0.8114768E-01
        1   -1    0    0  501    0  0.00000000000E+00  0.00000000000E+00  0.10384588969E+04  0.10384588969E+04  0.50400001928E-02 0. -1.
       -1   -1    0    0    0  501  0.00000000000E+00  0.00000000000E+00 -0.29421345478E+04  0.29421345478E+04  0.50400001928E-02 0.  1.
    10030    2    1    2    0    0  0.00000000000E+00  0.00000000000E+00 -0.19036756509E+04  0.39805934447E+04  0.34958751677E+04 0.  0.
        3    1    3    3  502    0 -0.97142712720E+03 -0.11902532534E+04 -0.26396130784E+01  0.15363529700E+04  0.10100000352E+00 0. -1.
       -3    1    3    3    0  502  0.97142712720E+03  0.11902532534E+04 -0.19010360378E+04  0.24442404747E+04  0.10100000352E+00 0.  1.
</event>
<event>
 5   0  0.3190112E-07  0.3505032E+04  0.7818609E-02  0.8112599E-01
       -2   -1    0    0    0  501  0.00000000000E+00  0.00000000000E+00  0.17121477423E+04  0.17121477423E+04  0.25500000920E-02 0. -1.
        2   -1    0    0  501    0  0.00000000000E+00  0.00000000000E+00 -0.17938358194E+04  0.17938358194E+04  0.25500000920E-02 0.  1.
    10030    2    1    2    0    0  0.00000000000E+00  0.00000000000E+00 -0.81688077181E+02  0.35059835617E+04  0.35050317820E+04 0.  0.
        5    1    3    3  502    0  0.11793987515E+04 -0.10751580684E+04 -0.76515638640E+03  0.17698679818E+04  0.46999998093E+01 0.  1.
       -5    1    3    3    0  502 -0.11793987515E+04  0.10751580684E+04  0.68346830922E+03  0.17361155799E+04  0.46999998093E+01 0. -1.
</event>
<event>
 5   0  0.3190185E-07  0.3494420E+04  0.7818609E-02  0.8115114E-01
        2   -1    0    0  501    0  0.00000000000E+00  0.00000000000E+00  0.19504673894E+04  0.19504673894E+04  0.25500000920E-02 0. -1.
       -2   -1    0    0    0  501  0.00000000000E+00  0.00000000000E+00 -0.15651338004E+04  0.15651338004E+04  0.25500000920E-02 0.  1.
    10030    2    1    2    0    0  0.00000000000E+00  0.00000000000E+00  0.38533358900E+03  0.35156011897E+04  0.34944198017E+04 0.  0.
        1    1    3    3  502    0  0.64766443699E+03 -0.14269466047E+04  0.97007089113E+03  0.18430093243E+04  0.50400001928E-02 0. -1.
       -1    1    3    3    0  502 -0.64766443699E+03  0.14269466047E+04 -0.58473730213E+03  0.16725918654E+04  0.50400001928E-02 0.  1.
</event>
<event>
 5   0  0.1072381E-07  0.3556899E+04  0.7818609E-02  0.8100436E-01
        1   -1    0    0  501    0  0.00000000000E+00  0.00000000000E+00  0.23785319487E+04  0.23785319487E+04  0.50400001928E-02 0. -1.
       -1   -1    0    0    0  501  0.00000000000E+00  0.00000000000E+00 -0.13297625762E+04  0.13297625762E+04  0.50400001928E-02 0.  1.
    10030    2    1    2    0    0  0.00000000000E+00  0.00000000000E+00  0.10487693726E+04  0.37082945249E+04  0.35568990830E+04 0.  0.
        1    1    3    3  502    0 -0.65010342090E+03  0.64887545719E+03 -0.10633305632E+04  0.14051141247E+04  0.50400001928E-02 0.  1.
       -1    1    3    3    0  502  0.65010342090E+03 -0.64887545719E+03  0.21120999358E+04  0.23031804002E+04  0.50400001928E-02 0. -1.
</event>
<event>
 5   0  0.3219205E-07  0.3499106E+04  0.7818609E-02  0.8114002E-01
        2   -1    0    0  501    0  0.00000000000E+00  0.00000000000E+00  0.16672953454E+04  0.16672953454E+04  0.25500000920E-02 0.  1.
       -2   -1    0    0    0  501  0.00000000000E+00  0.00000000000E+00 -0.18358687197E+04  0.18358687197E+04  0.25500000920E-02 0. -1.
    10030    2    1    2    0    0  0.00000000000E+00  0.00000000000E+00 -0.16857337437E+03  0.35031640651E+04  0.34991058121E+04 0.  0.
        2    1    3    3  502    0 -0.16863462883E+04  0.40220865359E+03 -0.31993121960E+03  0.17629213228E+04  0.25500000920E-02 0. -1.
       -2    1    3    3    0  502  0.16863462883E+04 -0.40220865359E+03  0.15135784523E+03  0.17402427423E+04  0.25500000920E-02 0.  1.
</event>
<event>
 5   0  0.3190112E-07  0.3507349E+04  0.7818609E-02  0.8112051E-01
        2   -1    0    0  501    0  0.00000000000E+00  0.00000000000E+00  0.19782205796E+04  0.19782205796E+04  0.25500000920E-02 0.  1.
       -2   -1    0    0    0  501  0.00000000000E+00  0.00000000000E+00 -0.15546163988E+04  0.15546163988E+04  0.25500000920E-02 0. -1.
    10030    2    1    2    0    0  0.00000000000E+00  0.00000000000E+00  0.42360418077E+03  0.35328369784E+04  0.35073489439E+04 0.  0.
        5    1    3    3  502    0 -0.31149951227E+03  0.10239919937E+04 -0.11874511772E+04  0.15986412785E+04  0.46999998093E+01 0. -1.
       -5    1    3    3    0  502  0.31149951227E+03 -0.10239919937E+04  0.16110553579E+04  0.19341956999E+04  0.46999998093E+01 0.  1.
</event>
<event>
 5   0  0.3190112E-07  0.3520749E+04  0.7818609E-02  0.8108890E-01
        2   -1    0    0  501    0  0.00000000000E+00  0.00000000000E+00  0.24248483593E+04  0.24248483593E+04  0.25500000920E-02 0. -1.
       -2   -1    0    0    0  501  0.00000000000E+00  0.00000000000E+00 -0.12779843401E+04  0.12779843401E+04  0.25500000920E-02 0.  1.
    10030    2    1    2    0    0  0.00000000000E+00  0.00000000000E+00  0.11468640192E+04  0.37028326994E+04  0.35207489148E+04 0.  0.
        5    1    3    3  502    0  0.15329428427E+04 -0.63168653098E+03 -0.48731924839E+02  0.16587159259E+04  0.46999998093E+01 0.  1.
       -5    1    3    3    0  502 -0.15329428427E+04  0.63168653098E+03  0.11955959440E+04  0.20441167735E+04  0.46999998093E+01 0. -1.
</event>
<event>
 5   0  0.3219205E-07  0.3493923E+04  0.7818609E-02  0.8115232E-01
        2   -1    0    0  501    0  0.00000000000E+00  0.00000000000E+00  0.25285441764E+04  0.25285441764E+04  0.25500000920E-02 0. -1.
       -2   -1    0    0    0  501  0.00000000000E+00  0.00000000000E+00 -0.12069687895E+04  0.12069687895E+04  0.25500000920E-02 0.  1.
    10030    2    1    2    0    0  0.00000000000E+00  0.00000000000E+00  0.13215753870E+04  0.37355129659E+04  0.34939226687E+04 0.  0.
        2    1    3    3  502    0 -0.11871570936E+04 -0.28055702082E+03 -0.67620889519E+03  0.13947446637E+04  0.25500000920E-02 0.  1.
       -2    1    3    3    0  502  0.11871570936E+04  0.28055702082E+03  0.19977842822E+04  0.23407683023E+04  0.25500000920E-02 0. -1.
</event>
<event>
 5   0  0.3119048E-07  0.3424061E+04  0.7818609E-02  0.8132026E-01
        2   -1    0    0  501    0  0.00000000000E+00  0.00000000000E+00  0.14653635644E+04  0.14653635644E+04  0.25500000920E-02 0. -1.
       -2   -1    0    0    0  501  0.00000000000E+00  0.00000000000E+00 -0.20002195066E+04  0.20002195066E+04  0.25500000920E-02 0.  1.
    10030    2    1    2    0    0  0.00000000000E+00  0.00000000000E+00 -0.53485594217E+03  0.34655830710E+04  0.34240612061E+04 0.  0.
        3    1    3    3  502    0 -0.67356532155E+03 -0.10502129696E+04 -0.14539973735E+04  0.19159190735E+04  0.10100000352E+00 0.  1.
       -3    1    3    3    0  502  0.67356532155E+03  0.10502129696E+04  0.91914143137E+03  0.15496639974E+04  0.10100000352E+00 0. -1.
</event>
<event>
 5   0  0.1013863E-07  0.3519454E+04  0.7818609E-02  0.8109195E-01
       -1   -1    0    0    0  501  0.00000000000E+00  0.00000000000E+00  0.19540769993E+04  0.19540769993E+04  0.50400001928E-02 0. -1.
        1   -1    0    0  501    0  0.00000000000E+00  0.00000000000E+00 -0.15847067110E+04  0.15847067110E+04  0.50400001928E-02 0.  1.
    10030    2    1    2    0    0  0.00000000000E+00  0.00000000000E+00  0.36937028828E+03  0.35387837103E+04  0.35194538977E+04 0.  0.
        5    1    3    3  502    0 -0.10348770506E+04  0.12060922860E+04 -0.57510232661E+03  0.16900869470E+04  0.46999998093E+01 0.  1.
       -5    1    3    3    0  502  0.10348770506E+04 -0.12060922860E+04  0.94447261489E+03  0.18486967633E+04  0.46999998093E+01 0. -1.
</event>
<event>
 5   0  0.1033796E-07  0.3498895E+04  0.7818609E-02  0.8114052E-01
       -1   -1    0    0    0  501  0.00000000000E+00  0.00000000000E+00  0.21456380471E+04  0.21456380471E+04  0.50400001928E-02 0. -1.
        1   -1    0    0  501    0  0.00000000000E+00  0.00000000000E+00 -0.14264135272E+04  0.14264135272E+04  0.50400001928E-02 0.  1.
    10030    2    1    2    0    0  0.00000000000E+00  0.00000000000E+00  0.71922451992E+03  0.35720515743E+04  0.34988953313E+04 0.  0.
        3    1    3    3  502    0 -0.15607249067E+04  0.58740483921E+03 -0.18027402147E+03  0.16773209033E+04  0.10100000352E+00 0.  1.
       -3    1    3    3    0  502  0.15607249067E+04 -0.58740483921E+03  0.89949854139E+03  0.18947306710E+04  0.10100000352E+00 0. -1.
</event>
<event>
 5   0  0.3190185E-07  0.3488103E+04  0.7818609E-02  0.8116615E-01
       -2   -1    0    0    0  501  0.00000000000E+00  0.00000000000E+00  0.15759325199E+04  0.15759325199E+04  0.25500000920E-02 0. -1.
        2   -1    0    0  501    0  0.00000000000E+00  0.00000000000E+00 -0.19301054174E+04  0.19301054174E+04  0.25500000920E-02 0.  1.
    10030    2    1    2    0    0  0.00000000000E+00  0.00000000000E+00 -0.35417289753E+03  0.35060379373E+04  0.34881031488E+04 0.  0.
        1    1    3    3  502    0 -0.90232916105E+03 -0.67894880837E+03 -0.15130352914E+04  0.18879738325E+04  0.50400001928E-02 0.  1.
       -1    1    3    3    0  502  0.90232916105E+03  0.67894880837E+03  0.11588623939E+04  0.16180641048E+04  0.50400001928E-02 0. -1.
</event>
<event>
 5   0  0.1013863E-07  0.3501230E+04  0.7818609E-02  0.8113498E-01
        1   -1    0    0  501    0  0.00000000000E+00  0.00000000000E+00  0.18305516057E+04  0.18305516057E+04  0.50400001928E-02 0.  1.
       -1   -1    0    0    0  501  0.00000000000E+00  0.00000000000E+00 -0.16741695246E+04  0.16741695246E+04  0.50400001928E-02 0. -1.
    10030    2    1    2    0    0  0.00000000000E+00  0.00000000000E+00  0.15638208110E+03  0.35047211303E+04  0.35012304759E+04 0.  0.
        2    1    3    3  502    0 -0.13057816552E+04 -0.11505042398E+04 -0.11154469467E+03  0.17438944795E+04  0.25500000920E-02 0. -1.
       -2    1    3    3    0  502  0.13057816552E+04  0.11505042398E+04  0.26792677577E+03  0.17608266507E+04  0.25500000920E-02 0.  1.
</event>
<event>
 5   0  0.1013863E-07  0.3495515E+04  0.7818609E-02  0.8114854E-01
       -1   -1    0    0    0  501  0.00000000000E+00  0.00000000000E+00  0.21384628865E+04  0.21384628865E+04  0.50400001928E-02 0.  1.
        1   -1    0    0  501    0  0.00000000000E+00  0.00000000000E+00 -0.14284351617E+04  0.14284351618E+04  0.50400001928E-02 0. -1.
    10030    2    1    2    0    0  0.00000000000E+00  0.00000000000E+00  0.71002772478E+03  0.35668980483E+04  0.34955145997E+04 0.  0.
        2    1    3    3  502    0  0.12429581518E+04 -0.19765408144E+03  0.15924798649E+04  0.20297793533E+04  0.25500000920E-02 0.  1.
       -2    1    3    3    0  502 -0.12429581518E+04  0.19765408144E+03 -0.88245214012E+03  0.15371186950E+04  0.25500000920E-02 0. -1.
</event>
<event>
 5   0  0.2180451E-07  0.3537544E+04  0.7818609E-02  0.8104950E-01
        2   -1    0    0  501    0  0.00000000000E+00  0.00000000000E+00  0.22532428542E+04  0.22532428542E+04  0.25500000920E-02 0.  1.
       -2   -1    0    0    0  501  0.00000000000E+00  0.00000000000E+00 -0.13884671522E+04  0.13884671522E+04  0.25500000920E-02 0. -1.
    10030    2    1    2    0    0  0.00000000000E+00  0.00000000000E+00  0.86477570194E+03  0.36417100064E+04  0.35375436048E+04 0.  0.
        4    1    3    3  502    0 -0.52352270166E+03 -0.21843846884E+03 -0.12922831080E+04  0.14113074180E+04  0.12699999809E+01 0. -1.
       -4    1    3    3    0  502  0.52352270166E+03  0.21843846884E+03  0.21570588100E+04  0.22304025884E+04  0.12699999809E+01 0.  1.
</event>
<event>
 5   0  0.3219205E-07  0.3498828E+04  0.7818609E-02  0.8114068E-01
        2   -1    0    0  501    0  0.00000000000E+00  0.00000000000E+00  0.10654002711E+04  0.10654002711E+04  0.25500000920E-02 0.  1.
       -2   -1    0    0    0  501  0.00000000000E+00  0.00000000000E+00 -0.28725819928E+04  0.28725819928E+04  0.25500000920E-02 0. -1.
    10030    2    1    2    0    0  0.00000000000E+00  0.00000000000E+00 -0.18071817217E+04  0.39379822639E+04  0.34988281661E+04 0.  0.
        2    1    3    3  502    0 -0.13835805799E+04 -0.77638544368E+03 -0.17332562800E+04  0.23497333700E+04  0.25500000920E-02 0. -1.
       -2    1    3    3    0  502  0.13835805799E+04  0.77638544368E+03 -0.73925441779E+02  0.15882488939E+04  0.25500000920E-02 0.  1.
</event>
<event>
 5   0  0.3119048E-07  0.3480329E+04  0.7818609E-02  0.8118468E-01
        2   -1    0    0  501    0  0.00000000000E+00  0.00000000000E+00  0.13997938429E+04  0.13997938429E+04  0.25500000920E-02 0.  1.
       -2   -1    0    0    0  501  0.00000000000E+00  0.00000000000E+00 -0.21632992579E+04  0.21632992579E+04  0.25500000920E-02 0. -1.
    10030    2    1    2    0    0  0.00000000000E+00  0.00000000000E+00 -0.76350541497E+03  0.35630931008E+04  0.34803292842E+04 0.  0.
        3    1    3    3  502    0  0.28630760043E+03  0.10788051180E+04 -0.17485592189E+04  0.20744280843E+04  0.10100000352E+00 0. -1.
       -3    1    3    3    0  502 -0.28630760043E+03 -0.10788051180E+04  0.98505380389E+03  0.14886650165E+04  0.10100000352E+00 0.  1.
</event>
<event>
 5   0  0.3190112E-07  0.3469456E+04  0.7818609E-02  0.8121067E-01
        2   -1    0    0  501    0  0.00000000000E+00  0.00000000000E+00  0.23757565819E+04  0.23757565819E+04  0.25500000920E-02 0.  1.
       -2   -1    0    0    0  501  0.00000000000E+00  0.00000000000E+00 -0.12666622891E+04  0.12666622891E+04  0.25500000920E-02 0. -1.
    10030    2    1    2    0    0  0.00000000000E+00  0.00000000000E+00  0.11090942929E+04  0.36424188710E+04  0.34694560209E+04 0.  0.
        5    1    3    3  502    0 -0.15453428900E+04 -0.26246170865E+02  0.13815259516E+04  0.20730194292E+04  0.46999998093E+01 0.  1.
       -5    1    3    3    0  502  0.15453428900E+04  0.26246170865E+02 -0.27243165873E+03  0.15693994417E+04  0.46999998093E+01 0. -1.
</event>
<event>
 5   0  0.2180451E-07  0.3519053E+04  0.7818609E-02  0.8109289E-01
        2   -1    0    0  501    0  0.00000000000E+00  0.00000000000E+00  0.19223019454E+04  0.19223019454E+04  0.25500000920E-02 0.  1.
       -2   -1    0    0    0  501  0.00000000000E+00  0.00000000000E+00 -0.16105346222E+04  0.16105346222E+04  0.25500000920E-02 0. -1.
    10030    2    1    2    0    0  0.00000000000E+00  0.00000000000E+00  0.31176732327E+03  0.35328365676E+04  0.35190531893E+04 0.  0.
        4    1    3    3  502    0 -0.11141873934E+03  0.94237644303E+03 -0.13316231732E+04  0.16351481230E+04  0.12699999809E+01 0. -1.
       -4    1    3    3    0  502  0.11141873934E+03 -0.94237644303E+03  0.16433904965E+04  0.18976884446E+04  0.12699999809E+01 0.  1.
</event>
<event>
 5   0  0.3190185E-07  0.3504395E+04  0.7818609E-02  0.8112749E-01
        2   -1    0    0  501    0  0.00000000000E+00  0.00000000000E+00  0.18096654451E+04  0.18096654451E+04  0.25500000920E-02 0.  1.
       -2   -1    0    0    0  501  0.00000000000E+00  0.00000000000E+00 -0.16965546463E+04  0.16965546463E+04  0.25500000920E-02 0. -1.
    10030    2    1    2    0    0  0.00000000000E+00  0.00000000000E+00  0.11311079877E+03  0.35062200915E+04  0.35043951371E+04 0.  0.
        1    1    3    3  502    0 -0.84211438213E+03 -0.12432099531E+04 -0.84694792100E+03  0.17239629929E+04  0.50400001928E-02 0. -1.
       -1    1    3    3    0  502  0.84211438213E+03  0.12432099531E+04  0.96005871977E+03  0.17822570986E+04  0.50400001928E-02 0.  1.
</event>
<event>
 5   0  0.1033796E-07  0.3494468E+04  0.7818609E-02  0.8115102E-01
       -1   -1    0    0    0  501  0.00000000000E+00  0.00000000000E+00  0.11006655566E+04  0.11006655566E+04  0.50400001928E-02 0. -1.
        1   -1    0    0  501    0  0.00000000000E+00  0.00000000000E+00 -0.27736187189E+04  0.27736187189E+04  0.50400001928E-02 0.  1.
    10030    2    1    2    0    0  0.00000000000E+00  0.00000000000E+00 -0.16729531623E+04  0.38742842754E+04  0.34944679658E+04 0.  0.
        3    1    3    3  502    0  0.16342625187E+04  0.14028654762E+03 -0.15038423658E+04  0.22253170935E+04  0.10100000352E+00 0.  1.
       -3    1    3    3    0  502 -0.16342625187E+04 -0.14028654762E+03 -0.16911079650E+03  0.16489671819E+04  0.10100000352E+00 0. -1.
</event>
<event>
 5   0  0.3190185E-07  0.3496079E+04  0.7818609E-02  0.8114720E-01
        2   -1    0    0  501    0  0.00000000000E+00  0.00000000000E+00  0.16404200445E+04  0.16404200445E+04  0.25500000920E-02 0.  1.
       -2   -1    0    0    0  501  0.00000000000E+00  0.00000000000E+00 -0.18627193431E+04  0.18627193431E+04  0.25500000920E-02 0. -1.
    10030    2    1    2    0    0  0.00000000000E+00  0.00000000000E+00 -0.22229929855E+03  0.35031393876E+04  0.34960790310E+04 0.  0.
        1    1    3    3  502    0  0.14657499182E+04 -0.54428106680E+03 -0.89437866022E+03  0.18012711874E+04  0.50400001928E-02 0. -1.
       -1    1    3    3    0  502 -0.14657499182E+04  0.54428106680E+03  0.67207936167E+03  0.17018682002E+04  0.50400001928E-02 0.  1.
</event>
<event>
 5   0  0.1013863E-07  0.3493524E+04  0.7818609E-02  0.8115326E-01
        1   -1    0    0  501    0  0.00000000000E+00  0.00000000000E+00  0.15687129853E+04  0.15687129853E+04  0.50400001928E-02 0.  1.
       -1   -1    0    0    0  501  0.00000000000E+00  0.00000000000E+00 -0.19450199637E+04  0.19450199637E+04  0.50400001928E-02 0. -1.
    10030    2    1    2    0    0  0.00000000000E+00  0.00000000000E+00 -0.37630697841E+03  0.35137329491E+04  0.34935243373E+04 0.  0.
        2    1    3    3  502    0  0.14261240950E+04  0.23389059025E+03 -0.11749728951E+04  0.18625509515E+04  0.25500000920E-02 0. -1.
       -2    1    3    3    0  502 -0.14261240950E+04 -0.23389059025E+03  0.79866591670E+03  0.16511819976E+04  0.25500000920E-02 0.  1.
</event>
<event>
 5   0  0.1072381E-07  0.3479261E+04  0.7818609E-02  0.8118722E-01
       -1   -1    0    0    0  501  0.00000000000E+00  0.00000000000E+00  0.11322936321E+04  0.11322936322E+04  0.50400001928E-02 0. -1.
        1   -1    0    0  501    0  0.00000000000E+00  0.00000000000E+00 -0.26727294418E+04  0.26727294418E+04  0.50400001928E-02 0.  1.
    10030    2    1    2    0    0  0.00000000000E+00  0.00000000000E+00 -0.15404358097E+04  0.38050230740E+04  0.34792611442E+04 0.  0.
        1    1    3    3  502    0 -0.53124880274E+02 -0.92673732742E+03  0.83881205522E+03  0.12511075058E+04  0.50400001928E-02 0. -1.
       -1    1    3    3    0  502  0.53124880274E+02  0.92673732742E+03 -0.23792478649E+04  0.25539155682E+04  0.50400001928E-02 0.  1.
</event>
<event>
 5   0  0.2180451E-07  0.3558476E+04  0.7818609E-02  0.8100070E-01
        2   -1    0    0  501    0  0.00000000000E+00  0.00000000000E+00  0.15108670057E+04  0.15108670057E+04  0.25500000920E-02 0.  1.
       -2   -1    0    0    0  501  0.00000000000E+00  0.00000000000E+00 -0.20952785622E+04  0.20952785622E+04  0.25500000920E-02 0. -1.
    10030    2    1    2    0    0  0.00000000000E+00  0.00000000000E+00 -0.58441155649E+03  0.36061455680E+04  0.35584756554E+04 0.  0.
        4    1    3    3  502    0  0.10034987039E+04 -0.18419841497E+03 -0.17693838767E+04  0.20424641051E+04  0.12699999809E+01 0. -1.
       -4    1    3    3    0  502 -0.10034987039E+04  0.18419841497E+03  0.11849723202E+04  0.15636814629E+04  0.12699999809E+01 0.  1.
</event>
<event>
 5   0  0.2180451E-07  0.3474191E+04  0.7818609E-02  0.8119934E-01
       -2   -1    0    0    0  501  0.00000000000E+00  0.00000000000E+00  0.28554679248E+04  0.28554679249E+04  0.25500000920E-02 0. -1.
        2   -1    0    0  501    0  0.00000000000E+00  0.00000000000E+00 -0.10567450386E+04  0.10567450386E+04  0.25500000920E-02 0.  1.
    10030    2    1    2    0    0  0.00000000000E+00  0.00000000000E+00  0.17987228863E+04  0.39122129634E+04  0.34741914526E+04 0.  0.
        4    1    3    3  502    0 -0.25000475169E+03  0.12373569133E+04 -0.44437908296E+03  0.13382932747E+04  0.12699999809E+01 0.  1.
       -4    1    3    3    0  502  0.25000475169E+03 -0.12373569133E+04  0.22431019692E+04  0.25739196887E+04  0.12699999809E+01 0. -1.
</event>
<event>
 5   0  0.2180451E-07  0.3567460E+04  0.7818609E-02  0.8097986E-01
        2   -1    0    0  501    0  0.00000000000E+00  0.00000000000E+00  0.24778732173E+04  0.24778732173E+04  0.25500000920E-02 0.  1.
       -2   -1    0    0    0  501  0.00000000000E+00  0.00000000000E+00 -0.12840419245E+04  0.12840419245E+04  0.25500000920E-02 0. -1.
    10030    2    1    2    0    0  0.00000000000E+00  0.00000000000E+00  0.11938312928E+04  0.37619151418E+04  0.35674602140E+04 0.  0.
        4    1    3    3  502    0  0.10803969939E+04  0.11706045799E+03 -0.89465617782E+03  0.14076121997E+04  0.12699999809E+01 0. -1.
       -4    1    3    3    0  502 -0.10803969939E+04 -0.11706045799E+03  0.20884874707E+04  0.23543029421E+04  0.12699999809E+01 0.  1.
</event>
<event>
 5   0  0.1013863E-07  0.3486499E+04  0.7818609E-02  0.8116997E-01
        1   -1    0    0  501    0  0.00000000000E+00  0.00000000000E+00  0.21104076193E+04  0.21104076193E+04  0.50400001928E-02 0. -1.
       -1   -1    0    0    0  501  0.00000000000E+00  0.00000000000E+00 -0.14399680842E+04  0.14399680843E+04  0.50400001928E-02 0.  1.
    10030    2    1    2    0    0  0.00000000000E+00  0.00000000000E+00  0.67043953508E+03  0.35503757036E+04  0.34864994574E+04 0.  0.
        5    1    3    3  502    0 -0.25813932608E+03 -0.16605004580E+04 -0.13695609588E+03  0.16860239456E+04  0.46999998093E+01 0.  1.
       -5    1    3    3    0  502  0.25813932608E+03  0.16605004580E+04  0.80739563097E+03  0.18643517580E+04  0.46999998093E+01 0. -1.
</event>
<event>
 5   0  0.1072381E-07  0.3486211E+04  0.7818609E-02  0.8117066E-01
       -1   -1    0    0    0  501  0.00000000000E+00  0.00000000000E+00  0.12489805727E+04  0.12489805727E+04  0.50400001928E-02 0.  1.
        1   -1    0    0  501    0  0.00000000000E+00  0.00000000000E+00 -0.24327175629E+04  0.24327175629E+04  0.50400001928E-02 0. -1.
    10030    2    1    2    0    0  0.00000000000E+00  0.00000000000E+00 -0.11837369902E+04  0.36816981356E+04  0.34862111095E+04 0.  0.
        1    1    3    3  502    0  0.41441368054E+03 -0.16926962483E+04 -0.55154792407E+03  0.18278852262E+04  0.50400001928E-02 0. -1.
       -1    1    3    3    0  502 -0.41441368054E+03  0.16926962483E+04 -0.63218906611E+03  0.18538129094E+04  0.50400001928E-02 0.  1.
</event>
<event>
 5   0  0.1013863E-07  0.3483269E+04  0.7818609E-02  0.8117766E-01
       -1   -1    0    0    0  501  0.00000000000E+00  0.00000000000E+00  0.21468917486E+04  0.21468917486E+04  0.50400001928E-02 0.  1.
        1   -1    0    0  501    0  0.00000000000E+00  0.00000000000E+00 -0.14128755482E+04  0.14128755482E+04  0.50400001928E-02 0. -1.
    10030    2    1    2    0    0  0.00000000000E+00  0.00000000000E+00  0.73401620035E+03  0.35597672968E+04  0.34832690716E+04 0.  0.
        5    1    3    3  502    0 -0.14083211188E+04 -0.97793133513E+03  0.67958587673E+03  0.18443364996E+04  0.46999998093E+01 0. -1.
       -5    1    3    3    0  502  0.14083211188E+04  0.97793133513E+03  0.54430323624E+02  0.17154307972E+04  0.46999998093E+01 0.  1.
</event>
<event>
 5   0  0.3119048E-07  0.3507818E+04  0.7818609E-02  0.8111940E-01
       -2   -1    0    0    0  501  0.00000000000E+00  0.00000000000E+00  0.15963962631E+04  0.15963962631E+04  0.25500000920E-02 0.  1.
        2   -1    0    0  501    0  0.00000000000E+00  0.00000000000E+00 -0.19269627620E+04  0.19269627620E+04  0.25500000920E-02 0. -1.
    10030    2    1    2    0    0  0.00000000000E+00  0.00000000000E+00 -0.33056649885E+03  0.35233590251E+04  0.35078176420E+04 0.  0.
        3    1    3    3  502    0 -0.26976158446E+03 -0.42047895312E+03 -0.18539882147E+04  0.19201161873E+04  0.10100000352E+00 0. -1.
       -3    1    3    3    0  502  0.26976158446E+03  0.42047895312E+03  0.15234217158E+04  0.16032428378E+04  0.10100000352E+00 0.  1.
</event>
<event>
 5   0  0.1013863E-07  0.3480383E+04  0.7818609E-02  0.8118455E-01
        3   -1    0    0  501    0  0.00000000000E+00  0.00000000000E+00  0.15160567626E+04  0.15160567659E+04  0.10100000352E+00 0. -1.
       -3   -1    0    0    0  501  0.00000000000E+00  0.00000000000E+00 -0.19974621022E+04  0.19974621047E+04  0.10100000352E+00 0.  1.
    10030    2    1    2    0    0  0.00000000000E+00  0.00000000000E+00 -0.48140533962E+03  0.35135188707E+04  0.34803827022E+04 0.  0.
        5    1    3    3  502    0  0.62425970993E+03  0.66463035635E+03  0.12555727872E+04  0.15517470187E+04  0.46999998093E+01 0. -1.
       -5    1    3    3    0  502 -0.62425970993E+03 -0.66463035635E+03 -0.17369781269E+04  0.19617718520E+04  0.46999998093E+01 0.  1.
</event>
<event>
 5   0  0.3190185E-07  0.3492570E+04  0.7818609E-02  0.8115553E-01
       -2   -1    0    0    0  501  0.00000000000E+00  0.00000000000E+00  0.13130672887E+04  0.13130672887E+04  0.25500000920E-02 0.  1.
        2   -1    0    0  501    0  0.00000000000E+00  0.00000000000E+00 -0.23224331600E+04  0.23224331600E+04  0.25500000920E-02 0. -1.
    10030    2    1    2    0    0  0.00000000000E+00  0.00000000000E+00 -0.10093658712E+04  0.36355004487E+04  0.34925698347E+04 0.  0.
        1    1    3    3  502    0  0.14087693682E+04 -0.90654718650E+03  0.84959432754E+01  0.16752704603E+04  0.50400001928E-02 0. -1.
       -1    1    3    3    0  502 -0.14087693682E+04  0.90654718650E+03 -0.10178618145E+04  0.19602299884E+04  0.50400001928E-02 0.  1.
</event>
<event>
 5   0  0.3190112E-07  0.3493948E+04  0.7818609E-02  0.8115226E-01
        2   -1    0    0  501    0  0.00000000000E+00  0.00000000000E+00  0.22662526954E+04  0.22662526954E+04  0.25500000920E-02 0. -1.
       -2   -1    0    0    0  501  0.00000000000E+00  0.00000000000E+00 -0.13466806210E+04  0.13466806210E+04  0.25500000920E-02 0.  1.
    10030    2    1    2    0    0  0.00000000000E+00  0.00000000000E+00  0.91957207440E+03  0.36129333163E+04  0.34939482463E+04 0.  0.
        5    1    3    3  502    0  0.67160042095E+02 -0.67589563674E+03  0.21241164951E+04  0.22300758637E+04  0.46999998093E+01 0. -1.
       -5    1    3    3    0  502 -0.67160042095E+02  0.67589563674E+03 -0.12045444207E+04  0.13828574527E+04  0.46999998093E+01 0.  1.
</event>
<event>
 5   0  0.1072381E-07  0.3489707E+04  0.7818609E-02  0.8116234E-01
        1   -1    0    0  501    0  0.00000000000E+00  0.00000000000E+00  0.23508915964E+04  0.23508915964E+04  0.50400001928E-02 0.  1.
       -1   -1    0    0    0  501  0.00000000000E+00  0.00000000000E+00 -0.12950461061E+04  0.12950461061E+04  0.50400001928E-02 0. -1.
    10030    2    1    2    0    0  0.00000000000E+00  0.00000000000E+00  0.10558454903E+04  0.36459377026E+04  0.34897065824E+04 0.  0.
        1    1    3    3  502    0 -0.68694250555E+02  0.13644466027E+04 -0.60606312859E+03  0.14945721620E+04  0.50400001928E-02 0. -1.
       -1    1    3    3    0  502  0.68694250555E+02 -0.13644466027E+04  0.16619086189E+04  0.21513655406E+04  0.50400001928E-02 0.  1.
</event>
<event>
 5   0  0.3190112E-07  0.3497890E+04  0.7818609E-02  0.8114290E-01
       -2   -1    0    0    0  501  0.00000000000E+00  0.00000000000E+00  0.16514868652E+04  0.16514868652E+04  0.25500000920E-02 0. -1.
        2   -1    0    0  501    0  0.00000000000E+00  0.00000000000E+00 -0.18521541720E+04  0.18521541720E+04  0.25500000920E-02 0.  1.
    10030    2    1    2    0    0  0.00000000000E+00  0.00000000000E+00 -0.20066730687E+03  0.35036410372E+04  0.34978898138E+04 0.  0.
        5    1    3    3  502    0  0.18260356824E+03  0.10113115802E+04 -0.15178251269E+04  0.18330058322E+04  0.46999998093E+01 0.  1.
       -5    1    3    3    0  502 -0.18260356824E+03 -0.10113115802E+04  0.13171578200E+04  0.16706352050E+04  0.46999998093E+01 0. -1.
</event>
<event>
 5   0  0.3119048E-07  0.3495654E+04  0.7818609E-02  0.8114821E-01
        2   -1    0    0  501    0  0.00000000000E+00  0.00000000000E+00  0.23888616434E+04  0.23888616434E+04  0.25500000920E-02 0.  1.
       -2   -1    0    0    0  501  0.00000000000E+00  0.00000000000E+00 -0.12788094442E+04  0.12788094442E+04  0.25500000920E-02 0. -1.
    10030    2    1    2    0    0  0.00000000000E+00  0.00000000000E+00  0.11100521992E+04  0.36676710876E+04  0.34956537761E+04 0.  0.
        3    1    3    3  502    0 -0.50610030563E+03 -0.79600669196E+03 -0.98882149282E+03  0.13665767918E+04  0.10100000352E+00 0. -1.
       -3    1    3    3    0  502  0.50610030563E+03  0.79600669196E+03  0.20988736920E+04  0.23010942958E+04  0.10100000352E+00 0.  1.
</event>
<event>
 5   0  0.3190112E-07  0.3504979E+04  0.7818609E-02  0.8112611E-01
       -2   -1    0    0    0  501  0.00000000000E+00  0.00000000000E+00  0.14412802928E+04  0.14412802928E+04  0.25500000920E-02 0.  1.
        2   -1    0    0  501    0  0.00000000000E+00  0.00000000000E+00 -0.21308972471E+04  0.21308972471E+04  0.25500000920E-02 0. -1.
    10030    2    1    2    0    0  0.00000000000E+00  0.00000000000E+00 -0.68961695427E+03  0.35721775399E+04  0.35049794340E+04 0.  0.
        5    1    3    3  502    0  0.14194327325E+04  0.55310958263E+03  0.53810211162E+03  0.16156408837E+04  0.46999998093E+01 0.  1.
       -5    1    3    3    0  502 -0.14194327325E+04 -0.55310958263E+03 -0.12277190659E+04  0.19565366562E+04  0.46999998093E+01 0. -1.
</event>
<event>
 5   0  0.2180451E-07  0.3497540E+04  0.7818609E-02  0.8114373E-01
       -2   -1    0    0    0  501  0.00000000000E+00  0.00000000000E+00  0.17233420436E+04  0.17233420436E+04  0.25500000920E-02 0. -1.
        2   -1    0    0  501    0  0.00000000000E+00  0.00000000000E+00 -0.17745735398E+04  0.17745735398E+04  0.25500000920E-02 0.  1.
    10030    2    1    2    0    0  0.00000000000E+00  0.00000000000E+00 -0.51231496193E+02  0.34979155834E+04  0.34975403875E+04 0.  0.
        4    1    3    3  502    0 -0.11483458364E+04  0.57135760660E+03  0.11632286852E+04  0.17315456279E+04  0.12699999809E+01 0. -1.
       -4    1    3    3    0  502  0.11483458364E+04 -0.57135760660E+03 -0.12144601814E+04  0.17663699555E+04  0.12699999809E+01 0.  1.
</event>
<event>
 5   0  0.1033796E-07  0.3507490E+04  0.7818609E-02  0.8112017E-01
       -1   -1    0    0    0  501  0.00000000000E+00  0.00000000000E+00  0.15747905366E+04  0.15747905366E+04  0.50400001928E-02 0.  1.
        1   -1    0    0  501    0  0.00000000000E+00  0.00000000000E+00 -0.19530349920E+04  0.19530349920E+04  0.50400001928E-02 0. -1.
    10030    2    1    2    0    0  0.00000000000E+00  0.00000000000E+00 -0.37824445540E+03  0.35278255286E+04  0.35074897138E+04 0.  0.
        3    1    3    3  502    0  0.24225729480E+03  0.92521279539E+03  0.12894052630E+04  0.16053888177E+04  0.10100000352E+00 0.  1.
       -3    1    3    3    0  502 -0.24225729480E+03 -0.92521279539E+03 -0.16676497184E+04  0.19224367108E+04  0.10100000352E+00 0. -1.
</event>
<event>
 5   0  0.1098171E-07  0.3494173E+04  0.7818609E-02  0.8115172E-01
       -1   -1    0    0    0  501  0.00000000000E+00  0.00000000000E+00  0.12612888525E+04  0.12612888525E+04  0.50400001928E-02 0. -1.
        1   -1    0    0  501    0  0.00000000000E+00  0.00000000000E+00 -0.24199933466E+04  0.24199933466E+04  0.50400001928E-02 0.  1.
    10030    2    1    2    0    0  0.00000000000E+00  0.00000000000E+00 -0.11587044941E+04  0.36812821991E+04  0.34941726524E+04 0.  0.
        4    1    3    3  502    0 -0.49202265808E+03  0.12376679777E+04  0.61185753246E+03  0.14657010514E+04  0.12699999809E+01 0. -1.
       -4    1    3    3    0  502  0.49202265808E+03 -0.12376679777E+04 -0.17705620265E+04  0.22155811477E+04  0.12699999809E+01 0.  1.
</event>
<event>
 5   0  0.2180451E-07  0.3521194E+04  0.7818609E-02  0.8108785E-01
        2   -1    0    0  501    0  0.00000000000E+00  0.00000000000E+00  0.12440798045E+04  0.12440798045E+04  0.25500000920E-02 0. -1.
       -2   -1    0    0    0  501  0.00000000000E+00  0.00000000000E+00 -0.24915625138E+04  0.24915625139E+04  0.25500000920E-02 0.  1.
    10030    2    1    2    0    0  0.00000000000E+00  0.00000000000E+00 -0.12474827093E+04  0.37356423184E+04  0.35211944594E+04 0.  0.
        4    1    3    3  502    0 -0.15050758619E+04 -0.56356897733E+03  0.13895619010E+03  0.16131254688E+04  0.12699999809E+01 0.  1.
       -4    1    3    3    0  502  0.15050758619E+04  0.56356897733E+03 -0.13864388994E+04  0.21225168496E+04  0.12699999809E+01 0. -1.
</event>
<event>
 5   0  0.3119048E-07  0.3636058E+04  0.7818609E-02  0.8082282E-01
        2   -1    0    0  501    0  0.00000000000E+00  0.00000000000E+00  0.13150610330E+04  0.13150610330E+04  0.25500000920E-02 0.  1.
       -2   -1    0    0    0  501  0.00000000000E+00  0.00000000000E+00 -0.25133660449E+04  0.25133660449E+04  0.25500000920E-02 0. -1.
    10030    2    1    2    0    0  0.00000000000E+00  0.00000000000E+00 -0.11983050119E+04  0.38284270779E+04  0.36360581664E+04 0.  0.
        3    1    3    3  502    0  0.11677604357E+04 -0.39616052525E+03 -0.20057268626E+04  0.23544740081E+04  0.10100000352E+00 0. -1.
       -3    1    3    3    0  502 -0.11677604357E+04  0.39616052525E+03  0.80742185070E+03  0.14739530698E+04  0.10100000352E+00 0.  1.
</event>
<event>
 5   0  0.3190112E-07  0.3495357E+04  0.7818609E-02  0.8114891E-01
        2   -1    0    0  501    0  0.00000000000E+00  0.00000000000E+00  0.26208553238E+04  0.26208553238E+04  0.25500000920E-02 0.  1.
       -2   -1    0    0    0  501  0.00000000000E+00  0.00000000000E+00 -0.11654135634E+04  0.11654135634E+04  0.25500000920E-02 0. -1.
    10030    2    1    2    0    0  0.00000000000E+00  0.00000000000E+00  0.14554417603E+04  0.37862688872E+04  0.34953571160E+04 0.  0.
        5    1    3    3  502    0 -0.12582732660E+04 -0.10259846350E+04  0.14284465057E+04  0.21624933741E+04  0.46999998093E+01 0.  1.
       -5    1    3    3    0  502  0.12582732660E+04  0.10259846350E+04  0.26995254663E+02  0.16237755131E+04  0.46999998093E+01 0. -1.
</event>
<event>
 5   0  0.1013863E-07  0.3460197E+04  0.7818609E-02  0.8123288E-01
        1   -1    0    0  501    0  0.00000000000E+00  0.00000000000E+00  0.17028118909E+04  0.17028118909E+04  0.50400001928E-02 0. -1.
       -1   -1    0    0    0  501  0.00000000000E+00  0.00000000000E+00 -0.17578220828E+04  0.17578220828E+04  0.50400001928E-02 0.  1.
    10030    2    1    2    0    0  0.00000000000E+00  0.00000000000E+00 -0.55010191878E+02  0.34606339738E+04  0.34601967255E+04 0.  0.
        2    1    3    3  502    0 -0.39325524005E+03  0.12192203883E+04 -0.11904470730E+04  0.17488030972E+04  0.25500000920E-02 0.  1.
       -2    1    3    3    0  502  0.39325524005E+03 -0.12192203883E+04  0.11354368811E+04  0.17118308766E+04  0.25500000920E-02 0. -1.
</event>
<event>
 5   0  0.1098171E-07  0.3500115E+04  0.7818609E-02  0.8113763E-01
        1   -1    0    0  501    0  0.00000000000E+00  0.00000000000E+00  0.12711021223E+04  0.12711021223E+04  0.50400001928E-02 0.  1.
       -1   -1    0    0    0  501  0.00000000000E+00  0.00000000000E+00 -0.24094854462E+04  0.24094854462E+04  0.50400001928E-02 0. -1.
    10030    2    1    2    0    0  0.00000000000E+00  0.00000000000E+00 -0.11383833240E+04  0.36805875685E+04  0.35001154634E+04 0.  0.
        4    1    3    3  502    0 -0.88433057534E+03 -0.70513998320E+03 -0.19735040579E+04  0.22746390575E+04  0.12699999809E+01 0. -1.
       -4    1    3    3    0  502  0.88433057534E+03  0.70513998320E+03  0.83512073395E+03  0.14059485110E+04  0.12699999809E+01 0.  1.
</event>
<event>
 5   0  0.1013863E-07  0.3498638E+04  0.7818609E-02  0.8114113E-01
        1   -1    0    0  501    0  0.00000000000E+00  0.00000000000E+00  0.13432340837E+04  0.13432340837E+04  0.50400001928E-02 0.  1.
       -1   -1    0    0    0  501  0.00000000000E+00  0.00000000000E+00 -0.22781712682E+04  0.22781712682E+04  0.50400001928E-02 0. -1.
    10030    2    1    2    0    0  0.00000000000E+00  0.00000000000E+00 -0.93493718443E+03  0.36214053519E+04  0.34986381899E+04 0.  0.
        5    1    3    3  502    0  0.14333000535E+04  0.15773835486E+02  0.57046261874E+03  0.15427402719E+04  0.46999998093E+01 0.  1.
       -5    1    3    3    0  502 -0.14333000535E+04 -0.15773835486E+02 -0.15053998032E+04  0.20786650800E+04  0.46999998093E+01 0. -1.
</event>
<event>
 5   0  0.1033796E-07  0.3515083E+04  0.7818609E-02  0.8110225E-01
        1   -1    0    0  501    0  0.00000000000E+00  0.00000000000E+00  0.21926734116E+04  0.21926734116E+04  0.50400001928E-02 0. -1.
       -1   -1    0    0    0  501  0.00000000000E+00  0.00000000000E+00 -0.14087607532E+04  0.14087607532E+04  0.50400001928E-02 0.  1.
    10030    2    1    2    0    0  0.00000000000E+00  0.00000000000E+00  0.78391265842E+03  0.36014341648E+04  0.35150830698E+04 0.  0.
        3    1    3    3  502    0 -0.24474380620E+03 -0.35335204290E+03 -0.13540779948E+04  0.14206633743E+04  0.10100000352E+00 0.  1.
       -3    1    3    3    0  502  0.24474380620E+03  0.35335204290E+03  0.21379906533E+04  0.21807707905E+04  0.10100000352E+00 0. -1.
</event>
<event>
 5   0  0.2180451E-07  0.3505673E+04  0.7818609E-02  0.8112447E-01
        2   -1    0    0  501    0  0.00000000000E+00  0.00000000000E+00  0.20740977629E+04  0.20740977629E+04  0.25500000920E-02 0. -1.
       -2   -1    0    0    0  501  0.00000000000E+00  0.00000000000E+00 -0.14813359889E+04  0.14813359889E+04  0.25500000920E-02 0.  1.
    10030    2    1    2    0    0  0.00000000000E+00  0.00000000000E+00  0.59276177407E+03  0.35554337518E+04  0.35056729230E+04 0.  0.
        4    1    3    3  502    0  0.71941110602E+03 -0.15154939054E+04 -0.21892560605E+03  0.16918049978E+04  0.12699999809E+01 0.  1.
       -4    1    3    3    0  502 -0.71941110602E+03  0.15154939054E+04  0.81168738012E+03  0.18636287540E+04  0.12699999809E+01 0. -1.
</event>
<event>
 5   0  0.1033796E-07  0.3461401E+04  0.7818609E-02  0.8122999E-01
       -1   -1    0    0    0  501  0.00000000000E+00  0.00000000000E+00  0.12946501264E+04  0.12946501264E+04  0.50400001928E-02 0.  1.
        1   -1    0    0  501    0  0.00000000000E+00  0.00000000000E+00 -0.23136166456E+04  0.23136166457E+04  0.50400001928E-02 0. -1.
    10030    2    1    2    0    0  0.00000000000E+00  0.00000000000E+00 -0.10189665192E+04  0.36082667721E+04  0.34614009203E+04 0.  0.
        3    1    3    3  502    0  0.14422215739E+04 -0.67700528816E+03  0.19520596822E+03  0.16051307139E+04  0.10100000352E+00 0.  1.
       -3    1    3    3    0  502 -0.14422215739E+04  0.67700528816E+03 -0.12141724874E+04  0.20031360582E+04  0.10100000352E+00 0. -1.
</event>
<event>
 5   0  0.1072381E-07  0.3461357E+04  0.7818609E-02  0.8123009E-01
       -1   -1    0    0    0  501  0.00000000000E+00  0.00000000000E+00  0.13315354986E+04  0.13315354987E+04  0.50400001928E-02 0.  1.
        1   -1    0    0  501    0  0.00000000000E+00  0.00000000000E+00 -0.22494691134E+04  0.22494691134E+04  0.50400001928E-02 0. -1.
    10030    2    1    2    0    0  0.00000000000E+00  0.00000000000E+00 -0.91793361472E+03  0.35810046120E+04  0.34613569464E+04 0.  0.
        1    1    3    3  502    0  0.14140970444E+04 -0.51578610258E+03  0.42469016584E+03  0.15639908860E+04  0.50400001928E-02 0.  1.
       -1    1    3    3    0  502 -0.14140970444E+04  0.51578610258E+03 -0.13426237806E+04  0.20170137260E+04  0.50400001928E-02 0. -1.
</event>
<event>
 5   0  0.1072381E-07  0.3499773E+04  0.7818609E-02  0.8113844E-01
        1   -1    0    0  501    0  0.00000000000E+00  0.00000000000E+00  0.18297615772E+04  0.18297615772E+04  0.50400001928E-02 0.  1.
       -1   -1    0    0    0  501  0.00000000000E+00  0.00000000000E+00 -0.16734979659E+04  0.16734979659E+04  0.50400001928E-02 0. -1.
    10030    2    1    2    0    0  0.00000000000E+00  0.00000000000E+00  0.15626361131E+03  0.35032595432E+04  0.34997727227E+04 0.  0.
        1    1    3    3  502    0 -0.11915195470E+04 -0.30932977626E+03  0.13230342196E+04  0.18071588994E+04  0.50400001928E-02 0.  1.
       -1    1    3    3    0  502  0.11915195470E+04  0.30932977626E+03 -0.11667706083E+04  0.16961006438E+04  0.50400001928E-02 0. -1.
</event>
<event>
 5   0  0.1013863E-07  0.3497778E+04  0.7818609E-02  0.8114317E-01
       -1   -1    0    0    0  501  0.00000000000E+00  0.00000000000E+00  0.23104789631E+04  0.23104789631E+04  0.50400001928E-02 0. -1.
        1   -1    0    0  501    0  0.00000000000E+00  0.00000000000E+00 -0.13238003470E+04  0.13238003470E+04  0.50400001928E-02 0.  1.
    10030    2    1    2    0    0  0.00000000000E+00  0.00000000000E+00  0.98667861607E+03  0.36342793101E+04  0.34977780679E+04 0.  0.
        2    1    3    3  502    0 -0.64531324933E+03 -0.67692349762E+03 -0.10421550198E+04  0.14002648666E+04  0.25500000920E-02 0.  1.
       -2    1    3    3    0  502  0.64531324933E+03  0.67692349762E+03  0.20288336359E+04  0.22340144435E+04  0.25500000920E-02 0. -1.
</event>
<event>
 5   0  0.1033796E-07  0.3513919E+04  0.7818609E-02  0.8110499E-01
       -1   -1    0    0    0  501  0.00000000000E+00  0.00000000000E+00  0.13470980767E+04  0.13470980767E+04  0.50400001928E-02 0.  1.
        1   -1    0    0  501    0  0.00000000000E+00  0.00000000000E+00 -0.22915239335E+04  0.22915239335E+04  0.50400001928E-02 0. -1.
    10030    2    1    2    0    0  0.00000000000E+00  0.00000000000E+00 -0.94442585683E+03  0.36386220102E+04  0.35139194547E+04 0.  0.
        3    1    3    3  502    0  0.12100051576E+04 -0.59431839178E+03  0.69453029082E+03  0.15164759039E+04  0.10100000352E+00 0. -1.
       -3    1    3    3    0  502 -0.12100051576E+04  0.59431839178E+03 -0.16389561476E+04  0.21221461062E+04  0.10100000352E+00 0.  1.
</event>
<event>
 5   0  0.2180451E-07  0.3507428E+04  0.7818609E-02  0.8112032E-01
       -2   -1    0    0    0  501  0.00000000000E+00  0.00000000000E+00  0.11437842405E+04  0.11437842405E+04  0.25500000920E-02 0.  1.
        2   -1    0    0  501    0  0.00000000000E+00  0.00000000000E+00 -0.26888917784E+04  0.26888917784E+04  0.25500000920E-02 0. -1.
    10030    2    1    2    0    0  0.00000000000E+00  0.00000000000E+00 -0.15451075379E+04  0.38326760189E+04  0.35074275705E+04 0.  0.
        4    1    3    3  502    0  0.11687210987E+04 -0.85696792361E+03 -0.18516542638E+04  0.23513672946E+04  0.12699999809E+01 0. -1.
       -4    1    3    3    0  502 -0.11687210987E+04  0.85696792361E+03  0.30654672589E+03  0.14813087243E+04  0.12699999809E+01 0.  1.
</event>
<event>
 5   0  0.3119048E-07  0.3512363E+04  0.7818609E-02  0.8110866E-01
       -2   -1    0    0    0  501  0.00000000000E+00  0.00000000000E+00  0.23190228276E+04  0.23190228276E+04  0.25500000920E-02 0. -1.
        2   -1    0    0  501    0  0.00000000000E+00  0.00000000000E+00 -0.13299452203E+04  0.13299452203E+04  0.25500000920E-02 0.  1.
    10030    2    1    2    0    0  0.00000000000E+00  0.00000000000E+00  0.98907760731E+03  0.36489680479E+04  0.35123629228E+04 0.  0.
        3    1    3    3  502    0 -0.63151155181E+03 -0.14014263662E+03 -0.12016667174E+04  0.13647159810E+04  0.10100000352E+00 0.  1.
       -3    1    3    3    0  502  0.63151155181E+03  0.14014263662E+03  0.21907443248E+04  0.22842520669E+04  0.10100000352E+00 0. -1.
</event>
<event>
 5   0  0.1033796E-07  0.3441738E+04  0.7818609E-02  0.8127738E-01
       -1   -1    0    0    0  501  0.00000000000E+00  0.00000000000E+00  0.19530780326E+04  0.19530780326E+04  0.50400001928E-02 0. -1.
        1   -1    0    0  501    0  0.00000000000E+00  0.00000000000E+00 -0.15162680806E+04  0.15162680806E+04  0.50400001928E-02 0.  1.
    10030    2    1    2    0    0  0.00000000000E+00  0.00000000000E+00  0.43680995200E+03  0.34693461132E+04  0.34417378632E+04 0.  0.
        3    1    3    3  502    0  0.36931956878E+03  0.13355528730E+04 -0.81021745346E+03  0.16051637775E+04  0.10100000352E+00 0.  1.
       -3    1    3    3    0  502 -0.36931956878E+03 -0.13355528730E+04  0.12470274055E+04  0.18641823357E+04  0.10100000352E+00 0. -1.
</event>
<event>
 5   0  0.3190112E-07  0.3479257E+04  0.7818609E-02  0.8118723E-01
       -2   -1    0    0    0  501  0.00000000000E+00  0.00000000000E+00  0.15844172106E+04  0.15844172106E+04  0.25500000920E-02 0.  1.
        2   -1    0    0  501    0  0.00000000000E+00  0.00000000000E+00 -0.19100444679E+04  0.19100444679E+04  0.25500000920E-02 0. -1.
    10030    2    1    2    0    0  0.00000000000E+00  0.00000000000E+00 -0.32562725729E+03  0.34944616785E+04  0.34792570057E+04 0.  0.
        5    1    3    3  502    0 -0.34871794726E+03 -0.32101859106E+03  0.15183075283E+04  0.15905775628E+04  0.46999998093E+01 0.  1.
       -5    1    3    3    0  502  0.34871794726E+03  0.32101859106E+03 -0.18439347856E+04  0.19038841158E+04  0.46999998093E+01 0. -1.
</event>
<event>
 5   0  0.1013863E-07  0.3493387E+04  0.7818609E-02  0.8115359E-01
       -1   -1    0    0    0  501  0.00000000000E+00  0.00000000000E+00  0.30077767697E+04  0.30077767697E+04  0.50400001928E-02 0.  1.
        1   -1    0    0  501    0  0.00000000000E+00  0.00000000000E+00 -0.10143500660E+04  0.10143500660E+04  0.50400001928E-02 0. -1.
    10030    2    1    2    0    0  0.00000000000E+00  0.00000000000E+00  0.19934267038E+04  0.40221268357E+04  0.34933872186E+04 0.  0.
        2    1    3    3  502    0 -0.46151323065E+01  0.88198612843E+03  0.27325563697E+04  0.28713733898E+04  0.25500000920E-02 0.  1.
       -2    1    3    3    0  502  0.46151323065E+01 -0.88198612843E+03 -0.73912966592E+03  0.11507534459E+04  0.25500000920E-02 0. -1.
</event>
<event>
 5   0  0.1013863E-07  0.3670223E+04  0.7818609E-02  0.8074593E-01
        1   -1    0    0  501    0  0.00000000000E+00  0.00000000000E+00  0.21970135923E+04  0.21970135923E+04  0.50400001928E-02 0.  1.
       -1   -1    0    0    0  501  0.00000000000E+00  0.00000000000E+00 -0.15328238664E+04  0.15328238665E+04  0.50400001928E-02 0. -1.
    10030    2    1    2    0    0  0.00000000000E+00  0.00000000000E+00  0.66418972582E+03  0.37298374587E+04  0.36702233551E+04 0.  0.
        2    1    3    3  502    0 -0.94294420437E+03 -0.12954223258E+04 -0.57707154493E+03  0.17030191845E+04  0.25500000920E-02 0. -1.
       -2    1    3    3    0  502  0.94294420437E+03  0.12954223258E+04  0.12412612708E+04  0.20268182743E+04  0.25500000920E-02 0.  1.
</event>
<event>
 5   0  0.1072381E-07  0.3537803E+04  0.7818609E-02  0.8104889E-01
       -1   -1    0    0    0  501  0.00000000000E+00  0.00000000000E+00  0.13927514204E+04  0.13927514204E+04  0.50400001928E-02 0. -1.
        1   -1    0    0  501    0  0.00000000000E+00  0.00000000000E+00 -0.22466404337E+04  0.22466404337E+04  0.50400001928E-02 0.  1.
    10030    2    1    2    0    0  0.00000000000E+00  0.00000000000E+00 -0.85388901336E+03  0.36393918541E+04  0.35378025130E+04 0.  0.
        1    1    3    3  502    0 -0.15862253499E+04  0.64662728923E+03  0.27060519651E+02  0.17131754095E+04  0.50400001928E-02 0. -1.
       -1    1    3    3    0  502  0.15862253499E+04 -0.64662728923E+03 -0.88094953301E+03  0.19262164447E+04  0.50400001928E-02 0.  1.
</event>
<event>
 5   0  0.1033796E-07  0.3487324E+04  0.7818609E-02  0.8116800E-01
        1   -1    0    0  501    0  0.00000000000E+00  0.00000000000E+00  0.92184505468E+03  0.92184505469E+03  0.50400001928E-02 0.  1.
       -1   -1    0    0    0  501  0.00000000000E+00  0.00000000000E+00 -0.32981225410E+04  0.32981225410E+04  0.50400001928E-02 0. -1.
    10030    2    1    2    0    0  0.00000000000E+00  0.00000000000E+00 -0.23762774863E+04  0.42199675957E+04  0.34873244496E+04 0.  0.
        3    1    3    3  502    0  0.90277647193E+03 -0.69723102538E+03 -0.27839966036E+04  0.30086165525E+04  0.10100000352E+00 0. -1.
       -3    1    3    3    0  502 -0.90277647193E+03  0.69723102538E+03  0.40771911728E+03  0.12113510432E+04  0.10100000352E+00 0.  1.
</event>
<event>
 5   0  0.3190112E-07  0.3523754E+04  0.7818609E-02  0.8108184E-01
        2   -1    0    0  501    0  0.00000000000E+00  0.00000000000E+00  0.19613252182E+04  0.19613252182E+04  0.25500000920E-02 0.  1.
       -2   -1    0    0    0  501  0.00000000000E+00  0.00000000000E+00 -0.15827104300E+04  0.15827104300E+04  0.25500000920E-02 0. -1.
    10030    2    1    2    0    0  0.00000000000E+00  0.00000000000E+00  0.37861478822E+03  0.35440356482E+04  0.35237536120E+04 0.  0.
        5    1    3    3  502    0 -0.49355490873E+02 -0.16375173476E+04 -0.46272089126E+03  0.17023606379E+04  0.46999998093E+01 0. -1.
       -5    1    3    3    0  502  0.49355490873E+02  0.16375173476E+04  0.84133567948E+03  0.18416750103E+04  0.46999998093E+01 0.  1.
</event>
<event>
 5   0  0.2180451E-07  0.3507670E+04  0.7818609E-02  0.8111975E-01
       -2   -1    0    0    0  501  0.00000000000E+00  0.00000000000E+00  0.16104070102E+04  0.16104070102E+04  0.25500000920E-02 0. -1.
        2   -1    0    0  501    0  0.00000000000E+00  0.00000000000E+00 -0.19100369466E+04  0.19100369466E+04  0.25500000920E-02 0.  1.
    10030    2    1    2    0    0  0.00000000000E+00  0.00000000000E+00 -0.29962993644E+03  0.35204439568E+04  0.35076698183E+04 0.  0.
        4    1    3    3  502    0 -0.87088414294E+03 -0.12831349160E+04 -0.97198129916E+03  0.18301977111E+04  0.12699999809E+01 0.  1.
       -4    1    3    3    0  502  0.87088414294E+03  0.12831349160E+04  0.67235136272E+03  0.16902462456E+04  0.12699999809E+01 0. -1.
</event>
<event>
 5   0  0.1013863E-07  0.3495946E+04  0.7818609E-02  0.8114751E-01
        1   -1    0    0  501    0  0.00000000000E+00  0.00000000000E+00  0.19538987590E+04  0.19538987591E+04  0.50400001928E-02 0.  1.
       -1   -1    0    0    0  501  0.00000000000E+00  0.00000000000E+00 -0.15637500797E+04  0.15637500797E+04  0.50400001928E-02 0. -1.
    10030    2    1    2    0    0  0.00000000000E+00  0.00000000000E+00  0.39014867939E+03  0.35176488387E+04  0.34959458463E+04 0.  0.
        5    1    3    3  502    0  0.66193898376E+03 -0.82048929457E+03 -0.12078630856E+04  0.16032221382E+04  0.46999998093E+01 0. -1.
       -5    1    3    3    0  502 -0.66193898376E+03  0.82048929457E+03  0.15980117650E+04  0.19144267006E+04  0.46999998093E+01 0.  1.
</event>
<event>
 5   0  0.1013863E-07  0.3499854E+04  0.7818609E-02  0.8113825E-01
       -1   -1    0    0    0  501  0.00000000000E+00  0.00000000000E+00  0.24497900421E+04  0.24497900421E+04  0.50400001928E-02 0.  1.
        1   -1    0    0  501    0  0.00000000000E+00  0.00000000000E+00 -0.12500024887E+04  0.12500024887E+04  0.50400001928E-02 0. -1.
    10030    2    1    2    0    0  0.00000000000E+00  0.00000000000E+00  0.11997875534E+04  0.36997925308E+04  0.34998535109E+04 0.  0.
        5    1    3    3  502    0  0.57095871776E+03  0.15253548071E+04 -0.76602300080E+02  0.16305186744E+04  0.46999998093E+01 0. -1.
       -5    1    3    3    0  502 -0.57095871776E+03 -0.15253548071E+04  0.12763898534E+04  0.20692738565E+04  0.46999998093E+01 0.  1.
</event>
<event>
 5   0  0.3190185E-07  0.3503486E+04  0.7818609E-02  0.8112964E-01
       -2   -1    0    0    0  501  0.00000000000E+00  0.00000000000E+00  0.21749114665E+04  0.21749114665E+04  0.25500000920E-02 0. -1.
        2   -1    0    0  501    0  0.00000000000E+00  0.00000000000E+00 -0.14109096475E+04  0.14109096475E+04  0.25500000920E-02 0.  1.
    10030    2    1    2    0    0  0.00000000000E+00  0.00000000000E+00  0.76400181907E+03  0.35858211140E+04  0.35034860185E+04 0.  0.
        1    1    3    3  502    0  0.60409581784E+03 -0.93239189457E+03 -0.10041976616E+04  0.14975644713E+04  0.50400001928E-02 0.  1.
       -1    1    3    3    0  502 -0.60409581784E+03  0.93239189457E+03  0.17681994807E+04  0.20882566427E+04  0.50400001928E-02 0. -1.
</event>
<event>
 5   0  0.2180451E-07  0.3500462E+04  0.7818609E-02  0.8113680E-01
       -2   -1    0    0    0  501  0.00000000000E+00  0.00000000000E+00  0.20817050860E+04  0.20817050860E+04  0.25500000920E-02 0.  1.
        2   -1    0    0  501    0  0.00000000000E+00  0.00000000000E+00 -0.14715384780E+04  0.14715384780E+04  0.25500000920E-02 0. -1.
    10030    2    1    2    0    0  0.00000000000E+00  0.00000000000E+00  0.61016660797E+03  0.35532435640E+04  0.35004623317E+04 0.  0.
        4    1    3    3  502    0  0.60695779629E+03 -0.14475433631E+04  0.10910502693E+04  0.19115888307E+04  0.12699999809E+01 0.  1.
       -4    1    3    3    0  502 -0.60695779629E+03  0.14475433631E+04 -0.48088366134E+03  0.16416547333E+04  0.12699999809E+01 0. -1.
</event>
<event>
 5   0  0.2180451E-07  0.3496194E+04  0.7818609E-02  0.8114692E-01
       -2   -1    0    0    0  501  0.00000000000E+00  0.00000000000E+00  0.15046416696E+04  0.15046416696E+04  0.25500000920E-02 0. -1.
        2   -1    0    0  501    0  0.00000000000E+00  0.00000000000E+00 -0.20309443987E+04  0.20309443987E+04  0.25500000920E-02 0.  1.
    10030    2    1    2    0    0  0.00000000000E+00  0.00000000000E+00 -0.52630272909E+03  0.35355860684E+04  0.34961942572E+04 0.  0.
        4    1    3    3  502    0  0.75366981805E+03 -0.11343587721E+04  0.84512255902E+03  0.16028168239E+04  0.12699999809E+01 0. -1.
       -4    1    3    3    0  502 -0.75366981805E+03  0.11343587721E+04 -0.13714252881E+04  0.19327692444E+04  0.12699999809E+01 0.  1.
</event>
<event>
 5   0  0.1098171E-07  0.3533736E+04  0.7818609E-02  0.8105841E-01
        1   -1    0    0  501    0  0.00000000000E+00  0.00000000000E+00  0.25063903571E+04  0.25063903571E+04  0.50400001928E-02 0. -1.
       -1   -1    0    0    0  501  0.00000000000E+00  0.00000000000E+00 -0.12455453690E+04  0.12455453690E+04  0.50400001928E-02 0.  1.
    10030    2    1    2    0    0  0.00000000000E+00  0.00000000000E+00  0.12608449881E+04  0.37519357261E+04  0.35337362110E+04 0.  0.
        4    1    3    3  502    0  0.17635585543E+04  0.30203776293E+02  0.52023454732E+03  0.18389389983E+04  0.12699999809E+01 0. -1.
       -4    1    3    3    0  502 -0.17635585543E+04 -0.30203776293E+02  0.74061044078E+03  0.19129967278E+04  0.12699999809E+01 0.  1.
</event>
<event>
 5   0  0.1033796E-07  0.3500999E+04  0.7818609E-02  0.8113553E-01
        1   -1    0    0  501    0  0.00000000000E+00  0.00000000000E+00  0.30222554117E+04  0.30222554117E+04  0.50400001928E-02 0. -1.
       -1   -1    0    0    0  501  0.00000000000E+00  0.00000000000E+00 -0.10138943382E+04  0.10138943382E+04  0.50400001928E-02 0.  1.
    10030    2    1    2    0    0  0.00000000000E+00  0.00000000000E+00  0.20083610734E+04  0.40361497499E+04  0.35009985150E+04 0.  0.
        3    1    3    3  502    0  0.11738468116E+04  0.84195810566E+03 -0.13559654795E+03  0.14509294341E+04  0.10100000352E+00 0.  1.
       -3    1    3    3    0  502 -0.11738468116E+04 -0.84195810566E+03  0.21439576214E+04  0.25852203158E+04  0.10100000352E+00 0. -1.
</event>
<event>
 5   0  0.1072381E-07  0.3568183E+04  0.7818609E-02  0.8097819E-01
        1   -1    0    0  501    0  0.00000000000E+00  0.00000000000E+00  0.11384284812E+04  0.11384284812E+04  0.50400001928E-02 0.  1.
       -1   -1    0    0    0  501  0.00000000000E+00  0.00000000000E+00 -0.27959448044E+04  0.27959448044E+04  0.50400001928E-02 0. -1.
    10030    2    1    2    0    0  0.00000000000E+00  0.00000000000E+00 -0.16575163232E+04  0.39343732856E+04  0.35681834018E+04 0.  0.
        1    1    3    3  502    0  0.32607959029E+03  0.12081914163E+04 -0.22308415441E+04  0.25578718484E+04  0.50400001928E-02 0. -1.
       -1    1    3    3    0  502 -0.32607959029E+03 -0.12081914163E+04  0.57332522098E+03  0.13765014372E+04  0.50400001928E-02 0.  1.
</event>
<event>
 5   0  0.2180451E-07  0.3510155E+04  0.7818609E-02  0.8111387E-01
        2   -1    0    0  501    0  0.00000000000E+00  0.00000000000E+00  0.10145276240E+04  0.10145276240E+04  0.25500000920E-02 0.  1.
       -2   -1    0    0    0  501  0.00000000000E+00  0.00000000000E+00 -0.30361891477E+04  0.30361891477E+04  0.25500000920E-02 0. -1.
    10030    2    1    2    0    0  0.00000000000E+00  0.00000000000E+00 -0.20216615237E+04  0.40507167718E+04  0.35101554166E+04 0.  0.
        4    1    3    3  502    0 -0.60802795931E+03  0.10395408626E+04 -0.24841371292E+04  0.27606669654E+04  0.12699999809E+01 0. -1.
       -4    1    3    3    0  502  0.60802795931E+03 -0.10395408626E+04  0.46247560553E+03  0.12900498064E+04  0.12699999809E+01 0.  1.
</event>
<event>
 5   0  0.1098171E-07  0.3500335E+04  0.7818609E-02  0.8113711E-01
       -1   -1    0    0    0  501  0.00000000000E+00  0.00000000000E+00  0.14696071847E+04  0.14696071847E+04  0.50400001928E-02 0. -1.
        1   -1    0    0  501    0  0.00000000000E+00  0.00000000000E+00 -0.20842889297E+04  0.20842889297E+04  0.50400001928E-02 0.  1.
    10030    2    1    2    0    0  0.00000000000E+00  0.00000000000E+00 -0.61468174503E+03  0.35538961145E+04  0.35003348332E+04 0.  0.
        4    1    3    3  502    0 -0.16781200775E+04 -0.35111243861E+02 -0.81067315305E+03  0.18640043905E+04  0.12699999809E+01 0.  1.
       -4    1    3    3    0  502  0.16781200775E+04  0.35111243861E+02  0.19599140803E+03  0.16898917240E+04  0.12699999809E+01 0. -1.
</event>
<event>
 5   0  0.3190185E-07  0.3493174E+04  0.7818609E-02  0.8115410E-01
       -2   -1    0    0    0  501  0.00000000000E+00  0.00000000000E+00  0.13754090921E+04  0.13754090921E+04  0.25500000920E-02 0. -1.
        2   -1    0    0  501    0  0.00000000000E+00  0.00000000000E+00 -0.22179334612E+04  0.22179334613E+04  0.25500000920E-02 0.  1.
    10030    2    1    2    0    0  0.00000000000E+00  0.00000000000E+00 -0.84252436913E+03  0.35933425534E+04  0.34931738281E+04 0.  0.
        1    1    3    3  502    0 -0.40241447631E+03 -0.86033167693E+03 -0.19290555953E+04  0.21502008034E+04  0.50400001928E-02 0.  1.
       -1    1    3    3    0  502  0.40241447631E+03  0.86033167693E+03  0.10865312262E+04  0.14431417500E+04  0.50400001928E-02 0. -1.
</event>
<event>
 5   0  0.1033796E-07  0.3492419E+04  0.7818609E-02  0.8115589E-01
        1   -1    0    0  501    0  0.00000000000E+00  0.00000000000E+00  0.25358129178E+04  0.25358129178E+04  0.50400001928E-02 0. -1.
       -1   -1    0    0    0  501  0.00000000000E+00  0.00000000000E+00 -0.12024735056E+04  0.12024735056E+04  0.50400001928E-02 0.  1.
    10030    2    1    2    0    0  0.00000000000E+00  0.00000000000E+00  0.13333394123E+04  0.37382864234E+04  0.34924191323E+04 0.  0.
        3    1    3    3  502    0  0.85369779073E+03  0.79934676900E+03  0.20546832478E+04  0.23642077815E+04  0.10100000352E+00 0. -1.
       -3    1    3    3    0  502 -0.85369779073E+03 -0.79934676900E+03 -0.72134383554E+03  0.13740786420E+04  0.10100000352E+00 0.  1.
</event>
<event>
 5   0  0.3190185E-07  0.3488502E+04  0.7818609E-02  0.8116520E-01
        2   -1    0    0  501    0  0.00000000000E+00  0.00000000000E+00  0.21155355410E+04  0.21155355410E+04  0.25500000920E-02 0.  1.
       -2   -1    0    0    0  501  0.00000000000E+00  0.00000000000E+00 -0.14381285125E+04  0.14381285125E+04  0.25500000920E-02 0. -1.
    10030    2    1    2    0    0  0.00000000000E+00  0.00000000000E+00  0.67740702851E+03  0.35536640535E+04  0.34885022463E+04 0.  0.
        1    1    3    3  502    0 -0.11727324682E+04 -0.11222873143E+04  0.98904987260E+03  0.19008024380E+04  0.50400001928E-02 0.  1.
       -1    1    3    3    0  502  0.11727324682E+04  0.11222873143E+04 -0.31164284409E+03  0.16528616155E+04  0.50400001928E-02 0. -1.
</event>
<event>
 5   0  0.3190185E-07  0.3519770E+04  0.7818609E-02  0.8109121E-01
       -2   -1    0    0    0  501  0.00000000000E+00  0.00000000000E+00  0.11117511543E+04  0.11117511543E+04  0.25500000920E-02 0.  1.
        2   -1    0    0  501    0  0.00000000000E+00  0.00000000000E+00 -0.27858710047E+04  0.27858710047E+04  0.25500000920E-02 0. -1.
    10030    2    1    2    0    0  0.00000000000E+00  0.00000000000E+00 -0.16741198504E+04  0.38976221590E+04  0.35197700522E+04 0.  0.
        1    1    3    3  502    0  0.15240772596E+03 -0.16434880642E+04 -0.15132828482E+04  0.22392646362E+04  0.50400001928E-02 0. -1.
       -1    1    3    3    0  502 -0.15240772596E+03  0.16434880642E+04 -0.16083700220E+03  0.16583575228E+04  0.50400001928E-02 0.  1.
</event>
<event>
 5   0  0.1013863E-07  0.3510765E+04  0.7818609E-02  0.8111244E-01
       -1   -1    0    0    0  501  0.00000000000E+00  0.00000000000E+00  0.14899899020E+04  0.14899899020E+04  0.50400001928E-02 0.  1.
        1   -1    0    0  501    0  0.00000000000E+00  0.00000000000E+00 -0.20680459574E+04  0.20680459574E+04  0.50400001928E-02 0. -1.
    10030    2    1    2    0    0  0.00000000000E+00  0.00000000000E+00 -0.57805605539E+03  0.35580358594E+04  0.35107649271E+04 0.  0.
        5    1    3    3  502    0 -0.10365288309E+03 -0.73555985497E+03 -0.19008997845E+04  0.20408905657E+04  0.46999998093E+01 0. -1.
       -5    1    3    3    0  502  0.10365288309E+03  0.73555985497E+03  0.13228437291E+04  0.15171452937E+04  0.46999998093E+01 0.  1.
</event>
<event>
 5   0  0.1013863E-07  0.3531405E+04  0.7818609E-02  0.8106387E-01
        1   -1    0    0  501    0  0.00000000000E+00  0.00000000000E+00  0.18404987011E+04  0.18404987011E+04  0.50400001928E-02 0.  1.
       -1   -1    0    0    0  501  0.00000000000E+00  0.00000000000E+00 -0.16939460407E+04  0.16939460407E+04  0.50400001928E-02 0. -1.
    10030    2    1    2    0    0  0.00000000000E+00  0.00000000000E+00  0.14655266044E+03  0.35344447418E+04  0.35314050958E+04 0.  0.
        2    1    3    3  502    0  0.75401030491E+03  0.14105678972E+04 -0.67534620314E+03  0.17361813922E+04  0.25500000920E-02 0. -1.
       -2    1    3    3    0  502 -0.75401030491E+03 -0.14105678972E+04  0.82189886358E+03  0.17982633496E+04  0.25500000920E-02 0.  1.
</event>
<event>
 5   0  0.3219205E-07  0.3493423E+04  0.7818609E-02  0.8115350E-01
        2   -1    0    0  501    0  0.00000000000E+00  0.00000000000E+00  0.22802357281E+04  0.22802357281E+04  0.25500000920E-02 0.  1.
       -2   -1    0    0    0  501  0.00000000000E+00  0.00000000000E+00 -0.13380198286E+04  0.13380198286E+04  0.25500000920E-02 0. -1.
    10030    2    1    2    0    0  0.00000000000E+00  0.00000000000E+00  0.94221589955E+03  0.36182555567E+04  0.34934227445E+04 0.  0.
        2    1    3    3  502    0  0.15446250371E+03 -0.91102885639E+02  0.22706761144E+04  0.22777463462E+04  0.25500000920E-02 0.  1.
       -2    1    3    3    0  502 -0.15446250371E+03  0.91102885639E+02 -0.13284602149E+04  0.13405092105E+04  0.25500000920E-02 0. -1.
</event>
<event>
 5   0  0.3219205E-07  0.3497469E+04  0.7818609E-02  0.8114390E-01
        2   -1    0    0  501    0  0.00000000000E+00  0.00000000000E+00  0.10996636283E+04  0.10996636283E+04  0.25500000920E-02 0. -1.
       -2   -1    0    0    0  501  0.00000000000E+00  0.00000000000E+00 -0.27809159840E+04  0.27809159840E+04  0.25500000920E-02 0.  1.
    10030    2    1    2    0    0  0.00000000000E+00  0.00000000000E+00 -0.16812523556E+04  0.38805796123E+04  0.34974688911E+04 0.  0.
        2    1    3    3  502    0 -0.37937409337E+03 -0.27266731465E+03 -0.27103894056E+04  0.27503605031E+04  0.25500000920E-02 0.  1.
       -2    1    3    3    0  502  0.37937409337E+03  0.27266731465E+03  0.10291370500E+04  0.11302191092E+04  0.25500000920E-02 0. -1.
</event>
<event>
 5   0  0.1072381E-07  0.3533148E+04  0.7818609E-02  0.8105979E-01
       -1   -1    0    0    0  501  0.00000000000E+00  0.00000000000E+00  0.11233726507E+04  0.11233726507E+04  0.50400001928E-02 0.  1.
        1   -1    0    0  501    0  0.00000000000E+00  0.00000000000E+00 -0.27780487446E+04  0.27780487446E+04  0.50400001928E-02 0. -1.
    10030    2    1    2    0    0  0.00000000000E+00  0.00000000000E+00 -0.16546760939E+04  0.39014213953E+04  0.35331481611E+04 0.  0.
        1    1    3    3  502    0  0.94359624195E+03  0.14482606403E+04 -0.42470706088E+03  0.17799463019E+04  0.50400001928E-02 0.  1.
       -1    1    3    3    0  502 -0.94359624195E+03 -0.14482606403E+04 -0.12299690331E+04  0.21214750935E+04  0.50400001928E-02 0. -1.
</event>
<event>
 5   0  0.3190112E-07  0.3514230E+04  0.7818609E-02  0.8110426E-01
       -2   -1    0    0    0  501  0.00000000000E+00  0.00000000000E+00  0.11931997851E+04  0.11931997851E+04  0.25500000920E-02 0. -1.
        2   -1    0    0  501    0  0.00000000000E+00  0.00000000000E+00 -0.25875407033E+04  0.25875407033E+04  0.25500000920E-02 0.  1.
    10030    2    1    2    0    0  0.00000000000E+00  0.00000000000E+00 -0.13943409181E+04  0.37807404884E+04  0.35142299362E+04 0.  0.
        5    1    3    3  502    0 -0.36877234686E+03 -0.15276075006E+04  0.14847699350E+03  0.15784946079E+04  0.46999998093E+01 0. -1.
       -5    1    3    3    0  502  0.36877234686E+03  0.15276075006E+04 -0.15428179116E+04  0.22022458805E+04  0.46999998093E+01 0.  1.
</event>
<event>
 5   0  0.3190185E-07  0.3480957E+04  0.7818609E-02  0.8118318E-01
       -2   -1    0    0    0  501  0.00000000000E+00  0.00000000000E+00  0.96566083647E+03  0.96566083647E+03  0.25500000920E-02 0.  1.
        2   -1    0    0  501    0  0.00000000000E+00  0.00000000000E+00 -0.31369863144E+04  0.31369863144E+04  0.25500000920E-02 0. -1.
    10030    2    1    2    0    0  0.00000000000E+00  0.00000000000E+00 -0.21713254780E+04  0.41026471509E+04  0.34809566664E+04 0.  0.
        1    1    3    3  502    0 -0.96955572811E+02  0.24183441779E+03 -0.31138715293E+04  0.31247528174E+04  0.50400001928E-02 0. -1.
       -1    1    3    3    0  502  0.96955572811E+02 -0.24183441779E+03  0.94254605131E+03  0.97789433355E+03  0.50400001928E-02 0.  1.
</event>
<event>
 5   0  0.1098171E-07  0.3488439E+04  0.7818609E-02  0.8116535E-01
       -1   -1    0    0    0  501  0.00000000000E+00  0.00000000000E+00  0.11231034211E+04  0.11231034212E+04  0.50400001928E-02 0.  1.
        1   -1    0    0  501    0  0.00000000000E+00  0.00000000000E+00 -0.27088350327E+04  0.27088350327E+04  0.50400001928E-02 0. -1.
    10030    2    1    2    0    0  0.00000000000E+00  0.00000000000E+00 -0.15857316115E+04  0.38319384538E+04  0.34884391309E+04 0.  0.
        4    1    3    3  502    0  0.15001818159E+04 -0.32026656737E+03 -0.17047821679E+04  0.22933381800E+04  0.12699999809E+01 0. -1.
       -4    1    3    3    0  502 -0.15001818159E+04  0.32026656737E+03  0.11905055640E+03  0.15386002738E+04  0.12699999809E+01 0.  1.
</event>
<event>
 5   0  0.3190185E-07  0.3501354E+04  0.7818609E-02  0.8113469E-01
        2   -1    0    0  501    0  0.00000000000E+00  0.00000000000E+00  0.22349704967E+04  0.22349704967E+04  0.25500000920E-02 0. -1.
       -2   -1    0    0    0  501  0.00000000000E+00  0.00000000000E+00 -0.13713241854E+04  0.13713241854E+04  0.25500000920E-02 0.  1.
    10030    2    1    2    0    0  0.00000000000E+00  0.00000000000E+00  0.86364631130E+03  0.36062946821E+04  0.35013535073E+04 0.  0.
        1    1    3    3  502    0  0.81897924884E+02  0.53626439753E+03 -0.12825714052E+04  0.13925789685E+04  0.50400001928E-02 0.  1.
       -1    1    3    3    0  502 -0.81897924884E+02 -0.53626439753E+03  0.21462177165E+04  0.22137157136E+04  0.50400001928E-02 0. -1.
</event>
<event>
 5   0  0.1072381E-07  0.3530430E+04  0.7818609E-02  0.8106616E-01
        1   -1    0    0  501    0  0.00000000000E+00  0.00000000000E+00  0.30620378745E+04  0.30620378745E+04  0.50400001928E-02 0. -1.
       -1   -1    0    0    0  501  0.00000000000E+00  0.00000000000E+00 -0.10176178969E+04  0.10176178969E+04  0.50400001928E-02 0.  1.
    10030    2    1    2    0    0  0.00000000000E+00  0.00000000000E+00  0.20444199776E+04  0.40796557714E+04  0.35304303093E+04 0.  0.
        1    1    3    3  502    0 -0.98119433556E+02 -0.17596502216E+04  0.11376987831E+04  0.20977022779E+04  0.50400001928E-02 0.  1.
       -1    1    3    3    0  502  0.98119433556E+02  0.17596502216E+04  0.90672119455E+03  0.19819534935E+04  0.50400001928E-02 0. -1.
</event>
<event>
 5   0  0.2180451E-07  0.3497573E+04  0.7818609E-02  0.8114365E-01
        2   -1    0    0  501    0  0.00000000000E+00  0.00000000000E+00  0.15395259209E+04  0.15395259209E+04  0.25500000920E-02 0. -1.
       -2   -1    0    0    0  501  0.00000000000E+00  0.00000000000E+00 -0.19864908089E+04  0.19864908089E+04  0.25500000920E-02 0.  1.
    10030    2    1    2    0    0  0.00000000000E+00  0.00000000000E+00 -0.44696488800E+03  0.35260167298E+04  0.34975729253E+04 0.  0.
        4    1    3    3  502    0 -0.91810512749E+01 -0.81694302311E+03 -0.17822691612E+04  0.19606032670E+04  0.12699999809E+01 0.  1.
       -4    1    3    3    0  502  0.91810512749E+01  0.81694302311E+03  0.13353042732E+04  0.15654134628E+04  0.12699999809E+01 0. -1.
</event>
<event>
 5   0  0.1013863E-07  0.3492529E+04  0.7818609E-02  0.8115563E-01
        1   -1    0    0  501    0  0.00000000000E+00  0.00000000000E+00  0.24745895762E+04  0.24745895762E+04  0.50400001928E-02 0. -1.
       -1   -1    0    0    0  501  0.00000000000E+00  0.00000000000E+00 -0.12323013169E+04  0.12323013169E+04  0.50400001928E-02 0.  1.
    10030    2    1    2    0    0  0.00000000000E+00  0.00000000000E+00  0.12422882592E+04  0.37068908931E+04  0.34925291659E+04 0.  0.
        5    1    3    3  502    0  0.13955071640E+04  0.38835090230E+03 -0.41399048852E+03  0.15065413644E+04  0.46999998093E+01 0.  1.
       -5    1    3    3    0  502 -0.13955071640E+04 -0.38835090230E+03  0.16562787478E+04  0.22003495287E+04  0.46999998093E+01 0. -1.
</event>
<event>
 5   0  0.3119048E-07  0.3573356E+04  0.7818609E-02  0.8096622E-01
        2   -1    0    0  501    0  0.00000000000E+00  0.00000000000E+00  0.20502910261E+04  0.20502910261E+04  0.25500000920E-02 0.  1.
       -2   -1    0    0    0  501  0.00000000000E+00  0.00000000000E+00 -0.15569587316E+04  0.15569587316E+04  0.25500000920E-02 0. -1.
    10030    2    1    2    0    0  0.00000000000E+00  0.00000000000E+00  0.49333229443E+03  0.36072497577E+04  0.35733561342E+04 0.  0.
        3    1    3    3  502    0  0.52108491112E+03 -0.17073375673E+04  0.32279666401E+03  0.18140365900E+04  0.10100000352E+00 0.  1.
       -3    1    3    3    0  502 -0.52108491112E+03  0.17073375673E+04  0.17053563042E+03  0.17932131677E+04  0.10100000352E+00 0. -1.
</event>
<event>
 5   0  0.3219205E-07  0.3504633E+04  0.7818609E-02  0.8112693E-01
       -2   -1    0    0    0  501  0.00000000000E+00  0.00000000000E+00  0.14569620519E+04  0.14569620519E+04  0.25500000920E-02 0.  1.
        2   -1    0    0  501    0  0.00000000000E+00  0.00000000000E+00 -0.21075452490E+04  0.21075452490E+04  0.25500000920E-02 0. -1.
    10030    2    1    2    0    0  0.00000000000E+00  0.00000000000E+00 -0.65058319709E+03  0.35645073009E+04  0.35046331908E+04 0.  0.
        2    1    3    3  502    0  0.80968854337E+03  0.15174506594E+04 -0.66622184187E+03  0.18444792174E+04  0.25500000920E-02 0. -1.
       -2    1    3    3    0  502 -0.80968854337E+03 -0.15174506594E+04  0.15638644778E+02  0.17200280835E+04  0.25500000920E-02 0.  1.
</event>
<event>
 5   0  0.2180451E-07  0.3506841E+04  0.7818609E-02  0.8112171E-01
       -2   -1    0    0    0  501  0.00000000000E+00  0.00000000000E+00  0.27861340814E+04  0.27861340814E+04  0.25500000920E-02 0.  1.
        2   -1    0    0  501    0  0.00000000000E+00  0.00000000000E+00 -0.11034943109E+04  0.11034943109E+04  0.25500000920E-02 0. -1.
    10030    2    1    2    0    0  0.00000000000E+00  0.00000000000E+00  0.16826397705E+04  0.38896283923E+04  0.35068408052E+04 0.  0.
        4    1    3    3  502    0 -0.66134985322E+03  0.72442586218E+03  0.24533397070E+04  0.26421683877E+04  0.12699999809E+01 0.  1.
       -4    1    3    3    0  502  0.66134985322E+03 -0.72442586218E+03 -0.77069993651E+03  0.12474600046E+04  0.12699999809E+01 0. -1.
</event>
<event>
 5   0  0.1013863E-07  0.3541704E+04  0.7818609E-02  0.8103977E-01
       -1   -1    0    0    0  501  0.00000000000E+00  0.00000000000E+00  0.17229014443E+04  0.17229014443E+04  0.50400001928E-02 0. -1.
        1   -1    0    0  501    0  0.00000000000E+00  0.00000000000E+00 -0.18201365757E+04  0.18201365757E+04  0.50400001928E-02 0.  1.
    10030    2    1    2    0    0  0.00000000000E+00  0.00000000000E+00 -0.97235131435E+02  0.35430380200E+04  0.35417035083E+04 0.  0.
        2    1    3    3  502    0 -0.14472866196E+04 -0.90185918490E+03  0.42897973820E+03  0.17584118301E+04  0.25500000920E-02 0. -1.
       -2    1    3    3    0  502  0.14472866196E+04  0.90185918490E+03 -0.52621486964E+03  0.17846261899E+04  0.25500000920E-02 0.  1.
</event>
<event>
 5   0  0.3219205E-07  0.3264393E+04  0.7818609E-02  0.8172015E-01
       -2   -1    0    0    0  501  0.00000000000E+00  0.00000000000E+00  0.93671627179E+03  0.93671627179E+03  0.25500000920E-02 0.  1.
        2   -1    0    0  501    0  0.00000000000E+00  0.00000000000E+00 -0.28440476464E+04  0.28440476464E+04  0.25500000920E-02 0. -1.
    10030    2    1    2    0    0  0.00000000000E+00  0.00000000000E+00 -0.19073313746E+04  0.37807639182E+04  0.32643931798E+04 0.  0.
        2    1    3    3  502    0 -0.12819919216E+04  0.93105874818E+03 -0.14077147348E+04  0.21194420149E+04  0.25500000920E-02 0. -1.
       -2    1    3    3    0  502  0.12819919216E+04 -0.93105874818E+03 -0.49961663978E+03  0.16613219033E+04  0.25500000920E-02 0.  1.
</event>
<event>
 5   0  0.1033796E-07  0.3515979E+04  0.7818609E-02  0.8110014E-01
        1   -1    0    0  501    0  0.00000000000E+00  0.00000000000E+00  0.15661950259E+04  0.15661950259E+04  0.50400001928E-02 0. -1.
       -1   -1    0    0    0  501  0.00000000000E+00  0.00000000000E+00 -0.19732704046E+04  0.19732704046E+04  0.50400001928E-02 0.  1.
    10030    2    1    2    0    0  0.00000000000E+00  0.00000000000E+00 -0.40707537864E+03  0.35394654305E+04  0.35159785508E+04 0.  0.
        3    1    3    3  502    0 -0.17147335799E+04  0.28416203706E+03 -0.46886419186E+03  0.18002480257E+04  0.10100000352E+00 0.  1.
       -3    1    3    3    0  502  0.17147335799E+04 -0.28416203706E+03  0.61788813219E+02  0.17392174048E+04  0.10100000352E+00 0. -1.
</event>
<event>
 5   0  0.1013863E-07  0.3506012E+04  0.7818609E-02  0.8112367E-01
        1   -1    0    0  501    0  0.00000000000E+00  0.00000000000E+00  0.16836910212E+04  0.16836910213E+04  0.50400001928E-02 0. -1.
       -1   -1    0    0    0  501  0.00000000000E+00  0.00000000000E+00 -0.18251748594E+04  0.18251748594E+04  0.50400001928E-02 0.  1.
    10030    2    1    2    0    0  0.00000000000E+00  0.00000000000E+00 -0.14148383819E+03  0.35088658807E+04  0.35060122778E+04 0.  0.
        2    1    3    3  502    0 -0.14112369114E+04  0.22903670413E+03 -0.10859555844E+04  0.17953681972E+04  0.25500000920E-02 0.  1.
       -2    1    3    3    0  502  0.14112369114E+04 -0.22903670413E+03  0.94447174623E+03  0.17134976835E+04  0.25500000920E-02 0. -1.
</event>
<event>
 5   0  0.1013863E-07  0.3491896E+04  0.7818609E-02  0.8115713E-01
       -1   -1    0    0    0  501  0.00000000000E+00  0.00000000000E+00  0.17936638730E+04  0.17936638730E+04  0.50400001928E-02 0.  1.
        1   -1    0    0  501    0  0.00000000000E+00  0.00000000000E+00 -0.16995011575E+04  0.16995011575E+04  0.50400001928E-02 0. -1.
    10030    2    1    2    0    0  0.00000000000E+00  0.00000000000E+00  0.94162715476E+02  0.34931650305E+04  0.34918956618E+04 0.  0.
        2    1    3    3  502    0  0.54097829639E+03  0.11995368789E+02  0.17076644362E+04  0.17913456486E+04  0.25500000920E-02 0.  1.
       -2    1    3    3    0  502 -0.54097829639E+03 -0.11995368789E+02 -0.16135017207E+04  0.17018193819E+04  0.25500000920E-02 0. -1.
</event>
<event>
 5   0  0.1013863E-07  0.3492181E+04  0.7818609E-02  0.8115645E-01
        1   -1    0    0  501    0  0.00000000000E+00  0.00000000000E+00  0.22431555866E+04  0.22431555866E+04  0.50400001928E-02 0.  1.
       -1   -1    0    0    0  501  0.00000000000E+00  0.00000000000E+00 -0.13591709989E+04  0.13591709989E+04  0.50400001928E-02 0. -1.
    10030    2    1    2    0    0  0.00000000000E+00  0.00000000000E+00  0.88398458777E+03  0.36023265855E+04  0.34921809915E+04 0.  0.
        5    1    3    3  502    0  0.16237489500E+04 -0.61622948812E+03  0.62798594876E+03  0.18468047748E+04  0.46999998093E+01 0.  1.
       -5    1    3    3    0  502 -0.16237489500E+04  0.61622948812E+03  0.25599863901E+03  0.17555218107E+04  0.46999998093E+01 0. -1.
</event>
<event>
 5   0  0.3190185E-07  0.3502005E+04  0.7818609E-02  0.8113315E-01
        2   -1    0    0  501    0  0.00000000000E+00  0.00000000000E+00  0.25338258513E+04  0.25338258513E+04  0.25500000920E-02 0. -1.
       -2   -1    0    0    0  501  0.00000000000E+00  0.00000000000E+00 -0.12100314159E+04  0.12100314159E+04  0.25500000920E-02 0.  1.
    10030    2    1    2    0    0  0.00000000000E+00  0.00000000000E+00  0.13237944354E+04  0.37438572672E+04  0.35020045017E+04 0.  0.
        1    1    3    3  502    0 -0.12871754786E+04 -0.67644103531E+03 -0.38098048306E+03  0.15031764086E+04  0.50400001928E-02 0.  1.
       -1    1    3    3    0  502  0.12871754786E+04  0.67644103531E+03  0.17047749185E+04  0.22406808585E+04  0.50400001928E-02 0. -1.
</event>
<event>
 5   0  0.2180451E-07  0.3495002E+04  0.7818609E-02  0.8114975E-01
        2   -1    0    0  501    0  0.00000000000E+00  0.00000000000E+00  0.18114170071E+04  0.18114170071E+04  0.25500000920E-02 0.  1.
       -2   -1    0    0    0  501  0.00000000000E+00  0.00000000000E+00 -0.16858402101E+04  0.16858402101E+04  0.25500000920E-02 0. -1.
    10030    2    1    2    0    0  0.00000000000E+00  0.00000000000E+00  0.12557679703E+03  0.34972572172E+04  0.34950019330E+04 0.  0.
        4    1    3    3  502    0 -0.10241330661E+04 -0.13885334762E+04  0.34024744093E+03  0.17585913925E+04  0.12699999809E+01 0. -1.
       -4    1    3    3    0  502  0.10241330661E+04  0.13885334762E+04 -0.21467064390E+03  0.17386658247E+04  0.12699999809E+01 0.  1.
</event>
<event>
 5   0  0.3119048E-07  0.3492194E+04  0.7818609E-02  0.8115642E-01
       -2   -1    0    0    0  501  0.00000000000E+00  0.00000000000E+00  0.12148739768E+04  0.12148739768E+04  0.25500000920E-02 0.  1.
        2   -1    0    0  501    0  0.00000000000E+00  0.00000000000E+00 -0.25096058782E+04  0.25096058782E+04  0.25500000920E-02 0. -1.
    10030    2    1    2    0    0  0.00000000000E+00  0.00000000000E+00 -0.12947319014E+04  0.37244798550E+04  0.34921940802E+04 0.  0.
        3    1    3    3  502    0 -0.81511509563E+03 -0.13990040562E+03 -0.22874681269E+04  0.24323846703E+04  0.10100000352E+00 0. -1.
       -3    1    3    3    0  502  0.81511509563E+03  0.13990040562E+03  0.99273622548E+03  0.12920951847E+04  0.10100000352E+00 0.  1.
</event>
<event>
 5   0  0.3190112E-07  0.3431149E+04  0.7818609E-02  0.8130303E-01
       -2   -1    0    0    0  501  0.00000000000E+00  0.00000000000E+00  0.12226879753E+04  0.12226879753E+04  0.25500000920E-02 0. -1.
        2   -1    0    0  501    0  0.00000000000E+00  0.00000000000E+00 -0.24071525036E+04  0.24071525036E+04  0.25500000920E-02 0.  1.
    10030    2    1    2    0    0  0.00000000000E+00  0.00000000000E+00 -0.11844645282E+04  0.36298404789E+04  0.34311493240E+04 0.  0.
        5    1    3    3  502    0 -0.60255073855E+03 -0.43375992611E+03  0.10439241157E+04  0.12810209660E+04  0.46999998093E+01 0. -1.
       -5    1    3    3    0  502  0.60255073855E+03  0.43375992611E+03 -0.22283886439E+04  0.23488195129E+04  0.46999998093E+01 0.  1.
</event>
<event>
 5   0  0.3190112E-07  0.3538469E+04  0.7818609E-02  0.8104733E-01
       -2   -1    0    0    0  501  0.00000000000E+00  0.00000000000E+00  0.26701707868E+04  0.26701707868E+04  0.25500000920E-02 0. -1.
        2   -1    0    0  501    0  0.00000000000E+00  0.00000000000E+00 -0.11722807680E+04  0.11722807680E+04  0.25500000920E-02 0.  1.
    10030    2    1    2    0    0  0.00000000000E+00  0.00000000000E+00  0.14978900188E+04  0.38424515548E+04  0.35384685166E+04 0.  0.
        5    1    3    3  502    0  0.16898339347E+04 -0.34769288234E+03  0.32316558386E+03  0.17552456102E+04  0.46999998093E+01 0.  1.
       -5    1    3    3    0  502 -0.16898339347E+04  0.34769288234E+03  0.11747244349E+04  0.20872059447E+04  0.46999998093E+01 0. -1.
</event>
<event>
 5   0  0.1013863E-07  0.3501429E+04  0.7818609E-02  0.8113451E-01
       -1   -1    0    0    0  501  0.00000000000E+00  0.00000000000E+00  0.15056280876E+04  0.15056280876E+04  0.50400001928E-02 0. -1.
        1   -1    0    0  501    0  0.00000000000E+00  0.00000000000E+00 -0.20356959617E+04  0.20356959617E+04  0.50400001928E-02 0.  1.
    10030    2    1    2    0    0  0.00000000000E+00  0.00000000000E+00 -0.53006787402E+03  0.35413240493E+04  0.35014288614E+04 0.  0.
        5    1    3    3  502    0  0.63816949142E+03  0.14000261222E+04  0.57973464887E+03  0.16442164687E+04  0.46999998093E+01 0.  1.
       -5    1    3    3    0  502 -0.63816949142E+03 -0.14000261222E+04 -0.11098025229E+04  0.18971075806E+04  0.46999998093E+01 0. -1.
</event>
<event>
 5   0  0.1013863E-07  0.3508631E+04  0.7818609E-02  0.8111748E-01
        1   -1    0    0  501    0  0.00000000000E+00  0.00000000000E+00  0.20292519151E+04  0.20292519151E+04  0.50400001928E-02 0.  1.
       -1   -1    0    0    0  501  0.00000000000E+00  0.00000000000E+00 -0.15166294737E+04  0.15166294737E+04  0.50400001928E-02 0. -1.
    10030    2    1    2    0    0  0.00000000000E+00  0.00000000000E+00  0.51262244144E+03  0.35458813888E+04  0.35086312225E+04 0.  0.
        5    1    3    3  502    0  0.49046799809E+03 -0.68872179604E+03 -0.12971170131E+04  0.15483640415E+04  0.46999998093E+01 0. -1.
       -5    1    3    3    0  502 -0.49046799809E+03  0.68872179604E+03  0.18097394545E+04  0.19975173473E+04  0.46999998093E+01 0.  1.
</event>
<event>
 5   0  0.1098171E-07  0.3485872E+04  0.7818609E-02  0.8117146E-01
        1   -1    0    0  501    0  0.00000000000E+00  0.00000000000E+00  0.17885667691E+04  0.17885667691E+04  0.50400001928E-02 0. -1.
       -1   -1    0    0    0  501  0.00000000000E+00  0.00000000000E+00 -0.16984690968E+04  0.16984690968E+04  0.50400001928E-02 0.  1.
    10030    2    1    2    0    0  0.00000000000E+00  0.00000000000E+00  0.90097672291E+02  0.34870358659E+04  0.34858717044E+04 0.  0.
        4    1    3    3  502    0 -0.17995796529E+03  0.33073934019E+03 -0.16572980960E+04  0.16995328688E+04  0.12699999809E+01 0.  1.
       -4    1    3    3    0  502  0.17995796529E+03 -0.33073934019E+03  0.17473957683E+04  0.17875029970E+04  0.12699999809E+01 0. -1.
</event>
<event>
 5   0  0.1072381E-07  0.3503297E+04  0.7818609E-02  0.8113009E-01
        1   -1    0    0  501    0  0.00000000000E+00  0.00000000000E+00  0.23619615143E+04  0.23619615143E+04  0.50400001928E-02 0. -1.
       -1   -1    0    0    0  501  0.00000000000E+00  0.00000000000E+00 -0.12990356145E+04  0.12990356145E+04  0.50400001928E-02 0.  1.
    10030    2    1    2    0    0  0.00000000000E+00  0.00000000000E+00  0.10629258998E+04  0.36609971288E+04  0.35032968057E+04 0.  0.
        1    1    3    3  502    0  0.44091528049E+03  0.14671587743E+04 -0.35606844577E+03  0.15728146400E+04  0.50400001928E-02 0.  1.
       -1    1    3    3    0  502 -0.44091528049E+03 -0.14671587743E+04  0.14189943456E+04  0.20881824888E+04  0.50400001928E-02 0. -1.
</event>
<event>
 5   0  0.2180451E-07  0.3495264E+04  0.7818609E-02  0.8114913E-01
        2   -1    0    0  501    0  0.00000000000E+00  0.00000000000E+00  0.17604714168E+04  0.17604714168E+04  0.25500000920E-02 0. -1.
       -2   -1    0    0    0  501  0.00000000000E+00  0.00000000000E+00 -0.17348857341E+04  0.17348857341E+04  0.25500000920E-02 0.  1.
    10030    2    1    2    0    0  0.00000000000E+00  0.00000000000E+00  0.25585682759E+02  0.34953571509E+04  0.34952635073E+04 0.  0.
        4    1    3    3  502    0 -0.14431547432E+04 -0.91496214493E+03  0.37935933417E+03  0.17503618074E+04  0.12699999809E+01 0. -1.
       -4    1    3    3    0  502  0.14431547432E+04  0.91496214493E+03 -0.35377365142E+03  0.17449953435E+04  0.12699999809E+01 0.  1.
</event>
<event>
 5   0  0.3119048E-07  0.3492879E+04  0.7818609E-02  0.8115480E-01
       -2   -1    0    0    0  501  0.00000000000E+00  0.00000000000E+00  0.14692920526E+04  0.14692920526E+04  0.25500000920E-02 0.  1.
        2   -1    0    0  501    0  0.00000000000E+00  0.00000000000E+00 -0.20758647985E+04  0.20758647985E+04  0.25500000920E-02 0. -1.
    10030    2    1    2    0    0  0.00000000000E+00  0.00000000000E+00 -0.60657274597E+03  0.35451568511E+04  0.34928794143E+04 0.  0.
        3    1    3    3  502    0 -0.65988131483E+03 -0.84140812869E+03  0.10981916324E+04  0.15327869585E+04  0.10100000352E+00 0.  1.
       -3    1    3    3    0  502  0.65988131483E+03  0.84140812869E+03 -0.17047643783E+04  0.20123698926E+04  0.10100000352E+00 0. -1.
</event>
<event>
 5   0  0.1013863E-07  0.3515495E+04  0.7818609E-02  0.8110128E-01
        1   -1    0    0  501    0  0.00000000000E+00  0.00000000000E+00  0.18949971057E+04  0.18949971057E+04  0.50400001928E-02 0.  1.
       -1   -1    0    0    0  501  0.00000000000E+00  0.00000000000E+00 -0.16304385857E+04  0.16304385857E+04  0.50400001928E-02 0. -1.
    10030    2    1    2    0    0  0.00000000000E+00  0.00000000000E+00  0.26455852006E+03  0.35254356914E+04  0.35154950723E+04 0.  0.
        5    1    3    3  502    0  0.94552048235E+03 -0.13864546213E+04  0.65662380170E+03  0.18020661215E+04  0.46999998093E+01 0.  1.
       -5    1    3    3    0  502 -0.94552048235E+03  0.13864546213E+04 -0.39206528164E+03  0.17233695699E+04  0.46999998093E+01 0. -1.
</event>
<event>
 5   0  0.2180451E-07  0.3501335E+04  0.7818609E-02  0.8113474E-01
       -2   -1    0    0    0  501  0.00000000000E+00  0.00000000000E+00  0.11734358603E+04  0.11734358603E+04  0.25500000920E-02 0. -1.
        2   -1    0    0  501    0  0.00000000000E+00  0.00000000000E+00 -0.26118491804E+04  0.26118491804E+04  0.25500000920E-02 0.  1.
    10030    2    1    2    0    0  0.00000000000E+00  0.00000000000E+00 -0.14384133201E+04  0.37852850407E+04  0.35013354538E+04 0.  0.
        4    1    3    3  502    0 -0.63278961287E+03  0.15941870973E+04 -0.10983324384E+04  0.20367108174E+04  0.12699999809E+01 0.  1.
       -4    1    3    3    0  502  0.63278961287E+03 -0.15941870973E+04 -0.34008088165E+03  0.17485742233E+04  0.12699999809E+01 0. -1.
</event>
<event>
 5   0  0.3219205E-07  0.3564574E+04  0.7818609E-02  0.8098655E-01
       -2   -1    0    0    0  501  0.00000000000E+00  0.00000000000E+00  0.11949663764E+04  0.11949663764E+04  0.25500000920E-02 0. -1.
        2   -1    0    0  501    0  0.00000000000E+00  0.00000000000E+00 -0.26582735040E+04  0.26582735040E+04  0.25500000920E-02 0.  1.
    10030    2    1    2    0    0  0.00000000000E+00  0.00000000000E+00 -0.14633071276E+04  0.38532398805E+04  0.35645742841E+04 0.  0.
        2    1    3    3  502    0  0.78346511240E+03  0.15013124499E+04 -0.13096335269E+03  0.16985017087E+04  0.25500000920E-02 0.  1.
       -2    1    3    3    0  502 -0.78346511240E+03 -0.15013124499E+04 -0.13323437749E+04  0.21547381718E+04  0.25500000920E-02 0. -1.
</event>
<event>
 5   0  0.3219205E-07  0.3479936E+04  0.7818609E-02  0.8118561E-01
        2   -1    0    0  501    0  0.00000000000E+00  0.00000000000E+00  0.13307459329E+04  0.13307459329E+04  0.25500000920E-02 0.  1.
       -2   -1    0    0    0  501  0.00000000000E+00  0.00000000000E+00 -0.22750319243E+04  0.22750319243E+04  0.25500000920E-02 0. -1.
    10030    2    1    2    0    0  0.00000000000E+00  0.00000000000E+00 -0.94428599140E+03  0.36057778571E+04  0.34799364824E+04 0.  0.
        2    1    3    3  502    0 -0.10216179972E+04  0.52054640839E+03  0.88393043472E+03  0.14477585810E+04  0.25500000920E-02 0.  1.
       -2    1    3    3    0  502  0.10216179972E+04 -0.52054640839E+03 -0.18282164261E+04  0.21580192761E+04  0.25500000920E-02 0. -1.
</event>
<event>
 5   0  0.1098171E-07  0.3502614E+04  0.7818609E-02  0.8113171E-01
       -1   -1    0    0    0  501  0.00000000000E+00  0.00000000000E+00  0.19763657375E+04  0.19763657375E+04  0.50400001928E-02 0. -1.
        1   -1    0    0  501    0  0.00000000000E+00  0.00000000000E+00 -0.15518767789E+04  0.15518767790E+04  0.50400001928E-02 0.  1.
    10030    2    1    2    0    0  0.00000000000E+00  0.00000000000E+00  0.42448895856E+03  0.35282425165E+04  0.35026139352E+04 0.  0.
        4    1    3    3  502    0  0.15295291306E+03  0.86932821970E+02  0.19674412379E+04  0.19752920155E+04  0.12699999809E+01 0. -1.
       -4    1    3    3    0  502 -0.15295291306E+03 -0.86932821970E+02 -0.15429522793E+04  0.15529505009E+04  0.12699999809E+01 0.  1.
</event>
<event>
 5   0  0.1072381E-07  0.3514914E+04  0.7818609E-02  0.8110265E-01
        1   -1    0    0  501    0  0.00000000000E+00  0.00000000000E+00  0.15424748516E+04  0.15424748516E+04  0.50400001928E-02 0. -1.
       -1   -1    0    0    0  501  0.00000000000E+00  0.00000000000E+00 -0.20024019818E+04  0.20024019818E+04  0.50400001928E-02 0.  1.
    10030    2    1    2    0    0  0.00000000000E+00  0.00000000000E+00 -0.45992713015E+03  0.35448768334E+04  0.35149137683E+04 0.  0.
        1    1    3    3  502    0  0.22596376335E+03  0.17427908495E+04 -0.24669206805E+03  0.17746088426E+04  0.50400001928E-02 0.  1.
       -1    1    3    3    0  502 -0.22596376335E+03 -0.17427908495E+04 -0.21323506210E+03  0.17702679908E+04  0.50400001928E-02 0. -1.
</event>
<event>
 5   0  0.3190112E-07  0.3490013E+04  0.7818609E-02  0.8116161E-01
        2   -1    0    0  501    0  0.00000000000E+00  0.00000000000E+00  0.16421705059E+04  0.16421705059E+04  0.25500000920E-02 0. -1.
       -2   -1    0    0    0  501  0.00000000000E+00  0.00000000000E+00 -0.18542821347E+04  0.18542821347E+04  0.25500000920E-02 0.  1.
    10030    2    1    2    0    0  0.00000000000E+00  0.00000000000E+00 -0.21211162886E+03  0.34964526406E+04  0.34900128545E+04 0.  0.
        5    1    3    3  502    0 -0.13097212135E+04  0.11198741988E+04 -0.38140374776E+03  0.17649302499E+04  0.46999998093E+01 0.  1.
       -5    1    3    3    0  502  0.13097212135E+04 -0.11198741988E+04  0.16929211891E+03  0.17315223907E+04  0.46999998093E+01 0. -1.
</event>
<event>
 5   0  0.1013863E-07  0.3477625E+04  0.7818609E-02  0.8119113E-01
        1   -1    0    0  501    0  0.00000000000E+00  0.00000000000E+00  0.29302097371E+04  0.29302097371E+04  0.50400001928E-02 0.  1.
       -1   -1    0    0    0  501  0.00000000000E+00  0.00000000000E+00 -0.10318266234E+04  0.10318266234E+04  0.50400001928E-02 0. -1.
    10030    2    1    2    0    0  0.00000000000E+00  0.00000000000E+00  0.18983831137E+04  0.39620363605E+04  0.34776247174E+04 0.  0.
        5    1    3    3  502    0  0.20936039183E+02  0.17376589694E+04  0.10170662907E+04  0.20135399031E+04  0.46999998093E+01 0.  1.
       -5    1    3    3    0  502 -0.20936039183E+02 -0.17376589694E+04  0.88131682301E+03  0.19484964574E+04  0.46999998093E+01 0. -1.
</event>
<event>
 5   0  0.3219205E-07  0.3509368E+04  0.7818609E-02  0.8111573E-01
       -2   -1    0    0    0  501  0.00000000000E+00  0.00000000000E+00  0.10889177234E+04  0.10889177234E+04  0.25500000920E-02 0. -1.
        2   -1    0    0  501    0  0.00000000000E+00  0.00000000000E+00 -0.28275013853E+04  0.28275013853E+04  0.25500000920E-02 0.  1.
    10030    2    1    2    0    0  0.00000000000E+00  0.00000000000E+00 -0.17385836618E+04  0.39164191087E+04  0.35093682460E+04 0.  0.
        2    1    3    3  502    0  0.51760327341E+03  0.16760854482E+04 -0.82272959689E+03  0.19375395655E+04  0.25500000920E-02 0.  1.
       -2    1    3    3    0  502 -0.51760327341E+03 -0.16760854482E+04 -0.91585406494E+03  0.19788795432E+04  0.25500000920E-02 0. -1.
</event>
<event>
 5   0  0.2180451E-07  0.3479084E+04  0.7818609E-02  0.8118765E-01
        2   -1    0    0  501    0  0.00000000000E+00  0.00000000000E+00  0.18575835792E+04  0.18575835792E+04  0.25500000920E-02 0.  1.
       -2   -1    0    0    0  501  0.00000000000E+00  0.00000000000E+00 -0.16290016911E+04  0.16290016911E+04  0.25500000920E-02 0. -1.
    10030    2    1    2    0    0  0.00000000000E+00  0.00000000000E+00  0.22858188813E+03  0.34865852703E+04  0.34790842426E+04 0.  0.
        4    1    3    3  502    0 -0.46526054455E+03  0.11220314204E+04  0.13621998863E+04  0.18251060314E+04  0.12699999809E+01 0.  1.
       -4    1    3    3    0  502  0.46526054455E+03 -0.11220314204E+04 -0.11336179981E+04  0.16614792389E+04  0.12699999809E+01 0. -1.
</event>
<event>
 5   0  0.1098171E-07  0.3485657E+04  0.7818609E-02  0.8117197E-01
        1   -1    0    0  501    0  0.00000000000E+00  0.00000000000E+00  0.22662599514E+04  0.22662599514E+04  0.50400001928E-02 0.  1.
       -1   -1    0    0    0  501  0.00000000000E+00  0.00000000000E+00 -0.13402926324E+04  0.13402926324E+04  0.50400001928E-02 0. -1.
    10030    2    1    2    0    0  0.00000000000E+00  0.00000000000E+00  0.92596731904E+03  0.36065525838E+04  0.34856571925E+04 0.  0.
        4    1    3    3  502    0  0.28079997277E+03 -0.65048664540E+03  0.21105264274E+04  0.22262760193E+04  0.12699999809E+01 0.  1.
       -4    1    3    3    0  502 -0.28079997277E+03  0.65048664540E+03 -0.11845591083E+04  0.13802765645E+04  0.12699999809E+01 0. -1.
</event>
<event>
 5   0  0.3190112E-07  0.3478226E+04  0.7818609E-02  0.8118970E-01
        2   -1    0    0  501    0  0.00000000000E+00  0.00000000000E+00  0.21300036577E+04  0.21300036577E+04  0.25500000920E-02 0.  1.
       -2   -1    0    0    0  501  0.00000000000E+00  0.00000000000E+00 -0.14199571742E+04  0.14199571742E+04  0.25500000920E-02 0. -1.
    10030    2    1    2    0    0  0.00000000000E+00  0.00000000000E+00  0.71004648349E+03  0.35499608319E+04  0.34782259701E+04 0.  0.
        5    1    3    3  502    0  0.15892664972E+04 -0.33629338227E+03  0.98882222506E+03  0.19017499102E+04  0.46999998093E+01 0.  1.
       -5    1    3    3    0  502 -0.15892664972E+04  0.33629338227E+03 -0.27877574156E+03  0.16482109217E+04  0.46999998093E+01 0. -1.
</event>
<event>
 5   0  0.3119048E-07  0.3494856E+04  0.7818609E-02  0.8115010E-01
       -2   -1    0    0    0  501  0.00000000000E+00  0.00000000000E+00  0.30978509341E+04  0.30978509341E+04  0.25500000920E-02 0. -1.
        2   -1    0    0  501    0  0.00000000000E+00  0.00000000000E+00 -0.98568464044E+03  0.98568464044E+03  0.25500000920E-02 0.  1.
    10030    2    1    2    0    0  0.00000000000E+00  0.00000000000E+00  0.21121662936E+04  0.40835355745E+04  0.34948556961E+04 0.  0.
        3    1    3    3  502    0 -0.13101631862E+04 -0.18581697038E+03 -0.27739954753E+03  0.13520377362E+04  0.10100000352E+00 0.  1.
       -3    1    3    3    0  502  0.13101631862E+04  0.18581697038E+03  0.23895658412E+04  0.27314978383E+04  0.10100000352E+00 0. -1.
</event>
<event>
 5   0  0.2180451E-07  0.3499406E+04  0.7818609E-02  0.8113931E-01
        2   -1    0    0  501    0  0.00000000000E+00  0.00000000000E+00  0.24324246968E+04  0.24324246968E+04  0.25500000920E-02 0. -1.
       -2   -1    0    0    0  501  0.00000000000E+00  0.00000000000E+00 -0.12586045269E+04  0.12586045269E+04  0.25500000920E-02 0.  1.
    10030    2    1    2    0    0  0.00000000000E+00  0.00000000000E+00  0.11738201699E+04  0.36910292236E+04  0.34994060837E+04 0.  0.
        4    1    3    3  502    0  0.59477863047E+02  0.92126397921E+03 -0.98081564819E+03  0.13469468751E+04  0.12699999809E+01 0.  1.
       -4    1    3    3    0  502 -0.59477863047E+02 -0.92126397921E+03  0.21546358181E+04  0.23440823486E+04  0.12699999809E+01 0. -1.
</event>
<event>
 5   0  0.1013863E-07  0.3498313E+04  0.7818609E-02  0.8114190E-01
        1   -1    0    0  501    0  0.00000000000E+00  0.00000000000E+00  0.25682144419E+04  0.25682144419E+04  0.50400001928E-02 0. -1.
       -1   -1    0    0    0  501  0.00000000000E+00  0.00000000000E+00 -0.11913136206E+04  0.11913136206E+04  0.50400001928E-02 0.  1.
    10030    2    1    2    0    0  0.00000000000E+00  0.00000000000E+00  0.13769008214E+04  0.37595280625E+04  0.34983132194E+04 0.  0.
        2    1    3    3  502    0  0.15096484150E+03 -0.22535219500E+03 -0.11685744270E+04  0.11996416909E+04  0.25500000920E-02 0.  1.
       -2    1    3    3    0  502 -0.15096484150E+03  0.22535219500E+03  0.25454752484E+04  0.25598863716E+04  0.25500000920E-02 0. -1.
</event>
<event>
 5   0  0.3119048E-07  0.3511738E+04  0.7818609E-02  0.8111014E-01
        2   -1    0    0  501    0  0.00000000000E+00  0.00000000000E+00  0.14259504196E+04  0.14259504196E+04  0.25500000920E-02 0. -1.
       -2   -1    0    0    0  501  0.00000000000E+00  0.00000000000E+00 -0.21621195449E+04  0.21621195449E+04  0.25500000920E-02 0.  1.
    10030    2    1    2    0    0  0.00000000000E+00  0.00000000000E+00 -0.73616912531E+03  0.35880699645E+04  0.35117376168E+04 0.  0.
        3    1    3    3  502    0 -0.12382127247E+04  0.93640268701E+03 -0.12063160395E+04  0.19660160582E+04  0.10100000352E+00 0.  1.
       -3    1    3    3    0  502  0.12382127247E+04 -0.93640268701E+03  0.47014691421E+03  0.16220539063E+04  0.10100000352E+00 0. -1.
</event>
<event>
 5   0  0.1033796E-07  0.3502227E+04  0.7818609E-02  0.8113262E-01
       -1   -1    0    0    0  501  0.00000000000E+00  0.00000000000E+00  0.16157552718E+04  0.16157552718E+04  0.50400001928E-02 0. -1.
        1   -1    0    0  501    0  0.00000000000E+00  0.00000000000E+00 -0.18978111067E+04  0.18978111067E+04  0.50400001928E-02 0.  1.
    10030    2    1    2    0    0  0.00000000000E+00  0.00000000000E+00 -0.28205583487E+03  0.35135663785E+04  0.35022268919E+04 0.  0.
        3    1    3    3  502    0  0.14436663341E+04  0.56033626157E+03 -0.96113973324E+03  0.18226186675E+04  0.10100000352E+00 0. -1.
       -3    1    3    3    0  502 -0.14436663341E+04 -0.56033626157E+03  0.67908389836E+03  0.16909477110E+04  0.10100000352E+00 0.  1.
</event>
<event>
 5   0  0.2180451E-07  0.3552043E+04  0.7818609E-02  0.8101566E-01
       -2   -1    0    0    0  501  0.00000000000E+00  0.00000000000E+00  0.18426164634E+04  0.18426164634E+04  0.25500000920E-02 0.  1.
        2   -1    0    0  501    0  0.00000000000E+00  0.00000000000E+00 -0.17118330068E+04  0.17118330068E+04  0.25500000920E-02 0. -1.
    10030    2    1    2    0    0  0.00000000000E+00  0.00000000000E+00  0.13078345663E+03  0.35544494703E+04  0.35520426129E+04 0.  0.
        4    1    3    3  502    0 -0.51522819508E+03 -0.14452437751E+04 -0.82967531482E+03  0.17442913757E+04  0.12699999809E+01 0.  1.
       -4    1    3    3    0  502  0.51522819508E+03  0.14452437751E+04  0.96045877145E+03  0.18101580945E+04  0.12699999809E+01 0. -1.
</event>
<event>
 5   0  0.1072381E-07  0.3511172E+04  0.7818609E-02  0.8111147E-01
        1   -1    0    0  501    0  0.00000000000E+00  0.00000000000E+00  0.28602077973E+04  0.28602077973E+04  0.50400001928E-02 0. -1.
       -1   -1    0    0    0  501  0.00000000000E+00  0.00000000000E+00 -0.10775730017E+04  0.10775730017E+04  0.50400001928E-02 0.  1.
    10030    2    1    2    0    0  0.00000000000E+00  0.00000000000E+00  0.17826347956E+04  0.39377807990E+04  0.35111722838E+04 0.  0.
        1    1    3    3  502    0 -0.41252638239E+02 -0.14920995418E+04 -0.14509687986E+03  0.14997052802E+04  0.50400001928E-02 0.  1.
       -1    1    3    3    0  502  0.41252638239E+02  0.14920995418E+04  0.19277316754E+04  0.24380755188E+04  0.50400001928E-02 0. -1.
</event>
<event>
 5   0  0.3190112E-07  0.3518078E+04  0.7818609E-02  0.8109519E-01
        2   -1    0    0  501    0  0.00000000000E+00  0.00000000000E+00  0.18094079758E+04  0.18094079758E+04  0.25500000920E-02 0. -1.
       -2   -1    0    0    0  501  0.00000000000E+00  0.00000000000E+00 -0.17100723609E+04  0.17100723609E+04  0.25500000920E-02 0.  1.
    10030    2    1    2    0    0  0.00000000000E+00  0.00000000000E+00  0.99335614958E+02  0.35194803367E+04  0.35180782078E+04 0.  0.
        5    1    3    3  502    0 -0.81638072566E+03 -0.77493726407E+02  0.16064736538E+04  0.18036802536E+04  0.46999998093E+01 0. -1.
       -5    1    3    3    0  502  0.81638072566E+03  0.77493726407E+02 -0.15071380389E+04  0.17158000831E+04  0.46999998093E+01 0.  1.
</event>
<event>
 5   0  0.1013863E-07  0.3507187E+04  0.7818609E-02  0.8112089E-01
        1   -1    0    0  501    0  0.00000000000E+00  0.00000000000E+00  0.23222017707E+04  0.23222017707E+04  0.50400001928E-02 0.  1.
       -1   -1    0    0    0  501  0.00000000000E+00  0.00000000000E+00 -0.13242132623E+04  0.13242132623E+04  0.50400001928E-02 0. -1.
    10030    2    1    2    0    0  0.00000000000E+00  0.00000000000E+00  0.99798850844E+03  0.36464150330E+04  0.35071871250E+04 0.  0.
        5    1    3    3  502    0 -0.26380842009E+03 -0.16705155161E+04  0.17072896723E+02  0.16913103045E+04  0.46999998093E+01 0.  1.
       -5    1    3    3    0  502  0.26380842009E+03  0.16705155161E+04  0.98091561172E+03  0.19551047285E+04  0.46999998093E+01 0. -1.
</event>
<event>
 5   0  0.1013863E-07  0.3494043E+04  0.7818609E-02  0.8115203E-01
        1   -1    0    0  501    0  0.00000000000E+00  0.00000000000E+00  0.20599791888E+04  0.20599791888E+04  0.50400001928E-02 0. -1.
       -1   -1    0    0    0  501  0.00000000000E+00  0.00000000000E+00 -0.14816092785E+04  0.14816092785E+04  0.50400001928E-02 0.  1.
    10030    2    1    2    0    0  0.00000000000E+00  0.00000000000E+00  0.57836991031E+03  0.35415884674E+04  0.34940430906E+04 0.  0.
        5    1    3    3  502    0 -0.68834551896E+03  0.16001042572E+04  0.15353940991E+03  0.17486422241E+04  0.46999998093E+01 0.  1.
       -5    1    3    3    0  502  0.68834551896E+03 -0.16001042572E+04  0.42483050040E+03  0.17929462433E+04  0.46999998093E+01 0. -1.
</event>
<event>
 5   0  0.3190112E-07  0.3466352E+04  0.7818609E-02  0.8121811E-01
        2   -1    0    0  501    0  0.00000000000E+00  0.00000000000E+00  0.13188807556E+04  0.13188807556E+04  0.25500000920E-02 0.  1.
       -2   -1    0    0    0  501  0.00000000000E+00  0.00000000000E+00 -0.22776128192E+04  0.22776128192E+04  0.25500000920E-02 0. -1.
    10030    2    1    2    0    0  0.00000000000E+00  0.00000000000E+00 -0.95873206361E+03  0.35964935748E+04  0.34663523860E+04 0.  0.
        5    1    3    3  502    0  0.83580256748E+03  0.15160973442E+04 -0.56467548888E+03  0.18209880798E+04  0.46999998093E+01 0. -1.
       -5    1    3    3    0  502 -0.83580256748E+03 -0.15160973442E+04 -0.39405657473E+03  0.17755054951E+04  0.46999998093E+01 0.  1.
</event>
<event>
 5   0  0.1098171E-07  0.3499914E+04  0.7818609E-02  0.8113810E-01
        1   -1    0    0  501    0  0.00000000000E+00  0.00000000000E+00  0.26007473083E+04  0.26007473083E+04  0.50400001928E-02 0. -1.
       -1   -1    0    0    0  501  0.00000000000E+00  0.00000000000E+00 -0.11774882262E+04  0.11774882262E+04  0.50400001928E-02 0.  1.
    10030    2    1    2    0    0  0.00000000000E+00  0.00000000000E+00  0.14232590821E+04  0.37782355345E+04  0.34999139046E+04 0.  0.
        4    1    3    3  502    0  0.31523234393E+03  0.37475976373E+03  0.25252694298E+04  0.25723148363E+04  0.12699999809E+01 0. -1.
       -4    1    3    3    0  502 -0.31523234393E+03 -0.37475976373E+03 -0.11020103477E+04  0.12059206982E+04  0.12699999809E+01 0.  1.
</event>
<event>
 5   0  0.1098171E-07  0.3527566E+04  0.7818609E-02  0.8107288E-01
       -1   -1    0    0    0  501  0.00000000000E+00  0.00000000000E+00  0.19346581839E+04  0.19346581839E+04  0.50400001928E-02 0.  1.
        1   -1    0    0  501    0  0.00000000000E+00  0.00000000000E+00 -0.16080001668E+04  0.16080001668E+04  0.50400001928E-02 0. -1.
    10030    2    1    2    0    0  0.00000000000E+00  0.00000000000E+00  0.32665801706E+03  0.35426583507E+04  0.35275661199E+04 0.  0.
        4    1    3    3  502    0 -0.13240679814E+04 -0.71545194953E+03  0.10869930170E+04  0.18564974935E+04  0.12699999809E+01 0.  1.
       -4    1    3    3    0  502  0.13240679814E+04  0.71545194953E+03 -0.76033499990E+03  0.16861608572E+04  0.12699999809E+01 0. -1.
</event>
<event>
 5   0  0.1013863E-07  0.3495420E+04  0.7818609E-02  0.8114876E-01
       -1   -1    0    0    0  501  0.00000000000E+00  0.00000000000E+00  0.20645826904E+04  0.20645826904E+04  0.50400001928E-02 0. -1.
        1   -1    0    0  501    0  0.00000000000E+00  0.00000000000E+00 -0.14794713682E+04  0.14794713682E+04  0.50400001928E-02 0.  1.
    10030    2    1    2    0    0  0.00000000000E+00  0.00000000000E+00  0.58511132217E+03  0.35440540586E+04  0.34954204198E+04 0.  0.
        5    1    3    3  502    0  0.11783073984E+04  0.10930625071E+04 -0.40349056324E+03  0.16571121550E+04  0.46999998093E+01 0. -1.
       -5    1    3    3    0  502 -0.11783073984E+04 -0.10930625071E+04  0.98860188541E+03  0.18869419036E+04  0.46999998093E+01 0.  1.
</event>
<event>
 5   0  0.1013863E-07  0.3502184E+04  0.7818609E-02  0.8113273E-01
        1   -1    0    0  501    0  0.00000000000E+00  0.00000000000E+00  0.23757409855E+04  0.23757409855E+04  0.50400001928E-02 0. -1.
       -1   -1    0    0    0  501  0.00000000000E+00  0.00000000000E+00 -0.12906804203E+04  0.12906804204E+04  0.50400001928E-02 0.  1.
    10030    2    1    2    0    0  0.00000000000E+00  0.00000000000E+00  0.10850605651E+04  0.36664214059E+04  0.35021835325E+04 0.  0.
        2    1    3    3  502    0 -0.14665439542E+04  0.33082182630E+02 -0.45859820102E+03  0.15369313291E+04  0.25500000920E-02 0.  1.
       -2    1    3    3    0  502  0.14665439542E+04 -0.33082182630E+02  0.15436587662E+04  0.21294900767E+04  0.25500000920E-02 0. -1.
</event>
<event>
 5   0  0.1013863E-07  0.3488056E+04  0.7818609E-02  0.8116626E-01
       -1   -1    0    0    0  501  0.00000000000E+00  0.00000000000E+00  0.25398240321E+04  0.25398240321E+04  0.50400001928E-02 0.  1.
        1   -1    0    0  501    0  0.00000000000E+00  0.00000000000E+00 -0.11975764890E+04  0.11975764890E+04  0.50400001928E-02 0. -1.
    10030    2    1    2    0    0  0.00000000000E+00  0.00000000000E+00  0.13422475431E+04  0.37374005211E+04  0.34880559325E+04 0.  0.
        2    1    3    3  502    0 -0.26684104083E+03 -0.38191751818E+03  0.24719103727E+04  0.25154335655E+04  0.25500000920E-02 0.  1.
       -2    1    3    3    0  502  0.26684104083E+03  0.38191751818E+03 -0.11296628297E+04  0.12219669556E+04  0.25500000920E-02 0. -1.
</event>
<event>
 5   0  0.1098171E-07  0.3449732E+04  0.7818609E-02  0.8125807E-01
       -1   -1    0    0    0  501  0.00000000000E+00  0.00000000000E+00  0.15080231538E+04  0.15080231538E+04  0.50400001928E-02 0. -1.
        1   -1    0    0  501    0  0.00000000000E+00  0.00000000000E+00 -0.19728891343E+04  0.19728891343E+04  0.50400001928E-02 0.  1.
    10030    2    1    2    0    0  0.00000000000E+00  0.00000000000E+00 -0.46486598050E+03  0.34809122881E+04  0.34497318704E+04 0.  0.
        4    1    3    3  502    0 -0.77623688589E+03  0.10188735476E+04 -0.13980859895E+04  0.18961258018E+04  0.12699999809E+01 0.  1.
       -4    1    3    3    0  502  0.77623688589E+03 -0.10188735476E+04  0.93322000904E+03  0.15847864863E+04  0.12699999809E+01 0. -1.
</event>
<event>
 5   0  0.1072381E-07  0.3517213E+04  0.7818609E-02  0.8109723E-01
        1   -1    0    0  501    0  0.00000000000E+00  0.00000000000E+00  0.21292065582E+04  0.21292065582E+04  0.50400001928E-02 0. -1.
       -1   -1    0    0    0  501  0.00000000000E+00  0.00000000000E+00 -0.14525114997E+04  0.14525114997E+04  0.50400001928E-02 0.  1.
    10030    2    1    2    0    0  0.00000000000E+00  0.00000000000E+00  0.67669505852E+03  0.35817180579E+04  0.35172131076E+04 0.  0.
        1    1    3    3  502    0 -0.77984171359E+03  0.13044819264E+04  0.12393744470E+04  0.19610903126E+04  0.50400001928E-02 0. -1.
       -1    1    3    3    0  502  0.77984171359E+03 -0.13044819264E+04 -0.56267938844E+03  0.16206277453E+04  0.50400001928E-02 0.  1.
</event>
<event>
 5   0  0.3219205E-07  0.3488916E+04  0.7818609E-02  0.8116422E-01
       -2   -1    0    0    0  501  0.00000000000E+00  0.00000000000E+00  0.20213476745E+04  0.20213476745E+04  0.25500000920E-02 0.  1.
        2   -1    0    0  501    0  0.00000000000E+00  0.00000000000E+00 -0.15054972117E+04  0.15054972117E+04  0.25500000920E-02 0. -1.
    10030    2    1    2    0    0  0.00000000000E+00  0.00000000000E+00  0.51585046277E+03  0.35268448861E+04  0.34889157558E+04 0.  0.
        2    1    3    3  502    0  0.10057273741E+04 -0.81765715863E+03 -0.92227840575E+03  0.15908011308E+04  0.25500000920E-02 0. -1.
       -2    1    3    3    0  502 -0.10057273741E+04  0.81765715863E+03  0.14381288685E+04  0.19360437553E+04  0.25500000920E-02 0.  1.
</event>
<event>
 5   0  0.1072381E-07  0.3484966E+04  0.7818609E-02  0.8117362E-01
        1   -1    0    0  501    0  0.00000000000E+00  0.00000000000E+00  0.22467951305E+04  0.22467951305E+04  0.50400001928E-02 0. -1.
       -1   -1    0    0    0  501  0.00000000000E+00  0.00000000000E+00 -0.13513676829E+04  0.13513676829E+04  0.50400001928E-02 0.  1.
    10030    2    1    2    0    0  0.00000000000E+00  0.00000000000E+00  0.89542744762E+03  0.35981628134E+04  0.34849656122E+04 0.  0.
        1    1    3    3  502    0 -0.11281391295E+04  0.51803321528E+03  0.17102111716E+04  0.21132625391E+04  0.50400001928E-02 0. -1.
       -1    1    3    3    0  502  0.11281391295E+04 -0.51803321528E+03 -0.81478372401E+03  0.14849002743E+04  0.50400001928E-02 0.  1.
</event>
<event>
 5   0  0.1098171E-07  0.3511359E+04  0.7818609E-02  0.8111103E-01
        1   -1    0    0  501    0  0.00000000000E+00  0.00000000000E+00  0.14702992232E+04  0.14702992232E+04  0.50400001928E-02 0.  1.
       -1   -1    0    0    0  501  0.00000000000E+00  0.00000000000E+00 -0.20964507678E+04  0.20964507678E+04  0.50400001928E-02 0. -1.
    10030    2    1    2    0    0  0.00000000000E+00  0.00000000000E+00 -0.62615154459E+03  0.35667499910E+04  0.35113586746E+04 0.  0.
        4    1    3    3  502    0 -0.89464642425E+03 -0.44539324241E+03 -0.17793287870E+04  0.20407792409E+04  0.12699999809E+01 0. -1.
       -4    1    3    3    0  502  0.89464642425E+03  0.44539324241E+03  0.11531772424E+04  0.15259707501E+04  0.12699999809E+01 0.  1.
</event>
<event>
 5   0  0.3190112E-07  0.3507637E+04  0.7818609E-02  0.8111983E-01
        2   -1    0    0  501    0  0.00000000000E+00  0.00000000000E+00  0.17202898737E+04  0.17202898737E+04  0.25500000920E-02 0.  1.
       -2   -1    0    0    0  501  0.00000000000E+00  0.00000000000E+00 -0.17880003216E+04  0.17880003216E+04  0.25500000920E-02 0. -1.
    10030    2    1    2    0    0  0.00000000000E+00  0.00000000000E+00 -0.67710447879E+02  0.35082901953E+04  0.35076367244E+04 0.  0.
        5    1    3    3  502    0  0.68617278346E+03 -0.35201422513E+03 -0.16093025252E+04  0.17845514314E+04  0.46999998093E+01 0. -1.
       -5    1    3    3    0  502 -0.68617278346E+03  0.35201422513E+03  0.15415920774E+04  0.17237387640E+04  0.46999998093E+01 0.  1.
</event>
<event>
 5   0  0.3190112E-07  0.3495339E+04  0.7818609E-02  0.8114896E-01
       -2   -1    0    0    0  501  0.00000000000E+00  0.00000000000E+00  0.12957024278E+04  0.12957024278E+04  0.25500000920E-02 0. -1.
        2   -1    0    0  501    0  0.00000000000E+00  0.00000000000E+00 -0.23572912255E+04  0.23572912256E+04  0.25500000920E-02 0.  1.
    10030    2    1    2    0    0  0.00000000000E+00  0.00000000000E+00 -0.10615887977E+04  0.36529936534E+04  0.34953385896E+04 0.  0.
        5    1    3    3  502    0 -0.80200707367E+03 -0.10534208311E+04 -0.17230450914E+04  0.21729742913E+04  0.46999998093E+01 0.  1.
       -5    1    3    3    0  502  0.80200707367E+03  0.10534208311E+04  0.66145629371E+03  0.14800193621E+04  0.46999998093E+01 0. -1.
</event>
<event>
 5   0  0.1033796E-07  0.3488931E+04  0.7818609E-02  0.8116418E-01
        1   -1    0    0  501    0  0.00000000000E+00  0.00000000000E+00  0.99620946342E+03  0.99620946343E+03  0.50400001928E-02 0. -1.
       -1   -1    0    0    0  501  0.00000000000E+00  0.00000000000E+00 -0.30547398182E+04  0.30547398182E+04  0.50400001928E-02 0.  1.
    10030    2    1    2    0    0  0.00000000000E+00  0.00000000000E+00 -0.20585303548E+04  0.40509492816E+04  0.34889314784E+04 0.  0.
        3    1    3    3  502    0  0.61738705228E+03  0.14549819628E+04 -0.18864434445E+04  0.24610583422E+04  0.10100000352E+00 0. -1.
       -3    1    3    3    0  502 -0.61738705228E+03 -0.14549819628E+04 -0.17208691024E+03  0.15898909394E+04  0.10100000352E+00 0.  1.
</event>
<event>
 5   0  0.1098171E-07  0.3499595E+04  0.7818609E-02  0.8113886E-01
       -1   -1    0    0    0  501  0.00000000000E+00  0.00000000000E+00  0.17647560655E+04  0.17647560655E+04  0.50400001928E-02 0. -1.
        1   -1    0    0  501    0  0.00000000000E+00  0.00000000000E+00 -0.17349659848E+04  0.17349659848E+04  0.50400001928E-02 0.  1.
    10030    2    1    2    0    0  0.00000000000E+00  0.00000000000E+00  0.29790080752E+02  0.34997220503E+04  0.34995952596E+04 0.  0.
        4    1    3    3  502    0 -0.58648829834E+03 -0.13863073473E+04  0.90710086002E+03  0.17574555950E+04  0.12699999809E+01 0. -1.
       -4    1    3    3    0  502  0.58648829834E+03  0.13863073473E+04 -0.87731077927E+03  0.17422664554E+04  0.12699999809E+01 0.  1.
</event>
<event>
 5   0  0.1013863E-07  0.3500555E+04  0.7818609E-02  0.8113658E-01
        1   -1    0    0  501    0  0.00000000000E+00  0.00000000000E+00  0.10487966819E+04  0.10487966819E+04  0.50400001928E-02 0.  1.
       -1   -1    0    0    0  501  0.00000000000E+00  0.00000000000E+00 -0.29209395136E+04  0.29209395136E+04  0.50400001928E-02 0. -1.
    10030    2    1    2    0    0  0.00000000000E+00  0.00000000000E+00 -0.18721428318E+04  0.39697361955E+04  0.35005551959E+04 0.  0.
        2    1    3    3  502    0 -0.69258784514E+03  0.12060492117E+04 -0.21411563596E+04  0.25531907842E+04  0.25500000920E-02 0. -1.
       -2    1    3    3    0  502  0.69258784514E+03 -0.12060492117E+04  0.26901352786E+03  0.14165454113E+04  0.25500000920E-02 0.  1.
</event>
<event>
 5   0  0.2180451E-07  0.3404042E+04  0.7818609E-02  0.8136915E-01
        2   -1    0    0  501    0  0.00000000000E+00  0.00000000000E+00  0.20233894897E+04  0.20233894897E+04  0.25500000920E-02 0.  1.
       -2   -1    0    0    0  501  0.00000000000E+00  0.00000000000E+00 -0.14316944939E+04  0.14316944939E+04  0.25500000920E-02 0. -1.
    10030    2    1    2    0    0  0.00000000000E+00  0.00000000000E+00  0.59169499583E+03  0.34550839836E+04  0.34040420629E+04 0.  0.
        4    1    3    3  502    0 -0.33002882400E+03  0.15371203001E+04  0.95771119243E+03  0.18408884221E+04  0.12699999809E+01 0.  1.
       -4    1    3    3    0  502  0.33002882400E+03 -0.15371203001E+04 -0.36601619660E+03  0.16141955615E+04  0.12699999809E+01 0. -1.
</event>
<event>
 5   0  0.1013863E-07  0.3500024E+04  0.7818609E-02  0.8113784E-01
        1   -1    0    0  501    0  0.00000000000E+00  0.00000000000E+00  0.12231903229E+04  0.12231903229E+04  0.50400001928E-02 0. -1.
       -1   -1    0    0    0  501  0.00000000000E+00  0.00000000000E+00 -0.25037336292E+04  0.25037336292E+04  0.50400001928E-02 0.  1.
    10030    2    1    2    0    0  0.00000000000E+00  0.00000000000E+00 -0.12805433063E+04  0.37269239521E+04  0.35000244264E+04 0.  0.
        5    1    3    3  502    0 -0.12492913314E+04 -0.11825326323E+04 -0.29785304012E+03  0.17458094915E+04  0.46999998093E+01 0. -1.
       -5    1    3    3    0  502  0.12492913314E+04  0.11825326323E+04 -0.98269026617E+03  0.19811144606E+04  0.46999998093E+01 0.  1.
</event>
<event>
 5   0  0.1033796E-07  0.3483091E+04  0.7818609E-02  0.8117809E-01
        1   -1    0    0  501    0  0.00000000000E+00  0.00000000000E+00  0.28795810747E+04  0.28795810747E+04  0.50400001928E-02 0. -1.
       -1   -1    0    0    0  501  0.00000000000E+00  0.00000000000E+00 -0.10532712633E+04  0.10532712633E+04  0.50400001928E-02 0.  1.
    10030    2    1    2    0    0  0.00000000000E+00  0.00000000000E+00  0.18263098114E+04  0.39328523380E+04  0.34830905795E+04 0.  0.
        3    1    3    3  502    0  0.43653213510E+03  0.12102740534E+04 -0.41214244157E+03  0.13509940753E+04  0.10100000352E+00 0.  1.
       -3    1    3    3    0  502 -0.43653213510E+03 -0.12102740534E+04  0.22384522530E+04  0.25818582627E+04  0.10100000352E+00 0. -1.
</event>
<event>
 5   0  0.3219205E-07  0.3501616E+04  0.7818609E-02  0.8113407E-01
        2   -1    0    0  501    0  0.00000000000E+00  0.00000000000E+00  0.15608387201E+04  0.15608387201E+04  0.25500000920E-02 0.  1.
       -2   -1    0    0    0  501  0.00000000000E+00  0.00000000000E+00 -0.19638986648E+04  0.19638986648E+04  0.25500000920E-02 0. -1.
    10030    2    1    2    0    0  0.00000000000E+00  0.00000000000E+00 -0.40305994470E+03  0.35247373849E+04  0.35016162430E+04 0.  0.
        2    1    3    3  502    0  0.14834916637E+04  0.71712229874E+03 -0.79731410005E+03  0.18304976596E+04  0.25500000920E-02 0. -1.
       -2    1    3    3    0  502 -0.14834916637E+04 -0.71712229874E+03  0.39425415535E+03  0.16942397253E+04  0.25500000920E-02 0.  1.
</event>
<event>
 5   0  0.3119048E-07  0.3500872E+04  0.7818609E-02  0.8113583E-01
       -2   -1    0    0    0  501  0.00000000000E+00  0.00000000000E+00  0.11955724034E+04  0.11955724034E+04  0.25500000920E-02 0.  1.
        2   -1    0    0  501    0  0.00000000000E+00  0.00000000000E+00 -0.25628115903E+04  0.25628115903E+04  0.25500000920E-02 0. -1.
    10030    2    1    2    0    0  0.00000000000E+00  0.00000000000E+00 -0.13672391869E+04  0.37583839938E+04  0.35008723556E+04 0.  0.
        3    1    3    3  502    0  0.93966022925E+03  0.78366859658E+03  0.66022649280E+03  0.13903225697E+04  0.10100000352E+00 0.  1.
       -3    1    3    3    0  502 -0.93966022925E+03 -0.78366859658E+03 -0.20274656797E+04  0.23680614241E+04  0.10100000352E+00 0. -1.
</event>
<event>
 5   0  0.3119048E-07  0.3506652E+04  0.7818609E-02  0.8112215E-01
        2   -1    0    0  501    0  0.00000000000E+00  0.00000000000E+00  0.27887184335E+04  0.27887184335E+04  0.25500000920E-02 0. -1.
       -2   -1    0    0    0  501  0.00000000000E+00  0.00000000000E+00 -0.11023529252E+04  0.11023529252E+04  0.25500000920E-02 0.  1.
    10030    2    1    2    0    0  0.00000000000E+00  0.00000000000E+00  0.16863655083E+04  0.38910713587E+04  0.35066519204E+04 0.  0.
        3    1    3    3  502    0 -0.10315112872E+03 -0.17485412906E+04  0.92995458405E+03  0.19831420370E+04  0.10100000352E+00 0.  1.
       -3    1    3    3    0  502  0.10315112872E+03  0.17485412906E+04  0.75641092427E+03  0.19079293217E+04  0.10100000352E+00 0. -1.
</event>
<event>
 5   0  0.3190112E-07  0.3496022E+04  0.7818609E-02  0.8114733E-01
        2   -1    0    0  501    0  0.00000000000E+00  0.00000000000E+00  0.21163745394E+04  0.21163745394E+04  0.25500000920E-02 0.  1.
       -2   -1    0    0    0  501  0.00000000000E+00  0.00000000000E+00 -0.14437627325E+04  0.14437627325E+04  0.25500000920E-02 0. -1.
    10030    2    1    2    0    0  0.00000000000E+00  0.00000000000E+00  0.67261180691E+03  0.35601372719E+04  0.34960221326E+04 0.  0.
        5    1    3    3  502    0  0.82298774742E+03  0.64690730482E+03  0.17618802860E+04  0.20494004308E+04  0.46999998093E+01 0.  1.
       -5    1    3    3    0  502 -0.82298774742E+03 -0.64690730482E+03 -0.10892684791E+04  0.15107368411E+04  0.46999998093E+01 0. -1.
</event>
<event>
 5   0  0.3190185E-07  0.3562670E+04  0.7818609E-02  0.8099097E-01
       -2   -1    0    0    0  501  0.00000000000E+00  0.00000000000E+00  0.14573003390E+04  0.14573003390E+04  0.25500000920E-02 0.  1.
        2   -1    0    0  501    0  0.00000000000E+00  0.00000000000E+00 -0.21774193997E+04  0.21774193997E+04  0.25500000920E-02 0. -1.
    10030    2    1    2    0    0  0.00000000000E+00  0.00000000000E+00 -0.72011906075E+03  0.36347197387E+04  0.35626698019E+04 0.  0.
        1    1    3    3  502    0  0.12504834005E+04  0.11837331042E+04 -0.82560045330E+03  0.19095939111E+04  0.50400001928E-02 0. -1.
       -1    1    3    3    0  502 -0.12504834005E+04 -0.11837331042E+04  0.10548139255E+03  0.17251258276E+04  0.50400001928E-02 0.  1.
</event>
<event>
 5   0  0.1013863E-07  0.3477662E+04  0.7818609E-02  0.8119104E-01
       -1   -1    0    0    0  501  0.00000000000E+00  0.00000000000E+00  0.18767869536E+04  0.18767869536E+04  0.50400001928E-02 0. -1.
        1   -1    0    0  501    0  0.00000000000E+00  0.00000000000E+00 -0.16110160763E+04  0.16110160763E+04  0.50400001928E-02 0.  1.
    10030    2    1    2    0    0  0.00000000000E+00  0.00000000000E+00  0.26577087728E+03  0.34878030299E+04  0.34776624069E+04 0.  0.
        5    1    3    3  502    0  0.14364899903E+04 -0.31259977455E+03  0.10641887401E+04  0.18148669030E+04  0.46999998093E+01 0. -1.
       -5    1    3    3    0  502 -0.14364899903E+04  0.31259977455E+03 -0.79841786278E+03  0.16729361269E+04  0.46999998093E+01 0.  1.
</event>
<event>
 5   0  0.1033796E-07  0.3514796E+04  0.7818609E-02  0.8110292E-01
       -1   -1    0    0    0  501  0.00000000000E+00  0.00000000000E+00  0.22993917677E+04  0.22993917677E+04  0.50400001928E-02 0. -1.
        1   -1    0    0  501    0  0.00000000000E+00  0.00000000000E+00 -0.13431583713E+04  0.13431583713E+04  0.50400001928E-02 0.  1.
    10030    2    1    2    0    0  0.00000000000E+00  0.00000000000E+00  0.95623339635E+03  0.36425501390E+04  0.35147957561E+04 0.  0.
        3    1    3    3  502    0  0.80987439167E+03 -0.56048504861E+03  0.19864946456E+04  0.22172507768E+04  0.10100000352E+00 0. -1.
       -3    1    3    3    0  502 -0.80987439167E+03  0.56048504861E+03 -0.10302612493E+04  0.14252993622E+04  0.10100000352E+00 0.  1.
</event>
<event>
 5   0  0.1013863E-07  0.3488338E+04  0.7818609E-02  0.8116559E-01
        3   -1    0    0  501    0  0.00000000000E+00  0.00000000000E+00  0.24274236727E+04  0.24274236748E+04  0.10100000352E+00 0. -1.
       -3   -1    0    0    0  501  0.00000000000E+00  0.00000000000E+00 -0.12532320378E+04  0.12532320418E+04  0.10100000352E+00 0.  1.
    10030    2    1    2    0    0  0.00000000000E+00  0.00000000000E+00  0.11741916349E+04  0.36806557166E+04  0.34883377859E+04 0.  0.
        3    1    3    3  502    0  0.16561105488E+04  0.51058701795E+03  0.79472863965E+03  0.19065662521E+04  0.10100000352E+00 0. -1.
       -3    1    3    3    0  502 -0.16561105488E+04 -0.51058701795E+03  0.37946299524E+03  0.17740894644E+04  0.10100000352E+00 0.  1.
</event>
<event>
 5   0  0.1098171E-07  0.3495127E+04  0.7818609E-02  0.8114946E-01
       -1   -1    0    0    0  501  0.00000000000E+00  0.00000000000E+00  0.17707294107E+04  0.17707294107E+04  0.50400001928E-02 0.  1.
        1   -1    0    0  501    0  0.00000000000E+00  0.00000000000E+00 -0.17247003387E+04  0.17247003387E+04  0.50400001928E-02 0. -1.
    10030    2    1    2    0    0  0.00000000000E+00  0.00000000000E+00  0.46029071985E+02  0.34954297494E+04  0.34951266726E+04 0.  0.
        4    1    3    3  502    0 -0.48289342544E+03  0.21829903790E+03 -0.16424032590E+04  0.17257840562E+04  0.12699999809E+01 0. -1.
       -4    1    3    3    0  502  0.48289342544E+03 -0.21829903790E+03  0.16884323310E+04  0.17696456932E+04  0.12699999809E+01 0.  1.
</event>
<event>
 5   0  0.2180451E-07  0.3517106E+04  0.7818609E-02  0.8109748E-01
        2   -1    0    0  501    0  0.00000000000E+00  0.00000000000E+00  0.12247505707E+04  0.12247505707E+04  0.25500000920E-02 0. -1.
       -2   -1    0    0    0  501  0.00000000000E+00  0.00000000000E+00 -0.25250110318E+04  0.25250110318E+04  0.25500000920E-02 0.  1.
    10030    2    1    2    0    0  0.00000000000E+00  0.00000000000E+00 -0.13002604611E+04  0.37497616025E+04  0.35171060276E+04 0.  0.
        4    1    3    3  502    0 -0.36640697648E+03 -0.81285127347E+03 -0.22661564304E+04  0.24352510846E+04  0.12699999809E+01 0.  1.
       -4    1    3    3    0  502  0.36640697648E+03  0.81285127347E+03  0.96589596932E+03  0.13145105179E+04  0.12699999809E+01 0. -1.
</event>
<event>
 5   0  0.1098171E-07  0.3510219E+04  0.7818609E-02  0.8111372E-01
       -1   -1    0    0    0  501  0.00000000000E+00  0.00000000000E+00  0.12483434106E+04  0.12483434107E+04  0.50400001928E-02 0.  1.
        1   -1    0    0  501    0  0.00000000000E+00  0.00000000000E+00 -0.24675974766E+04  0.24675974767E+04  0.50400001928E-02 0. -1.
    10030    2    1    2    0    0  0.00000000000E+00  0.00000000000E+00 -0.12192540660E+04  0.37159408873E+04  0.35102188252E+04 0.  0.
        4    1    3    3  502    0  0.27683864845E+03  0.22143474581E+03  0.12100479893E+04  0.12609086935E+04  0.12699999809E+01 0.  1.
       -4    1    3    3    0  502 -0.27683864845E+03 -0.22143474581E+03 -0.24293020553E+04  0.24550321938E+04  0.12699999809E+01 0. -1.
</event>
<event>
 5   0  0.3190112E-07  0.3498107E+04  0.7818609E-02  0.8114239E-01
        2   -1    0    0  501    0  0.00000000000E+00  0.00000000000E+00  0.23954636807E+04  0.23954636807E+04  0.25500000920E-02 0. -1.
       -2   -1    0    0    0  501  0.00000000000E+00  0.00000000000E+00 -0.12770758318E+04  0.12770758318E+04  0.25500000920E-02 0.  1.
    10030    2    1    2    0    0  0.00000000000E+00  0.00000000000E+00  0.11183878489E+04  0.36725395125E+04  0.34981073583E+04 0.  0.
        5    1    3    3  502    0  0.35433205288E+03  0.43907903171E+03  0.22972908968E+04  0.23655674064E+04  0.46999998093E+01 0. -1.
       -5    1    3    3    0  502 -0.35433205288E+03 -0.43907903171E+03 -0.11789030479E+04  0.13069721061E+04  0.46999998093E+01 0.  1.
</event>
<event>
 5   0  0.1033796E-07  0.3519490E+04  0.7818609E-02  0.8109187E-01
        1   -1    0    0  501    0  0.00000000000E+00  0.00000000000E+00  0.16297838181E+04  0.16297838181E+04  0.50400001928E-02 0. -1.
       -1   -1    0    0    0  501  0.00000000000E+00  0.00000000000E+00 -0.19000693393E+04  0.19000693393E+04  0.50400001928E-02 0.  1.
    10030    2    1    2    0    0  0.00000000000E+00  0.00000000000E+00 -0.27028552123E+03  0.35298531573E+04  0.35194898848E+04 0.  0.
        3    1    3    3  502    0 -0.13966001995E+04  0.53481462387E+03 -0.10653344597E+04  0.18361525864E+04  0.10100000352E+00 0.  1.
       -3    1    3    3    0  502  0.13966001995E+04 -0.53481462387E+03  0.79504893848E+03  0.16937005710E+04  0.10100000352E+00 0. -1.
</event>
<event>
 5   0  0.3219205E-07  0.3494761E+04  0.7818609E-02  0.8115033E-01
        2   -1    0    0  501    0  0.00000000000E+00  0.00000000000E+00  0.23293530816E+04  0.23293530816E+04  0.25500000920E-02 0. -1.
       -2   -1    0    0    0  501  0.00000000000E+00  0.00000000000E+00 -0.13108100357E+04  0.13108100357E+04  0.25500000920E-02 0.  1.
    10030    2    1    2    0    0  0.00000000000E+00  0.00000000000E+00  0.10185430459E+04  0.36401631173E+04  0.34947614488E+04 0.  0.
        2    1    3    3  502    0 -0.38144438169E+03  0.16156596855E+04 -0.58841373339E+02  0.16611196052E+04  0.25500000920E-02 0.  1.
       -2    1    3    3    0  502  0.38144438169E+03 -0.16156596855E+04  0.10773844192E+04  0.19790435120E+04  0.25500000920E-02 0. -1.
</event>
<event>
 5   0  0.2180451E-07  0.3475404E+04  0.7818609E-02  0.8119644E-01
        2   -1    0    0  501    0  0.00000000000E+00  0.00000000000E+00  0.31272939936E+04  0.31272939936E+04  0.25500000920E-02 0. -1.
       -2   -1    0    0    0  501  0.00000000000E+00  0.00000000000E+00 -0.96556583481E+03  0.96556583482E+03  0.25500000920E-02 0.  1.
    10030    2    1    2    0    0  0.00000000000E+00  0.00000000000E+00  0.21617281588E+04  0.40928598285E+04  0.34754039971E+04 0.  0.
        4    1    3    3  502    0  0.16958184131E+04 -0.36913542172E+03  0.97856595141E+03  0.19923990524E+04  0.12699999809E+01 0.  1.
       -4    1    3    3    0  502 -0.16958184131E+04  0.36913542172E+03  0.11831622074E+04  0.21004607761E+04  0.12699999809E+01 0. -1.
</event>
<event>
 5   0  0.3219205E-07  0.3480709E+04  0.7818609E-02  0.8118377E-01
        2   -1    0    0  501    0  0.00000000000E+00  0.00000000000E+00  0.14910700860E+04  0.14910700860E+04  0.25500000920E-02 0. -1.
       -2   -1    0    0    0  501  0.00000000000E+00  0.00000000000E+00 -0.20313153739E+04  0.20313153739E+04  0.25500000920E-02 0.  1.
    10030    2    1    2    0    0  0.00000000000E+00  0.00000000000E+00 -0.54024528789E+03  0.35223854599E+04  0.34807088872E+04 0.  0.
        2    1    3    3  502    0 -0.81401956534E+02  0.13602386314E+03  0.14837489866E+04  0.14921929584E+04  0.25500000920E-02 0. -1.
       -2    1    3    3    0  502  0.81401956534E+02 -0.13602386314E+03 -0.20239942745E+04  0.20301925015E+04  0.25500000920E-02 0.  1.
</event>
<event>
 5   0  0.1098171E-07  0.3508745E+04  0.7818609E-02  0.8111721E-01
        1   -1    0    0  501    0  0.00000000000E+00  0.00000000000E+00  0.28594092256E+04  0.28594092256E+04  0.50400001928E-02 0.  1.
       -1   -1    0    0    0  501  0.00000000000E+00  0.00000000000E+00 -0.10763844065E+04  0.10763844065E+04  0.50400001928E-02 0. -1.
    10030    2    1    2    0    0  0.00000000000E+00  0.00000000000E+00  0.17830248191E+04  0.39357936322E+04  0.35087453611E+04 0.  0.
        4    1    3    3  502    0  0.41749786256E+02 -0.74876180456E+03  0.26705576119E+04  0.27738541519E+04  0.12699999809E+01 0.  1.
       -4    1    3    3    0  502 -0.41749786256E+02  0.74876180456E+03 -0.88753279279E+03  0.11619394803E+04  0.12699999809E+01 0. -1.
</event>
<event>
 5   0  0.3190112E-07  0.3495503E+04  0.7818609E-02  0.8114857E-01
        2   -1    0    0  501    0  0.00000000000E+00  0.00000000000E+00  0.21720415008E+04  0.21720415008E+04  0.25500000920E-02 0. -1.
       -2   -1    0    0    0  501  0.00000000000E+00  0.00000000000E+00 -0.14063427698E+04  0.14063427698E+04  0.25500000920E-02 0.  1.
    10030    2    1    2    0    0  0.00000000000E+00  0.00000000000E+00  0.76569873103E+03  0.35783842706E+04  0.34955027452E+04 0.  0.
        5    1    3    3  502    0 -0.93517226454E+03 -0.14691631651E+04  0.23230746321E+03  0.17569793446E+04  0.46999998093E+01 0.  1.
       -5    1    3    3    0  502  0.93517226454E+03  0.14691631651E+04  0.53339126782E+03  0.18214049260E+04  0.46999998093E+01 0. -1.
</event>
<event>
 5   0  0.3190112E-07  0.3493984E+04  0.7818609E-02  0.8115217E-01
       -2   -1    0    0    0  501  0.00000000000E+00  0.00000000000E+00  0.16349900745E+04  0.16349900745E+04  0.25500000920E-02 0. -1.
        2   -1    0    0  501    0  0.00000000000E+00  0.00000000000E+00 -0.18666661527E+04  0.18666661527E+04  0.25500000920E-02 0.  1.
    10030    2    1    2    0    0  0.00000000000E+00  0.00000000000E+00 -0.23167607819E+03  0.35016562272E+04  0.34939837619E+04 0.  0.
        5    1    3    3  502    0  0.62714386751E+03  0.11711082741E+04  0.10211816059E+04  0.16756007826E+04  0.46999998093E+01 0. -1.
       -5    1    3    3    0  502 -0.62714386751E+03 -0.11711082741E+04 -0.12528576841E+04  0.18260554446E+04  0.46999998093E+01 0.  1.
</event>
<event>
 5   0  0.1098171E-07  0.3492490E+04  0.7818609E-02  0.8115572E-01
        1   -1    0    0  501    0  0.00000000000E+00  0.00000000000E+00  0.21661163237E+04  0.21661163237E+04  0.50400001928E-02 0. -1.
       -1   -1    0    0    0  501  0.00000000000E+00  0.00000000000E+00 -0.14077596112E+04  0.14077596112E+04  0.50400001928E-02 0.  1.
    10030    2    1    2    0    0  0.00000000000E+00  0.00000000000E+00  0.75835671251E+03  0.35738759349E+04  0.34924896986E+04 0.  0.
        4    1    3    3  502    0  0.61219889200E+03  0.77263023118E+03  0.18541642527E+04  0.20999218191E+04  0.12699999809E+01 0. -1.
       -4    1    3    3    0  502 -0.61219889200E+03 -0.77263023118E+03 -0.10958075402E+04  0.14739541158E+04  0.12699999809E+01 0.  1.
</event>
<event>
 5   0  0.1033796E-07  0.3513314E+04  0.7818609E-02  0.8110642E-01
        1   -1    0    0  501    0  0.00000000000E+00  0.00000000000E+00  0.22816534023E+04  0.22816534023E+04  0.50400001928E-02 0.  1.
       -1   -1    0    0    0  501  0.00000000000E+00  0.00000000000E+00 -0.13524597181E+04  0.13524597181E+04  0.50400001928E-02 0. -1.
    10030    2    1    2    0    0  0.00000000000E+00  0.00000000000E+00  0.92919368422E+03  0.36341131204E+04  0.35133142856E+04 0.  0.
        3    1    3    3  502    0  0.19852583285E+03  0.11976369334E+04  0.17779366333E+04  0.21528598219E+04  0.10100000352E+00 0.  1.
       -3    1    3    3    0  502 -0.19852583285E+03 -0.11976369334E+04 -0.84874294904E+03  0.14812532985E+04  0.10100000352E+00 0. -1.
</event>
<event>
 5   0  0.1013863E-07  0.3506176E+04  0.7818609E-02  0.8112328E-01
       -1   -1    0    0    0  501  0.00000000000E+00  0.00000000000E+00  0.10915116579E+04  0.10915116579E+04  0.50400001928E-02 0.  1.
        1   -1    0    0  501    0  0.00000000000E+00  0.00000000000E+00 -0.28156521979E+04  0.28156521979E+04  0.50400001928E-02 0. -1.
    10030    2    1    2    0    0  0.00000000000E+00  0.00000000000E+00 -0.17241405400E+04  0.39071638559E+04  0.35061758077E+04 0.  0.
        2    1    3    3  502    0  0.11713343412E+04 -0.10477265401E+04  0.36726266591E+01  0.15715497224E+04  0.25500000920E-02 0. -1.
       -2    1    3    3    0  502 -0.11713343412E+04  0.10477265401E+04 -0.17278131667E+04  0.23356141335E+04  0.25500000920E-02 0.  1.
</event>
<event>
 5   0  0.3190185E-07  0.3488134E+04  0.7818609E-02  0.8116608E-01
       -2   -1    0    0    0  501  0.00000000000E+00  0.00000000000E+00  0.11586891397E+04  0.11586891397E+04  0.25500000920E-02 0.  1.
        2   -1    0    0  501    0  0.00000000000E+00  0.00000000000E+00 -0.26251812795E+04  0.26251812796E+04  0.25500000920E-02 0. -1.
    10030    2    1    2    0    0  0.00000000000E+00  0.00000000000E+00 -0.14664921398E+04  0.37838704193E+04  0.34881336204E+04 0.  0.
        1    1    3    3  502    0 -0.13344873719E+04  0.49099089542E+03 -0.18287381832E+04  0.23165085685E+04  0.50400001928E-02 0. -1.
       -1    1    3    3    0  502  0.13344873719E+04 -0.49099089542E+03  0.36224604341E+03  0.14673618508E+04  0.50400001928E-02 0.  1.
</event>
<event>
 5   0  0.1098171E-07  0.3497086E+04  0.7818609E-02  0.8114481E-01
       -1   -1    0    0    0  501  0.00000000000E+00  0.00000000000E+00  0.14370077170E+04  0.14370077171E+04  0.50400001928E-02 0. -1.
        1   -1    0    0  501    0  0.00000000000E+00  0.00000000000E+00 -0.21276173770E+04  0.21276173770E+04  0.50400001928E-02 0.  1.
    10030    2    1    2    0    0  0.00000000000E+00  0.00000000000E+00 -0.69060965999E+03  0.35646250941E+04  0.34970859811E+04 0.  0.
        4    1    3    3  502    0  0.19984266082E+03 -0.13246104856E+03 -0.21107825401E+04  0.21243557995E+04  0.12699999809E+01 0.  1.
       -4    1    3    3    0  502 -0.19984266082E+03  0.13246104856E+03  0.14201728801E+04  0.14402692946E+04  0.12699999809E+01 0. -1.
</event>
<event>
 5   0  0.3190185E-07  0.3483264E+04  0.7818609E-02  0.8117768E-01
       -2   -1    0    0    0  501  0.00000000000E+00  0.00000000000E+00  0.16216347010E+04  0.16216347010E+04  0.25500000920E-02 0.  1.
        2   -1    0    0  501    0  0.00000000000E+00  0.00000000000E+00 -0.18705091624E+04  0.18705091624E+04  0.25500000920E-02 0. -1.
    10030    2    1    2    0    0  0.00000000000E+00  0.00000000000E+00 -0.24887446135E+03  0.34921438634E+04  0.34832643117E+04 0.  0.
        1    1    3    3  502    0  0.94769520314E+03 -0.66578621660E+03 -0.14284778732E+04  0.18390069382E+04  0.50400001928E-02 0. -1.
       -1    1    3    3    0  502 -0.94769520314E+03  0.66578621660E+03  0.11796034119E+04  0.16531369253E+04  0.50400001928E-02 0.  1.
</event>
<event>
 5   0  0.3190185E-07  0.3496322E+04  0.7818609E-02  0.8114662E-01
       -2   -1    0    0    0  501  0.00000000000E+00  0.00000000000E+00  0.14457318611E+04  0.14457318611E+04  0.25500000920E-02 0.  1.
        2   -1    0    0  501    0  0.00000000000E+00  0.00000000000E+00 -0.21138544675E+04  0.21138544675E+04  0.25500000920E-02 0. -1.
    10030    2    1    2    0    0  0.00000000000E+00  0.00000000000E+00 -0.66812260642E+03  0.35595863286E+04  0.34963219265E+04 0.  0.
        1    1    3    3  502    0 -0.27322691662E+03 -0.13973890039E+04 -0.13666710946E+04  0.19736106143E+04  0.50400001928E-02 0. -1.
       -1    1    3    3    0  502  0.27322691662E+03  0.13973890039E+04  0.69854848817E+03  0.15859757143E+04  0.50400001928E-02 0.  1.
</event>
<event>
 5   0  0.2180451E-07  0.3503210E+04  0.7818609E-02  0.8113030E-01
       -2   -1    0    0    0  501  0.00000000000E+00  0.00000000000E+00  0.15411519509E+04  0.15411519509E+04  0.25500000920E-02 0.  1.
        2   -1    0    0  501    0  0.00000000000E+00  0.00000000000E+00 -0.19907969639E+04  0.19907969639E+04  0.25500000920E-02 0. -1.
    10030    2    1    2    0    0  0.00000000000E+00  0.00000000000E+00 -0.44964501301E+03  0.35319489148E+04  0.35032103133E+04 0.  0.
        4    1    3    3  502    0  0.50551560417E+02  0.49852228035E+02  0.15397002045E+04  0.15413367697E+04  0.12699999809E+01 0.  1.
       -4    1    3    3    0  502 -0.50551560417E+02 -0.49852228035E+02 -0.19893452175E+04  0.19906121451E+04  0.12699999809E+01 0. -1.
</event>
<event>
 5   0  0.3119048E-07  0.3586562E+04  0.7818609E-02  0.8093577E-01
       -2   -1    0    0    0  501  0.00000000000E+00  0.00000000000E+00  0.17154417941E+04  0.17154417941E+04  0.25500000920E-02 0. -1.
        2   -1    0    0  501    0  0.00000000000E+00  0.00000000000E+00 -0.18746522737E+04  0.18746522737E+04  0.25500000920E-02 0.  1.
    10030    2    1    2    0    0  0.00000000000E+00  0.00000000000E+00 -0.15921047955E+03  0.35900940678E+04  0.35865620640E+04 0.  0.
        3    1    3    3  502    0 -0.75321846908E+03  0.81665952621E+03  0.13294692126E+04  0.17325585823E+04  0.10100000352E+00 0. -1.
       -3    1    3    3    0  502  0.75321846908E+03 -0.81665952621E+03 -0.14886796921E+04  0.18575354855E+04  0.10100000352E+00 0.  1.
</event>
<event>
 5   0  0.1013863E-07  0.3506046E+04  0.7818609E-02  0.8112359E-01
        1   -1    0    0  501    0  0.00000000000E+00  0.00000000000E+00  0.28013875329E+04  0.28013875329E+04  0.50400001928E-02 0.  1.
       -1   -1    0    0    0  501  0.00000000000E+00  0.00000000000E+00 -0.10969886259E+04  0.10969886259E+04  0.50400001928E-02 0. -1.
    10030    2    1    2    0    0  0.00000000000E+00  0.00000000000E+00  0.17043989070E+04  0.38983761588E+04  0.35060463547E+04 0.  0.
        5    1    3    3  502    0  0.10714867267E+04  0.26228153171E+03 -0.66267843350E+03  0.12868722561E+04  0.46999998093E+01 0. -1.
       -5    1    3    3    0  502 -0.10714867267E+04 -0.26228153171E+03  0.23670773405E+04  0.26115039026E+04  0.46999998093E+01 0.  1.
</event>
<event>
 5   0  0.3190185E-07  0.3502370E+04  0.7818609E-02  0.8113228E-01
       -2   -1    0    0    0  501  0.00000000000E+00  0.00000000000E+00  0.16329748929E+04  0.16329748929E+04  0.25500000920E-02 0.  1.
        2   -1    0    0  501    0  0.00000000000E+00  0.00000000000E+00 -0.18779526370E+04  0.18779526370E+04  0.25500000920E-02 0. -1.
    10030    2    1    2    0    0  0.00000000000E+00  0.00000000000E+00 -0.24497774414E+03  0.35109275298E+04  0.35023703437E+04 0.  0.
        1    1    3    3  502    0 -0.55235996735E+03 -0.11805806181E+04 -0.12948664569E+04  0.18372673378E+04  0.50400001928E-02 0. -1.
       -1    1    3    3    0  502  0.55235996735E+03  0.11805806181E+04  0.10498887127E+04  0.16736601921E+04  0.50400001928E-02 0.  1.
</event>
<event>
 5   0  0.1013863E-07  0.3352163E+04  0.7818609E-02  0.8149748E-01
       -1   -1    0    0    0  501  0.00000000000E+00  0.00000000000E+00  0.12097302169E+04  0.12097302169E+04  0.50400001928E-02 0. -1.
        1   -1    0    0  501    0  0.00000000000E+00  0.00000000000E+00 -0.23222116272E+04  0.23222116272E+04  0.50400001928E-02 0.  1.
    10030    2    1    2    0    0  0.00000000000E+00  0.00000000000E+00 -0.11124814103E+04  0.35319418440E+04  0.33521632272E+04 0.  0.
        2    1    3    3  502    0 -0.12441016371E+04  0.10887198569E+04 -0.26548873198E+03  0.16743906584E+04  0.25500000920E-02 0. -1.
       -2    1    3    3    0  502  0.12441016371E+04 -0.10887198569E+04 -0.84699267831E+03  0.18575511856E+04  0.25500000920E-02 0.  1.
</event>
<event>
 5   0  0.1072381E-07  0.3503124E+04  0.7818609E-02  0.8113050E-01
       -1   -1    0    0    0  501  0.00000000000E+00  0.00000000000E+00  0.11593356349E+04  0.11593356349E+04  0.50400001928E-02 0.  1.
        1   -1    0    0  501    0  0.00000000000E+00  0.00000000000E+00 -0.26463168218E+04  0.26463168218E+04  0.50400001928E-02 0. -1.
    10030    2    1    2    0    0  0.00000000000E+00  0.00000000000E+00 -0.14869811869E+04  0.38056524566E+04  0.35031239731E+04 0.  0.
        1    1    3    3  502    0  0.34028492755E+03 -0.80533144679E+03  0.90535025581E+03  0.12585752488E+04  0.50400001928E-02 0.  1.
       -1    1    3    3    0  502 -0.34028492755E+03  0.80533144679E+03 -0.23923314427E+04  0.25470772079E+04  0.50400001928E-02 0. -1.
</event>
<event>
 5   0  0.1072381E-07  0.3512707E+04  0.7818609E-02  0.8110785E-01
        1   -1    0    0  501    0  0.00000000000E+00  0.00000000000E+00  0.13280153492E+04  0.13280153492E+04  0.50400001928E-02 0.  1.
       -1   -1    0    0    0  501  0.00000000000E+00  0.00000000000E+00 -0.23228477968E+04  0.23228477968E+04  0.50400001928E-02 0. -1.
    10030    2    1    2    0    0  0.00000000000E+00  0.00000000000E+00 -0.99483244763E+03  0.36508631460E+04  0.35127069494E+04 0.  0.
        1    1    3    3  502    0 -0.15915517150E+04  0.26274144250E+02  0.27410747256E+03  0.16151972321E+04  0.50400001928E-02 0.  1.
       -1    1    3    3    0  502  0.15915517150E+04 -0.26274144250E+02 -0.12689399202E+04  0.20356659139E+04  0.50400001928E-02 0. -1.
</event>
<event>
 5   0  0.1033796E-07  0.3483205E+04  0.7818609E-02  0.8117782E-01
       -1   -1    0    0    0  501  0.00000000000E+00  0.00000000000E+00  0.14789939905E+04  0.14789939905E+04  0.50400001928E-02 0.  1.
        1   -1    0    0  501    0  0.00000000000E+00  0.00000000000E+00 -0.20508397056E+04  0.20508397056E+04  0.50400001928E-02 0. -1.
    10030    2    1    2    0    0  0.00000000000E+00  0.00000000000E+00 -0.57184571511E+03  0.35298336961E+04  0.34832051907E+04 0.  0.
        3    1    3    3  502    0 -0.63964149524E+03  0.29895366138E+03  0.13274527049E+04  0.15035442221E+04  0.10100000352E+00 0.  1.
       -3    1    3    3    0  502  0.63964149524E+03 -0.29895366138E+03 -0.18992984200E+04  0.20262894740E+04  0.10100000352E+00 0. -1.
</event>
<event>
 5   0  0.3219205E-07  0.3506972E+04  0.7818609E-02  0.8112140E-01
       -2   -1    0    0    0  501  0.00000000000E+00  0.00000000000E+00  0.26490980698E+04  0.26490980698E+04  0.25500000920E-02 0.  1.
        2   -1    0    0  501    0  0.00000000000E+00  0.00000000000E+00 -0.11606639771E+04  0.11606639771E+04  0.25500000920E-02 0. -1.
    10030    2    1    2    0    0  0.00000000000E+00  0.00000000000E+00  0.14884340928E+04  0.38097620469E+04  0.35069717429E+04 0.  0.
        2    1    3    3  502    0 -0.15285968371E+04  0.22861941733E+03  0.16438725090E+04  0.22563669813E+04  0.25500000920E-02 0.  1.
       -2    1    3    3    0  502  0.15285968371E+04 -0.22861941733E+03 -0.15543841625E+03  0.15533950656E+04  0.25500000920E-02 0. -1.
</event>
<event>
 5   0  0.1013863E-07  0.3709838E+04  0.7818609E-02  0.8065785E-01
        1   -1    0    0  501    0  0.00000000000E+00  0.00000000000E+00  0.33193595672E+04  0.33193595672E+04  0.50400001928E-02 0. -1.
       -1   -1    0    0    0  501  0.00000000000E+00  0.00000000000E+00 -0.10365629298E+04  0.10365629299E+04  0.50400001928E-02 0.  1.
    10030    2    1    2    0    0  0.00000000000E+00  0.00000000000E+00  0.22827966373E+04  0.43559224971E+04  0.37098383136E+04 0.  0.
        5    1    3    3  502    0  0.13478454609E+04 -0.65678908363E+02  0.26357152090E+04  0.29610838993E+04  0.46999998093E+01 0. -1.
       -5    1    3    3    0  502 -0.13478454609E+04  0.65678908363E+02 -0.35291857169E+03  0.13948385978E+04  0.46999998093E+01 0.  1.
</event>
<event>
 5   0  0.3190112E-07  0.3513074E+04  0.7818609E-02  0.8110698E-01
        2   -1    0    0  501    0  0.00000000000E+00  0.00000000000E+00  0.12884551707E+04  0.12884551707E+04  0.25500000920E-02 0. -1.
       -2   -1    0    0    0  501  0.00000000000E+00  0.00000000000E+00 -0.23946682428E+04  0.23946682428E+04  0.25500000920E-02 0.  1.
    10030    2    1    2    0    0  0.00000000000E+00  0.00000000000E+00 -0.11062130720E+04  0.36831234135E+04  0.35130742546E+04 0.  0.
        5    1    3    3  502    0  0.13041104004E+04  0.11686548047E+04 -0.69740069211E+03  0.18848999455E+04  0.46999998093E+01 0.  1.
       -5    1    3    3    0  502 -0.13041104004E+04 -0.11686548047E+04 -0.40881237993E+03  0.17982234681E+04  0.46999998093E+01 0. -1.
</event>
<event>
 5   0  0.3190112E-07  0.3498720E+04  0.7818609E-02  0.8114093E-01
        2   -1    0    0  501    0  0.00000000000E+00  0.00000000000E+00  0.18735773936E+04  0.18735773936E+04  0.25500000920E-02 0.  1.
       -2   -1    0    0    0  501  0.00000000000E+00  0.00000000000E+00 -0.16333782085E+04  0.16333782085E+04  0.25500000920E-02 0. -1.
    10030    2    1    2    0    0  0.00000000000E+00  0.00000000000E+00  0.24019918508E+03  0.35069556022E+04  0.34987200441E+04 0.  0.
        5    1    3    3  502    0  0.10059641657E+04 -0.62748909353E+03  0.14094134525E+04  0.18417857735E+04  0.46999998093E+01 0.  1.
       -5    1    3    3    0  502 -0.10059641657E+04  0.62748909353E+03 -0.11692142675E+04  0.16651698287E+04  0.46999998093E+01 0. -1.
</event>
<event>
 5   0  0.3190112E-07  0.3508779E+04  0.7818609E-02  0.8111713E-01
        2   -1    0    0  501    0  0.00000000000E+00  0.00000000000E+00  0.23591398449E+04  0.23591398449E+04  0.25500000920E-02 0.  1.
       -2   -1    0    0    0  501  0.00000000000E+00  0.00000000000E+00 -0.13046628917E+04  0.13046628918E+04  0.25500000920E-02 0. -1.
    10030    2    1    2    0    0  0.00000000000E+00  0.00000000000E+00  0.10544769531E+04  0.36638027366E+04  0.35087788258E+04 0.  0.
        5    1    3    3  502    0  0.12570094842E+04 -0.91076549601E+03 -0.32637193678E+03  0.15862242474E+04  0.46999998093E+01 0. -1.
       -5    1    3    3    0  502 -0.12570094842E+04  0.91076549601E+03  0.13808488899E+04  0.20775784892E+04  0.46999998093E+01 0.  1.
</event>
<event>
 5   0  0.1072381E-07  0.3515909E+04  0.7818609E-02  0.8110030E-01
       -1   -1    0    0    0  501  0.00000000000E+00  0.00000000000E+00  0.24341988969E+04  0.24341988969E+04  0.50400001928E-02 0.  1.
        1   -1    0    0  501    0  0.00000000000E+00  0.00000000000E+00 -0.12695773026E+04  0.12695773026E+04  0.50400001928E-02 0. -1.
    10030    2    1    2    0    0  0.00000000000E+00  0.00000000000E+00  0.11646215943E+04  0.37037761995E+04  0.35159087983E+04 0.  0.
        1    1    3    3  502    0  0.37100536242E+03  0.78745197548E+02  0.23905864051E+04  0.24204853119E+04  0.50400001928E-02 0.  1.
       -1    1    3    3    0  502 -0.37100536242E+03 -0.78745197548E+02 -0.12259648107E+04  0.12832908876E+04  0.50400001928E-02 0. -1.
</event>
<event>
 5   0  0.1013863E-07  0.3486828E+04  0.7818609E-02  0.8116919E-01
        1   -1    0    0  501    0  0.00000000000E+00  0.00000000000E+00  0.20158790824E+04  0.20158790824E+04  0.50400001928E-02 0.  1.
       -1   -1    0    0    0  501  0.00000000000E+00  0.00000000000E+00 -0.15077750583E+04  0.15077750583E+04  0.50400001928E-02 0. -1.
    10030    2    1    2    0    0  0.00000000000E+00  0.00000000000E+00  0.50810402413E+03  0.35236541407E+04  0.34868279000E+04 0.  0.
        2    1    3    3  502    0 -0.23951623755E+03  0.16971740351E+04  0.57636326931E+03  0.18083037222E+04  0.25500000920E-02 0.  1.
       -2    1    3    3    0  502  0.23951623755E+03 -0.16971740351E+04 -0.68259245174E+02  0.17153504185E+04  0.25500000920E-02 0. -1.
</event>
<event>
 5   0  0.2180451E-07  0.3493706E+04  0.7818609E-02  0.8115283E-01
       -2   -1    0    0    0  501  0.00000000000E+00  0.00000000000E+00  0.11075788035E+04  0.11075788035E+04  0.25500000920E-02 0.  1.
        2   -1    0    0  501    0  0.00000000000E+00  0.00000000000E+00 -0.27551039523E+04  0.27551039523E+04  0.25500000920E-02 0. -1.
    10030    2    1    2    0    0  0.00000000000E+00  0.00000000000E+00 -0.16475251487E+04  0.38626827558E+04  0.34937056196E+04 0.  0.
        4    1    3    3  502    0 -0.21355049107E+03  0.56324420264E+02 -0.27396056099E+04  0.27484935443E+04  0.12699999809E+01 0. -1.
       -4    1    3    3    0  502  0.21355049107E+03 -0.56324420264E+02  0.10920804611E+04  0.11141892115E+04  0.12699999809E+01 0.  1.
</event>
<event>
 5   0  0.3190185E-07  0.3513309E+04  0.7818609E-02  0.8110643E-01
       -2   -1    0    0    0  501  0.00000000000E+00  0.00000000000E+00  0.15431152020E+04  0.15431152020E+04  0.25500000920E-02 0. -1.
        2   -1    0    0  501    0  0.00000000000E+00  0.00000000000E+00 -0.19997436768E+04  0.19997436768E+04  0.25500000920E-02 0.  1.
    10030    2    1    2    0    0  0.00000000000E+00  0.00000000000E+00 -0.45662847472E+03  0.35428588788E+04  0.35133089063E+04 0.  0.
        1    1    3    3  502    0  0.15369612929E+04  0.68847500898E+03 -0.73210303881E+03  0.18363612698E+04  0.50400001928E-02 0.  1.
       -1    1    3    3    0  502 -0.15369612929E+04 -0.68847500898E+03  0.27547456409E+03  0.17064976090E+04  0.50400001928E-02 0. -1.
</event>
<event>
 5   0  0.1013863E-07  0.3502064E+04  0.7818609E-02  0.8113301E-01
        1   -1    0    0  501    0  0.00000000000E+00  0.00000000000E+00  0.20477878986E+04  0.20477878987E+04  0.50400001928E-02 0. -1.
       -1   -1    0    0    0  501  0.00000000000E+00  0.00000000000E+00 -0.14972806345E+04  0.14972806345E+04  0.50400001928E-02 0.  1.
    10030    2    1    2    0    0  0.00000000000E+00  0.00000000000E+00  0.55050726414E+03  0.35450685332E+04  0.35020640567E+04 0.  0.
        5    1    3    3  502    0 -0.27366680214E+03  0.14685063243E+04  0.12000844743E+04  0.19161495711E+04  0.46999998093E+01 0. -1.
       -5    1    3    3    0  502  0.27366680214E+03 -0.14685063243E+04 -0.64957721017E+03  0.16289189621E+04  0.46999998093E+01 0.  1.
</event>
<event>
 5   0  0.1013863E-07  0.3493292E+04  0.7818609E-02  0.8115382E-01
       -1   -1    0    0    0  501  0.00000000000E+00  0.00000000000E+00  0.29241045016E+04  0.29241045016E+04  0.50400001928E-02 0.  1.
        1   -1    0    0  501    0  0.00000000000E+00  0.00000000000E+00 -0.10433182956E+04  0.10433182956E+04  0.50400001928E-02 0. -1.
    10030    2    1    2    0    0  0.00000000000E+00  0.00000000000E+00  0.18807862060E+04  0.39674227972E+04  0.34932916997E+04 0.  0.
        2    1    3    3  502    0  0.36583779706E+03 -0.33572178170E+02  0.28797290386E+04  0.29030679842E+04  0.25500000920E-02 0.  1.
       -2    1    3    3    0  502 -0.36583779706E+03  0.33572178170E+02 -0.99894283268E+03  0.10643548130E+04  0.25500000920E-02 0. -1.
</event>
<event>
 5   0  0.3119048E-07  0.3495797E+04  0.7818609E-02  0.8114787E-01
       -2   -1    0    0    0  501  0.00000000000E+00  0.00000000000E+00  0.21931320939E+04  0.21931320939E+04  0.25500000920E-02 0. -1.
        2   -1    0    0  501    0  0.00000000000E+00  0.00000000000E+00 -0.13930533497E+04  0.13930533497E+04  0.25500000920E-02 0.  1.
    10030    2    1    2    0    0  0.00000000000E+00  0.00000000000E+00  0.80007874418E+03  0.35861854436E+04  0.34957974825E+04 0.  0.
        3    1    3    3  502    0 -0.10487651004E+04  0.11348070696E+04 -0.43806357713E+03  0.16061117735E+04  0.10100000352E+00 0.  1.
       -3    1    3    3    0  502  0.10487651004E+04 -0.11348070696E+04  0.12381423213E+04  0.19800736701E+04  0.10100000352E+00 0. -1.
</event>
<event>
 5   0  0.1013863E-07  0.3503209E+04  0.7818609E-02  0.8113030E-01
        1   -1    0    0  501    0  0.00000000000E+00  0.00000000000E+00  0.15637487280E+04  0.15637487280E+04  0.50400001928E-02 0.  1.
       -1   -1    0    0    0  501  0.00000000000E+00  0.00000000000E+00 -0.19620276787E+04  0.19620276787E+04  0.50400001928E-02 0. -1.
    10030    2    1    2    0    0  0.00000000000E+00  0.00000000000E+00 -0.39827895074E+03  0.35257764067E+04  0.35032089785E+04 0.  0.
        5    1    3    3  502    0  0.63733333893E+03  0.11885224090E+04  0.92578930674E+03  0.16358139356E+04  0.46999998093E+01 0.  1.
       -5    1    3    3    0  502 -0.63733333893E+03 -0.11885224090E+04 -0.13240682575E+04  0.18899624711E+04  0.46999998093E+01 0. -1.
</event>
<event>
 5   0  0.1013863E-07  0.3492179E+04  0.7818609E-02  0.8115646E-01
        4   -1    0    0  501    0  0.00000000000E+00  0.00000000000E+00  0.24434284517E+04  0.24434287818E+04  0.12699999809E+01 0.  1.
       -4   -1    0    0    0  501  0.00000000000E+00  0.00000000000E+00 -0.12477656957E+04  0.12477663420E+04  0.12699999809E+01 0. -1.
    10030    2    1    2    0    0  0.00000000000E+00  0.00000000000E+00  0.11956627560E+04  0.36911951238E+04  0.34921786919E+04 0.  0.
        5    1    3    3  502    0  0.94692894447E+03  0.10852945224E+04 -0.44546957907E+03  0.15076484544E+04  0.46999998093E+01 0. -1.
       -5    1    3    3    0  502 -0.94692894447E+03 -0.10852945224E+04  0.16411323351E+04  0.21835466694E+04  0.46999998093E+01 0.  1.
</event>
<event>
 5   0  0.3190112E-07  0.3495339E+04  0.7818609E-02  0.8114895E-01
        2   -1    0    0  501    0  0.00000000000E+00  0.00000000000E+00  0.28947958218E+04  0.28947958218E+04  0.25500000920E-02 0.  1.
       -2   -1    0    0    0  501  0.00000000000E+00  0.00000000000E+00 -0.10551173194E+04  0.10551173194E+04  0.25500000920E-02 0. -1.
    10030    2    1    2    0    0  0.00000000000E+00  0.00000000000E+00  0.18396785024E+04  0.39499131412E+04  0.34953393013E+04 0.  0.
        5    1    3    3  502    0  0.15112125747E+04 -0.85121538561E+03  0.11621978440E+04  0.20878354814E+04  0.46999998093E+01 0.  1.
       -5    1    3    3    0  502 -0.15112125747E+04  0.85121538561E+03  0.67748065847E+03  0.18620776599E+04  0.46999998093E+01 0. -1.
</event>
<event>
 5   0  0.3190185E-07  0.3494309E+04  0.7818609E-02  0.8115140E-01
        2   -1    0    0  501    0  0.00000000000E+00  0.00000000000E+00  0.12916213626E+04  0.12916213626E+04  0.25500000920E-02 0.  1.
       -2   -1    0    0    0  501  0.00000000000E+00  0.00000000000E+00 -0.23633463259E+04  0.23633463259E+04  0.25500000920E-02 0. -1.
    10030    2    1    2    0    0  0.00000000000E+00  0.00000000000E+00 -0.10717249633E+04  0.36549676886E+04  0.34943088598E+04 0.  0.
        1    1    3    3  502    0  0.99977370233E+03  0.14227312732E+04 -0.71348430094E+03  0.18795668595E+04  0.50400001928E-02 0. -1.
       -1    1    3    3    0  502 -0.99977370233E+03 -0.14227312732E+04 -0.35824066235E+03  0.17754008291E+04  0.50400001928E-02 0.  1.
</event>
<event>
 5   0  0.1013863E-07  0.3503791E+04  0.7818609E-02  0.8112892E-01
        1   -1    0    0  501    0  0.00000000000E+00  0.00000000000E+00  0.19671838515E+04  0.19671838515E+04  0.50400001928E-02 0.  1.
       -1   -1    0    0    0  501  0.00000000000E+00  0.00000000000E+00 -0.15601685810E+04  0.15601685810E+04  0.50400001928E-02 0. -1.
    10030    2    1    2    0    0  0.00000000000E+00  0.00000000000E+00  0.40701527047E+03  0.35273524325E+04  0.35037913398E+04 0.  0.
        2    1    3    3  502    0  0.62847473450E+02  0.51863931817E+03  0.18869369349E+04  0.19579242946E+04  0.25500000920E-02 0.  1.
       -2    1    3    3    0  502 -0.62847473450E+02 -0.51863931817E+03 -0.14799216644E+04  0.15694281379E+04  0.25500000920E-02 0. -1.
</event>
<event>
 5   0  0.1013863E-07  0.3495114E+04  0.7818609E-02  0.8114949E-01
       -1   -1    0    0    0  501  0.00000000000E+00  0.00000000000E+00  0.20876178868E+04  0.20876178868E+04  0.50400001928E-02 0.  1.
        1   -1    0    0  501    0  0.00000000000E+00  0.00000000000E+00 -0.14628898200E+04  0.14628898200E+04  0.50400001928E-02 0. -1.
    10030    2    1    2    0    0  0.00000000000E+00  0.00000000000E+00  0.62472806687E+03  0.35505077068E+04  0.34951137061E+04 0.  0.
        5    1    3    3  502    0  0.84010941213E+03 -0.81744945937E+03 -0.10042975117E+04  0.15435812337E+04  0.46999998093E+01 0. -1.
       -5    1    3    3    0  502 -0.84010941213E+03  0.81744945937E+03  0.16290255786E+04  0.20069264731E+04  0.46999998093E+01 0.  1.
</event>
<event>
 5   0  0.1033796E-07  0.3486085E+04  0.7818609E-02  0.8117096E-01
        1   -1    0    0  501    0  0.00000000000E+00  0.00000000000E+00  0.18386671775E+04  0.18386671775E+04  0.50400001928E-02 0.  1.
       -1   -1    0    0    0  501  0.00000000000E+00  0.00000000000E+00 -0.16523911482E+04  0.16523911482E+04  0.50400001928E-02 0. -1.
    10030    2    1    2    0    0  0.00000000000E+00  0.00000000000E+00  0.18627602932E+03  0.34910583258E+04  0.34860851216E+04 0.  0.
        3    1    3    3  502    0  0.11383649234E+04 -0.12248432861E+04  0.58585779078E+03  0.17718197243E+04  0.10100000352E+00 0. -1.
       -3    1    3    3    0  502 -0.11383649234E+04  0.12248432861E+04 -0.39958176147E+03  0.17192386014E+04  0.10100000352E+00 0.  1.
</event>
<event>
 5   0  0.1072381E-07  0.3480833E+04  0.7818609E-02  0.8118347E-01
       -1   -1    0    0    0  501  0.00000000000E+00  0.00000000000E+00  0.20295401060E+04  0.20295401060E+04  0.50400001928E-02 0.  1.
        1   -1    0    0  501    0  0.00000000000E+00  0.00000000000E+00 -0.14924811772E+04  0.14924811772E+04  0.50400001928E-02 0. -1.
    10030    2    1    2    0    0  0.00000000000E+00  0.00000000000E+00  0.53705892880E+03  0.35220212831E+04  0.34808334671E+04 0.  0.
        1    1    3    3  502    0  0.13549944173E+04 -0.10774977860E+04  0.44964203334E+03  0.17886277723E+04  0.50400001928E-02 0.  1.
       -1    1    3    3    0  502 -0.13549944173E+04  0.10774977860E+04  0.87416895460E+02  0.17333935108E+04  0.50400001928E-02 0. -1.
</event>
<event>
 5   0  0.1013863E-07  0.3502191E+04  0.7818609E-02  0.8113271E-01
       -1   -1    0    0    0  501  0.00000000000E+00  0.00000000000E+00  0.17208715331E+04  0.17208715331E+04  0.50400001928E-02 0. -1.
        1   -1    0    0  501    0  0.00000000000E+00  0.00000000000E+00 -0.17818507862E+04  0.17818507862E+04  0.50400001928E-02 0.  1.
    10030    2    1    2    0    0  0.00000000000E+00  0.00000000000E+00 -0.60979253120E+02  0.35027223193E+04  0.35021914820E+04 0.  0.
        5    1    3    3  502    0 -0.61435247958E+03  0.16380507084E+04  0.44855129142E+02  0.17500494750E+04  0.46999998093E+01 0. -1.
       -5    1    3    3    0  502  0.61435247958E+03 -0.16380507084E+04 -0.10583438226E+03  0.17526728442E+04  0.46999998093E+01 0.  1.
</event>
<event>
 5   0  0.1013863E-07  0.3493669E+04  0.7818609E-02  0.8115292E-01
       -1   -1    0    0    0  501  0.00000000000E+00  0.00000000000E+00  0.12425716055E+04  0.12425716055E+04  0.50400001928E-02 0.  1.
        1   -1    0    0  501    0  0.00000000000E+00  0.00000000000E+00 -0.24557376696E+04  0.24557376696E+04  0.50400001928E-02 0. -1.
    10030    2    1    2    0    0  0.00000000000E+00  0.00000000000E+00 -0.12131660641E+04  0.36983092751E+04  0.34936685011E+04 0.  0.
        2    1    3    3  502    0  0.67727666407E+03 -0.14073780153E+04  0.22155356433E+03  0.15774988239E+04  0.25500000920E-02 0.  1.
       -2    1    3    3    0  502 -0.67727666407E+03  0.14073780153E+04 -0.14347196285E+04  0.21208104512E+04  0.25500000920E-02 0. -1.
</event>
<event>
 5   0  0.1033796E-07  0.3478524E+04  0.7818609E-02  0.8118898E-01
       -1   -1    0    0    0  501  0.00000000000E+00  0.00000000000E+00  0.16253564106E+04  0.16253564106E+04  0.50400001928E-02 0.  1.
        1   -1    0    0  501    0  0.00000000000E+00  0.00000000000E+00 -0.18611504347E+04  0.18611504347E+04  0.50400001928E-02 0. -1.
    10030    2    1    2    0    0  0.00000000000E+00  0.00000000000E+00 -0.23579402415E+03  0.34865068453E+04  0.34785242791E+04 0.  0.
        3    1    3    3  502    0 -0.36123905385E+03  0.27046057184E+03 -0.18014510487E+04  0.18571129384E+04  0.10100000352E+00 0. -1.
       -3    1    3    3    0  502  0.36123905385E+03 -0.27046057184E+03  0.15656570246E+04  0.16293939069E+04  0.10100000352E+00 0.  1.
</event>
<event>
 5   0  0.2180451E-07  0.3493209E+04  0.7818609E-02  0.8115401E-01
       -2   -1    0    0    0  501  0.00000000000E+00  0.00000000000E+00  0.18965946722E+04  0.18965946722E+04  0.25500000920E-02 0. -1.
        2   -1    0    0  501    0  0.00000000000E+00  0.00000000000E+00 -0.16084757585E+04  0.16084757585E+04  0.25500000920E-02 0.  1.
    10030    2    1    2    0    0  0.00000000000E+00  0.00000000000E+00  0.28811891373E+03  0.35050704307E+04  0.34932085846E+04 0.  0.
        4    1    3    3  502    0 -0.29480743807E+03 -0.12655672808E+03 -0.15786563689E+04  0.16109269304E+04  0.12699999809E+01 0.  1.
       -4    1    3    3    0  502  0.29480743807E+03  0.12655672808E+03  0.18667752827E+04  0.18941435003E+04  0.12699999809E+01 0. -1.
</event>
<event>
 5   0  0.1033796E-07  0.3537820E+04  0.7818609E-02  0.8104885E-01
       -1   -1    0    0    0  501  0.00000000000E+00  0.00000000000E+00  0.17054887061E+04  0.17054887061E+04  0.50400001928E-02 0. -1.
        1   -1    0    0  501    0  0.00000000000E+00  0.00000000000E+00 -0.18346896371E+04  0.18346896371E+04  0.50400001928E-02 0.  1.
    10030    2    1    2    0    0  0.00000000000E+00  0.00000000000E+00 -0.12920093095E+03  0.35401783432E+04  0.35378199249E+04 0.  0.
        3    1    3    3  502    0  0.55219844626E+03 -0.14496473976E+04  0.78604960047E+03  0.17390441875E+04  0.10100000352E+00 0. -1.
       -3    1    3    3    0  502 -0.55219844626E+03  0.14496473976E+04 -0.91525053142E+03  0.18011341557E+04  0.10100000352E+00 0.  1.
</event>
<event>
 5   0  0.3119048E-07  0.3447745E+04  0.7818609E-02  0.8126286E-01
       -2   -1    0    0    0  501  0.00000000000E+00  0.00000000000E+00  0.12541062364E+04  0.12541062364E+04  0.25500000920E-02 0.  1.
        2   -1    0    0  501    0  0.00000000000E+00  0.00000000000E+00 -0.23696055301E+04  0.23696055301E+04  0.25500000920E-02 0. -1.
    10030    2    1    2    0    0  0.00000000000E+00  0.00000000000E+00 -0.11154992937E+04  0.36237117665E+04  0.34477453926E+04 0.  0.
        3    1    3    3  502    0 -0.15130652316E+04 -0.76403340351E+03 -0.22767745083E+03  0.17102486569E+04  0.10100000352E+00 0.  1.
       -3    1    3    3    0  502  0.15130652316E+04  0.76403340351E+03 -0.88782184291E+03  0.19134631096E+04  0.10100000352E+00 0. -1.
</event>
<event>
 5   0  0.3119048E-07  0.3494418E+04  0.7818609E-02  0.8115114E-01
       -2   -1    0    0    0  501  0.00000000000E+00  0.00000000000E+00  0.16330809308E+04  0.16330809308E+04  0.25500000920E-02 0. -1.
        2   -1    0    0  501    0  0.00000000000E+00  0.00000000000E+00 -0.18693124503E+04  0.18693124503E+04  0.25500000920E-02 0.  1.
    10030    2    1    2    0    0  0.00000000000E+00  0.00000000000E+00 -0.23623151945E+03  0.35023933811E+04  0.34944175574E+04 0.  0.
        3    1    3    3  502    0  0.11135301820E+04 -0.87969297603E+03  0.90348950794E+03  0.16822908486E+04  0.10100000352E+00 0. -1.
       -3    1    3    3    0  502 -0.11135301820E+04  0.87969297603E+03 -0.11397210274E+04  0.18201025325E+04  0.10100000352E+00 0.  1.
</event>
<event>
 5   0  0.3190112E-07  0.3494152E+04  0.7818609E-02  0.8115177E-01
        2   -1    0    0  501    0  0.00000000000E+00  0.00000000000E+00  0.17362305793E+04  0.17362305793E+04  0.25500000920E-02 0.  1.
       -2   -1    0    0    0  501  0.00000000000E+00  0.00000000000E+00 -0.17579896524E+04  0.17579896524E+04  0.25500000920E-02 0. -1.
    10030    2    1    2    0    0  0.00000000000E+00  0.00000000000E+00 -0.21759073050E+02  0.34942202317E+04  0.34941524824E+04 0.  0.
        5    1    3    3  502    0  0.78040593019E+03 -0.15615523238E+04  0.58217581929E+02  0.17466798369E+04  0.46999998093E+01 0.  1.
       -5    1    3    3    0  502 -0.78040593019E+03  0.15615523238E+04 -0.79976654978E+02  0.17475403948E+04  0.46999998093E+01 0. -1.
</event>
<event>
 5   0  0.3190112E-07  0.3502849E+04  0.7818609E-02  0.8113115E-01
       -2   -1    0    0    0  501  0.00000000000E+00  0.00000000000E+00  0.16344788641E+04  0.16344788641E+04  0.25500000920E-02 0. -1.
        2   -1    0    0  501    0  0.00000000000E+00  0.00000000000E+00 -0.18767373849E+04  0.18767373849E+04  0.25500000920E-02 0.  1.
    10030    2    1    2    0    0  0.00000000000E+00  0.00000000000E+00 -0.24225852079E+03  0.35112162489E+04  0.35028488914E+04 0.  0.
        5    1    3    3  502    0 -0.38590266259E+03  0.71974954517E+03  0.14319281235E+04  0.16484539768E+04  0.46999998093E+01 0. -1.
       -5    1    3    3    0  502  0.38590266259E+03 -0.71974954517E+03 -0.16741866443E+04  0.18627622722E+04  0.46999998093E+01 0.  1.
</event>
<event>
 5   0  0.1013863E-07  0.3499251E+04  0.7818609E-02  0.8113967E-01
       -1   -1    0    0    0  501  0.00000000000E+00  0.00000000000E+00  0.22366854876E+04  0.22366854876E+04  0.50400001928E-02 0.  1.
        1   -1    0    0  501    0  0.00000000000E+00  0.00000000000E+00 -0.13686275787E+04  0.13686275787E+04  0.50400001928E-02 0. -1.
    10030    2    1    2    0    0  0.00000000000E+00  0.00000000000E+00  0.86805790893E+03  0.36053130663E+04  0.34992510303E+04 0.  0.
        5    1    3    3  502    0 -0.14684621526E+04  0.57222234836E+03  0.12168935583E+04  0.19911482947E+04  0.46999998093E+01 0.  1.
       -5    1    3    3    0  502  0.14684621526E+04 -0.57222234836E+03 -0.34883564932E+03  0.16141647716E+04  0.46999998093E+01 0. -1.
</event>
<event>
 5   0  0.1013863E-07  0.3504071E+04  0.7818609E-02  0.8112826E-01
        1   -1    0    0  501    0  0.00000000000E+00  0.00000000000E+00  0.23292771602E+04  0.23292771602E+04  0.50400001928E-02 0. -1.
       -1   -1    0    0    0  501  0.00000000000E+00  0.00000000000E+00 -0.13178456941E+04  0.13178456941E+04  0.50400001928E-02 0.  1.
    10030    2    1    2    0    0  0.00000000000E+00  0.00000000000E+00  0.10114314661E+04  0.36471228544E+04  0.35040707048E+04 0.  0.
        2    1    3    3  502    0 -0.20405371653E+03 -0.28823319376E+03 -0.12804167233E+04  0.13282256128E+04  0.25500000920E-02 0.  1.
       -2    1    3    3    0  502  0.20405371653E+03  0.28823319376E+03  0.22918481895E+04  0.23188972415E+04  0.25500000920E-02 0. -1.
</event>
<event>
 5   0  0.3190112E-07  0.3495926E+04  0.7818609E-02  0.8114756E-01
        2   -1    0    0  501    0  0.00000000000E+00  0.00000000000E+00  0.22657101345E+04  0.22657101345E+04  0.25500000920E-02 0.  1.
       -2   -1    0    0    0  501  0.00000000000E+00  0.00000000000E+00 -0.13485288179E+04  0.13485288179E+04  0.25500000920E-02 0. -1.
    10030    2    1    2    0    0  0.00000000000E+00  0.00000000000E+00  0.91718131659E+03  0.36142389524E+04  0.34959264348E+04 0.  0.
        5    1    3    3  502    0  0.96518983645E+03 -0.33892777811E+03  0.19239112086E+04  0.21789722090E+04  0.46999998093E+01 0.  1.
       -5    1    3    3    0  502 -0.96518983645E+03  0.33892777811E+03 -0.10067298920E+04  0.14352667434E+04  0.46999998093E+01 0. -1.
</event>
<event>
 5   0  0.2180451E-07  0.3507039E+04  0.7818609E-02  0.8112124E-01
        2   -1    0    0  501    0  0.00000000000E+00  0.00000000000E+00  0.31849080902E+04  0.31849080902E+04  0.25500000920E-02 0. -1.
       -2   -1    0    0    0  501  0.00000000000E+00  0.00000000000E+00 -0.96543766222E+03  0.96543766222E+03  0.25500000920E-02 0.  1.
    10030    2    1    2    0    0  0.00000000000E+00  0.00000000000E+00  0.22194704280E+04  0.41503457525E+04  0.35070387628E+04 0.  0.
        4    1    3    3  502    0  0.73429964571E+03  0.13642428925E+04  0.20816457905E+04  0.25949191605E+04  0.12699999809E+01 0. -1.
       -4    1    3    3    0  502 -0.73429964571E+03 -0.13642428925E+04  0.13782463756E+03  0.15554265920E+04  0.12699999809E+01 0.  1.
</event>
<event>
 5   0  0.1013863E-07  0.3487764E+04  0.7818609E-02  0.8116696E-01
        1   -1    0    0  501    0  0.00000000000E+00  0.00000000000E+00  0.96783657585E+03  0.96783657586E+03  0.50400001928E-02 0. -1.
       -1   -1    0    0    0  501  0.00000000000E+00  0.00000000000E+00 -0.31421881312E+04  0.31421881312E+04  0.50400001928E-02 0.  1.
    10030    2    1    2    0    0  0.00000000000E+00  0.00000000000E+00 -0.21743515553E+04  0.41100247070E+04  0.34877640984E+04 0.  0.
        2    1    3    3  502    0 -0.31500316617E+03 -0.16882572442E+04 -0.14439937113E+04  0.22437819314E+04  0.25500000920E-02 0.  1.
       -2    1    3    3    0  502  0.31500316617E+03  0.16882572442E+04 -0.73035784402E+03  0.18662427756E+04  0.25500000920E-02 0. -1.
</event>
<event>
 5   0  0.3190185E-07  0.3487901E+04  0.7818609E-02  0.8116663E-01
       -2   -1    0    0    0  501  0.00000000000E+00  0.00000000000E+00  0.16682094723E+04  0.16682094723E+04  0.25500000920E-02 0. -1.
        2   -1    0    0  501    0  0.00000000000E+00  0.00000000000E+00 -0.18231306314E+04  0.18231306314E+04  0.25500000920E-02 0.  1.
    10030    2    1    2    0    0  0.00000000000E+00  0.00000000000E+00 -0.15492115908E+03  0.34913401037E+04  0.34879012535E+04 0.  0.
        1    1    3    3  502    0 -0.23872281812E+03  0.17225034131E+04  0.54416027283E+02  0.17398182940E+04  0.50400001928E-02 0. -1.
       -1    1    3    3    0  502  0.23872281812E+03 -0.17225034131E+04 -0.20933718636E+03  0.17515218097E+04  0.50400001928E-02 0.  1.
</event>
<event>
 5   0  0.1098171E-07  0.3487718E+04  0.7818609E-02  0.8116707E-01
       -1   -1    0    0    0  501  0.00000000000E+00  0.00000000000E+00  0.13108074137E+04  0.13108074137E+04  0.50400001928E-02 0. -1.
        1   -1    0    0  501    0  0.00000000000E+00  0.00000000000E+00 -0.23199775165E+04  0.23199775165E+04  0.50400001928E-02 0.  1.
    10030    2    1    2    0    0  0.00000000000E+00  0.00000000000E+00 -0.10091701028E+04  0.36307849302E+04  0.34877177226E+04 0.  0.
        4    1    3    3  502    0 -0.47607496026E+03 -0.15635684290E+04  0.12834203080E+03  0.16394715276E+04  0.12699999809E+01 0. -1.
       -4    1    3    3    0  502  0.47607496026E+03  0.15635684290E+04 -0.11375121336E+04  0.19913134025E+04  0.12699999809E+01 0.  1.
</event>
<event>
 5   0  0.1013863E-07  0.3508989E+04  0.7818609E-02  0.8111663E-01
        3   -1    0    0  501    0  0.00000000000E+00  0.00000000000E+00  0.15380476178E+04  0.15380476211E+04  0.10100000352E+00 0.  1.
       -3   -1    0    0    0  501  0.00000000000E+00  0.00000000000E+00 -0.20014021084E+04  0.20014021110E+04  0.10100000352E+00 0. -1.
    10030    2    1    2    0    0  0.00000000000E+00  0.00000000000E+00 -0.46335449063E+03  0.35394497321E+04  0.35089894588E+04 0.  0.
        3    1    3    3  502    0 -0.16368286783E+04 -0.41020731972E+03 -0.71623631528E+03  0.18331591957E+04  0.10100000352E+00 0.  1.
       -3    1    3    3    0  502  0.16368286783E+04  0.41020731972E+03  0.25288182465E+03  0.17062905364E+04  0.10100000352E+00 0. -1.
</event>
<event>
 5   0  0.3119048E-07  0.3516038E+04  0.7818609E-02  0.8110000E-01
       -2   -1    0    0    0  501  0.00000000000E+00  0.00000000000E+00  0.11660764672E+04  0.11660764672E+04  0.25500000920E-02 0.  1.
        2   -1    0    0  501    0  0.00000000000E+00  0.00000000000E+00 -0.26504530689E+04  0.26504530689E+04  0.25500000920E-02 0. -1.
    10030    2    1    2    0    0  0.00000000000E+00  0.00000000000E+00 -0.14843766017E+04  0.38165295361E+04  0.35160380835E+04 0.  0.
        3    1    3    3  502    0  0.97653864569E+03 -0.55828972610E+03 -0.22086950411E+04  0.24786385254E+04  0.10100000352E+00 0. -1.
       -3    1    3    3    0  502 -0.97653864569E+03  0.55828972610E+03  0.72431843938E+03  0.13378910107E+04  0.10100000352E+00 0.  1.
</event>
<event>
 5   0  0.1098171E-07  0.3496110E+04  0.7818609E-02  0.8114713E-01
       -1   -1    0    0    0  501  0.00000000000E+00  0.00000000000E+00  0.19442472285E+04  0.19442472285E+04  0.50400001928E-02 0. -1.
        1   -1    0    0  501    0  0.00000000000E+00  0.00000000000E+00 -0.15716601062E+04  0.15716601062E+04  0.50400001928E-02 0.  1.
    10030    2    1    2    0    0  0.00000000000E+00  0.00000000000E+00  0.37258712230E+03  0.35159073347E+04  0.34961097269E+04 0.  0.
        4    1    3    3  502    0  0.14221134464E+04 -0.40666048056E+03  0.11231885383E+04  0.18572381394E+04  0.12699999809E+01 0. -1.
       -4    1    3    3    0  502 -0.14221134464E+04  0.40666048056E+03 -0.75060141603E+03  0.16586691953E+04  0.12699999809E+01 0.  1.
</event>
<event>
 5   0  0.3119048E-07  0.3520551E+04  0.7818609E-02  0.8108937E-01
       -2   -1    0    0    0  501  0.00000000000E+00  0.00000000000E+00  0.19296631860E+04  0.19296631860E+04  0.25500000920E-02 0.  1.
        2   -1    0    0  501    0  0.00000000000E+00  0.00000000000E+00 -0.16057570898E+04  0.16057570898E+04  0.25500000920E-02 0. -1.
    10030    2    1    2    0    0  0.00000000000E+00  0.00000000000E+00  0.32390609624E+03  0.35354202758E+04  0.35205512874E+04 0.  0.
        3    1    3    3  502    0 -0.22513836724E+03 -0.12501064441E+04 -0.10618476501E+04  0.16555886712E+04  0.10100000352E+00 0. -1.
       -3    1    3    3    0  502  0.22513836724E+03  0.12501064441E+04  0.13857537464E+04  0.18798316046E+04  0.10100000352E+00 0.  1.
</event>
<event>
 5   0  0.2180451E-07  0.3497563E+04  0.7818609E-02  0.8114368E-01
       -2   -1    0    0    0  501  0.00000000000E+00  0.00000000000E+00  0.19023598516E+04  0.19023598516E+04  0.25500000920E-02 0. -1.
        2   -1    0    0  501    0  0.00000000000E+00  0.00000000000E+00 -0.16076018324E+04  0.16076018324E+04  0.25500000920E-02 0.  1.
    10030    2    1    2    0    0  0.00000000000E+00  0.00000000000E+00  0.29475801925E+03  0.35099616840E+04  0.34975632565E+04 0.  0.
        4    1    3    3  502    0 -0.29784701204E+03  0.13852955366E+04 -0.88118301571E+03  0.16686047124E+04  0.12699999809E+01 0.  1.
       -4    1    3    3    0  502  0.29784701204E+03 -0.13852955366E+04  0.11759410350E+04  0.18413569716E+04  0.12699999809E+01 0. -1.
</event>
<event>
 5   0  0.3219205E-07  0.3525545E+04  0.7818609E-02  0.8107763E-01
       -2   -1    0    0    0  501  0.00000000000E+00  0.00000000000E+00  0.19820297081E+04  0.19820297081E+04  0.25500000920E-02 0.  1.
        2   -1    0    0  501    0  0.00000000000E+00  0.00000000000E+00 -0.15677704991E+04  0.15677704991E+04  0.25500000920E-02 0. -1.
    10030    2    1    2    0    0  0.00000000000E+00  0.00000000000E+00  0.41425920906E+03  0.35498002072E+04  0.35255454640E+04 0.  0.
        2    1    3    3  502    0 -0.39109012785E+03  0.16135431364E+04  0.80356860602E+03  0.18445041192E+04  0.25500000920E-02 0. -1.
       -2    1    3    3    0  502  0.39109012785E+03 -0.16135431364E+04 -0.38930939696E+03  0.17052960880E+04  0.25500000920E-02 0.  1.
</event>
<event>
 5   0  0.3219205E-07  0.3501916E+04  0.7818609E-02  0.8113336E-01
       -2   -1    0    0    0  501  0.00000000000E+00  0.00000000000E+00  0.13503382531E+04  0.13503382531E+04  0.25500000920E-02 0.  1.
        2   -1    0    0  501    0  0.00000000000E+00  0.00000000000E+00 -0.22704346730E+04  0.22704346730E+04  0.25500000920E-02 0. -1.
    10030    2    1    2    0    0  0.00000000000E+00  0.00000000000E+00 -0.92009641993E+03  0.36207729261E+04  0.35019164982E+04 0.  0.
        2    1    3    3  502    0 -0.74386845585E+03 -0.19882189285E+03 -0.20859944733E+04  0.22235654628E+04  0.25500000920E-02 0. -1.
       -2    1    3    3    0  502  0.74386845585E+03  0.19882189285E+03  0.11658980534E+04  0.13972074633E+04  0.25500000920E-02 0.  1.
</event>
<event>
 5   0  0.1013863E-07  0.3518064E+04  0.7818609E-02  0.8109522E-01
       -1   -1    0    0    0  501  0.00000000000E+00  0.00000000000E+00  0.19271002692E+04  0.19271002692E+04  0.50400001928E-02 0.  1.
        1   -1    0    0  501    0  0.00000000000E+00  0.00000000000E+00 -0.16056212978E+04  0.16056212978E+04  0.50400001928E-02 0. -1.
    10030    2    1    2    0    0  0.00000000000E+00  0.00000000000E+00  0.32147897141E+03  0.35327215669E+04  0.35180638056E+04 0.  0.
        2    1    3    3  502    0  0.16683832664E+03  0.13779746127E+04  0.12457710155E+04  0.18650990547E+04  0.25500000920E-02 0.  1.
       -2    1    3    3    0  502 -0.16683832664E+03 -0.13779746127E+04 -0.92429204412E+03  0.16676225123E+04  0.25500000920E-02 0. -1.
</event>
<event>
 5   0  0.3219205E-07  0.3494678E+04  0.7818609E-02  0.8115052E-01
       -2   -1    0    0    0  501  0.00000000000E+00  0.00000000000E+00  0.10667312373E+04  0.10667312374E+04  0.25500000920E-02 0.  1.
        2   -1    0    0  501    0  0.00000000000E+00  0.00000000000E+00 -0.28621950139E+04  0.28621950139E+04  0.25500000920E-02 0. -1.
    10030    2    1    2    0    0  0.00000000000E+00  0.00000000000E+00 -0.17954637766E+04  0.39289262513E+04  0.34946775695E+04 0.  0.
        2    1    3    3  502    0  0.11075569228E+04  0.84593616511E+03  0.28723096383E+03  0.14229518471E+04  0.25500000920E-02 0.  1.
       -2    1    3    3    0  502 -0.11075569228E+04 -0.84593616511E+03 -0.20826947404E+04  0.25059744042E+04  0.25500000920E-02 0. -1.
</event>
<event>
 5   0  0.3190112E-07  0.3486323E+04  0.7818609E-02  0.8117039E-01
       -2   -1    0    0    0  501  0.00000000000E+00  0.00000000000E+00  0.13845805190E+04  0.13845805190E+04  0.25500000920E-02 0. -1.
        2   -1    0    0  501    0  0.00000000000E+00  0.00000000000E+00 -0.21946086168E+04  0.21946086168E+04  0.25500000920E-02 0.  1.
    10030    2    1    2    0    0  0.00000000000E+00  0.00000000000E+00 -0.81002809774E+03  0.35791891358E+04  0.34863231851E+04 0.  0.
        5    1    3    3  502    0 -0.84059324450E+02  0.13170962245E+04  0.76408271919E+03  0.15250091562E+04  0.46999998093E+01 0. -1.
       -5    1    3    3    0  502  0.84059324450E+02 -0.13170962245E+04 -0.15741108169E+04  0.20541799796E+04  0.46999998093E+01 0.  1.
</event>
<event>
 5   0  0.3119048E-07  0.3497849E+04  0.7818609E-02  0.8114300E-01
        2   -1    0    0  501    0  0.00000000000E+00  0.00000000000E+00  0.17355267035E+04  0.17355267035E+04  0.25500000920E-02 0.  1.
       -2   -1    0    0    0  501  0.00000000000E+00  0.00000000000E+00 -0.17624261416E+04  0.17624261416E+04  0.25500000920E-02 0. -1.
    10030    2    1    2    0    0  0.00000000000E+00  0.00000000000E+00 -0.26899438037E+02  0.34979528451E+04  0.34978494145E+04 0.  0.
        3    1    3    3  502    0 -0.15761098158E+04 -0.64732662679E+03 -0.40790238993E+03  0.17520097840E+04  0.10100000352E+00 0.  1.
       -3    1    3    3    0  502  0.15761098158E+04  0.64732662679E+03  0.38100295189E+03  0.17459430611E+04  0.10100000352E+00 0. -1.
</event>
<event>
 5   0  0.3190185E-07  0.3496323E+04  0.7818609E-02  0.8114662E-01
       -2   -1    0    0    0  501  0.00000000000E+00  0.00000000000E+00  0.19006137874E+04  0.19006137874E+04  0.25500000920E-02 0.  1.
        2   -1    0    0  501    0  0.00000000000E+00  0.00000000000E+00 -0.16079381630E+04  0.16079381630E+04  0.25500000920E-02 0. -1.
    10030    2    1    2    0    0  0.00000000000E+00  0.00000000000E+00  0.29267562443E+03  0.35085519504E+04  0.34963234644E+04 0.  0.
        1    1    3    3  502    0  0.14645815076E+04 -0.19796114112E+03  0.10833497450E+04  0.18324394331E+04  0.50400001928E-02 0.  1.
       -1    1    3    3    0  502 -0.14645815076E+04  0.19796114112E+03 -0.79067412062E+03  0.16761125173E+04  0.50400001928E-02 0. -1.
</event>
<event>
 5   0  0.1033796E-07  0.3498511E+04  0.7818609E-02  0.8114143E-01
       -1   -1    0    0    0  501  0.00000000000E+00  0.00000000000E+00  0.10119165666E+04  0.10119165666E+04  0.50400001928E-02 0. -1.
        1   -1    0    0  501    0  0.00000000000E+00  0.00000000000E+00 -0.30238607545E+04  0.30238607545E+04  0.50400001928E-02 0.  1.
    10030    2    1    2    0    0  0.00000000000E+00  0.00000000000E+00 -0.20119441879E+04  0.40357773212E+04  0.34985109934E+04 0.  0.
        3    1    3    3  502    0 -0.16004098232E+04 -0.34438073862E+03 -0.17170664454E+04  0.23723884344E+04  0.10100000352E+00 0.  1.
       -3    1    3    3    0  502  0.16004098232E+04  0.34438073862E+03 -0.29487774254E+03  0.16633888868E+04  0.10100000352E+00 0. -1.
</event>
<event>
 5   0  0.1072381E-07  0.3490978E+04  0.7818609E-02  0.8115931E-01
        1   -1    0    0  501    0  0.00000000000E+00  0.00000000000E+00  0.20338048633E+04  0.20338048633E+04  0.50400001928E-02 0.  1.
       -1   -1    0    0    0  501  0.00000000000E+00  0.00000000000E+00 -0.14980455773E+04  0.14980455773E+04  0.50400001928E-02 0. -1.
    10030    2    1    2    0    0  0.00000000000E+00  0.00000000000E+00  0.53575928606E+03  0.35318504406E+04  0.34909783045E+04 0.  0.
        1    1    3    3  502    0  0.26339598206E+03 -0.10405936717E+04  0.16604101657E+04  0.19771632586E+04  0.50400001928E-02 0.  1.
       -1    1    3    3    0  502 -0.26339598206E+03  0.10405936717E+04 -0.11246508796E+04  0.15546871820E+04  0.50400001928E-02 0. -1.
</event>
<event>
 5   0  0.3190185E-07  0.3486039E+04  0.7818609E-02  0.8117106E-01
        2   -1    0    0  501    0  0.00000000000E+00  0.00000000000E+00  0.19241048341E+04  0.19241048341E+04  0.25500000920E-02 0. -1.
       -2   -1    0    0    0  501  0.00000000000E+00  0.00000000000E+00 -0.15789769362E+04  0.15789769362E+04  0.25500000920E-02 0.  1.
    10030    2    1    2    0    0  0.00000000000E+00  0.00000000000E+00  0.34512789787E+03  0.35030817703E+04  0.34860391024E+04 0.  0.
        1    1    3    3  502    0  0.14820905056E+03  0.17864295166E+03  0.19085040817E+04  0.19225678289E+04  0.50400001928E-02 0. -1.
       -1    1    3    3    0  502 -0.14820905056E+03 -0.17864295166E+03 -0.15633761838E+04  0.15805139414E+04  0.50400001928E-02 0.  1.
</event>
<event>
 5   0  0.3190112E-07  0.3497942E+04  0.7818609E-02  0.8114278E-01
        2   -1    0    0  501    0  0.00000000000E+00  0.00000000000E+00  0.19041730469E+04  0.19041730469E+04  0.25500000920E-02 0. -1.
       -2   -1    0    0    0  501  0.00000000000E+00  0.00000000000E+00 -0.16064187190E+04  0.16064187190E+04  0.25500000920E-02 0.  1.
    10030    2    1    2    0    0  0.00000000000E+00  0.00000000000E+00  0.29775432788E+03  0.35105917659E+04  0.34979418101E+04 0.  0.
        5    1    3    3  502    0  0.15961404621E+03  0.31959852033E+02 -0.15987930878E+04  0.16070654945E+04  0.46999998093E+01 0.  1.
       -5    1    3    3    0  502 -0.15961404621E+03 -0.31959852033E+02  0.18965474157E+04  0.19035262714E+04  0.46999998093E+01 0. -1.
</event>
<event>
 5   0  0.2180451E-07  0.3505853E+04  0.7818609E-02  0.8112404E-01
       -2   -1    0    0    0  501  0.00000000000E+00  0.00000000000E+00  0.23121362722E+04  0.23121362722E+04  0.25500000920E-02 0. -1.
        2   -1    0    0  501    0  0.00000000000E+00  0.00000000000E+00 -0.13289661839E+04  0.13289661839E+04  0.25500000920E-02 0.  1.
    10030    2    1    2    0    0  0.00000000000E+00  0.00000000000E+00  0.98317008825E+03  0.36411024561E+04  0.35058527741E+04 0.  0.
        4    1    3    3  502    0  0.15496403592E+03 -0.66424831761E+03 -0.11854887994E+04  0.13677079317E+04  0.12699999809E+01 0.  1.
       -4    1    3    3    0  502 -0.15496403592E+03  0.66424831761E+03  0.21686588877E+04  0.22733945245E+04  0.12699999809E+01 0. -1.
</event>
<event>
 5   0  0.1013863E-07  0.3504346E+04  0.7818609E-02  0.8112761E-01
       -3   -1    0    0    0  501  0.00000000000E+00  0.00000000000E+00  0.13461408493E+04  0.13461408531E+04  0.10100000352E+00 0. -1.
        3   -1    0    0  501    0  0.00000000000E+00  0.00000000000E+00 -0.22806754389E+04  0.22806754411E+04  0.10100000352E+00 0.  1.
    10030    2    1    2    0    0  0.00000000000E+00  0.00000000000E+00 -0.93453458957E+03  0.36268162942E+04  0.35043460920E+04 0.  0.
        2    1    3    3  502    0  0.67492559496E+03  0.35292512906E+03  0.11658629770E+04  0.13925936904E+04  0.25500000920E-02 0. -1.
       -2    1    3    3    0  502 -0.67492559496E+03 -0.35292512906E+03 -0.21003975666E+04  0.22342226038E+04  0.25500000920E-02 0.  1.
</event>
<event>
 5   0  0.1098171E-07  0.3500651E+04  0.7818609E-02  0.8113636E-01
       -1   -1    0    0    0  501  0.00000000000E+00  0.00000000000E+00  0.25053647606E+04  0.25053647606E+04  0.50400001928E-02 0. -1.
        1   -1    0    0  501    0  0.00000000000E+00  0.00000000000E+00 -0.12228319074E+04  0.12228319074E+04  0.50400001928E-02 0.  1.
    10030    2    1    2    0    0  0.00000000000E+00  0.00000000000E+00  0.12825328531E+04  0.37281966680E+04  0.35006513503E+04 0.  0.
        4    1    3    3  502    0  0.66356370997E+03 -0.12921721364E+04  0.16812727374E+04  0.22218697661E+04  0.12699999809E+01 0. -1.
       -4    1    3    3    0  502 -0.66356370997E+03  0.12921721364E+04 -0.39873988428E+03  0.15063269019E+04  0.12699999809E+01 0.  1.
</event>
<event>
 5   0  0.2180451E-07  0.3549839E+04  0.7818609E-02  0.8102079E-01
       -2   -1    0    0    0  501  0.00000000000E+00  0.00000000000E+00  0.16611650334E+04  0.16611650334E+04  0.25500000920E-02 0.  1.
        2   -1    0    0  501    0  0.00000000000E+00  0.00000000000E+00 -0.18964642063E+04  0.18964642063E+04  0.25500000920E-02 0. -1.
    10030    2    1    2    0    0  0.00000000000E+00  0.00000000000E+00 -0.23529917293E+03  0.35576292397E+04  0.35498394480E+04 0.  0.
        4    1    3    3  502    0  0.92505603076E+03  0.13716257863E+04  0.52660822981E+03  0.17362038470E+04  0.12699999809E+01 0. -1.
       -4    1    3    3    0  502 -0.92505603076E+03 -0.13716257863E+04 -0.76190740273E+03  0.18214253927E+04  0.12699999809E+01 0.  1.
</event>
<event>
 5   0  0.2180451E-07  0.3409644E+04  0.7818609E-02  0.8135543E-01
       -2   -1    0    0    0  501  0.00000000000E+00  0.00000000000E+00  0.17644393219E+04  0.17644393219E+04  0.25500000920E-02 0.  1.
        2   -1    0    0  501    0  0.00000000000E+00  0.00000000000E+00 -0.16472189437E+04  0.16472189437E+04  0.25500000920E-02 0. -1.
    10030    2    1    2    0    0  0.00000000000E+00  0.00000000000E+00  0.11722037819E+03  0.34116582657E+04  0.34096438970E+04 0.  0.
        4    1    3    3  502    0 -0.91536299260E+03 -0.59683819301E+02  0.14964576499E+04  0.17552318016E+04  0.12699999809E+01 0.  1.
       -4    1    3    3    0  502  0.91536299260E+03  0.59683819301E+02 -0.13792372717E+04  0.16564264641E+04  0.12699999809E+01 0. -1.
</event>
<event>
 5   0  0.3219205E-07  0.3487301E+04  0.7818609E-02  0.8116806E-01
       -2   -1    0    0    0  501  0.00000000000E+00  0.00000000000E+00  0.18995393386E+04  0.18995393387E+04  0.25500000920E-02 0.  1.
        2   -1    0    0  501    0  0.00000000000E+00  0.00000000000E+00 -0.16005547037E+04  0.16005547037E+04  0.25500000920E-02 0. -1.
    10030    2    1    2    0    0  0.00000000000E+00  0.00000000000E+00  0.29898463495E+03  0.35000940424E+04  0.34873007460E+04 0.  0.
        2    1    3    3  502    0 -0.89206013913E+03  0.99735434570E+03 -0.97256675264E+03  0.16541986190E+04  0.25500000920E-02 0. -1.
       -2    1    3    3    0  502  0.89206013913E+03 -0.99735434570E+03  0.12715513876E+04  0.18458954234E+04  0.25500000920E-02 0.  1.
</event>
<event>
 5   0  0.1033796E-07  0.3501971E+04  0.7818609E-02  0.8113323E-01
       -1   -1    0    0    0  501  0.00000000000E+00  0.00000000000E+00  0.24688591223E+04  0.24688591223E+04  0.50400001928E-02 0. -1.
        1   -1    0    0  501    0  0.00000000000E+00  0.00000000000E+00 -0.12418486441E+04  0.12418486441E+04  0.50400001928E-02 0.  1.
    10030    2    1    2    0    0  0.00000000000E+00  0.00000000000E+00  0.12270104782E+04  0.37107077664E+04  0.35019705045E+04 0.  0.
        3    1    3    3  502    0  0.13265187188E+04  0.54693850692E+02  0.18231767957E+04  0.22553529585E+04  0.10100000352E+00 0. -1.
       -3    1    3    3    0  502 -0.13265187188E+04 -0.54693850692E+02 -0.59616631754E+03  0.14553548080E+04  0.10100000352E+00 0.  1.
</event>
<event>
 5   0  0.1013863E-07  0.3502644E+04  0.7818609E-02  0.8113164E-01
       -1   -1    0    0    0  501  0.00000000000E+00  0.00000000000E+00  0.19891856511E+04  0.19891856511E+04  0.50400001928E-02 0.  1.
        1   -1    0    0  501    0  0.00000000000E+00  0.00000000000E+00 -0.15419014332E+04  0.15419014332E+04  0.50400001928E-02 0. -1.
    10030    2    1    2    0    0  0.00000000000E+00  0.00000000000E+00  0.44728421793E+03  0.35310870842E+04  0.35026436908E+04 0.  0.
        5    1    3    3  502    0  0.71002288544E+03  0.15652619765E+04  0.56241946114E+03  0.18084566053E+04  0.46999998093E+01 0.  1.
       -5    1    3    3    0  502 -0.71002288544E+03 -0.15652619765E+04 -0.11513524321E+03  0.17226304790E+04  0.46999998093E+01 0. -1.
</event>
<event>
 5   0  0.1098171E-07  0.3489727E+04  0.7818609E-02  0.8116229E-01
       -1   -1    0    0    0  501  0.00000000000E+00  0.00000000000E+00  0.12419161040E+04  0.12419161041E+04  0.50400001928E-02 0.  1.
        1   -1    0    0  501    0  0.00000000000E+00  0.00000000000E+00 -0.24514933749E+04  0.24514933749E+04  0.50400001928E-02 0. -1.
    10030    2    1    2    0    0  0.00000000000E+00  0.00000000000E+00 -0.12095772709E+04  0.36934094790E+04  0.34897272680E+04 0.  0.
        4    1    3    3  502    0  0.13604993522E+04  0.82234879402E+03  0.15644929190E+03  0.15974022725E+04  0.12699999809E+01 0.  1.
       -4    1    3    3    0  502 -0.13604993522E+04 -0.82234879402E+03 -0.13660265628E+04  0.20960072065E+04  0.12699999809E+01 0. -1.
</event>
<event>
 5   0  0.1013863E-07  0.3475745E+04  0.7818609E-02  0.8119562E-01
        1   -1    0    0  501    0  0.00000000000E+00  0.00000000000E+00  0.12855176769E+04  0.12855176770E+04  0.50400001928E-02 0. -1.
       -1   -1    0    0    0  501  0.00000000000E+00  0.00000000000E+00 -0.23494044647E+04  0.23494044647E+04  0.50400001928E-02 0.  1.
    10030    2    1    2    0    0  0.00000000000E+00  0.00000000000E+00 -0.10638867878E+04  0.36349221417E+04  0.34757450826E+04 0.  0.
        2    1    3    3  502    0  0.58823332511E+03  0.45450841962E+03  0.11108577001E+04  0.13366380131E+04  0.25500000920E-02 0. -1.
       -2    1    3    3    0  502 -0.58823332511E+03 -0.45450841962E+03 -0.21747444879E+04  0.22982841286E+04  0.25500000920E-02 0.  1.
</event>
<event>
 5   0  0.3219205E-07  0.3507407E+04  0.7818609E-02  0.8112037E-01
       -2   -1    0    0    0  501  0.00000000000E+00  0.00000000000E+00  0.15693139365E+04  0.15693139365E+04  0.25500000920E-02 0. -1.
        2   -1    0    0  501    0  0.00000000000E+00  0.00000000000E+00 -0.19597577906E+04  0.19597577906E+04  0.25500000920E-02 0.  1.
    10030    2    1    2    0    0  0.00000000000E+00  0.00000000000E+00 -0.39044385408E+03  0.35290717271E+04  0.35074065707E+04 0.  0.
        2    1    3    3  502    0  0.26245863240E+03  0.14778931296E+04 -0.11076988423E+04  0.18654890408E+04  0.25500000920E-02 0.  1.
       -2    1    3    3    0  502 -0.26245863240E+03 -0.14778931296E+04  0.71725498823E+03  0.16635826863E+04  0.25500000920E-02 0. -1.
</event>
<event>
 5   0  0.3190112E-07  0.3504067E+04  0.7818609E-02  0.8112827E-01
        2   -1    0    0  501    0  0.00000000000E+00  0.00000000000E+00  0.18858705790E+04  0.18858705790E+04  0.25500000920E-02 0. -1.
       -2   -1    0    0    0  501  0.00000000000E+00  0.00000000000E+00 -0.16276948670E+04  0.16276948670E+04  0.25500000920E-02 0.  1.
    10030    2    1    2    0    0  0.00000000000E+00  0.00000000000E+00  0.25817571203E+03  0.35135654460E+04  0.35040672718E+04 0.  0.
        5    1    3    3  502    0 -0.46737363212E+03 -0.14510193073E+03 -0.15577644017E+04  0.16328333361E+04  0.46999998093E+01 0.  1.
       -5    1    3    3    0  502  0.46737363212E+03  0.14510193073E+03  0.18159401138E+04  0.18807321099E+04  0.46999998093E+01 0. -1.
</event>
<event>
 5   0  0.1072381E-07  0.3501941E+04  0.7818609E-02  0.8113330E-01
       -1   -1    0    0    0  501  0.00000000000E+00  0.00000000000E+00  0.15393135820E+04  0.15393135820E+04  0.50400001928E-02 0.  1.
        1   -1    0    0  501    0  0.00000000000E+00  0.00000000000E+00 -0.19917309186E+04  0.19917309186E+04  0.50400001928E-02 0. -1.
    10030    2    1    2    0    0  0.00000000000E+00  0.00000000000E+00 -0.45241733661E+03  0.35310445006E+04  0.35019414356E+04 0.  0.
        1    1    3    3  502    0  0.13105840445E+04 -0.10300674924E+04 -0.76659998595E+03  0.18347602337E+04  0.50400001928E-02 0. -1.
       -1    1    3    3    0  502 -0.13105840445E+04  0.10300674924E+04  0.31418264934E+03  0.16962842668E+04  0.50400001928E-02 0.  1.
</event>
<event>
 5   0  0.2180451E-07  0.3492341E+04  0.7818609E-02  0.8115607E-01
       -2   -1    0    0    0  501  0.00000000000E+00  0.00000000000E+00  0.18478220144E+04  0.18478220144E+04  0.25500000920E-02 0.  1.
        2   -1    0    0  501    0  0.00000000000E+00  0.00000000000E+00 -0.16501111277E+04  0.16501111277E+04  0.25500000920E-02 0. -1.
    10030    2    1    2    0    0  0.00000000000E+00  0.00000000000E+00  0.19771088674E+03  0.34979331421E+04  0.34923411449E+04 0.  0.
        4    1    3    3  502    0  0.37316697723E+03  0.45117236942E+02  0.18068192776E+04  0.18455044494E+04  0.12699999809E+01 0.  1.
       -4    1    3    3    0  502 -0.37316697723E+03 -0.45117236942E+02 -0.16091083909E+04  0.16524286927E+04  0.12699999809E+01 0. -1.
</event>
<event>
 5   0  0.1098171E-07  0.3472351E+04  0.7818609E-02  0.8120374E-01
        1   -1    0    0  501    0  0.00000000000E+00  0.00000000000E+00  0.20366425816E+04  0.20366425816E+04  0.50400001928E-02 0.  1.
       -1   -1    0    0    0  501  0.00000000000E+00  0.00000000000E+00 -0.14800367399E+04  0.14800367399E+04  0.50400001928E-02 0. -1.
    10030    2    1    2    0    0  0.00000000000E+00  0.00000000000E+00  0.55660584166E+03  0.35166793215E+04  0.34723512765E+04 0.  0.
        4    1    3    3  502    0  0.10210359305E+04  0.13927386572E+04  0.45966693232E+03  0.17870452262E+04  0.12699999809E+01 0. -1.
       -4    1    3    3    0  502 -0.10210359305E+04 -0.13927386572E+04  0.96938909337E+02  0.17296340954E+04  0.12699999809E+01 0.  1.
</event>
<event>
 5   0  0.3119048E-07  0.3497018E+04  0.7818609E-02  0.8114497E-01
        2   -1    0    0  501    0  0.00000000000E+00  0.00000000000E+00  0.21234536457E+04  0.21234536457E+04  0.25500000920E-02 0. -1.
       -2   -1    0    0    0  501  0.00000000000E+00  0.00000000000E+00 -0.14397698299E+04  0.14397698300E+04  0.25500000920E-02 0.  1.
    10030    2    1    2    0    0  0.00000000000E+00  0.00000000000E+00  0.68368381579E+03  0.35632234757E+04  0.34970184411E+04 0.  0.
        3    1    3    3  502    0  0.75192754077E+03  0.68459629022E+03 -0.11074851881E+04  0.15035260421E+04  0.10100000352E+00 0.  1.
       -3    1    3    3    0  502 -0.75192754077E+03 -0.68459629022E+03  0.17911690039E+04  0.20596974336E+04  0.10100000352E+00 0. -1.
</event>
<event>
 5   0  0.2180451E-07  0.3504586E+04  0.7818609E-02  0.8112704E-01
       -2   -1    0    0    0  501  0.00000000000E+00  0.00000000000E+00  0.16548588154E+04  0.16548588154E+04  0.25500000920E-02 0.  1.
        2   -1    0    0  501    0  0.00000000000E+00  0.00000000000E+00 -0.18554637348E+04  0.18554637348E+04  0.25500000920E-02 0. -1.
    10030    2    1    2    0    0  0.00000000000E+00  0.00000000000E+00 -0.20060491936E+03  0.35103225502E+04  0.35045858632E+04 0.  0.
        4    1    3    3  502    0  0.12675379887E+04 -0.58383134389E+03 -0.11617622455E+04  0.18158206737E+04  0.12699999809E+01 0. -1.
       -4    1    3    3    0  502 -0.12675379887E+04  0.58383134389E+03  0.96115732616E+03  0.16945018765E+04  0.12699999809E+01 0.  1.
</event>
<event>
 5   0  0.3119048E-07  0.3503932E+04  0.7818609E-02  0.8112859E-01
       -2   -1    0    0    0  501  0.00000000000E+00  0.00000000000E+00  0.17245024409E+04  0.17245024409E+04  0.25500000920E-02 0. -1.
        2   -1    0    0  501    0  0.00000000000E+00  0.00000000000E+00 -0.17798670779E+04  0.17798670779E+04  0.25500000920E-02 0.  1.
    10030    2    1    2    0    0  0.00000000000E+00  0.00000000000E+00 -0.55364636932E+02  0.35043695188E+04  0.35039321456E+04 0.  0.
        3    1    3    3  502    0  0.15234822992E+04 -0.28181095334E+03 -0.84568989623E+03  0.17651082517E+04  0.10100000352E+00 0.  1.
       -3    1    3    3    0  502 -0.15234822992E+04  0.28181095334E+03  0.79032525929E+03  0.17392612671E+04  0.10100000352E+00 0. -1.
</event>
<event>
 5   0  0.3190112E-07  0.3493315E+04  0.7818609E-02  0.8115376E-01
       -2   -1    0    0    0  501  0.00000000000E+00  0.00000000000E+00  0.16103454273E+04  0.16103454273E+04  0.25500000920E-02 0. -1.
        2   -1    0    0  501    0  0.00000000000E+00  0.00000000000E+00 -0.18945075410E+04  0.18945075410E+04  0.25500000920E-02 0.  1.
    10030    2    1    2    0    0  0.00000000000E+00  0.00000000000E+00 -0.28416211367E+03  0.35048529683E+04  0.34933145038E+04 0.  0.
        5    1    3    3  502    0 -0.51992393301E+03  0.16079969555E+04 -0.58491673171E+03  0.17883301647E+04  0.46999998093E+01 0.  1.
       -5    1    3    3    0  502  0.51992393301E+03 -0.16079969555E+04  0.30075461804E+03  0.17165228036E+04  0.46999998093E+01 0. -1.
</event>
<event>
 5   0  0.3190112E-07  0.3464967E+04  0.7818609E-02  0.8122143E-01
        2   -1    0    0  501    0  0.00000000000E+00  0.00000000000E+00  0.17952884830E+04  0.17952884830E+04  0.25500000920E-02 0.  1.
       -2   -1    0    0    0  501  0.00000000000E+00  0.00000000000E+00 -0.16718754027E+04  0.16718754027E+04  0.25500000920E-02 0. -1.
    10030    2    1    2    0    0  0.00000000000E+00  0.00000000000E+00  0.12341308036E+03  0.34671638857E+04  0.34649667562E+04 0.  0.
        5    1    3    3  502    0 -0.71453854211E+03  0.17632874697E+03  0.16310821911E+04  0.17894435893E+04  0.46999998093E+01 0.  1.
       -5    1    3    3    0  502  0.71453854211E+03 -0.17632874697E+03 -0.15076691108E+04  0.16777202963E+04  0.46999998093E+01 0. -1.
</event>
<event>
 5   0  0.3190185E-07  0.3502394E+04  0.7818609E-02  0.8113223E-01
       -2   -1    0    0    0  501  0.00000000000E+00  0.00000000000E+00  0.14268228542E+04  0.14268228542E+04  0.25500000920E-02 0.  1.
        2   -1    0    0  501    0  0.00000000000E+00  0.00000000000E+00 -0.21493145792E+04  0.21493145792E+04  0.25500000920E-02 0. -1.
    10030    2    1    2    0    0  0.00000000000E+00  0.00000000000E+00 -0.72249172504E+03  0.35761374334E+04  0.35023941311E+04 0.  0.
        1    1    3    3  502    0  0.14687689044E+04  0.45803754118E+03  0.49279253924E+03  0.16155262209E+04  0.50400001928E-02 0.  1.
       -1    1    3    3    0  502 -0.14687689044E+04 -0.45803754118E+03 -0.12152842643E+04  0.19606112125E+04  0.50400001928E-02 0. -1.
</event>
<event>
 5   0  0.1013863E-07  0.3485277E+04  0.7818609E-02  0.8117288E-01
        1   -1    0    0  501    0  0.00000000000E+00  0.00000000000E+00  0.23902278152E+04  0.23902278153E+04  0.50400001928E-02 0. -1.
       -1   -1    0    0    0  501  0.00000000000E+00  0.00000000000E+00 -0.12705022039E+04  0.12705022039E+04  0.50400001928E-02 0.  1.
    10030    2    1    2    0    0  0.00000000000E+00  0.00000000000E+00  0.11197256114E+04  0.36607300191E+04  0.34852774392E+04 0.  0.
        2    1    3    3  502    0  0.12792421860E+04  0.12443917461E+03  0.17958978294E+04  0.22084371606E+04  0.25500000920E-02 0. -1.
       -2    1    3    3    0  502 -0.12792421860E+04 -0.12443917461E+03 -0.67617221805E+03  0.14522928586E+04  0.25500000920E-02 0.  1.
</event>
<event>
 5   0  0.2180451E-07  0.3507266E+04  0.7818609E-02  0.8112070E-01
        2   -1    0    0  501    0  0.00000000000E+00  0.00000000000E+00  0.24498980687E+04  0.24498980687E+04  0.25500000920E-02 0.  1.
       -2   -1    0    0    0  501  0.00000000000E+00  0.00000000000E+00 -0.12552474484E+04  0.12552474484E+04  0.25500000920E-02 0. -1.
    10030    2    1    2    0    0  0.00000000000E+00  0.00000000000E+00  0.11946506203E+04  0.37051455171E+04  0.35072657724E+04 0.  0.
        4    1    3    3  502    0 -0.36438545204E+03  0.11223265340E+03 -0.12109292300E+04  0.12695369782E+04  0.12699999809E+01 0. -1.
       -4    1    3    3    0  502  0.36438545204E+03 -0.11223265340E+03  0.24055798502E+04  0.24356085389E+04  0.12699999809E+01 0.  1.
</event>
<event>
 5   0  0.1033796E-07  0.3442429E+04  0.7818609E-02  0.8127571E-01
        1   -1    0    0  501    0  0.00000000000E+00  0.00000000000E+00  0.19174949372E+04  0.19174949372E+04  0.50400001928E-02 0.  1.
       -1   -1    0    0    0  501  0.00000000000E+00  0.00000000000E+00 -0.15450261577E+04  0.15450261577E+04  0.50400001928E-02 0. -1.
    10030    2    1    2    0    0  0.00000000000E+00  0.00000000000E+00  0.37246877957E+03  0.34625210949E+04  0.34424292790E+04 0.  0.
        3    1    3    3  502    0  0.68182637034E+03 -0.11499524192E+04 -0.90420655303E+03  0.16139601192E+04  0.10100000352E+00 0. -1.
       -3    1    3    3    0  502 -0.68182637034E+03  0.11499524192E+04  0.12766753326E+04  0.18485609757E+04  0.10100000352E+00 0.  1.
</event>
<event>
 5   0  0.3119048E-07  0.3509993E+04  0.7818609E-02  0.8111426E-01
       -2   -1    0    0    0  501  0.00000000000E+00  0.00000000000E+00  0.11204446250E+04  0.11204446250E+04  0.25500000920E-02 0.  1.
        2   -1    0    0  501    0  0.00000000000E+00  0.00000000000E+00 -0.27489199884E+04  0.27489199884E+04  0.25500000920E-02 0. -1.
    10030    2    1    2    0    0  0.00000000000E+00  0.00000000000E+00 -0.16284753634E+04  0.38693646134E+04  0.35099929490E+04 0.  0.
        3    1    3    3  502    0 -0.83641725914E+03  0.99669634901E+03 -0.21125345734E+04  0.24810884260E+04  0.10100000352E+00 0. -1.
       -3    1    3    3    0  502  0.83641725914E+03 -0.99669634901E+03  0.48405920999E+03  0.13882761874E+04  0.10100000352E+00 0.  1.
</event>
<event>
 5   0  0.1098171E-07  0.3502720E+04  0.7818609E-02  0.8113146E-01
       -1   -1    0    0    0  501  0.00000000000E+00  0.00000000000E+00  0.21931245944E+04  0.21931245944E+04  0.50400001928E-02 0.  1.
        1   -1    0    0  501    0  0.00000000000E+00  0.00000000000E+00 -0.13985804067E+04  0.13985804067E+04  0.50400001928E-02 0. -1.
    10030    2    1    2    0    0  0.00000000000E+00  0.00000000000E+00  0.79454418768E+03  0.35917050011E+04  0.35027195647E+04 0.  0.
        4    1    3    3  502    0  0.17189843437E+04  0.25947474343E+03  0.61485406868E+03  0.18439852101E+04  0.12699999809E+01 0.  1.
       -4    1    3    3    0  502 -0.17189843437E+04 -0.25947474343E+03  0.17969011900E+03  0.17477197910E+04  0.12699999809E+01 0. -1.
</event>
<event>
 5   0  0.3190185E-07  0.3493766E+04  0.7818609E-02  0.8115269E-01
       -2   -1    0    0    0  501  0.00000000000E+00  0.00000000000E+00  0.15257939378E+04  0.15257939378E+04  0.25500000920E-02 0.  1.
        2   -1    0    0  501    0  0.00000000000E+00  0.00000000000E+00 -0.20000077928E+04  0.20000077928E+04  0.25500000920E-02 0. -1.
    10030    2    1    2    0    0  0.00000000000E+00  0.00000000000E+00 -0.47421385499E+03  0.35258017306E+04  0.34937657425E+04 0.  0.
        1    1    3    3  502    0 -0.57589574181E+03  0.22022656424E+03  0.14123354629E+04  0.15410538942E+04  0.50400001928E-02 0.  1.
       -1    1    3    3    0  502  0.57589574181E+03 -0.22022656424E+03 -0.18865493179E+04  0.19847478364E+04  0.50400001928E-02 0. -1.
</event>
<event>
 5   0  0.1013863E-07  0.3398618E+04  0.7818609E-02  0.8138246E-01
        1   -1    0    0  501    0  0.00000000000E+00  0.00000000000E+00  0.18154467504E+04  0.18154467504E+04  0.50400001928E-02 0. -1.
       -1   -1    0    0    0  501  0.00000000000E+00  0.00000000000E+00 -0.15906008688E+04  0.15906008688E+04  0.50400001928E-02 0.  1.
    10030    2    1    2    0    0  0.00000000000E+00  0.00000000000E+00  0.22484588167E+03  0.34060476192E+04  0.33986180594E+04 0.  0.
        5    1    3    3  502    0 -0.17712030596E+03 -0.16486624398E+02 -0.15812375913E+04  0.15912189736E+04  0.46999998093E+01 0.  1.
       -5    1    3    3    0  502  0.17712030596E+03  0.16486624398E+02  0.18060834730E+04  0.18148286457E+04  0.46999998093E+01 0. -1.
</event>
<event>
 5   0  0.1098171E-07  0.3503618E+04  0.7818609E-02  0.8112933E-01
        1   -1    0    0  501    0  0.00000000000E+00  0.00000000000E+00  0.17881860031E+04  0.17881860031E+04  0.50400001928E-02 0.  1.
       -1   -1    0    0    0  501  0.00000000000E+00  0.00000000000E+00 -0.17161720918E+04  0.17161720918E+04  0.50400001928E-02 0. -1.
    10030    2    1    2    0    0  0.00000000000E+00  0.00000000000E+00  0.72013911299E+02  0.35043580950E+04  0.35036180806E+04 0.  0.
        4    1    3    3  502    0  0.84287611926E+03 -0.10044831995E+04  0.11978919493E+04  0.17760555694E+04  0.12699999809E+01 0.  1.
       -4    1    3    3    0  502 -0.84287611926E+03  0.10044831995E+04 -0.11258780380E+04  0.17283025256E+04  0.12699999809E+01 0. -1.
</event>
<event>
 5   0  0.3119048E-07  0.3495257E+04  0.7818609E-02  0.8114915E-01
        2   -1    0    0  501    0  0.00000000000E+00  0.00000000000E+00  0.15562402044E+04  0.15562402044E+04  0.25500000920E-02 0. -1.
       -2   -1    0    0    0  501  0.00000000000E+00  0.00000000000E+00 -0.19625537260E+04  0.19625537260E+04  0.25500000920E-02 0.  1.
    10030    2    1    2    0    0  0.00000000000E+00  0.00000000000E+00 -0.40631352164E+03  0.35187939304E+04  0.34952567927E+04 0.  0.
        3    1    3    3  502    0  0.10417735494E+04  0.10361510700E+04  0.74941996845E+03  0.16494033671E+04  0.10100000352E+00 0. -1.
       -3    1    3    3    0  502 -0.10417735494E+04 -0.10361510700E+04 -0.11557334901E+04  0.18693905633E+04  0.10100000352E+00 0.  1.
</event>
<event>
 5   0  0.1013863E-07  0.3473625E+04  0.7818609E-02  0.8120069E-01
        1   -1    0    0  501    0  0.00000000000E+00  0.00000000000E+00  0.20822787624E+04  0.20822787624E+04  0.50400001928E-02 0. -1.
       -1   -1    0    0    0  501  0.00000000000E+00  0.00000000000E+00 -0.14486614802E+04  0.14486614802E+04  0.50400001928E-02 0.  1.
    10030    2    1    2    0    0  0.00000000000E+00  0.00000000000E+00  0.63361728217E+03  0.35309402426E+04  0.34736246395E+04 0.  0.
        5    1    3    3  502    0  0.92709582254E+03  0.12046061760E+04  0.11708577370E+04  0.19187268262E+04  0.46999998093E+01 0. -1.
       -5    1    3    3    0  502 -0.92709582254E+03 -0.12046061760E+04 -0.53724045482E+03  0.16122134163E+04  0.46999998093E+01 0.  1.
</event>
<event>
 5   0  0.1033796E-07  0.3403771E+04  0.7818609E-02  0.8136982E-01
       -1   -1    0    0    0  501  0.00000000000E+00  0.00000000000E+00  0.11188039406E+04  0.11188039406E+04  0.50400001928E-02 0.  1.
        1   -1    0    0  501    0  0.00000000000E+00  0.00000000000E+00 -0.25888482700E+04  0.25888482700E+04  0.50400001928E-02 0. -1.
    10030    2    1    2    0    0  0.00000000000E+00  0.00000000000E+00 -0.14700443294E+04  0.37076522107E+04  0.34037706422E+04 0.  0.
        3    1    3    3  502    0 -0.44947779835E+03 -0.98927127656E+03 -0.21618206107E+04  0.24195363838E+04  0.10100000352E+00 0. -1.
       -3    1    3    3    0  502  0.44947779835E+03  0.98927127656E+03  0.69177628125E+03  0.12881158268E+04  0.10100000352E+00 0.  1.
</event>
<event>
 5   0  0.1013863E-07  0.3500435E+04  0.7818609E-02  0.8113687E-01
       -1   -1    0    0    0  501  0.00000000000E+00  0.00000000000E+00  0.30449218506E+04  0.30449218506E+04  0.50400001928E-02 0. -1.
        1   -1    0    0  501    0  0.00000000000E+00  0.00000000000E+00 -0.10060227002E+04  0.10060227002E+04  0.50400001928E-02 0.  1.
    10030    2    1    2    0    0  0.00000000000E+00  0.00000000000E+00  0.20388991504E+04  0.40509445508E+04  0.35004345456E+04 0.  0.
        2    1    3    3  502    0  0.15870702650E+04  0.72514816799E+03  0.86149777947E+03  0.19459728456E+04  0.25500000920E-02 0.  1.
       -2    1    3    3    0  502 -0.15870702650E+04 -0.72514816799E+03  0.11774013709E+04  0.21049717052E+04  0.25500000920E-02 0. -1.
</event>
<event>
 5   0  0.3219205E-07  0.3508158E+04  0.7818609E-02  0.8111859E-01
       -2   -1    0    0    0  501  0.00000000000E+00  0.00000000000E+00  0.13826228802E+04  0.13826228802E+04  0.25500000920E-02 0. -1.
        2   -1    0    0  501    0  0.00000000000E+00  0.00000000000E+00 -0.22253308432E+04  0.22253308432E+04  0.25500000920E-02 0.  1.
    10030    2    1    2    0    0  0.00000000000E+00  0.00000000000E+00 -0.84270796297E+03  0.36079537234E+04  0.35081581149E+04 0.  0.
        2    1    3    3  502    0  0.40158903773E+02  0.14735758716E+04  0.55634935347E+03  0.15756151783E+04  0.25500000920E-02 0. -1.
       -2    1    3    3    0  502 -0.40158903773E+02 -0.14735758716E+04 -0.13990573164E+04  0.20323385451E+04  0.25500000920E-02 0.  1.
</event>
<event>
 5   0  0.1013863E-07  0.3517275E+04  0.7818609E-02  0.8109708E-01
       -1   -1    0    0    0  501  0.00000000000E+00  0.00000000000E+00  0.10475598468E+04  0.10475598468E+04  0.50400001928E-02 0.  1.
        1   -1    0    0  501    0  0.00000000000E+00  0.00000000000E+00 -0.29523910155E+04  0.29523910155E+04  0.50400001928E-02 0. -1.
    10030    2    1    2    0    0  0.00000000000E+00  0.00000000000E+00 -0.19048311688E+04  0.39999508623E+04  0.35172752408E+04 0.  0.
        2    1    3    3  502    0  0.98106001445E+03  0.11478663958E+04 -0.19776460843E+04  0.24882041816E+04  0.25500000920E-02 0. -1.
       -2    1    3    3    0  502 -0.98106001445E+03 -0.11478663958E+04  0.72814915563E+02  0.15117466807E+04  0.25500000920E-02 0.  1.
</event>
<event>
 5   0  0.1013863E-07  0.3484568E+04  0.7818609E-02  0.8117457E-01
       -1   -1    0    0    0  501  0.00000000000E+00  0.00000000000E+00  0.23763005224E+04  0.23763005224E+04  0.50400001928E-02 0. -1.
        1   -1    0    0  501    0  0.00000000000E+00  0.00000000000E+00 -0.12774286385E+04  0.12774286386E+04  0.50400001928E-02 0.  1.
    10030    2    1    2    0    0  0.00000000000E+00  0.00000000000E+00  0.10988718838E+04  0.36537291609E+04  0.34845684617E+04 0.  0.
        2    1    3    3  502    0 -0.12005607842E+04  0.12561468363E+04  0.41555316407E+03  0.17865988646E+04  0.25500000920E-02 0.  1.
       -2    1    3    3    0  502  0.12005607842E+04 -0.12561468363E+04  0.68331871978E+03  0.18671302964E+04  0.25500000920E-02 0. -1.
</event>
<event>
 5   0  0.1033796E-07  0.3519721E+04  0.7818609E-02  0.8109132E-01
        1   -1    0    0  501    0  0.00000000000E+00  0.00000000000E+00  0.19749705508E+04  0.19749705508E+04  0.50400001928E-02 0.  1.
       -1   -1    0    0    0  501  0.00000000000E+00  0.00000000000E+00 -0.15681796435E+04  0.15681796435E+04  0.50400001928E-02 0. -1.
    10030    2    1    2    0    0  0.00000000000E+00  0.00000000000E+00  0.40679090730E+03  0.35431501943E+04  0.35197207925E+04 0.  0.
        3    1    3    3  502    0 -0.76585303948E+03 -0.69001527652E+03 -0.12324429610E+04  0.16067257458E+04  0.10100000352E+00 0. -1.
       -3    1    3    3    0  502  0.76585303948E+03  0.69001527652E+03  0.16392338683E+04  0.19364244486E+04  0.10100000352E+00 0.  1.
</event>
<event>
 5   0  0.3190185E-07  0.3504400E+04  0.7818609E-02  0.8112748E-01
        2   -1    0    0  501    0  0.00000000000E+00  0.00000000000E+00  0.16215477827E+04  0.16215477827E+04  0.25500000920E-02 0. -1.
       -2   -1    0    0    0  501  0.00000000000E+00  0.00000000000E+00 -0.18933791553E+04  0.18933791553E+04  0.25500000920E-02 0.  1.
    10030    2    1    2    0    0  0.00000000000E+00  0.00000000000E+00 -0.27183137256E+03  0.35149269381E+04  0.35043999607E+04 0.  0.
        1    1    3    3  502    0  0.17209221055E+04 -0.32442042567E+03 -0.19425625703E+03  0.17619753117E+04  0.50400001928E-02 0.  1.
       -1    1    3    3    0  502 -0.17209221055E+04  0.32442042567E+03 -0.77575115528E+02  0.17529516263E+04  0.50400001928E-02 0. -1.
</event>
<event>
 5   0  0.1013863E-07  0.3505594E+04  0.7818609E-02  0.8112466E-01
        3   -1    0    0  501    0  0.00000000000E+00  0.00000000000E+00  0.18529449298E+04  0.18529449326E+04  0.10100000352E+00 0. -1.
       -3   -1    0    0    0  501  0.00000000000E+00  0.00000000000E+00 -0.16580618507E+04  0.16580618538E+04  0.10100000352E+00 0.  1.
    10030    2    1    2    0    0  0.00000000000E+00  0.00000000000E+00  0.19488307915E+03  0.35110067864E+04  0.35055939924E+04 0.  0.
        5    1    3    3  502    0 -0.12579225647E+04  0.11028684972E+04  0.62130472083E+03  0.17845811125E+04  0.46999998093E+01 0. -1.
       -5    1    3    3    0  502  0.12579225647E+04 -0.11028684972E+04 -0.42642164168E+03  0.17264256739E+04  0.46999998093E+01 0.  1.
</event>
<event>
 5   0  0.2180451E-07  0.3538476E+04  0.7818609E-02  0.8104732E-01
       -2   -1    0    0    0  501  0.00000000000E+00  0.00000000000E+00  0.10240082081E+04  0.10240082081E+04  0.25500000920E-02 0.  1.
        2   -1    0    0  501    0  0.00000000000E+00  0.00000000000E+00 -0.30568145809E+04  0.30568145809E+04  0.25500000920E-02 0. -1.
    10030    2    1    2    0    0  0.00000000000E+00  0.00000000000E+00 -0.20328063728E+04  0.40808227890E+04  0.35384760683E+04 0.  0.
        4    1    3    3  502    0  0.23146195400E+02 -0.14427247053E+04  0.16434119873E+03  0.14522396373E+04  0.12699999809E+01 0.  1.
       -4    1    3    3    0  502 -0.23146195400E+02  0.14427247053E+04 -0.21971475715E+04  0.26285831517E+04  0.12699999809E+01 0. -1.
</event>
<event>
 5   0  0.1072381E-07  0.3492432E+04  0.7818609E-02  0.8115586E-01
        1   -1    0    0  501    0  0.00000000000E+00  0.00000000000E+00  0.15180831394E+04  0.15180831394E+04  0.50400001928E-02 0. -1.
       -1   -1    0    0    0  501  0.00000000000E+00  0.00000000000E+00 -0.20086317615E+04  0.20086317615E+04  0.50400001928E-02 0.  1.
    10030    2    1    2    0    0  0.00000000000E+00  0.00000000000E+00 -0.49054862214E+03  0.35267149009E+04  0.34924318235E+04 0.  0.
        1    1    3    3  502    0 -0.15577616494E+04  0.78899516625E+03 -0.25701955151E+03  0.17649911554E+04  0.50400001928E-02 0. -1.
       -1    1    3    3    0  502  0.15577616494E+04 -0.78899516625E+03 -0.23352907063E+03  0.17617237455E+04  0.50400001928E-02 0.  1.
</event>
<event>
 5   0  0.2180451E-07  0.3449078E+04  0.7818609E-02  0.8125965E-01
       -2   -1    0    0    0  501  0.00000000000E+00  0.00000000000E+00  0.15161641880E+04  0.15161641880E+04  0.25500000920E-02 0.  1.
        2   -1    0    0  501    0  0.00000000000E+00  0.00000000000E+00 -0.19615521412E+04  0.19615521412E+04  0.25500000920E-02 0. -1.
    10030    2    1    2    0    0  0.00000000000E+00  0.00000000000E+00 -0.44538795316E+03  0.34777163292E+04  0.34490782012E+04 0.  0.
        4    1    3    3  502    0 -0.72548505465E+02  0.11223681859E+04 -0.15408589011E+04  0.19076743423E+04  0.12699999809E+01 0. -1.
       -4    1    3    3    0  502  0.72548505465E+02 -0.11223681859E+04  0.10954709479E+04  0.15700419870E+04  0.12699999809E+01 0.  1.
</event>
<event>
 5   0  0.2180451E-07  0.3524206E+04  0.7818609E-02  0.8108077E-01
       -2   -1    0    0    0  501  0.00000000000E+00  0.00000000000E+00  0.11807298324E+04  0.11807298324E+04  0.25500000920E-02 0. -1.
        2   -1    0    0  501    0  0.00000000000E+00  0.00000000000E+00 -0.26297353306E+04  0.26297353306E+04  0.25500000920E-02 0.  1.
    10030    2    1    2    0    0  0.00000000000E+00  0.00000000000E+00 -0.14490054982E+04  0.38104651629E+04  0.35242059849E+04 0.  0.
        4    1    3    3  502    0  0.10988947142E+04 -0.12779350706E+04 -0.12803812004E+04  0.21166164671E+04  0.12699999809E+01 0.  1.
       -4    1    3    3    0  502 -0.10988947142E+04  0.12779350706E+04 -0.16862429781E+03  0.16938486958E+04  0.12699999809E+01 0. -1.
</event>
<event>
 5   0  0.3190112E-07  0.3503295E+04  0.7818609E-02  0.8113010E-01
        2   -1    0    0  501    0  0.00000000000E+00  0.00000000000E+00  0.19554293622E+04  0.19554293622E+04  0.25500000920E-02 0.  1.
       -2   -1    0    0    0  501  0.00000000000E+00  0.00000000000E+00 -0.15691021950E+04  0.15691021950E+04  0.25500000920E-02 0. -1.
    10030    2    1    2    0    0  0.00000000000E+00  0.00000000000E+00  0.38632716727E+03  0.35245315572E+04  0.35032947374E+04 0.  0.
        5    1    3    3  502    0  0.14687232767E+04 -0.69978646924E+03  0.84624988485E+03  0.18338511727E+04  0.46999998093E+01 0.  1.
       -5    1    3    3    0  502 -0.14687232767E+04  0.69978646924E+03 -0.45992271758E+03  0.16906803844E+04  0.46999998093E+01 0. -1.
</event>
<event>
 5   0  0.3190185E-07  0.3491357E+04  0.7818609E-02  0.8115841E-01
        2   -1    0    0  501    0  0.00000000000E+00  0.00000000000E+00  0.21150871537E+04  0.21150871537E+04  0.25500000920E-02 0.  1.
       -2   -1    0    0    0  501  0.00000000000E+00  0.00000000000E+00 -0.14407883295E+04  0.14407883295E+04  0.25500000920E-02 0. -1.
    10030    2    1    2    0    0  0.00000000000E+00  0.00000000000E+00  0.67429882423E+03  0.35558754832E+04  0.34913566916E+04 0.  0.
        1    1    3    3  502    0  0.13287120163E+04  0.48523172747E+03 -0.70472454741E+03  0.15803677229E+04  0.50400001928E-02 0. -1.
       -1    1    3    3    0  502 -0.13287120163E+04 -0.48523172747E+03  0.13790233716E+04  0.19755077604E+04  0.50400001928E-02 0.  1.
</event>
<event>
 5   0  0.3190112E-07  0.3490625E+04  0.7818609E-02  0.8116015E-01
        2   -1    0    0  501    0  0.00000000000E+00  0.00000000000E+00  0.23217424533E+04  0.23217424533E+04  0.25500000920E-02 0. -1.
       -2   -1    0    0    0  501  0.00000000000E+00  0.00000000000E+00 -0.13119951605E+04  0.13119951605E+04  0.25500000920E-02 0.  1.
    10030    2    1    2    0    0  0.00000000000E+00  0.00000000000E+00  0.10097472928E+04  0.36337376138E+04  0.34906245072E+04 0.  0.
        5    1    3    3  502    0 -0.94729243920E+03  0.13844790253E+04  0.10062287105E+04  0.19561859433E+04  0.46999998093E+01 0. -1.
       -5    1    3    3    0  502  0.94729243920E+03 -0.13844790253E+04  0.35185823497E+01  0.16775516705E+04  0.46999998093E+01 0.  1.
</event>
<event>
 5   0  0.3190185E-07  0.3497809E+04  0.7818609E-02  0.8114309E-01
       -2   -1    0    0    0  501  0.00000000000E+00  0.00000000000E+00  0.19559923608E+04  0.19559923608E+04  0.25500000920E-02 0.  1.
        2   -1    0    0  501    0  0.00000000000E+00  0.00000000000E+00 -0.15637421449E+04  0.15637421449E+04  0.25500000920E-02 0. -1.
    10030    2    1    2    0    0  0.00000000000E+00  0.00000000000E+00  0.39225021592E+03  0.35197345057E+04  0.34978094228E+04 0.  0.
        1    1    3    3  502    0  0.11902839642E+04  0.10855465058E+04 -0.48893633189E+03  0.16835218645E+04  0.50400001928E-02 0. -1.
       -1    1    3    3    0  502 -0.11902839642E+04 -0.10855465058E+04  0.88118654781E+03  0.18362126412E+04  0.50400001928E-02 0.  1.
</event>
<event>
 5   0  0.1098171E-07  0.3505173E+04  0.7818609E-02  0.8112565E-01
       -1   -1    0    0    0  501  0.00000000000E+00  0.00000000000E+00  0.25419078018E+04  0.25419078018E+04  0.50400001928E-02 0. -1.
        1   -1    0    0  501    0  0.00000000000E+00  0.00000000000E+00 -0.12083678512E+04  0.12083678512E+04  0.50400001928E-02 0.  1.
    10030    2    1    2    0    0  0.00000000000E+00  0.00000000000E+00  0.13335399506E+04  0.37502756530E+04  0.35051731303E+04 0.  0.
        4    1    3    3  502    0  0.76587074914E+03  0.27365064884E+03 -0.99424150088E+03  0.12845078657E+04  0.12699999809E+01 0.  1.
       -4    1    3    3    0  502 -0.76587074914E+03 -0.27365064884E+03  0.23277814515E+04  0.24657677873E+04  0.12699999809E+01 0. -1.
</event>
<event>
 5   0  0.1033796E-07  0.3493926E+04  0.7818609E-02  0.8115231E-01
        1   -1    0    0  501    0  0.00000000000E+00  0.00000000000E+00  0.17294759055E+04  0.17294759056E+04  0.50400001928E-02 0.  1.
       -1   -1    0    0    0  501  0.00000000000E+00  0.00000000000E+00 -0.17646265353E+04  0.17646265353E+04  0.50400001928E-02 0. -1.
    10030    2    1    2    0    0  0.00000000000E+00  0.00000000000E+00 -0.35150629783E+02  0.34941024409E+04  0.34939256290E+04 0.  0.
        3    1    3    3  502    0 -0.15490659442E+04 -0.71130014817E+03  0.36496968216E+03  0.17432028222E+04  0.10100000352E+00 0.  1.
       -3    1    3    3    0  502  0.15490659442E+04  0.71130014817E+03 -0.40012031195E+03  0.17508996187E+04  0.10100000352E+00 0. -1.
</event>
<event>
 5   0  0.3190185E-07  0.3524082E+04  0.7818609E-02  0.8108107E-01
        2   -1    0    0  501    0  0.00000000000E+00  0.00000000000E+00  0.25470569628E+04  0.25470569628E+04  0.25500000920E-02 0. -1.
       -2   -1    0    0    0  501  0.00000000000E+00  0.00000000000E+00 -0.12189707120E+04  0.12189707120E+04  0.25500000920E-02 0.  1.
    10030    2    1    2    0    0  0.00000000000E+00  0.00000000000E+00  0.13280862508E+04  0.37660276747E+04  0.35240816332E+04 0.  0.
        1    1    3    3  502    0  0.55899603788E+03 -0.25315222845E+03 -0.11010907778E+04  0.12605409641E+04  0.50400001928E-02 0.  1.
       -1    1    3    3    0  502 -0.55899603788E+03  0.25315222845E+03  0.24291770286E+04  0.25054867107E+04  0.50400001928E-02 0. -1.
</event>
<event>
 5   0  0.1013863E-07  0.3510453E+04  0.7818609E-02  0.8111317E-01
        1   -1    0    0  501    0  0.00000000000E+00  0.00000000000E+00  0.16885277187E+04  0.16885277187E+04  0.50400001928E-02 0.  1.
       -1   -1    0    0    0  501  0.00000000000E+00  0.00000000000E+00 -0.18245602569E+04  0.18245602569E+04  0.50400001928E-02 0. -1.
    10030    2    1    2    0    0  0.00000000000E+00  0.00000000000E+00 -0.13603253817E+03  0.35130879757E+04  0.35104532860E+04 0.  0.
        2    1    3    3  502    0  0.14514678153E+04 -0.53150402861E+01  0.91965580459E+03  0.17182997025E+04  0.25500000920E-02 0.  1.
       -2    1    3    3    0  502 -0.14514678153E+04  0.53150402861E+01 -0.10556883428E+04  0.17947882732E+04  0.25500000920E-02 0. -1.
</event>
<event>
 5   0  0.3219205E-07  0.3503993E+04  0.7818609E-02  0.8112844E-01
        2   -1    0    0  501    0  0.00000000000E+00  0.00000000000E+00  0.21820847218E+04  0.21820847218E+04  0.25500000920E-02 0. -1.
       -2   -1    0    0    0  501  0.00000000000E+00  0.00000000000E+00 -0.14066781598E+04  0.14066781598E+04  0.25500000920E-02 0.  1.
    10030    2    1    2    0    0  0.00000000000E+00  0.00000000000E+00  0.77540656203E+03  0.35887628816E+04  0.35039925348E+04 0.  0.
        2    1    3    3  502    0 -0.11313649035E+04  0.85940254215E+03 -0.66224722504E+03  0.15675237355E+04  0.25500000920E-02 0.  1.
       -2    1    3    3    0  502  0.11313649035E+04 -0.85940254215E+03  0.14376537871E+04  0.20212391461E+04  0.25500000920E-02 0. -1.
</event>
<event>
 5   0  0.1013863E-07  0.3511319E+04  0.7818609E-02  0.8111113E-01
       -1   -1    0    0    0  501  0.00000000000E+00  0.00000000000E+00  0.19202402380E+04  0.19202402380E+04  0.50400001928E-02 0. -1.
        1   -1    0    0  501    0  0.00000000000E+00  0.00000000000E+00 -0.16051849821E+04  0.16051849821E+04  0.50400001928E-02 0.  1.
    10030    2    1    2    0    0  0.00000000000E+00  0.00000000000E+00  0.31505525595E+03  0.35254252201E+04  0.35113192917E+04 0.  0.
        2    1    3    3  502    0  0.50296961004E+02 -0.42463304197E+03 -0.15521041247E+04  0.16099286377E+04  0.25500000920E-02 0.  1.
       -2    1    3    3    0  502 -0.50296961004E+02  0.42463304197E+03  0.18671593806E+04  0.19154965824E+04  0.25500000920E-02 0. -1.
</event>
<event>
 5   0  0.3119048E-07  0.3491196E+04  0.7818609E-02  0.8115880E-01
       -2   -1    0    0    0  501  0.00000000000E+00  0.00000000000E+00  0.16685665729E+04  0.16685665729E+04  0.25500000920E-02 0. -1.
        2   -1    0    0  501    0  0.00000000000E+00  0.00000000000E+00 -0.18261854547E+04  0.18261854547E+04  0.25500000920E-02 0.  1.
    10030    2    1    2    0    0  0.00000000000E+00  0.00000000000E+00 -0.15761888177E+03  0.34947520276E+04  0.34911957869E+04 0.  0.
        3    1    3    3  502    0 -0.14922900944E+04 -0.70590685907E+03 -0.64673008615E+03  0.17729901393E+04  0.10100000352E+00 0. -1.
       -3    1    3    3    0  502  0.14922900944E+04  0.70590685907E+03  0.48911120438E+03  0.17217618883E+04  0.10100000352E+00 0.  1.
</event>
<event>
 5   0  0.1098171E-07  0.3494878E+04  0.7818609E-02  0.8115005E-01
        1   -1    0    0  501    0  0.00000000000E+00  0.00000000000E+00  0.23513180757E+04  0.23513180757E+04  0.50400001928E-02 0.  1.
       -1   -1    0    0    0  501  0.00000000000E+00  0.00000000000E+00 -0.12986515783E+04  0.12986515783E+04  0.50400001928E-02 0. -1.
    10030    2    1    2    0    0  0.00000000000E+00  0.00000000000E+00  0.10526664974E+04  0.36499696540E+04  0.34948779264E+04 0.  0.
        4    1    3    3  502    0 -0.34079821892E+03  0.31224121754E+03  0.22863184665E+04  0.23325719168E+04  0.12699999809E+01 0.  1.
       -4    1    3    3    0  502  0.34079821892E+03 -0.31224121754E+03 -0.12336519691E+04  0.13173977371E+04  0.12699999809E+01 0. -1.
</event>
<event>
 5   0  0.3190185E-07  0.3489616E+04  0.7818609E-02  0.8116255E-01
        2   -1    0    0  501    0  0.00000000000E+00  0.00000000000E+00  0.24857834718E+04  0.24857834718E+04  0.25500000920E-02 0. -1.
       -2   -1    0    0    0  501  0.00000000000E+00  0.00000000000E+00 -0.12247064532E+04  0.12247064532E+04  0.25500000920E-02 0.  1.
    10030    2    1    2    0    0  0.00000000000E+00  0.00000000000E+00  0.12610770187E+04  0.37104899250E+04  0.34896160586E+04 0.  0.
        1    1    3    3  502    0  0.14460491336E+04  0.34797323464E+02  0.16680471545E+04  0.22078610147E+04  0.50400001928E-02 0. -1.
       -1    1    3    3    0  502 -0.14460491336E+04 -0.34797323464E+02 -0.40697013588E+03  0.15026289103E+04  0.50400001928E-02 0.  1.
</event>
<event>
 5   0  0.1013863E-07  0.3417449E+04  0.7818609E-02  0.8133637E-01
       -1   -1    0    0    0  501  0.00000000000E+00  0.00000000000E+00  0.23122798479E+04  0.23122798479E+04  0.50400001928E-02 0.  1.
        1   -1    0    0  501    0  0.00000000000E+00  0.00000000000E+00 -0.12627103022E+04  0.12627103022E+04  0.50400001928E-02 0. -1.
    10030    2    1    2    0    0  0.00000000000E+00  0.00000000000E+00  0.10495695457E+04  0.35749901501E+04  0.34174490987E+04 0.  0.
        2    1    3    3  502    0 -0.37324825315E+03 -0.13719479806E+04 -0.46663018720E+03  0.14964288328E+04  0.25500000920E-02 0. -1.
       -2    1    3    3    0  502  0.37324825315E+03  0.13719479806E+04  0.15161997329E+04  0.20785613174E+04  0.25500000920E-02 0.  1.
</event>
<event>
 5   0  0.3190112E-07  0.3513413E+04  0.7818609E-02  0.8110619E-01
       -2   -1    0    0    0  501  0.00000000000E+00  0.00000000000E+00  0.13965567454E+04  0.13965567454E+04  0.25500000920E-02 0.  1.
        2   -1    0    0  501    0  0.00000000000E+00  0.00000000000E+00 -0.22097334371E+04  0.22097334371E+04  0.25500000920E-02 0. -1.
    10030    2    1    2    0    0  0.00000000000E+00  0.00000000000E+00 -0.81317669173E+03  0.36062901825E+04  0.35134132334E+04 0.  0.
        5    1    3    3  502    0 -0.19017974344E+03  0.20585353811E+03 -0.21866325671E+04  0.22045244583E+04  0.46999998093E+01 0. -1.
       -5    1    3    3    0  502  0.19017974344E+03 -0.20585353811E+03  0.13734558753E+04  0.14017657242E+04  0.46999998093E+01 0.  1.
</event>
<event>
 5   0  0.1033796E-07  0.3499499E+04  0.7818609E-02  0.8113909E-01
        1   -1    0    0  501    0  0.00000000000E+00  0.00000000000E+00  0.20419723906E+04  0.20419723906E+04  0.50400001928E-02 0. -1.
       -1   -1    0    0    0  501  0.00000000000E+00  0.00000000000E+00 -0.14993461021E+04  0.14993461021E+04  0.50400001928E-02 0.  1.
    10030    2    1    2    0    0  0.00000000000E+00  0.00000000000E+00  0.54262628851E+03  0.35413184928E+04  0.34994990182E+04 0.  0.
        3    1    3    3  502    0 -0.13512551991E+03 -0.72665446550E+03 -0.13336211706E+04  0.15247396680E+04  0.10100000352E+00 0.  1.
       -3    1    3    3    0  502  0.13512551991E+03  0.72665446550E+03  0.18762474591E+04  0.20165788247E+04  0.10100000352E+00 0. -1.
</event>
<event>
 5   0  0.1013863E-07  0.3500785E+04  0.7818609E-02  0.8113604E-01
        1   -1    0    0  501    0  0.00000000000E+00  0.00000000000E+00  0.24622519577E+04  0.24622519577E+04  0.50400001928E-02 0.  1.
       -1   -1    0    0    0  501  0.00000000000E+00  0.00000000000E+00 -0.12443377582E+04  0.12443377582E+04  0.50400001928E-02 0. -1.
    10030    2    1    2    0    0  0.00000000000E+00  0.00000000000E+00  0.12179141995E+04  0.37065897159E+04  0.35007845298E+04 0.  0.
        5    1    3    3  502    0 -0.45808449333E+03  0.32668766255E+03 -0.11459776505E+04  0.12766570007E+04  0.46999998093E+01 0. -1.
       -5    1    3    3    0  502  0.45808449333E+03 -0.32668766255E+03  0.23638918500E+04  0.24299327152E+04  0.46999998093E+01 0.  1.
</event>
<event>
 5   0  0.1013863E-07  0.3498901E+04  0.7818609E-02  0.8114050E-01
        1   -1    0    0  501    0  0.00000000000E+00  0.00000000000E+00  0.21512944564E+04  0.21512944564E+04  0.50400001928E-02 0.  1.
       -1   -1    0    0    0  501  0.00000000000E+00  0.00000000000E+00 -0.14226678182E+04  0.14226678182E+04  0.50400001928E-02 0. -1.
    10030    2    1    2    0    0  0.00000000000E+00  0.00000000000E+00  0.72862663821E+03  0.35739622747E+04  0.34989011936E+04 0.  0.
        2    1    3    3  502    0 -0.37090515504E+03 -0.60641845964E+03 -0.12684984550E+04  0.14540984535E+04  0.25500000920E-02 0. -1.
       -2    1    3    3    0  502  0.37090515504E+03  0.60641845964E+03  0.19971250932E+04  0.21198638211E+04  0.25500000920E-02 0.  1.
</event>
<event>
 5   0  0.2180451E-07  0.3491477E+04  0.7818609E-02  0.8115813E-01
       -2   -1    0    0    0  501  0.00000000000E+00  0.00000000000E+00  0.15711489959E+04  0.15711489959E+04  0.25500000920E-02 0. -1.
        2   -1    0    0  501    0  0.00000000000E+00  0.00000000000E+00 -0.19397283985E+04  0.19397283985E+04  0.25500000920E-02 0.  1.
    10030    2    1    2    0    0  0.00000000000E+00  0.00000000000E+00 -0.36857940251E+03  0.35108773944E+04  0.34914766650E+04 0.  0.
        4    1    3    3  502    0 -0.11644585846E+04  0.37818216645E+03  0.10670587883E+04  0.16240694619E+04  0.12699999809E+01 0. -1.
       -4    1    3    3    0  502  0.11644585846E+04 -0.37818216645E+03 -0.14356381908E+04  0.18868079325E+04  0.12699999809E+01 0.  1.
</event>
<event>
 5   0  0.2180451E-07  0.3493064E+04  0.7818609E-02  0.8115436E-01
        2   -1    0    0  501    0  0.00000000000E+00  0.00000000000E+00  0.17771715850E+04  0.17771715850E+04  0.25500000920E-02 0.  1.
       -2   -1    0    0    0  501  0.00000000000E+00  0.00000000000E+00 -0.17164209575E+04  0.17164209575E+04  0.25500000920E-02 0. -1.
    10030    2    1    2    0    0  0.00000000000E+00  0.00000000000E+00  0.60750627480E+02  0.34935925425E+04  0.34930643014E+04 0.  0.
        4    1    3    3  502    0 -0.53145453186E+03 -0.19005797897E+03 -0.16226925273E+04  0.17180508158E+04  0.12699999809E+01 0. -1.
       -4    1    3    3    0  502  0.53145453186E+03  0.19005797897E+03  0.16834431548E+04  0.17755417266E+04  0.12699999809E+01 0.  1.
</event>
<event>
 5   0  0.3119048E-07  0.3691638E+04  0.7818609E-02  0.8069818E-01
       -2   -1    0    0    0  501  0.00000000000E+00  0.00000000000E+00  0.24676602217E+04  0.24676602217E+04  0.25500000920E-02 0. -1.
        2   -1    0    0  501    0  0.00000000000E+00  0.00000000000E+00 -0.13806790939E+04  0.13806790939E+04  0.25500000920E-02 0.  1.
    10030    2    1    2    0    0  0.00000000000E+00  0.00000000000E+00  0.10869811279E+04  0.38483393156E+04  0.36916375114E+04 0.  0.
        3    1    3    3  502    0 -0.14666264434E+04 -0.78775590178E+03  0.13745080566E+04  0.21588943682E+04  0.10100000352E+00 0.  1.
       -3    1    3    3    0  502  0.14666264434E+04  0.78775590178E+03 -0.28752692874E+03  0.16894449474E+04  0.10100000352E+00 0. -1.
</event>
<event>
 5   0  0.3219205E-07  0.3511121E+04  0.7818609E-02  0.8111160E-01
       -2   -1    0    0    0  501  0.00000000000E+00  0.00000000000E+00  0.17326675055E+04  0.17326675055E+04  0.25500000920E-02 0.  1.
        2   -1    0    0  501    0  0.00000000000E+00  0.00000000000E+00 -0.17787556704E+04  0.17787556704E+04  0.25500000920E-02 0. -1.
    10030    2    1    2    0    0  0.00000000000E+00  0.00000000000E+00 -0.46088164915E+02  0.35114231759E+04  0.35111207044E+04 0.  0.
        2    1    3    3  502    0 -0.47275515692E+03 -0.16902768076E+04 -0.61244564377E+02  0.17562129773E+04  0.25500000920E-02 0.  1.
       -2    1    3    3    0  502  0.47275515692E+03  0.16902768076E+04  0.15156399462E+02  0.17552101986E+04  0.25500000920E-02 0. -1.
</event>
<event>
 5   0  0.3190112E-07  0.3501117E+04  0.7818609E-02  0.8113525E-01
       -2   -1    0    0    0  501  0.00000000000E+00  0.00000000000E+00  0.16243894693E+04  0.16243894693E+04  0.25500000920E-02 0. -1.
        2   -1    0    0  501    0  0.00000000000E+00  0.00000000000E+00 -0.18865276264E+04  0.18865276264E+04  0.25500000920E-02 0.  1.
    10030    2    1    2    0    0  0.00000000000E+00  0.00000000000E+00 -0.26213815711E+03  0.35109170956E+04  0.35011173130E+04 0.  0.
        5    1    3    3  502    0 -0.58063459769E+03 -0.11508595747E+04 -0.13187909821E+04  0.18441382923E+04  0.46999998093E+01 0.  1.
       -5    1    3    3    0  502  0.58063459769E+03  0.11508595747E+04  0.10566528250E+04  0.16667788033E+04  0.46999998093E+01 0. -1.
</event>
<event>
 5   0  0.1072381E-07  0.3500415E+04  0.7818609E-02  0.8113692E-01
       -1   -1    0    0    0  501  0.00000000000E+00  0.00000000000E+00  0.28409333749E+04  0.28409333749E+04  0.50400001928E-02 0.  1.
        1   -1    0    0  501    0  0.00000000000E+00  0.00000000000E+00 -0.10782465957E+04  0.10782465957E+04  0.50400001928E-02 0. -1.
    10030    2    1    2    0    0  0.00000000000E+00  0.00000000000E+00  0.17626867792E+04  0.39191799706E+04  0.35004152554E+04 0.  0.
        1    1    3    3  502    0 -0.75896401135E+03 -0.25268773091E+03  0.26242882420E+04  0.27434952592E+04  0.50400001928E-02 0.  1.
       -1    1    3    3    0  502  0.75896401135E+03  0.25268773091E+03 -0.86160146282E+03  0.11756847114E+04  0.50400001928E-02 0. -1.
</event>
<event>
 5   0  0.3119048E-07  0.3509241E+04  0.7818609E-02  0.8111603E-01
        2   -1    0    0  501    0  0.00000000000E+00  0.00000000000E+00  0.19183594112E+04  0.19183594112E+04  0.25500000920E-02 0. -1.
       -2   -1    0    0    0  501  0.00000000000E+00  0.00000000000E+00 -0.16048575807E+04  0.16048575807E+04  0.25500000920E-02 0.  1.
    10030    2    1    2    0    0  0.00000000000E+00  0.00000000000E+00  0.31350183054E+03  0.35232169919E+04  0.35092413104E+04 0.  0.
        3    1    3    3  502    0 -0.85890955739E+02  0.43505953471E+03 -0.15476671510E+04  0.16099464822E+04  0.10100000352E+00 0.  1.
       -3    1    3    3    0  502  0.85890955739E+02 -0.43505953471E+03  0.18611689816E+04  0.19132705097E+04  0.10100000352E+00 0. -1.
</event>
<event>
 5   0  0.3190185E-07  0.3508912E+04  0.7818609E-02  0.8111681E-01
       -2   -1    0    0    0  501  0.00000000000E+00  0.00000000000E+00  0.14321620779E+04  0.14321620779E+04  0.25500000920E-02 0.  1.
        2   -1    0    0  501    0  0.00000000000E+00  0.00000000000E+00 -0.21492788014E+04  0.21492788014E+04  0.25500000920E-02 0. -1.
    10030    2    1    2    0    0  0.00000000000E+00  0.00000000000E+00 -0.71711672353E+03  0.35814408793E+04  0.35089118508E+04 0.  0.
        1    1    3    3  502    0  0.12807099488E+04 -0.10432540770E+04  0.24486267186E+03  0.16698966346E+04  0.50400001928E-02 0.  1.
       -1    1    3    3    0  502 -0.12807099488E+04  0.10432540770E+04 -0.96197939539E+03  0.19115442447E+04  0.50400001928E-02 0. -1.
</event>
<event>
 5   0  0.1013863E-07  0.3498092E+04  0.7818609E-02  0.8114242E-01
       -1   -1    0    0    0  501  0.00000000000E+00  0.00000000000E+00  0.27707560573E+04  0.27707560573E+04  0.50400001928E-02 0. -1.
        1   -1    0    0  501    0  0.00000000000E+00  0.00000000000E+00 -0.11040893401E+04  0.11040893401E+04  0.50400001928E-02 0.  1.
    10030    2    1    2    0    0  0.00000000000E+00  0.00000000000E+00  0.16666667173E+04  0.38748453974E+04  0.34980921811E+04 0.  0.
        5    1    3    3  502    0 -0.30102023759E+02  0.32578620573E+03 -0.10698843379E+04  0.11188017564E+04  0.46999998093E+01 0.  1.
       -5    1    3    3    0  502  0.30102023759E+02 -0.32578620573E+03  0.27365510551E+04  0.27560436410E+04  0.46999998093E+01 0. -1.
</event>
<event>
 5   0  0.1072381E-07  0.3632858E+04  0.7818609E-02  0.8083006E-01
        1   -1    0    0  501    0  0.00000000000E+00  0.00000000000E+00  0.23858502934E+04  0.23858502934E+04  0.50400001928E-02 0. -1.
       -1   -1    0    0    0  501  0.00000000000E+00  0.00000000000E+00 -0.13829091834E+04  0.13829091834E+04  0.50400001928E-02 0.  1.
    10030    2    1    2    0    0  0.00000000000E+00  0.00000000000E+00  0.10029411100E+04  0.37687594768E+04  0.36328579829E+04 0.  0.
        1    1    3    3  502    0 -0.10918213864E+04 -0.29358646484E+01 -0.10044999056E+04  0.14836113438E+04  0.50400001928E-02 0.  1.
       -1    1    3    3    0  502  0.10918213864E+04  0.29358646484E+01  0.20074410156E+04  0.22851481331E+04  0.50400001928E-02 0. -1.
</event>
<event>
 5   0  0.3190112E-07  0.3492861E+04  0.7818609E-02  0.8115484E-01
        2   -1    0    0  501    0  0.00000000000E+00  0.00000000000E+00  0.25283391869E+04  0.25283391869E+04  0.25500000920E-02 0.  1.
       -2   -1    0    0    0  501  0.00000000000E+00  0.00000000000E+00 -0.12063334825E+04  0.12063334825E+04  0.25500000920E-02 0. -1.
    10030    2    1    2    0    0  0.00000000000E+00  0.00000000000E+00  0.13220057044E+04  0.37346726694E+04  0.34928614151E+04 0.  0.
        5    1    3    3  502    0 -0.43363549345E+03 -0.14641603312E+04  0.15671354314E+04  0.21880906671E+04  0.46999998093E+01 0.  1.
       -5    1    3    3    0  502  0.43363549345E+03  0.14641603312E+04 -0.24512972706E+03  0.15465820023E+04  0.46999998093E+01 0. -1.
</event>
<event>
 5   0  0.1033796E-07  0.3496724E+04  0.7818609E-02  0.8114567E-01
       -1   -1    0    0    0  501  0.00000000000E+00  0.00000000000E+00  0.11227210180E+04  0.11227210181E+04  0.50400001928E-02 0. -1.
        1   -1    0    0  501    0  0.00000000000E+00  0.00000000000E+00 -0.27226441292E+04  0.27226441292E+04  0.50400001928E-02 0.  1.
    10030    2    1    2    0    0  0.00000000000E+00  0.00000000000E+00 -0.15999231112E+04  0.38453651473E+04  0.34967240604E+04 0.  0.
        3    1    3    3  502    0  0.56611052025E+03 -0.10808125383E+03 -0.26151769493E+04  0.26779307618E+04  0.10100000352E+00 0.  1.
       -3    1    3    3    0  502 -0.56611052025E+03  0.10808125383E+03  0.10152538381E+04  0.11674343855E+04  0.10100000352E+00 0. -1.
</event>
<event>
 5   0  0.3119048E-07  0.3476888E+04  0.7818609E-02  0.8119289E-01
       -2   -1    0    0    0  501  0.00000000000E+00  0.00000000000E+00  0.12749149289E+04  0.12749149289E+04  0.25500000920E-02 0. -1.
        2   -1    0    0  501    0  0.00000000000E+00  0.00000000000E+00 -0.23705020013E+04  0.23705020013E+04  0.25500000920E-02 0.  1.
    10030    2    1    2    0    0  0.00000000000E+00  0.00000000000E+00 -0.10955870724E+04  0.36454169303E+04  0.34768884886E+04 0.  0.
        3    1    3    3  502    0  0.83467852416E+03 -0.49459997089E+03  0.96464949099E+03  0.13681615477E+04  0.10100000352E+00 0. -1.
       -3    1    3    3    0  502 -0.83467852416E+03  0.49459997089E+03 -0.20602365634E+04  0.22772553826E+04  0.10100000352E+00 0.  1.
</event>
<event>
 5   0  0.3190112E-07  0.3496022E+04  0.7818609E-02  0.8114733E-01
       -2   -1    0    0    0  501  0.00000000000E+00  0.00000000000E+00  0.19130208196E+04  0.19130208196E+04  0.25500000920E-02 0.  1.
        2   -1    0    0  501    0  0.00000000000E+00  0.00000000000E+00 -0.15972340702E+04  0.15972340702E+04  0.25500000920E-02 0. -1.
    10030    2    1    2    0    0  0.00000000000E+00  0.00000000000E+00  0.31578674943E+03  0.35102548897E+04  0.34960217562E+04 0.  0.
        5    1    3    3  502    0  0.49196139133E+03  0.14907815944E+04 -0.61404359740E+03  0.16856830669E+04  0.46999998093E+01 0. -1.
       -5    1    3    3    0  502 -0.49196139133E+03 -0.14907815944E+04  0.92983034683E+03  0.18245718228E+04  0.46999998093E+01 0.  1.
</event>
<event>
 5   0  0.2180451E-07  0.3460201E+04  0.7818609E-02  0.8123287E-01
       -2   -1    0    0    0  501  0.00000000000E+00  0.00000000000E+00  0.12824971881E+04  0.12824971881E+04  0.25500000920E-02 0. -1.
        2   -1    0    0  501    0  0.00000000000E+00  0.00000000000E+00 -0.23339219194E+04  0.23339219194E+04  0.25500000920E-02 0.  1.
    10030    2    1    2    0    0  0.00000000000E+00  0.00000000000E+00 -0.10514247313E+04  0.36164191074E+04  0.34602013229E+04 0.  0.
        4    1    3    3  502    0  0.83580623702E+03 -0.13366088665E+04 -0.12707426605E+04  0.20248169917E+04  0.12699999809E+01 0.  1.
       -4    1    3    3    0  502 -0.83580623702E+03  0.13366088665E+04  0.21931792924E+03  0.15916021157E+04  0.12699999809E+01 0. -1.
</event>
<event>
 5   0  0.3190112E-07  0.3502924E+04  0.7818609E-02  0.8113097E-01
        2   -1    0    0  501    0  0.00000000000E+00  0.00000000000E+00  0.18064656356E+04  0.18064656356E+04  0.25500000920E-02 0. -1.
       -2   -1    0    0    0  501  0.00000000000E+00  0.00000000000E+00 -0.16981333654E+04  0.16981333654E+04  0.25500000920E-02 0.  1.
    10030    2    1    2    0    0  0.00000000000E+00  0.00000000000E+00  0.10833227021E+03  0.35045990011E+04  0.35029242466E+04 0.  0.
        5    1    3    3  502    0 -0.10147387385E+04 -0.74479679476E+03 -0.11642751101E+04  0.17146357033E+04  0.46999998093E+01 0.  1.
       -5    1    3    3    0  502  0.10147387385E+04  0.74479679476E+03  0.12726073803E+04  0.17899632978E+04  0.46999998093E+01 0. -1.
</event>
<event>
 5   0  0.2180451E-07  0.3491414E+04  0.7818609E-02  0.8115828E-01
        2   -1    0    0  501    0  0.00000000000E+00  0.00000000000E+00  0.15175428940E+04  0.15175428940E+04  0.25500000920E-02 0.  1.
       -2   -1    0    0    0  501  0.00000000000E+00  0.00000000000E+00 -0.20081759269E+04  0.20081759269E+04  0.25500000920E-02 0. -1.
    10030    2    1    2    0    0  0.00000000000E+00  0.00000000000E+00 -0.49063303286E+03  0.35257188209E+04  0.34914141019E+04 0.  0.
        4    1    3    3  502    0  0.10548226600E+04  0.14624831674E+03 -0.16421836771E+04  0.19572450681E+04  0.12699999809E+01 0. -1.
       -4    1    3    3    0  502 -0.10548226600E+04 -0.14624831674E+03  0.11515506442E+04  0.15684737528E+04  0.12699999809E+01 0.  1.
</event>
<event>
 5   0  0.1013863E-07  0.3503676E+04  0.7818609E-02  0.8112919E-01
        1   -1    0    0  501    0  0.00000000000E+00  0.00000000000E+00  0.14618025362E+04  0.14618025362E+04  0.50400001928E-02 0.  1.
       -1   -1    0    0    0  501  0.00000000000E+00  0.00000000000E+00 -0.20994198354E+04  0.20994198355E+04  0.50400001928E-02 0. -1.
    10030    2    1    2    0    0  0.00000000000E+00  0.00000000000E+00 -0.63761729928E+03  0.35612223716E+04  0.35036764919E+04 0.  0.
        2    1    3    3  502    0 -0.17126813643E+04  0.32358727677E+03 -0.13998998498E+03  0.17485946864E+04  0.25500000920E-02 0.  1.
       -2    1    3    3    0  502  0.17126813643E+04 -0.32358727677E+03 -0.49762731430E+03  0.18126276852E+04  0.25500000920E-02 0. -1.
</event>
<event>
 5   0  0.3190112E-07  0.3485855E+04  0.7818609E-02  0.8117150E-01
       -2   -1    0    0    0  501  0.00000000000E+00  0.00000000000E+00  0.16977695456E+04  0.16977695456E+04  0.25500000920E-02 0.  1.
        2   -1    0    0  501    0  0.00000000000E+00  0.00000000000E+00 -0.17892865063E+04  0.17892865063E+04  0.25500000920E-02 0. -1.
    10030    2    1    2    0    0  0.00000000000E+00  0.00000000000E+00 -0.91516960672E+02  0.34870560519E+04  0.34858549245E+04 0.  0.
        5    1    3    3  502    0 -0.14106461724E+04 -0.10227949050E+04 -0.40067382446E+01  0.17424322614E+04  0.46999998093E+01 0.  1.
       -5    1    3    3    0  502  0.14106461724E+04  0.10227949050E+04 -0.87510222427E+02  0.17446237905E+04  0.46999998093E+01 0. -1.
</event>
<event>
 5   0  0.1033796E-07  0.3455335E+04  0.7818609E-02  0.8124457E-01
       -1   -1    0    0    0  501  0.00000000000E+00  0.00000000000E+00  0.13799273953E+04  0.13799273953E+04  0.50400001928E-02 0.  1.
        1   -1    0    0  501    0  0.00000000000E+00  0.00000000000E+00 -0.21630383308E+04  0.21630383308E+04  0.50400001928E-02 0. -1.
    10030    2    1    2    0    0  0.00000000000E+00  0.00000000000E+00 -0.78311093554E+03  0.35429657261E+04  0.34553354973E+04 0.  0.
        3    1    3    3  502    0 -0.15970042281E+04  0.61137616434E+03 -0.13907397977E+03  0.17156762227E+04  0.10100000352E+00 0. -1.
       -3    1    3    3    0  502  0.15970042281E+04 -0.61137616434E+03 -0.64403695576E+03  0.18272895035E+04  0.10100000352E+00 0.  1.
</event>
<event>
 5   0  0.1013863E-07  0.3503031E+04  0.7818609E-02  0.8113072E-01
        1   -1    0    0  501    0  0.00000000000E+00  0.00000000000E+00  0.20511225619E+04  0.20511225619E+04  0.50400001928E-02 0. -1.
       -1   -1    0    0    0  501  0.00000000000E+00  0.00000000000E+00 -0.14956718996E+04  0.14956718996E+04  0.50400001928E-02 0.  1.
    10030    2    1    2    0    0  0.00000000000E+00  0.00000000000E+00  0.55545066237E+03  0.35467944615E+04  0.35030309039E+04 0.  0.
        2    1    3    3  502    0  0.87352571987E+03 -0.73743284705E+03 -0.10658617238E+04  0.15629829178E+04  0.25500000920E-02 0.  1.
       -2    1    3    3    0  502 -0.87352571987E+03  0.73743284705E+03  0.16213123862E+04  0.19838115437E+04  0.25500000920E-02 0. -1.
</event>
<event>
 5   0  0.1072381E-07  0.3504869E+04  0.7818609E-02  0.8112637E-01
       -1   -1    0    0    0  501  0.00000000000E+00  0.00000000000E+00  0.10975589445E+04  0.10975589445E+04  0.50400001928E-02 0. -1.
        1   -1    0    0  501    0  0.00000000000E+00  0.00000000000E+00 -0.27980521663E+04  0.27980521663E+04  0.50400001928E-02 0.  1.
    10030    2    1    2    0    0  0.00000000000E+00  0.00000000000E+00 -0.17004932218E+04  0.38956111108E+04  0.35048692885E+04 0.  0.
        1    1    3    3  502    0  0.11048881288E+04  0.22133527843E+03  0.64148943616E+03  0.12966401889E+04  0.50400001928E-02 0. -1.
       -1    1    3    3    0  502 -0.11048881288E+04 -0.22133527843E+03 -0.23419826580E+04  0.25989709219E+04  0.50400001928E-02 0.  1.
</event>
<event>
 5   0  0.1033796E-07  0.3498742E+04  0.7818609E-02  0.8114088E-01
       -1   -1    0    0    0  501  0.00000000000E+00  0.00000000000E+00  0.17175656949E+04  0.17175656949E+04  0.50400001928E-02 0. -1.
        1   -1    0    0  501    0  0.00000000000E+00  0.00000000000E+00 -0.17817653272E+04  0.17817653272E+04  0.50400001928E-02 0.  1.
    10030    2    1    2    0    0  0.00000000000E+00  0.00000000000E+00 -0.64199632245E+02  0.34993310221E+04  0.34987420610E+04 0.  0.
        3    1    3    3  502    0 -0.71076821983E+03 -0.15534058650E+04  0.34484258321E+03  0.17427500283E+04  0.10100000352E+00 0.  1.
       -3    1    3    3    0  502  0.71076821983E+03  0.15534058650E+04 -0.40904221546E+03  0.17565809938E+04  0.10100000352E+00 0. -1.
</event>
<event>
 5   0  0.1013863E-07  0.3490872E+04  0.7818609E-02  0.8115956E-01
       -1   -1    0    0    0  501  0.00000000000E+00  0.00000000000E+00  0.18271865278E+04  0.18271865278E+04  0.50400001928E-02 0. -1.
        1   -1    0    0  501    0  0.00000000000E+00  0.00000000000E+00 -0.16673434723E+04  0.16673434723E+04  0.50400001928E-02 0.  1.
    10030    2    1    2    0    0  0.00000000000E+00  0.00000000000E+00  0.15984305554E+03  0.34945300002E+04  0.34908724009E+04 0.  0.
        5    1    3    3  502    0  0.43731139889E+03  0.16594986288E+04 -0.23876479193E+03  0.17326879911E+04  0.46999998093E+01 0.  1.
       -5    1    3    3    0  502 -0.43731139889E+03 -0.16594986288E+04  0.39860784746E+03  0.17618420090E+04  0.46999998093E+01 0. -1.
</event>
<event>
 5   0  0.1013863E-07  0.3500905E+04  0.7818609E-02  0.8113576E-01
        1   -1    0    0  501    0  0.00000000000E+00  0.00000000000E+00  0.19914558375E+04  0.19914558375E+04  0.50400001928E-02 0. -1.
       -1   -1    0    0    0  501  0.00000000000E+00  0.00000000000E+00 -0.15386150174E+04  0.15386150175E+04  0.50400001928E-02 0.  1.
    10030    2    1    2    0    0  0.00000000000E+00  0.00000000000E+00  0.45284082005E+03  0.35300708550E+04  0.35009049448E+04 0.  0.
        5    1    3    3  502    0 -0.11600991060E+04 -0.11140720761E+04 -0.47004017432E+03  0.16756928066E+04  0.46999998093E+01 0.  1.
       -5    1    3    3    0  502  0.11600991060E+04  0.11140720761E+04  0.92288099437E+03  0.18543780484E+04  0.46999998093E+01 0. -1.
</event>
<event>
 5   0  0.2180451E-07  0.3494605E+04  0.7818609E-02  0.8115070E-01
        2   -1    0    0  501    0  0.00000000000E+00  0.00000000000E+00  0.15476418505E+04  0.15476418505E+04  0.25500000920E-02 0.  1.
       -2   -1    0    0    0  501  0.00000000000E+00  0.00000000000E+00 -0.19727213865E+04  0.19727213865E+04  0.25500000920E-02 0. -1.
    10030    2    1    2    0    0  0.00000000000E+00  0.00000000000E+00 -0.42507953595E+03  0.35203632370E+04  0.34946050862E+04 0.  0.
        4    1    3    3  502    0  0.38542882682E+03  0.14810602250E+04 -0.10619450301E+04  0.18627462604E+04  0.12699999809E+01 0. -1.
       -4    1    3    3    0  502 -0.38542882682E+03 -0.14810602250E+04  0.63686549414E+03  0.16576169766E+04  0.12699999809E+01 0.  1.
</event>
<event>
 5   0  0.1098171E-07  0.3508393E+04  0.7818609E-02  0.8111804E-01
       -1   -1    0    0    0  501  0.00000000000E+00  0.00000000000E+00  0.29221645227E+04  0.29221645227E+04  0.50400001928E-02 0.  1.
        1   -1    0    0  501    0  0.00000000000E+00  0.00000000000E+00 -0.10530568453E+04  0.10530568453E+04  0.50400001928E-02 0. -1.
    10030    2    1    2    0    0  0.00000000000E+00  0.00000000000E+00  0.18691076774E+04  0.39752213681E+04  0.35083929961E+04 0.  0.
        4    1    3    3  502    0 -0.88816865352E+03 -0.61972677915E+03  0.24981357642E+04  0.27227906176E+04  0.12699999809E+01 0.  1.
       -4    1    3    3    0  502  0.88816865352E+03  0.61972677915E+03 -0.62902808677E+03  0.12524307505E+04  0.12699999809E+01 0. -1.
</event>
<event>
 5   0  0.3190185E-07  0.3473752E+04  0.7818609E-02  0.8120039E-01
        2   -1    0    0  501    0  0.00000000000E+00  0.00000000000E+00  0.20343660844E+04  0.20343660844E+04  0.25500000920E-02 0.  1.
       -2   -1    0    0    0  501  0.00000000000E+00  0.00000000000E+00 -0.14828887657E+04  0.14828887657E+04  0.25500000920E-02 0. -1.
    10030    2    1    2    0    0  0.00000000000E+00  0.00000000000E+00  0.55147731877E+03  0.35172548501E+04  0.34737522144E+04 0.  0.
        1    1    3    3  502    0  0.16255834011E+04  0.40050183273E+03 -0.19245399213E+03  0.16852185766E+04  0.50400001928E-02 0.  1.
       -1    1    3    3    0  502 -0.16255834011E+04 -0.40050183273E+03  0.74393131090E+03  0.18320362735E+04  0.50400001928E-02 0. -1.
</event>
<event>
 5   0  0.3190185E-07  0.3488700E+04  0.7818609E-02  0.8116473E-01
       -2   -1    0    0    0  501  0.00000000000E+00  0.00000000000E+00  0.12984331484E+04  0.12984331484E+04  0.25500000920E-02 0.  1.
        2   -1    0    0  501    0  0.00000000000E+00  0.00000000000E+00 -0.23434066805E+04  0.23434066805E+04  0.25500000920E-02 0. -1.
    10030    2    1    2    0    0  0.00000000000E+00  0.00000000000E+00 -0.10449735321E+04  0.36418398289E+04  0.34886999952E+04 0.  0.
        1    1    3    3  502    0 -0.23630869655E+03 -0.15716129766E+03 -0.23191452698E+04  0.23364452178E+04  0.50400001928E-02 0. -1.
       -1    1    3    3    0  502  0.23630869655E+03  0.15716129766E+03  0.12741717377E+04  0.13053946111E+04  0.50400001928E-02 0.  1.
</event>
<event>
 5   0  0.1013863E-07  0.3425738E+04  0.7818609E-02  0.8131618E-01
       -1   -1    0    0    0  501  0.00000000000E+00  0.00000000000E+00  0.16462857086E+04  0.16462857086E+04  0.50400001928E-02 0.  1.
        1   -1    0    0  501    0  0.00000000000E+00  0.00000000000E+00 -0.17821449127E+04  0.17821449127E+04  0.50400001928E-02 0. -1.
    10030    2    1    2    0    0  0.00000000000E+00  0.00000000000E+00 -0.13585920405E+03  0.34284306213E+04  0.34257377019E+04 0.  0.
        2    1    3    3  502    0 -0.45015997043E+03 -0.56408985776E+03 -0.16225593303E+04  0.17758209783E+04  0.25500000920E-02 0. -1.
       -2    1    3    3    0  502  0.45015997043E+03  0.56408985776E+03  0.14867001263E+04  0.16526096430E+04  0.25500000920E-02 0.  1.
</event>
<event>
 5   0  0.2180451E-07  0.3510754E+04  0.7818609E-02  0.8111246E-01
        2   -1    0    0  501    0  0.00000000000E+00  0.00000000000E+00  0.16460070752E+04  0.16460070752E+04  0.25500000920E-02 0.  1.
       -2   -1    0    0    0  501  0.00000000000E+00  0.00000000000E+00 -0.18720140595E+04  0.18720140595E+04  0.25500000920E-02 0. -1.
    10030    2    1    2    0    0  0.00000000000E+00  0.00000000000E+00 -0.22600698433E+03  0.35180211347E+04  0.35107539856E+04 0.  0.
        4    1    3    3  502    0  0.93939992084E+03  0.12373417116E+04 -0.93192217620E+03  0.18116200700E+04  0.12699999809E+01 0. -1.
       -4    1    3    3    0  502 -0.93939992084E+03 -0.12373417116E+04  0.70591519188E+03  0.17064010647E+04  0.12699999809E+01 0.  1.
</event>
<event>
 5   0  0.3190185E-07  0.3507062E+04  0.7818609E-02  0.8112118E-01
        2   -1    0    0  501    0  0.00000000000E+00  0.00000000000E+00  0.23400545746E+04  0.23400545746E+04  0.25500000920E-02 0. -1.
       -2   -1    0    0    0  501  0.00000000000E+00  0.00000000000E+00 -0.13140169430E+04  0.13140169430E+04  0.25500000920E-02 0.  1.
    10030    2    1    2    0    0  0.00000000000E+00  0.00000000000E+00  0.10260376316E+04  0.36540715176E+04  0.35070622228E+04 0.  0.
        1    1    3    3  502    0 -0.70251567794E+03  0.96364138707E+03 -0.82645930808E+03  0.14509197044E+04  0.50400001928E-02 0.  1.
       -1    1    3    3    0  502  0.70251567794E+03 -0.96364138707E+03  0.18524969397E+04  0.22031518132E+04  0.50400001928E-02 0. -1.
</event>
<event>
 5   0  0.1013863E-07  0.3486410E+04  0.7818609E-02  0.8117018E-01
       -1   -1    0    0    0  501  0.00000000000E+00  0.00000000000E+00  0.21367323408E+04  0.21367323408E+04  0.50400001928E-02 0.  1.
        1   -1    0    0  501    0  0.00000000000E+00  0.00000000000E+00 -0.14221542210E+04  0.14221542210E+04  0.50400001928E-02 0. -1.
    10030    2    1    2    0    0  0.00000000000E+00  0.00000000000E+00  0.71457811977E+03  0.35588865618E+04  0.34864095673E+04 0.  0.
        2    1    3    3  502    0  0.61968872154E+03  0.14726442103E+04 -0.35438999179E+03  0.16365473864E+04  0.25500000920E-02 0. -1.
       -2    1    3    3    0  502 -0.61968872154E+03 -0.14726442103E+04  0.10689681116E+04  0.19223391754E+04  0.25500000920E-02 0.  1.
</event>
<event>
 5   0  0.3190185E-07  0.3493963E+04  0.7818609E-02  0.8115222E-01
        2   -1    0    0  501    0  0.00000000000E+00  0.00000000000E+00  0.21042449178E+04  0.21042449178E+04  0.25500000920E-02 0. -1.
       -2   -1    0    0    0  501  0.00000000000E+00  0.00000000000E+00 -0.14503748328E+04  0.14503748328E+04  0.25500000920E-02 0.  1.
    10030    2    1    2    0    0  0.00000000000E+00  0.00000000000E+00  0.65387008500E+03  0.35546197506E+04  0.34939627193E+04 0.  0.
        1    1    3    3  502    0  0.13642837329E+04  0.92442863108E+03  0.91674578079E+03  0.18858051926E+04  0.50400001928E-02 0. -1.
       -1    1    3    3    0  502 -0.13642837329E+04 -0.92442863108E+03 -0.26287569580E+03  0.16688145581E+04  0.50400001928E-02 0.  1.
</event>
<event>
 5   0  0.1098171E-07  0.3540723E+04  0.7818609E-02  0.8104206E-01
        1   -1    0    0  501    0  0.00000000000E+00  0.00000000000E+00  0.11129729541E+04  0.11129729541E+04  0.50400001928E-02 0.  1.
       -1   -1    0    0    0  501  0.00000000000E+00  0.00000000000E+00 -0.28160429879E+04  0.28160429879E+04  0.50400001928E-02 0. -1.
    10030    2    1    2    0    0  0.00000000000E+00  0.00000000000E+00 -0.17030700338E+04  0.39290159420E+04  0.35407229110E+04 0.  0.
        4    1    3    3  502    0 -0.93647972181E+03  0.22052419990E+03  0.79756027077E+03  0.12496916382E+04  0.12699999809E+01 0.  1.
       -4    1    3    3    0  502  0.93647972181E+03 -0.22052419990E+03 -0.25006303046E+04  0.26793243038E+04  0.12699999809E+01 0. -1.
</event>
<event>
 5   0  0.3190112E-07  0.3503436E+04  0.7818609E-02  0.8112976E-01
       -2   -1    0    0    0  501  0.00000000000E+00  0.00000000000E+00  0.15771215941E+04  0.15771215941E+04  0.25500000920E-02 0. -1.
        2   -1    0    0  501    0  0.00000000000E+00  0.00000000000E+00 -0.19456435324E+04  0.19456435324E+04  0.25500000920E-02 0.  1.
    10030    2    1    2    0    0  0.00000000000E+00  0.00000000000E+00 -0.36852193834E+03  0.35227651265E+04  0.35034362728E+04 0.  0.
        5    1    3    3  502    0  0.49827976202E+03 -0.91070456438E+03  0.12344908299E+04  0.16129647311E+04  0.46999998093E+01 0. -1.
       -5    1    3    3    0  502 -0.49827976202E+03  0.91070456438E+03 -0.16030127682E+04  0.19098003953E+04  0.46999998093E+01 0.  1.
</event>
<event>
 5   0  0.1098171E-07  0.3497237E+04  0.7818609E-02  0.8114445E-01
       -1   -1    0    0    0  501  0.00000000000E+00  0.00000000000E+00  0.19879820602E+04  0.19879820602E+04  0.50400001928E-02 0.  1.
        1   -1    0    0  501    0  0.00000000000E+00  0.00000000000E+00 -0.15380755872E+04  0.15380755872E+04  0.50400001928E-02 0. -1.
    10030    2    1    2    0    0  0.00000000000E+00  0.00000000000E+00  0.44990647303E+03  0.35260576474E+04  0.34972370092E+04 0.  0.
        4    1    3    3  502    0  0.10542389368E+04 -0.12209004549E+04 -0.45562615362E+03  0.16761904610E+04  0.12699999809E+01 0. -1.
       -4    1    3    3    0  502 -0.10542389368E+04  0.12209004549E+04  0.90553262666E+03  0.18498671864E+04  0.12699999809E+01 0.  1.
</event>
<event>
 5   0  0.2180451E-07  0.3496900E+04  0.7818609E-02  0.8114525E-01
        2   -1    0    0  501    0  0.00000000000E+00  0.00000000000E+00  0.18124988361E+04  0.18124988361E+04  0.25500000920E-02 0.  1.
       -2   -1    0    0    0  501  0.00000000000E+00  0.00000000000E+00 -0.16866641681E+04  0.16866641681E+04  0.25500000920E-02 0. -1.
    10030    2    1    2    0    0  0.00000000000E+00  0.00000000000E+00  0.12583466803E+03  0.34991630041E+04  0.34968996791E+04 0.  0.
        4    1    3    3  502    0 -0.10734486837E+03 -0.75300594051E+03  0.16382724689E+04  0.18062334186E+04  0.12699999809E+01 0.  1.
       -4    1    3    3    0  502  0.10734486837E+03  0.75300594051E+03 -0.15124378009E+04  0.16929295855E+04  0.12699999809E+01 0. -1.
</event>
<event>
 5   0  0.1098171E-07  0.3510563E+04  0.7818609E-02  0.8111291E-01
        1   -1    0    0  501    0  0.00000000000E+00  0.00000000000E+00  0.19395711012E+04  0.19395711012E+04  0.50400001928E-02 0.  1.
       -1   -1    0    0    0  501  0.00000000000E+00  0.00000000000E+00 -0.15885022348E+04  0.15885022348E+04  0.50400001928E-02 0. -1.
    10030    2    1    2    0    0  0.00000000000E+00  0.00000000000E+00  0.35106886636E+03  0.35280733360E+04  0.35105629343E+04 0.  0.
        4    1    3    3  502    0 -0.99204513116E+03  0.25414658265E+03  0.16082212510E+04  0.19065993897E+04  0.12699999809E+01 0.  1.
       -4    1    3    3    0  502  0.99204513116E+03 -0.25414658265E+03 -0.12571523846E+04  0.16214739464E+04  0.12699999809E+01 0. -1.
</event>
<event>
 5   0  0.1013863E-07  0.3494968E+04  0.7818609E-02  0.8114984E-01
        1   -1    0    0  501    0  0.00000000000E+00  0.00000000000E+00  0.24358776221E+04  0.24358776221E+04  0.50400001928E-02 0.  1.
       -1   -1    0    0    0  501  0.00000000000E+00  0.00000000000E+00 -0.12536344076E+04  0.12536344077E+04  0.50400001928E-02 0. -1.
    10030    2    1    2    0    0  0.00000000000E+00  0.00000000000E+00  0.11822432144E+04  0.36895120297E+04  0.34949678109E+04 0.  0.
        2    1    3    3  502    0  0.72093947341E+03  0.22009148952E+03  0.22554275329E+04  0.23780553703E+04  0.25500000920E-02 0.  1.
       -2    1    3    3    0  502 -0.72093947341E+03 -0.22009148952E+03 -0.10731843185E+04  0.13114566594E+04  0.25500000920E-02 0. -1.
</event>
<event>
 5   0  0.3219205E-07  0.3510815E+04  0.7818609E-02  0.8111232E-01
       -2   -1    0    0    0  501  0.00000000000E+00  0.00000000000E+00  0.10430515133E+04  0.10430515133E+04  0.25500000920E-02 0. -1.
        2   -1    0    0  501    0  0.00000000000E+00  0.00000000000E+00 -0.29542700950E+04  0.29542700950E+04  0.25500000920E-02 0.  1.
    10030    2    1    2    0    0  0.00000000000E+00  0.00000000000E+00 -0.19112185817E+04  0.39973216084E+04  0.35108152292E+04 0.  0.
        2    1    3    3  502    0  0.49354857740E+03 -0.12511955841E+04 -0.22399159474E+04  0.26127196634E+04  0.25500000920E-02 0.  1.
       -2    1    3    3    0  502 -0.49354857740E+03  0.12511955841E+04  0.32869736570E+03  0.13846019450E+04  0.25500000920E-02 0. -1.
</event>
<event>
 5   0  0.3219205E-07  0.3418827E+04  0.7818609E-02  0.8133301E-01
       -2   -1    0    0    0  501  0.00000000000E+00  0.00000000000E+00  0.15033374973E+04  0.15033374973E+04  0.25500000920E-02 0.  1.
        2   -1    0    0  501    0  0.00000000000E+00  0.00000000000E+00 -0.19437380925E+04  0.19437380925E+04  0.25500000920E-02 0. -1.
    10030    2    1    2    0    0  0.00000000000E+00  0.00000000000E+00 -0.44040059518E+03  0.34470755898E+04  0.34188269096E+04 0.  0.
        2    1    3    3  502    0 -0.15554880125E+04 -0.68809051950E+03 -0.39214630450E+03  0.17455057274E+04  0.25500000920E-02 0. -1.
       -2    1    3    3    0  502  0.15554880125E+04  0.68809051950E+03 -0.48254290679E+02  0.17015698624E+04  0.25500000920E-02 0.  1.
</event>
<event>
 5   0  0.3190112E-07  0.3468578E+04  0.7818609E-02  0.8121277E-01
       -2   -1    0    0    0  501  0.00000000000E+00  0.00000000000E+00  0.13868764811E+04  0.13868764811E+04  0.25500000920E-02 0.  1.
        2   -1    0    0  501    0  0.00000000000E+00  0.00000000000E+00 -0.21687287785E+04  0.21687287785E+04  0.25500000920E-02 0. -1.
    10030    2    1    2    0    0  0.00000000000E+00  0.00000000000E+00 -0.78185229741E+03  0.35556052595E+04  0.34685783466E+04 0.  0.
        5    1    3    3  502    0 -0.21075339308E+03 -0.89048095327E+03  0.11192523146E+04  0.14457251311E+04  0.46999998093E+01 0.  1.
       -5    1    3    3    0  502  0.21075339308E+03  0.89048095327E+03 -0.19011046120E+04  0.21098801285E+04  0.46999998093E+01 0. -1.
</event>
<event>
 5   0  0.2180451E-07  0.3500484E+04  0.7818609E-02  0.8113675E-01
       -2   -1    0    0    0  501  0.00000000000E+00  0.00000000000E+00  0.13643919025E+04  0.13643919025E+04  0.25500000920E-02 0. -1.
        2   -1    0    0  501    0  0.00000000000E+00  0.00000000000E+00 -0.22452104159E+04  0.22452104159E+04  0.25500000920E-02 0.  1.
    10030    2    1    2    0    0  0.00000000000E+00  0.00000000000E+00 -0.88081851341E+03  0.36096023185E+04  0.35004839157E+04 0.  0.
        4    1    3    3  502    0 -0.11781958680E+04 -0.90328512042E+03  0.51545793886E+03  0.15715495576E+04  0.12699999809E+01 0.  1.
       -4    1    3    3    0  502  0.11781958680E+04  0.90328512042E+03 -0.13962764523E+04  0.20380527609E+04  0.12699999809E+01 0. -1.
</event>
<event>
 5   0  0.1072381E-07  0.3512415E+04  0.7818609E-02  0.8110854E-01
       -1   -1    0    0    0  501  0.00000000000E+00  0.00000000000E+00  0.15860310733E+04  0.15860310733E+04  0.50400001928E-02 0. -1.
        1   -1    0    0  501    0  0.00000000000E+00  0.00000000000E+00 -0.19446431386E+04  0.19446431386E+04  0.50400001928E-02 0.  1.
    10030    2    1    2    0    0  0.00000000000E+00  0.00000000000E+00 -0.35861206530E+03  0.35306742119E+04  0.35124148071E+04 0.  0.
        1    1    3    3  502    0 -0.14496399932E+03 -0.46950697466E+03 -0.18741354714E+04  0.19374816452E+04  0.50400001928E-02 0.  1.
       -1    1    3    3    0  502  0.14496399932E+03  0.46950697466E+03  0.15155234061E+04  0.15931925667E+04  0.50400001928E-02 0. -1.
</event>
<event>
 5   0  0.2180451E-07  0.3484433E+04  0.7818609E-02  0.8117489E-01
        2   -1    0    0  501    0  0.00000000000E+00  0.00000000000E+00  0.19353842642E+04  0.19353842642E+04  0.25500000920E-02 0.  1.
       -2   -1    0    0    0  501  0.00000000000E+00  0.00000000000E+00 -0.15683287394E+04  0.15683287394E+04  0.25500000920E-02 0. -1.
    10030    2    1    2    0    0  0.00000000000E+00  0.00000000000E+00  0.36705552473E+03  0.35037130036E+04  0.34844332471E+04 0.  0.
        4    1    3    3  502    0 -0.80423103418E+03  0.13540115183E+04 -0.56570062158E+03  0.16733659356E+04  0.12699999809E+01 0. -1.
       -4    1    3    3    0  502  0.80423103418E+03 -0.13540115183E+04  0.93275614631E+03  0.18303470680E+04  0.12699999809E+01 0.  1.
</event>
<event>
 5   0  0.3190112E-07  0.3493516E+04  0.7818609E-02  0.8115328E-01
        2   -1    0    0  501    0  0.00000000000E+00  0.00000000000E+00  0.20972635883E+04  0.20972635883E+04  0.25500000920E-02 0. -1.
       -2   -1    0    0    0  501  0.00000000000E+00  0.00000000000E+00 -0.14548310455E+04  0.14548310455E+04  0.25500000920E-02 0.  1.
    10030    2    1    2    0    0  0.00000000000E+00  0.00000000000E+00  0.64243254281E+03  0.35520946338E+04  0.34935163826E+04 0.  0.
        5    1    3    3  502    0  0.10693789349E+03  0.14008466581E+04 -0.73413522755E+03  0.15851762347E+04  0.46999998093E+01 0.  1.
       -5    1    3    3    0  502 -0.10693789349E+03 -0.14008466581E+04  0.13765677704E+04  0.19669183992E+04  0.46999998093E+01 0. -1.
</event>
<event>
 5   0  0.3190185E-07  0.3503241E+04  0.7818609E-02  0.8113022E-01
       -2   -1    0    0    0  501  0.00000000000E+00  0.00000000000E+00  0.20001664273E+04  0.20001664273E+04  0.25500000920E-02 0.  1.
        2   -1    0    0  501    0  0.00000000000E+00  0.00000000000E+00 -0.15339595888E+04  0.15339595888E+04  0.25500000920E-02 0. -1.
    10030    2    1    2    0    0  0.00000000000E+00  0.00000000000E+00  0.46620683849E+03  0.35341260160E+04  0.35032410538E+04 0.  0.
        1    1    3    3  502    0 -0.29764281922E+03 -0.12070681726E+04  0.14779063254E+04  0.19312721010E+04  0.50400001928E-02 0. -1.
       -1    1    3    3    0  502  0.29764281922E+03  0.12070681726E+04 -0.10116994869E+04  0.16028539151E+04  0.50400001928E-02 0.  1.
</event>
<event>
 5   0  0.1072381E-07  0.3532791E+04  0.7818609E-02  0.8106063E-01
        1   -1    0    0  501    0  0.00000000000E+00  0.00000000000E+00  0.18752209984E+04  0.18752209985E+04  0.50400001928E-02 0.  1.
       -1   -1    0    0    0  501  0.00000000000E+00  0.00000000000E+00 -0.16638851105E+04  0.16638851105E+04  0.50400001928E-02 0. -1.
    10030    2    1    2    0    0  0.00000000000E+00  0.00000000000E+00  0.21133588791E+03  0.35391061090E+04  0.35327905674E+04 0.  0.
        1    1    3    3  502    0 -0.14262386593E+04 -0.70815610247E+03  0.87156756994E+03  0.18152883539E+04  0.50400001928E-02 0.  1.
       -1    1    3    3    0  502  0.14262386593E+04  0.70815610247E+03 -0.66023168204E+03  0.17238177551E+04  0.50400001928E-02 0. -1.
</event>
<event>
 5   0  0.3190112E-07  0.3488138E+04  0.7818609E-02  0.8116607E-01
       -2   -1    0    0    0  501  0.00000000000E+00  0.00000000000E+00  0.28505943582E+04  0.28505943582E+04  0.25500000920E-02 0.  1.
        2   -1    0    0  501    0  0.00000000000E+00  0.00000000000E+00 -0.10670677027E+04  0.10670677027E+04  0.25500000920E-02 0. -1.
    10030    2    1    2    0    0  0.00000000000E+00  0.00000000000E+00  0.17835266555E+04  0.39176620608E+04  0.34881382845E+04 0.  0.
        5    1    3    3  502    0  0.12715991844E+04  0.23628561773E+03  0.22058639149E+04  0.25570790132E+04  0.46999998093E+01 0.  1.
       -5    1    3    3    0  502 -0.12715991844E+04 -0.23628561773E+03 -0.42233725937E+03  0.13605830476E+04  0.46999998093E+01 0. -1.
</event>
<event>
 5   0  0.1013863E-07  0.3496887E+04  0.7818609E-02  0.8114528E-01
        1   -1    0    0  501    0  0.00000000000E+00  0.00000000000E+00  0.25296651691E+04  0.25296651691E+04  0.50400001928E-02 0.  1.
       -1   -1    0    0    0  501  0.00000000000E+00  0.00000000000E+00 -0.12084817074E+04  0.12084817074E+04  0.50400001928E-02 0. -1.
    10030    2    1    2    0    0  0.00000000000E+00  0.00000000000E+00  0.13211834617E+04  0.37381468765E+04  0.34968866626E+04 0.  0.
        2    1    3    3  502    0 -0.66508354723E+03 -0.13249820295E+04  0.16514394658E+04  0.22192714598E+04  0.25500000920E-02 0.  1.
       -2    1    3    3    0  502  0.66508354723E+03  0.13249820295E+04 -0.33025600409E+03  0.15188754167E+04  0.25500000920E-02 0. -1.
</event>
<event>
 5   0  0.3219205E-07  0.3502804E+04  0.7818609E-02  0.8113126E-01
       -2   -1    0    0    0  501  0.00000000000E+00  0.00000000000E+00  0.15273647027E+04  0.15273647027E+04  0.25500000920E-02 0.  1.
        2   -1    0    0  501    0  0.00000000000E+00  0.00000000000E+00 -0.20083015299E+04  0.20083015299E+04  0.25500000920E-02 0. -1.
    10030    2    1    2    0    0  0.00000000000E+00  0.00000000000E+00 -0.48093682719E+03  0.35356662325E+04  0.35028039448E+04 0.  0.
        2    1    3    3  502    0  0.34720057754E+03  0.16285593438E+04 -0.78838242409E+03  0.18423627829E+04  0.25500000920E-02 0.  1.
       -2    1    3    3    0  502 -0.34720057754E+03 -0.16285593438E+04  0.30744559691E+03  0.16933034496E+04  0.25500000920E-02 0. -1.
</event>
<event>
 5   0  0.2180451E-07  0.3492149E+04  0.7818609E-02  0.8115653E-01
        2   -1    0    0  501    0  0.00000000000E+00  0.00000000000E+00  0.29402737846E+04  0.29402737846E+04  0.25500000920E-02 0. -1.
       -2   -1    0    0    0  501  0.00000000000E+00  0.00000000000E+00 -0.10369020086E+04  0.10369020086E+04  0.25500000920E-02 0.  1.
    10030    2    1    2    0    0  0.00000000000E+00  0.00000000000E+00  0.19033717759E+04  0.39771757932E+04  0.34921487901E+04 0.  0.
        4    1    3    3  502    0  0.13342147079E+04 -0.97031804809E+03  0.16030757966E+04  0.23003259820E+04  0.12699999809E+01 0. -1.
       -4    1    3    3    0  502 -0.13342147079E+04  0.97031804809E+03  0.30029597937E+03  0.16768498112E+04  0.12699999809E+01 0.  1.
</event>
<event>
 5   0  0.3190112E-07  0.3500250E+04  0.7818609E-02  0.8113731E-01
        2   -1    0    0  501    0  0.00000000000E+00  0.00000000000E+00  0.20806734086E+04  0.20806734086E+04  0.25500000920E-02 0.  1.
       -2   -1    0    0    0  501  0.00000000000E+00  0.00000000000E+00 -0.14720891174E+04  0.14720891174E+04  0.25500000920E-02 0. -1.
    10030    2    1    2    0    0  0.00000000000E+00  0.00000000000E+00  0.60858429118E+03  0.35527625259E+04  0.35002495234E+04 0.  0.
        5    1    3    3  502    0  0.15732143568E+04  0.50489777628E+03  0.89000180752E+03  0.18767126802E+04  0.46999998093E+01 0.  1.
       -5    1    3    3    0  502 -0.15732143568E+04 -0.50489777628E+03 -0.28141751634E+03  0.16760498457E+04  0.46999998093E+01 0. -1.
</event>
<event>
 5   0  0.1098171E-07  0.3570806E+04  0.7818609E-02  0.8097212E-01
        1   -1    0    0  501    0  0.00000000000E+00  0.00000000000E+00  0.22015789700E+04  0.22015789700E+04  0.50400001928E-02 0.  1.
       -1   -1    0    0    0  501  0.00000000000E+00  0.00000000000E+00 -0.14478991289E+04  0.14478991289E+04  0.50400001928E-02 0. -1.
    10030    2    1    2    0    0  0.00000000000E+00  0.00000000000E+00  0.75367984109E+03  0.36494780989E+04  0.35708062243E+04 0.  0.
        4    1    3    3  502    0 -0.75913601649E+03  0.16147205411E+04  0.31177618554E+03  0.18113022719E+04  0.12699999809E+01 0. -1.
       -4    1    3    3    0  502  0.75913601649E+03 -0.16147205411E+04  0.44190365556E+03  0.18381758270E+04  0.12699999809E+01 0.  1.
</event>
<event>
 5   0  0.1098171E-07  0.3502379E+04  0.7818609E-02  0.8113226E-01
        1   -1    0    0  501    0  0.00000000000E+00  0.00000000000E+00  0.24874196704E+04  0.24874196704E+04  0.50400001928E-02 0.  1.
       -1   -1    0    0    0  501  0.00000000000E+00  0.00000000000E+00 -0.12328700387E+04  0.12328700388E+04  0.50400001928E-02 0. -1.
    10030    2    1    2    0    0  0.00000000000E+00  0.00000000000E+00  0.12545496316E+04  0.37202897091E+04  0.35023792972E+04 0.  0.
        4    1    3    3  502    0 -0.18168598273E+03 -0.16574222693E+04  0.58610974168E+02  0.16683810219E+04  0.12699999809E+01 0. -1.
       -4    1    3    3    0  502  0.18168598273E+03  0.16574222693E+04  0.11959386574E+04  0.20519086872E+04  0.12699999809E+01 0.  1.
</event>
<event>
 5   0  0.3219205E-07  0.3530098E+04  0.7818609E-02  0.8106694E-01
       -2   -1    0    0    0  501  0.00000000000E+00  0.00000000000E+00  0.19205115180E+04  0.19205115180E+04  0.25500000920E-02 0. -1.
        2   -1    0    0  501    0  0.00000000000E+00  0.00000000000E+00 -0.16221710333E+04  0.16221710333E+04  0.25500000920E-02 0.  1.
    10030    2    1    2    0    0  0.00000000000E+00  0.00000000000E+00  0.29834048473E+03  0.35426825513E+04  0.35300981026E+04 0.  0.
        2    1    3    3  502    0 -0.12038872430E+04 -0.32586050269E+03 -0.11042291230E+04  0.16657885571E+04  0.25500000920E-02 0.  1.
       -2    1    3    3    0  502  0.12038872430E+04  0.32586050269E+03  0.14025696077E+04  0.18768939942E+04  0.25500000920E-02 0. -1.
</event>
<event>
 5   0  0.3190185E-07  0.3487399E+04  0.7818609E-02  0.8116783E-01
        2   -1    0    0  501    0  0.00000000000E+00  0.00000000000E+00  0.17268071617E+04  0.17268071617E+04  0.25500000920E-02 0.  1.
       -2   -1    0    0    0  501  0.00000000000E+00  0.00000000000E+00 -0.17607569030E+04  0.17607569030E+04  0.25500000920E-02 0. -1.
    10030    2    1    2    0    0  0.00000000000E+00  0.00000000000E+00 -0.33949741240E+02  0.34875640647E+04  0.34873988186E+04 0.  0.
        1    1    3    3  502    0  0.94733910147E+02  0.16930961630E+04  0.38917058400E+03  0.17398284037E+04  0.50400001928E-02 0.  1.
       -1    1    3    3    0  502 -0.94733910147E+02 -0.16930961630E+04 -0.42312032524E+03  0.17477356609E+04  0.50400001928E-02 0. -1.
</event>
<event>
 5   0  0.2180451E-07  0.3500074E+04  0.7818609E-02  0.8113772E-01
        2   -1    0    0  501    0  0.00000000000E+00  0.00000000000E+00  0.11444895700E+04  0.11444895700E+04  0.25500000920E-02 0.  1.
       -2   -1    0    0    0  501  0.00000000000E+00  0.00000000000E+00 -0.26759788419E+04  0.26759788420E+04  0.25500000920E-02 0. -1.
    10030    2    1    2    0    0  0.00000000000E+00  0.00000000000E+00 -0.15314892719E+04  0.38204684120E+04  0.35000742130E+04 0.  0.
        4    1    3    3  502    0  0.11309652064E+04 -0.10619749855E+04  0.11816973853E+03  0.15559045176E+04  0.12699999809E+01 0.  1.
       -4    1    3    3    0  502 -0.11309652064E+04  0.10619749855E+04 -0.16496590105E+04  0.22645638944E+04  0.12699999809E+01 0. -1.
</event>
<event>
 5   0  0.3190112E-07  0.3487325E+04  0.7818609E-02  0.8116800E-01
       -2   -1    0    0    0  501  0.00000000000E+00  0.00000000000E+00  0.13497655888E+04  0.13497655888E+04  0.25500000920E-02 0.  1.
        2   -1    0    0  501    0  0.00000000000E+00  0.00000000000E+00 -0.22525088966E+04  0.22525088966E+04  0.25500000920E-02 0. -1.
    10030    2    1    2    0    0  0.00000000000E+00  0.00000000000E+00 -0.90274330786E+03  0.36022744854E+04  0.34873250477E+04 0.  0.
        5    1    3    3  502    0 -0.44719068964E+03  0.16102313190E+04 -0.96527676339E+03  0.19299237636E+04  0.46999998093E+01 0.  1.
       -5    1    3    3    0  502  0.44719068964E+03 -0.16102313190E+04  0.62533455529E+02  0.16723507218E+04  0.46999998093E+01 0. -1.
</event>
<event>
 5   0  0.3119048E-07  0.3506836E+04  0.7818609E-02  0.8112172E-01
        2   -1    0    0  501    0  0.00000000000E+00  0.00000000000E+00  0.19102118014E+04  0.19102118014E+04  0.25500000920E-02 0. -1.
       -2   -1    0    0    0  501  0.00000000000E+00  0.00000000000E+00 -0.16094943709E+04  0.16094943709E+04  0.25500000920E-02 0.  1.
    10030    2    1    2    0    0  0.00000000000E+00  0.00000000000E+00  0.30071743052E+03  0.35197061724E+04  0.35068362618E+04 0.  0.
        3    1    3    3  502    0  0.11302453820E+04  0.11834910221E+04 -0.48153064125E+03  0.17058655843E+04  0.10100000352E+00 0.  1.
       -3    1    3    3    0  502 -0.11302453820E+04 -0.11834910221E+04  0.78224807177E+03  0.18138405881E+04  0.10100000352E+00 0. -1.
</event>
<event>
 5   0  0.1098171E-07  0.3501806E+04  0.7818609E-02  0.8113362E-01
        1   -1    0    0  501    0  0.00000000000E+00  0.00000000000E+00  0.11347773152E+04  0.11347773152E+04  0.50400001928E-02 0.  1.
       -1   -1    0    0    0  501  0.00000000000E+00  0.00000000000E+00 -0.27015533966E+04  0.27015533966E+04  0.50400001928E-02 0. -1.
    10030    2    1    2    0    0  0.00000000000E+00  0.00000000000E+00 -0.15667760814E+04  0.38363307118E+04  0.35018061113E+04 0.  0.
        4    1    3    3  502    0  0.19759112028E+03  0.21620587755E+03  0.11077481048E+04  0.11458161759E+04  0.12699999809E+01 0.  1.
       -4    1    3    3    0  502 -0.19759112028E+03 -0.21620587755E+03 -0.26745241862E+04  0.26905145359E+04  0.12699999809E+01 0. -1.
</event>
<event>
 5   0  0.1072381E-07  0.3502931E+04  0.7818609E-02  0.8113096E-01
       -1   -1    0    0    0  501  0.00000000000E+00  0.00000000000E+00  0.10628302632E+04  0.10628302632E+04  0.50400001928E-02 0.  1.
        1   -1    0    0  501    0  0.00000000000E+00  0.00000000000E+00 -0.28862845398E+04  0.28862845398E+04  0.50400001928E-02 0. -1.
    10030    2    1    2    0    0  0.00000000000E+00  0.00000000000E+00 -0.18234542765E+04  0.39491148030E+04  0.35029305201E+04 0.  0.
        1    1    3    3  502    0  0.50485359174E+03  0.16362755564E+04 -0.13264963672E+04  0.21660718958E+04  0.50400001928E-02 0. -1.
       -1    1    3    3    0  502 -0.50485359174E+03 -0.16362755564E+04 -0.49695790937E+03  0.17830429073E+04  0.50400001928E-02 0.  1.
</event>
<event>
 5   0  0.1072381E-07  0.3470465E+04  0.7818609E-02  0.8120825E-01
        1   -1    0    0  501    0  0.00000000000E+00  0.00000000000E+00  0.22707949978E+04  0.22707949978E+04  0.50400001928E-02 0. -1.
       -1   -1    0    0    0  501  0.00000000000E+00  0.00000000000E+00 -0.13259810536E+04  0.13259810536E+04  0.50400001928E-02 0.  1.
    10030    2    1    2    0    0  0.00000000000E+00  0.00000000000E+00  0.94481394415E+03  0.35967760514E+04  0.34704646051E+04 0.  0.
        1    1    3    3  502    0 -0.59296298957E+03  0.87014623241E+03 -0.95702021261E+03  0.14229010015E+04  0.50400001928E-02 0.  1.
       -1    1    3    3    0  502  0.59296298957E+03 -0.87014623241E+03  0.19018341568E+04  0.21738750499E+04  0.50400001928E-02 0. -1.
</event>
<event>
 5   0  0.3190112E-07  0.3508515E+04  0.7818609E-02  0.8111775E-01
        2   -1    0    0  501    0  0.00000000000E+00  0.00000000000E+00  0.18867785037E+04  0.18867785037E+04  0.25500000920E-02 0. -1.
       -2   -1    0    0    0  501  0.00000000000E+00  0.00000000000E+00 -0.16310442468E+04  0.16310442468E+04  0.25500000920E-02 0.  1.
    10030    2    1    2    0    0  0.00000000000E+00  0.00000000000E+00  0.25573425697E+03  0.35178227505E+04  0.35085149129E+04 0.  0.
        5    1    3    3  502    0  0.53622337082E+02  0.13886297415E+04  0.12013283593E+04  0.18369485106E+04  0.46999998093E+01 0. -1.
       -5    1    3    3    0  502 -0.53622337082E+02 -0.13886297415E+04 -0.94559410228E+03  0.16808742399E+04  0.46999998093E+01 0.  1.
</event>
<event>
 5   0  0.1013863E-07  0.3514242E+04  0.7818609E-02  0.8110423E-01
       -3   -1    0    0    0  501  0.00000000000E+00  0.00000000000E+00  0.20475788065E+04  0.20475788090E+04  0.10100000352E+00 0. -1.
        3   -1    0    0  501    0  0.00000000000E+00  0.00000000000E+00 -0.15078659666E+04  0.15078659700E+04  0.10100000352E+00 0.  1.
    10030    2    1    2    0    0  0.00000000000E+00  0.00000000000E+00  0.53971283985E+03  0.35554447790E+04  0.35142421127E+04 0.  0.
        5    1    3    3  502    0 -0.22329537353E+03  0.17391664304E+04  0.38472890360E+03  0.17951599137E+04  0.46999998093E+01 0. -1.
       -5    1    3    3    0  502  0.22329537353E+03 -0.17391664304E+04  0.15498393625E+03  0.17602848653E+04  0.46999998093E+01 0.  1.
</event>
<event>
 5   0  0.1072381E-07  0.3499000E+04  0.7818609E-02  0.8114027E-01
       -1   -1    0    0    0  501  0.00000000000E+00  0.00000000000E+00  0.15021695813E+04  0.15021695814E+04  0.50400001928E-02 0.  1.
        1   -1    0    0  501    0  0.00000000000E+00  0.00000000000E+00 -0.20375527713E+04  0.20375527713E+04  0.50400001928E-02 0. -1.
    10030    2    1    2    0    0  0.00000000000E+00  0.00000000000E+00 -0.53538318995E+03  0.35397223527E+04  0.34989997390E+04 0.  0.
        1    1    3    3  502    0  0.35967592266E+03 -0.79971371926E+03  0.12638102688E+04  0.15382214398E+04  0.50400001928E-02 0.  1.
       -1    1    3    3    0  502 -0.35967592266E+03  0.79971371926E+03 -0.17991934588E+04  0.20015009129E+04  0.50400001928E-02 0. -1.
</event>
<event>
 5   0  0.3190185E-07  0.3472598E+04  0.7818609E-02  0.8120315E-01
        2   -1    0    0  501    0  0.00000000000E+00  0.00000000000E+00  0.16185364619E+04  0.16185364619E+04  0.25500000920E-02 0.  1.
       -2   -1    0    0    0  501  0.00000000000E+00  0.00000000000E+00 -0.18626293931E+04  0.18626293931E+04  0.25500000920E-02 0. -1.
    10030    2    1    2    0    0  0.00000000000E+00  0.00000000000E+00 -0.24409293126E+03  0.34811658550E+04  0.34725976373E+04 0.  0.
        1    1    3    3  502    0  0.44245155223E+03  0.32170963538E+03 -0.17739816524E+04  0.18564135770E+04  0.50400001928E-02 0. -1.
       -1    1    3    3    0  502 -0.44245155223E+03 -0.32170963538E+03  0.15298887212E+04  0.16247522780E+04  0.50400001928E-02 0.  1.
</event>
<event>
 5   0  0.1072381E-07  0.3500479E+04  0.7818609E-02  0.8113677E-01
        1   -1    0    0  501    0  0.00000000000E+00  0.00000000000E+00  0.92580461243E+03  0.92580461244E+03  0.50400001928E-02 0. -1.
       -1   -1    0    0    0  501  0.00000000000E+00  0.00000000000E+00 -0.33088380799E+04  0.33088380799E+04  0.50400001928E-02 0.  1.
    10030    2    1    2    0    0  0.00000000000E+00  0.00000000000E+00 -0.23830334674E+04  0.42346426923E+04  0.35004785708E+04 0.  0.
        1    1    3    3  502    0  0.67621343787E+03  0.16141434119E+04 -0.11615410246E+04  0.21004525988E+04  0.50400001928E-02 0. -1.
       -1    1    3    3    0  502 -0.67621343787E+03 -0.16141434119E+04 -0.12214924428E+04  0.21341900936E+04  0.50400001928E-02 0.  1.
</event>
<event>
 5   0  0.2180451E-07  0.3497855E+04  0.7818609E-02  0.8114298E-01
        2   -1    0    0  501    0  0.00000000000E+00  0.00000000000E+00  0.18082010097E+04  0.18082010097E+04  0.25500000920E-02 0. -1.
       -2   -1    0    0    0  501  0.00000000000E+00  0.00000000000E+00 -0.16915969325E+04  0.16915969325E+04  0.25500000920E-02 0.  1.
    10030    2    1    2    0    0  0.00000000000E+00  0.00000000000E+00  0.11660407717E+03  0.34997979422E+04  0.34978549320E+04 0.  0.
        4    1    3    3  502    0  0.28855848085E+03  0.11388547950E+04  0.13545869998E+04  0.17930877820E+04  0.12699999809E+01 0. -1.
       -4    1    3    3    0  502 -0.28855848085E+03 -0.11388547950E+04 -0.12379829227E+04  0.17067101602E+04  0.12699999809E+01 0.  1.
</event>
<event>
 5   0  0.3119048E-07  0.3500518E+04  0.7818609E-02  0.8113667E-01
        2   -1    0    0  501    0  0.00000000000E+00  0.00000000000E+00  0.19523554236E+04  0.19523554236E+04  0.25500000920E-02 0.  1.
       -2   -1    0    0    0  501  0.00000000000E+00  0.00000000000E+00 -0.15690820057E+04  0.15690820057E+04  0.25500000920E-02 0. -1.
    10030    2    1    2    0    0  0.00000000000E+00  0.00000000000E+00  0.38327341791E+03  0.35214374293E+04  0.35005175411E+04 0.  0.
        3    1    3    3  502    0  0.70283287948E+03 -0.81919593346E+03  0.15776769170E+04  0.19115753971E+04  0.10100000352E+00 0.  1.
       -3    1    3    3    0  502 -0.70283287948E+03  0.81919593346E+03 -0.11944034991E+04  0.16098620322E+04  0.10100000352E+00 0. -1.
</event>
<event>
 5   0  0.3219205E-07  0.3505982E+04  0.7818609E-02  0.8112374E-01
        2   -1    0    0  501    0  0.00000000000E+00  0.00000000000E+00  0.17666405878E+04  0.17666405879E+04  0.25500000920E-02 0. -1.
       -2   -1    0    0    0  501  0.00000000000E+00  0.00000000000E+00 -0.17394465033E+04  0.17394465033E+04  0.25500000920E-02 0.  1.
    10030    2    1    2    0    0  0.00000000000E+00  0.00000000000E+00  0.27194084510E+02  0.35060870912E+04  0.35059816276E+04 0.  0.
        2    1    3    3  502    0  0.83692619720E+03 -0.14371611258E+04 -0.54058497490E+03  0.17487451719E+04  0.25500000920E-02 0.  1.
       -2    1    3    3    0  502 -0.83692619720E+03  0.14371611258E+04  0.56777905941E+03  0.17573419193E+04  0.25500000920E-02 0. -1.
</event>
<event>
 5   0  0.1013863E-07  0.3496280E+04  0.7818609E-02  0.8114672E-01
        1   -1    0    0  501    0  0.00000000000E+00  0.00000000000E+00  0.15211983511E+04  0.15211983511E+04  0.50400001928E-02 0. -1.
       -1   -1    0    0    0  501  0.00000000000E+00  0.00000000000E+00 -0.20089383529E+04  0.20089383529E+04  0.50400001928E-02 0.  1.
    10030    2    1    2    0    0  0.00000000000E+00  0.00000000000E+00 -0.48774000174E+03  0.35301367040E+04  0.34962801432E+04 0.  0.
        5    1    3    3  502    0  0.10010971499E+04 -0.12439834251E+04  0.47455471790E+03  0.16658074726E+04  0.46999998093E+01 0. -1.
       -5    1    3    3    0  502 -0.10010971499E+04  0.12439834251E+04 -0.96229471963E+03  0.18643292314E+04  0.46999998093E+01 0.  1.
</event>
<event>
 5   0  0.1072381E-07  0.3500253E+04  0.7818609E-02  0.8113730E-01
        1   -1    0    0  501    0  0.00000000000E+00  0.00000000000E+00  0.15173263101E+04  0.15173263101E+04  0.50400001928E-02 0. -1.
       -1   -1    0    0    0  501  0.00000000000E+00  0.00000000000E+00 -0.20186451173E+04  0.20186451173E+04  0.50400001928E-02 0.  1.
    10030    2    1    2    0    0  0.00000000000E+00  0.00000000000E+00 -0.50131880720E+03  0.35359714274E+04  0.35002533321E+04 0.  0.
        1    1    3    3  502    0  0.43883240361E+03  0.11021119234E+04  0.10492184850E+04  0.15836931519E+04  0.50400001928E-02 0. -1.
       -1    1    3    3    0  502 -0.43883240361E+03 -0.11021119234E+04 -0.15505372922E+04  0.19522782754E+04  0.50400001928E-02 0.  1.
</event>
<event>
 5   0  0.2180451E-07  0.3505593E+04  0.7818609E-02  0.8112466E-01
       -2   -1    0    0    0  501  0.00000000000E+00  0.00000000000E+00  0.16730788481E+04  0.16730788481E+04  0.25500000920E-02 0.  1.
        2   -1    0    0  501    0  0.00000000000E+00  0.00000000000E+00 -0.18363121652E+04  0.18363121652E+04  0.25500000920E-02 0. -1.
    10030    2    1    2    0    0  0.00000000000E+00  0.00000000000E+00 -0.16323331716E+03  0.35093910133E+04  0.35055926986E+04 0.  0.
        4    1    3    3  502    0  0.12476030473E+04 -0.52273643107E+02 -0.13130094011E+04  0.18119716327E+04  0.12699999809E+01 0. -1.
       -4    1    3    3    0  502 -0.12476030473E+04  0.52273643107E+02  0.11497760840E+04  0.16974193806E+04  0.12699999809E+01 0.  1.
</event>
<event>
 5   0  0.2180451E-07  0.3418944E+04  0.7818609E-02  0.8133272E-01
       -2   -1    0    0    0  501  0.00000000000E+00  0.00000000000E+00  0.13435639156E+04  0.13435639156E+04  0.25500000920E-02 0.  1.
        2   -1    0    0  501    0  0.00000000000E+00  0.00000000000E+00 -0.21750321362E+04  0.21750321362E+04  0.25500000920E-02 0. -1.
    10030    2    1    2    0    0  0.00000000000E+00  0.00000000000E+00 -0.83146822064E+03  0.35185960518E+04  0.34189441022E+04 0.  0.
        4    1    3    3  502    0 -0.36417125721E+03 -0.16330888092E+04 -0.77621966361E+03  0.18444832183E+04  0.12699999809E+01 0. -1.
       -4    1    3    3    0  502  0.36417125721E+03  0.16330888092E+04 -0.55248557034E+02  0.16741128335E+04  0.12699999809E+01 0.  1.
</event>
<event>
 5   0  0.3190112E-07  0.3522187E+04  0.7818609E-02  0.8108552E-01
        2   -1    0    0  501    0  0.00000000000E+00  0.00000000000E+00  0.18849265842E+04  0.18849265842E+04  0.25500000920E-02 0. -1.
       -2   -1    0    0    0  501  0.00000000000E+00  0.00000000000E+00 -0.16453955869E+04  0.16453955869E+04  0.25500000920E-02 0.  1.
    10030    2    1    2    0    0  0.00000000000E+00  0.00000000000E+00  0.23953099733E+03  0.35303221711E+04  0.35221867545E+04 0.  0.
        5    1    3    3  502    0  0.12696948581E+04 -0.70831057688E+03 -0.87630999798E+03  0.16975777474E+04  0.46999998093E+01 0.  1.
       -5    1    3    3    0  502 -0.12696948581E+04  0.70831057688E+03  0.11158409953E+04  0.18327444237E+04  0.46999998093E+01 0. -1.
</event>
<event>
 5   0  0.3190185E-07  0.3481690E+04  0.7818609E-02  0.8118143E-01
        2   -1    0    0  501    0  0.00000000000E+00  0.00000000000E+00  0.11957850734E+04  0.11957850734E+04  0.25500000920E-02 0.  1.
       -2   -1    0    0    0  501  0.00000000000E+00  0.00000000000E+00 -0.25343527613E+04  0.25343527613E+04  0.25500000920E-02 0. -1.
    10030    2    1    2    0    0  0.00000000000E+00  0.00000000000E+00 -0.13385676879E+04  0.37301378348E+04  0.34816899361E+04 0.  0.
        1    1    3    3  502    0  0.97457880717E+03 -0.13080661461E+04 -0.13207017535E+04  0.20988315835E+04  0.50400001928E-02 0. -1.
       -1    1    3    3    0  502 -0.97457880717E+03  0.13080661461E+04 -0.17865934354E+02  0.16313062513E+04  0.50400001928E-02 0.  1.
</event>
<event>
 5   0  0.2180451E-07  0.3492541E+04  0.7818609E-02  0.8115560E-01
       -2   -1    0    0    0  501  0.00000000000E+00  0.00000000000E+00  0.15461066500E+04  0.15461066500E+04  0.25500000920E-02 0.  1.
        2   -1    0    0  501    0  0.00000000000E+00  0.00000000000E+00 -0.19723480647E+04  0.19723480647E+04  0.25500000920E-02 0. -1.
    10030    2    1    2    0    0  0.00000000000E+00  0.00000000000E+00 -0.42624141473E+03  0.35184547147E+04  0.34925408854E+04 0.  0.
        4    1    3    3  502    0 -0.12986719570E+04 -0.27479532286E+03  0.92993343458E+03  0.16207526422E+04  0.12699999809E+01 0.  1.
       -4    1    3    3    0  502  0.12986719570E+04  0.27479532286E+03 -0.13561748493E+04  0.18977020726E+04  0.12699999809E+01 0. -1.
</event>
<event>
 5   0  0.1033796E-07  0.3500459E+04  0.7818609E-02  0.8113681E-01
        1   -1    0    0  501    0  0.00000000000E+00  0.00000000000E+00  0.98171641155E+03  0.98171641157E+03  0.50400001928E-02 0. -1.
       -1   -1    0    0    0  501  0.00000000000E+00  0.00000000000E+00 -0.31203539045E+04  0.31203539045E+04  0.50400001928E-02 0.  1.
    10030    2    1    2    0    0  0.00000000000E+00  0.00000000000E+00 -0.21386374930E+04  0.41020703161E+04  0.35004586202E+04 0.  0.
        3    1    3    3  502    0 -0.67254370892E+02  0.12363399263E+04 -0.25189527326E+04  0.28068100120E+04  0.10100000352E+00 0.  1.
       -3    1    3    3    0  502  0.67254370892E+02 -0.12363399263E+04  0.38031523964E+03  0.12952603042E+04  0.10100000352E+00 0. -1.
</event>
<event>
 5   0  0.1013863E-07  0.3496000E+04  0.7818609E-02  0.8114739E-01
        1   -1    0    0  501    0  0.00000000000E+00  0.00000000000E+00  0.26671812564E+04  0.26671812564E+04  0.50400001928E-02 0. -1.
       -1   -1    0    0    0  501  0.00000000000E+00  0.00000000000E+00 -0.11455929436E+04  0.11455929436E+04  0.50400001928E-02 0.  1.
    10030    2    1    2    0    0  0.00000000000E+00  0.00000000000E+00  0.15215883128E+04  0.38127742000E+04  0.34960000153E+04 0.  0.
        2    1    3    3  502    0  0.10341394778E+04  0.22486042773E+03 -0.75648660625E+03  0.13008761113E+04  0.25500000920E-02 0.  1.
       -2    1    3    3    0  502 -0.10341394778E+04 -0.22486042773E+03  0.22780749190E+04  0.25118980887E+04  0.25500000920E-02 0. -1.
</event>
<event>
 5   0  0.1013863E-07  0.3564829E+04  0.7818609E-02  0.8098596E-01
       -3   -1    0    0    0  501  0.00000000000E+00  0.00000000000E+00  0.15566058872E+04  0.15566058905E+04  0.10100000352E+00 0. -1.
        3   -1    0    0  501    0  0.00000000000E+00  0.00000000000E+00 -0.20409798211E+04  0.20409798236E+04  0.10100000352E+00 0.  1.
    10030    2    1    2    0    0  0.00000000000E+00  0.00000000000E+00 -0.48437393396E+03  0.35975857141E+04  0.35648288686E+04 0.  0.
        1    1    3    3  502    0 -0.11355201949E+03  0.16798564027E+04  0.34815802058E+03  0.17193096295E+04  0.50400001928E-02 0. -1.
       -1    1    3    3    0  502  0.11355201949E+03 -0.16798564027E+04 -0.83253195454E+03  0.18782760846E+04  0.50400001928E-02 0.  1.
</event>
<event>
 5   0  0.2180451E-07  0.3512108E+04  0.7818609E-02  0.8110926E-01
        2   -1    0    0  501    0  0.00000000000E+00  0.00000000000E+00  0.32993886109E+04  0.32993886109E+04  0.25500000920E-02 0. -1.
       -2   -1    0    0    0  501  0.00000000000E+00  0.00000000000E+00 -0.93463548482E+03  0.93463548482E+03  0.25500000920E-02 0.  1.
    10030    2    1    2    0    0  0.00000000000E+00  0.00000000000E+00  0.23647531261E+04  0.42340240958E+04  0.35121080131E+04 0.  0.
        4    1    3    3  502    0 -0.10828678984E+04 -0.95091479896E+03  0.23920685321E+04  0.27926394890E+04  0.12699999809E+01 0. -1.
       -4    1    3    3    0  502  0.10828678984E+04  0.95091479896E+03 -0.27315405986E+02  0.14413846068E+04  0.12699999809E+01 0.  1.
</event>
<event>
 5   0  0.3190185E-07  0.3501921E+04  0.7818609E-02  0.8113335E-01
        2   -1    0    0  501    0  0.00000000000E+00  0.00000000000E+00  0.19312943132E+04  0.19312943132E+04  0.25500000920E-02 0. -1.
       -2   -1    0    0    0  501  0.00000000000E+00  0.00000000000E+00 -0.15874653390E+04  0.15874653390E+04  0.25500000920E-02 0.  1.
    10030    2    1    2    0    0  0.00000000000E+00  0.00000000000E+00  0.34382897425E+03  0.35187596522E+04  0.35019210623E+04 0.  0.
        1    1    3    3  502    0  0.15317271811E+04 -0.21724025721E+03 -0.65207819661E+03  0.16788649324E+04  0.50400001928E-02 0. -1.
       -1    1    3    3    0  502 -0.15317271811E+04  0.21724025721E+03  0.99590717086E+03  0.18398947198E+04  0.50400001928E-02 0.  1.
</event>
<event>
 5   0  0.1013863E-07  0.3497522E+04  0.7818609E-02  0.8114377E-01
        1   -1    0    0  501    0  0.00000000000E+00  0.00000000000E+00  0.19047556651E+04  0.19047556652E+04  0.50400001928E-02 0.  1.
       -1   -1    0    0    0  501  0.00000000000E+00  0.00000000000E+00 -0.16055417710E+04  0.16055417710E+04  0.50400001928E-02 0. -1.
    10030    2    1    2    0    0  0.00000000000E+00  0.00000000000E+00  0.29921389413E+03  0.35102974362E+04  0.34975218564E+04 0.  0.
        5    1    3    3  502    0  0.60206603459E+03  0.10148988292E+04  0.14449177633E+04  0.18655595880E+04  0.46999998093E+01 0.  1.
       -5    1    3    3    0  502 -0.60206603459E+03 -0.10148988292E+04 -0.11457038692E+04  0.16447378482E+04  0.46999998093E+01 0. -1.
</event>
<event>
 5   0  0.3219205E-07  0.3496872E+04  0.7818609E-02  0.8114532E-01
        2   -1    0    0  501    0  0.00000000000E+00  0.00000000000E+00  0.19141152693E+04  0.19141152693E+04  0.25500000920E-02 0.  1.
       -2   -1    0    0    0  501  0.00000000000E+00  0.00000000000E+00 -0.15970969197E+04  0.15970969197E+04  0.25500000920E-02 0. -1.
    10030    2    1    2    0    0  0.00000000000E+00  0.00000000000E+00  0.31701834961E+03  0.35112121889E+04  0.34968715163E+04 0.  0.
        2    1    3    3  502    0  0.17093287425E+04 -0.22774855186E+03  0.44840314617E+03  0.17817798782E+04  0.25500000920E-02 0.  1.
       -2    1    3    3    0  502 -0.17093287425E+04  0.22774855186E+03 -0.13138479656E+03  0.17294323108E+04  0.25500000920E-02 0. -1.
</event>
<event>
 5   0  0.2180451E-07  0.3320357E+04  0.7818609E-02  0.8157735E-01
        2   -1    0    0  501    0  0.00000000000E+00  0.00000000000E+00  0.10737306216E+04  0.10737306216E+04  0.25500000920E-02 0. -1.
       -2   -1    0    0    0  501  0.00000000000E+00  0.00000000000E+00 -0.25669319339E+04  0.25669319339E+04  0.25500000920E-02 0.  1.
    10030    2    1    2    0    0  0.00000000000E+00  0.00000000000E+00 -0.14932013123E+04  0.36406625556E+04  0.33203574634E+04 0.  0.
        4    1    3    3  502    0  0.16611863338E+03  0.10557583422E+04  0.64637463472E+03  0.12490087505E+04  0.12699999809E+01 0. -1.
       -4    1    3    3    0  502 -0.16611863338E+03 -0.10557583422E+04 -0.21395759470E+04  0.23916538051E+04  0.12699999809E+01 0.  1.
</event>
<event>
 5   0  0.1098171E-07  0.3501082E+04  0.7818609E-02  0.8113534E-01
       -1   -1    0    0    0  501  0.00000000000E+00  0.00000000000E+00  0.17854434052E+04  0.17854434052E+04  0.50400001928E-02 0.  1.
        1   -1    0    0  501    0  0.00000000000E+00  0.00000000000E+00 -0.17163207406E+04  0.17163207406E+04  0.50400001928E-02 0. -1.
    10030    2    1    2    0    0  0.00000000000E+00  0.00000000000E+00  0.69122664621E+02  0.35017641458E+04  0.35010818600E+04 0.  0.
        4    1    3    3  502    0 -0.92913155212E+03  0.11851356246E+04  0.92723738774E+03  0.17685029477E+04  0.12699999809E+01 0.  1.
       -4    1    3    3    0  502  0.92913155212E+03 -0.11851356246E+04 -0.85811472312E+03  0.17332611981E+04  0.12699999809E+01 0. -1.
</event>
<event>
 5   0  0.3219205E-07  0.3495348E+04  0.7818609E-02  0.8114893E-01
       -2   -1    0    0    0  501  0.00000000000E+00  0.00000000000E+00  0.15473173043E+04  0.15473173043E+04  0.25500000920E-02 0.  1.
        2   -1    0    0  501    0  0.00000000000E+00  0.00000000000E+00 -0.19739738155E+04  0.19739738155E+04  0.25500000920E-02 0. -1.
    10030    2    1    2    0    0  0.00000000000E+00  0.00000000000E+00 -0.42665651125E+03  0.35212911198E+04  0.34953476753E+04 0.  0.
        2    1    3    3  502    0  0.49966356093E+03  0.62897328703E+03 -0.17769738056E+04  0.19501043500E+04  0.25500000920E-02 0. -1.
       -2    1    3    3    0  502 -0.49966356093E+03 -0.62897328703E+03  0.13503172944E+04  0.15711867698E+04  0.25500000920E-02 0.  1.
</event>
<event>
 5   0  0.1013863E-07  0.3467782E+04  0.7818609E-02  0.8121468E-01
       -1   -1    0    0    0  501  0.00000000000E+00  0.00000000000E+00  0.25777270698E+04  0.25777270698E+04  0.50400001928E-02 0.  1.
        1   -1    0    0  501    0  0.00000000000E+00  0.00000000000E+00 -0.11662903274E+04  0.11662903274E+04  0.50400001928E-02 0. -1.
    10030    2    1    2    0    0  0.00000000000E+00  0.00000000000E+00  0.14114367424E+04  0.37440173972E+04  0.34677820855E+04 0.  0.
        5    1    3    3  502    0 -0.52881040486E+03 -0.11422997487E+04 -0.58168763580E+03  0.13866765145E+04  0.46999998093E+01 0. -1.
       -5    1    3    3    0  502  0.52881040486E+03  0.11422997487E+04  0.19931243782E+04  0.23573408827E+04  0.46999998093E+01 0.  1.
</event>
<event>
 5   0  0.1013863E-07  0.3468139E+04  0.7818609E-02  0.8121382E-01
       -3   -1    0    0    0  501  0.00000000000E+00  0.00000000000E+00  0.19008214779E+04  0.19008214806E+04  0.10100000352E+00 0.  1.
        3   -1    0    0  501    0  0.00000000000E+00  0.00000000000E+00 -0.15819462288E+04  0.15819462320E+04  0.10100000352E+00 0. -1.
    10030    2    1    2    0    0  0.00000000000E+00  0.00000000000E+00  0.31887524912E+03  0.34827677126E+04  0.34681392007E+04 0.  0.
        2    1    3    3  502    0  0.36879633682E+03 -0.87708144621E+03 -0.12964065001E+04  0.16080896787E+04  0.25500000920E-02 0. -1.
       -2    1    3    3    0  502 -0.36879633682E+03  0.87708144621E+03  0.16152817492E+04  0.18746780339E+04  0.25500000920E-02 0.  1.
</event>
<event>
 5   0  0.1072381E-07  0.3505649E+04  0.7818609E-02  0.8112453E-01
       -1   -1    0    0    0  501  0.00000000000E+00  0.00000000000E+00  0.23175047559E+04  0.23175047559E+04  0.50400001928E-02 0.  1.
        1   -1    0    0  501    0  0.00000000000E+00  0.00000000000E+00 -0.13257333135E+04  0.13257333135E+04  0.50400001928E-02 0. -1.
    10030    2    1    2    0    0  0.00000000000E+00  0.00000000000E+00  0.99177144239E+03  0.36432380695E+04  0.35056487327E+04 0.  0.
        1    1    3    3  502    0  0.15229526375E+04 -0.26610073806E+03  0.13542559922E+04  0.20552867516E+04  0.50400001928E-02 0.  1.
       -1    1    3    3    0  502 -0.15229526375E+04  0.26610073806E+03 -0.36248454981E+03  0.15879513179E+04  0.50400001928E-02 0. -1.
</event>
<event>
 5   0  0.3190112E-07  0.3491485E+04  0.7818609E-02  0.8115811E-01
       -2   -1    0    0    0  501  0.00000000000E+00  0.00000000000E+00  0.21759069123E+04  0.21759069123E+04  0.25500000920E-02 0.  1.
        2   -1    0    0  501    0  0.00000000000E+00  0.00000000000E+00 -0.14006194656E+04  0.14006194656E+04  0.25500000920E-02 0. -1.
    10030    2    1    2    0    0  0.00000000000E+00  0.00000000000E+00  0.77528744675E+03  0.35765263779E+04  0.34914854012E+04 0.  0.
        5    1    3    3  502    0 -0.12902359085E+04 -0.20774926906E+03 -0.79801407333E+03  0.15312468807E+04  0.46999998093E+01 0. -1.
       -5    1    3    3    0  502  0.12902359085E+04  0.20774926906E+03  0.15733015201E+04  0.20452794972E+04  0.46999998093E+01 0.  1.
</event>
<event>
 5   0  0.1013863E-07  0.3478627E+04  0.7818609E-02  0.8118874E-01
        1   -1    0    0  501    0  0.00000000000E+00  0.00000000000E+00  0.15143415997E+04  0.15143415997E+04  0.50400001928E-02 0.  1.
       -1   -1    0    0    0  501  0.00000000000E+00  0.00000000000E+00 -0.19977068916E+04  0.19977068916E+04  0.50400001928E-02 0. -1.
    10030    2    1    2    0    0  0.00000000000E+00  0.00000000000E+00 -0.48336529190E+03  0.35120484914E+04  0.34786265394E+04 0.  0.
        5    1    3    3  502    0 -0.15633969706E+04  0.56197008727E+03 -0.76157488073E+03  0.18275773186E+04  0.46999998093E+01 0. -1.
       -5    1    3    3    0  502  0.15633969706E+04 -0.56197008727E+03  0.27820958883E+03  0.16844711728E+04  0.46999998093E+01 0.  1.
</event>
<event>
 5   0  0.3190185E-07  0.3509329E+04  0.7818609E-02  0.8111583E-01
        2   -1    0    0  501    0  0.00000000000E+00  0.00000000000E+00  0.24988328407E+04  0.24988328407E+04  0.25500000920E-02 0.  1.
       -2   -1    0    0    0  501  0.00000000000E+00  0.00000000000E+00 -0.12321143681E+04  0.12321143681E+04  0.25500000920E-02 0. -1.
    10030    2    1    2    0    0  0.00000000000E+00  0.00000000000E+00  0.12667184726E+04  0.37309472088E+04  0.35093291932E+04 0.  0.
        1    1    3    3  502    0  0.13346531421E+04  0.50825600701E+03  0.17171606629E+04  0.22334421687E+04  0.50400001928E-02 0.  1.
       -1    1    3    3    0  502 -0.13346531421E+04 -0.50825600701E+03 -0.45044219030E+03  0.14975050401E+04  0.50400001928E-02 0. -1.
</event>
<event>
 5   0  0.1098171E-07  0.3515039E+04  0.7818609E-02  0.8110235E-01
       -1   -1    0    0    0  501  0.00000000000E+00  0.00000000000E+00  0.22073493208E+04  0.22073493208E+04  0.50400001928E-02 0. -1.
        1   -1    0    0  501    0  0.00000000000E+00  0.00000000000E+00 -0.13993595769E+04  0.13993595769E+04  0.50400001928E-02 0.  1.
    10030    2    1    2    0    0  0.00000000000E+00  0.00000000000E+00  0.80798974399E+03  0.36067088977E+04  0.35150393520E+04 0.  0.
        4    1    3    3  502    0  0.10239609897E+04  0.41263085456E+03 -0.99918995126E+03  0.14890072203E+04  0.12699999809E+01 0.  1.
       -4    1    3    3    0  502 -0.10239609897E+04 -0.41263085456E+03  0.18071796952E+04  0.21177016774E+04  0.12699999809E+01 0. -1.
</event>
<event>
 5   0  0.1033796E-07  0.3602139E+04  0.7818609E-02  0.8090002E-01
       -1   -1    0    0    0  501  0.00000000000E+00  0.00000000000E+00  0.13114155200E+04  0.13114155201E+04  0.50400001928E-02 0.  1.
        1   -1    0    0  501    0  0.00000000000E+00  0.00000000000E+00 -0.24735494844E+04  0.24735494844E+04  0.50400001928E-02 0. -1.
    10030    2    1    2    0    0  0.00000000000E+00  0.00000000000E+00 -0.11621339643E+04  0.37849650044E+04  0.36021389109E+04 0.  0.
        3    1    3    3  502    0 -0.74466320587E+02  0.16661448201E+04 -0.12954778217E+04  0.21118348873E+04  0.10100000352E+00 0. -1.
       -3    1    3    3    0  502  0.74466320587E+02 -0.16661448201E+04  0.13334385742E+03  0.16731301171E+04  0.10100000352E+00 0.  1.
</event>
<event>
 5   0  0.3119048E-07  0.3521227E+04  0.7818609E-02  0.8108778E-01
        2   -1    0    0  501    0  0.00000000000E+00  0.00000000000E+00  0.17755442582E+04  0.17755442582E+04  0.25500000920E-02 0.  1.
       -2   -1    0    0    0  501  0.00000000000E+00  0.00000000000E+00 -0.17458083541E+04  0.17458083541E+04  0.25500000920E-02 0. -1.
    10030    2    1    2    0    0  0.00000000000E+00  0.00000000000E+00  0.29735904140E+02  0.35213526123E+04  0.35212270583E+04 0.  0.
        3    1    3    3  502    0  0.32541213018E+03  0.12201312657E+04 -0.12120199673E+04  0.17503159062E+04  0.10100000352E+00 0. -1.
       -3    1    3    3    0  502 -0.32541213018E+03 -0.12201312657E+04  0.12417558714E+04  0.17710367061E+04  0.10100000352E+00 0.  1.
</event>
<event>
 5   0  0.3119048E-07  0.3491511E+04  0.7818609E-02  0.8115805E-01
       -2   -1    0    0    0  501  0.00000000000E+00  0.00000000000E+00  0.12253456398E+04  0.12253456398E+04  0.25500000920E-02 0.  1.
        2   -1    0    0  501    0  0.00000000000E+00  0.00000000000E+00 -0.24871857572E+04  0.24871857572E+04  0.25500000920E-02 0. -1.
    10030    2    1    2    0    0  0.00000000000E+00  0.00000000000E+00 -0.12618401174E+04  0.37125313970E+04  0.34915109755E+04 0.  0.
        3    1    3    3  502    0  0.25602623337E+03  0.85452166431E+03 -0.22265486329E+04  0.23985986601E+04  0.10100000352E+00 0. -1.
       -3    1    3    3    0  502 -0.25602623337E+03 -0.85452166431E+03  0.96470851557E+03  0.13139327369E+04  0.10100000352E+00 0.  1.
</event>
<event>
 5   0  0.3190112E-07  0.3490754E+04  0.7818609E-02  0.8115985E-01
       -2   -1    0    0    0  501  0.00000000000E+00  0.00000000000E+00  0.19840075372E+04  0.19840075372E+04  0.25500000920E-02 0.  1.
        2   -1    0    0  501    0  0.00000000000E+00  0.00000000000E+00 -0.15354481498E+04  0.15354481498E+04  0.25500000920E-02 0. -1.
    10030    2    1    2    0    0  0.00000000000E+00  0.00000000000E+00  0.44855938741E+03  0.35194556871E+04  0.34907539027E+04 0.  0.
        5    1    3    3  502    0 -0.84376452735E+03  0.14220475478E+03  0.17580232743E+04  0.19552055373E+04  0.46999998093E+01 0.  1.
       -5    1    3    3    0  502  0.84376452735E+03 -0.14220475478E+03 -0.13094638869E+04  0.15642501498E+04  0.46999998093E+01 0. -1.
</event>
<event>
 5   0  0.1098171E-07  0.3460400E+04  0.7818609E-02  0.8123239E-01
        1   -1    0    0  501    0  0.00000000000E+00  0.00000000000E+00  0.18675652158E+04  0.18675652158E+04  0.50400001928E-02 0. -1.
       -1   -1    0    0    0  501  0.00000000000E+00  0.00000000000E+00 -0.16029382489E+04  0.16029382489E+04  0.50400001928E-02 0.  1.
    10030    2    1    2    0    0  0.00000000000E+00  0.00000000000E+00  0.26462696693E+03  0.34705034647E+04  0.34603998132E+04 0.  0.
        4    1    3    3  502    0 -0.15269874683E+03 -0.18676791200E+03  0.18506142246E+04  0.18662726975E+04  0.12699999809E+01 0. -1.
       -4    1    3    3    0  502  0.15269874683E+03  0.18676791200E+03 -0.15859872576E+04  0.16042307672E+04  0.12699999809E+01 0.  1.
</event>
<event>
 5   0  0.1013863E-07  0.3449507E+04  0.7818609E-02  0.8125861E-01
        1   -1    0    0  501    0  0.00000000000E+00  0.00000000000E+00  0.15822889422E+04  0.15822889422E+04  0.50400001928E-02 0.  1.
       -1   -1    0    0    0  501  0.00000000000E+00  0.00000000000E+00 -0.18800454953E+04  0.18800454954E+04  0.50400001928E-02 0. -1.
    10030    2    1    2    0    0  0.00000000000E+00  0.00000000000E+00 -0.29775655317E+03  0.34623344375E+04  0.34495073260E+04 0.  0.
        5    1    3    3  502    0  0.14965464498E+04 -0.73706613447E+03 -0.58849707779E+03  0.17689739013E+04  0.46999998093E+01 0.  1.
       -5    1    3    3    0  502 -0.14965464498E+04  0.73706613447E+03  0.29074052462E+03  0.16933605362E+04  0.46999998093E+01 0. -1.
</event>
<event>
 5   0  0.1013863E-07  0.3499585E+04  0.7818609E-02  0.8113888E-01
       -1   -1    0    0    0  501  0.00000000000E+00  0.00000000000E+00  0.16055270807E+04  0.16055270807E+04  0.50400001928E-02 0. -1.
        1   -1    0    0  501    0  0.00000000000E+00  0.00000000000E+00 -0.19070206930E+04  0.19070206930E+04  0.50400001928E-02 0.  1.
    10030    2    1    2    0    0  0.00000000000E+00  0.00000000000E+00 -0.30149361224E+03  0.35125477737E+04  0.34995847560E+04 0.  0.
        2    1    3    3  502    0 -0.32728056277E+03 -0.46890338331E+03  0.15090990108E+04  0.16138038214E+04  0.25500000920E-02 0. -1.
       -2    1    3    3    0  502  0.32728056277E+03  0.46890338331E+03 -0.18105926230E+04  0.18987439523E+04  0.25500000920E-02 0.  1.
</event>
<event>
 5   0  0.1072381E-07  0.3623385E+04  0.7818609E-02  0.8085156E-01
       -1   -1    0    0    0  501  0.00000000000E+00  0.00000000000E+00  0.13794350044E+04  0.13794350044E+04  0.50400001928E-02 0.  1.
        1   -1    0    0  501    0  0.00000000000E+00  0.00000000000E+00 -0.23794016331E+04  0.23794016331E+04  0.50400001928E-02 0. -1.
    10030    2    1    2    0    0  0.00000000000E+00  0.00000000000E+00 -0.99996662872E+03  0.37588366374E+04  0.36233851035E+04 0.  0.
        1    1    3    3  502    0 -0.43185504164E+03 -0.14427840445E+04 -0.15446565988E+04  0.21573336748E+04  0.50400001928E-02 0. -1.
       -1    1    3    3    0  502  0.43185504164E+03  0.14427840445E+04  0.54468997008E+03  0.16015029627E+04  0.50400001928E-02 0.  1.
</event>
<event>
 5   0  0.1013863E-07  0.3449335E+04  0.7818609E-02  0.8125903E-01
        3   -1    0    0  501    0  0.00000000000E+00  0.00000000000E+00  0.16977807682E+04  0.16977807712E+04  0.10100000352E+00 0. -1.
       -3   -1    0    0    0  501  0.00000000000E+00  0.00000000000E+00 -0.17519796952E+04  0.17519796982E+04  0.10100000352E+00 0.  1.
    10030    2    1    2    0    0  0.00000000000E+00  0.00000000000E+00 -0.54198927086E+02  0.34497604693E+04  0.34493346854E+04 0.  0.
        3    1    3    3  502    0  0.12966688148E+04  0.21998811286E+03 -0.11429130523E+04  0.17424106980E+04  0.10100000352E+00 0. -1.
       -3    1    3    3    0  502 -0.12966688148E+04 -0.21998811286E+03  0.10887141252E+04  0.17073497714E+04  0.10100000352E+00 0.  1.
</event>
<event>
 5   0  0.1098171E-07  0.3388841E+04  0.7818609E-02  0.8140650E-01
        1   -1    0    0  501    0  0.00000000000E+00  0.00000000000E+00  0.22847017201E+04  0.22847017201E+04  0.50400001928E-02 0. -1.
       -1   -1    0    0    0  501  0.00000000000E+00  0.00000000000E+00 -0.12566460942E+04  0.12566460942E+04  0.50400001928E-02 0.  1.
    10030    2    1    2    0    0  0.00000000000E+00  0.00000000000E+00  0.10280556258E+04  0.35413478143E+04  0.33888413908E+04 0.  0.
        4    1    3    3  502    0  0.59960240474E+03  0.97603984159E+03  0.18187682118E+04  0.21494409127E+04  0.12699999809E+01 0. -1.
       -4    1    3    3    0  502 -0.59960240474E+03 -0.97603984159E+03 -0.79071258594E+03  0.13919069016E+04  0.12699999809E+01 0.  1.
</event>
<event>
 5   0  0.3119048E-07  0.3500977E+04  0.7818609E-02  0.8113558E-01
       -2   -1    0    0    0  501  0.00000000000E+00  0.00000000000E+00  0.10933495387E+04  0.10933495387E+04  0.25500000920E-02 0. -1.
        2   -1    0    0  501    0  0.00000000000E+00  0.00000000000E+00 -0.28025900741E+04  0.28025900741E+04  0.25500000920E-02 0.  1.
    10030    2    1    2    0    0  0.00000000000E+00  0.00000000000E+00 -0.17092405354E+04  0.38959396128E+04  0.35009773291E+04 0.  0.
        3    1    3    3  502    0 -0.16258072966E+04 -0.59600435012E+03 -0.11399439230E+04  0.20731480190E+04  0.10100000352E+00 0. -1.
       -3    1    3    3    0  502  0.16258072966E+04  0.59600435012E+03 -0.56929661243E+03  0.18227915938E+04  0.10100000352E+00 0.  1.
</event>
<event>
 5   0  0.3190112E-07  0.3502894E+04  0.7818609E-02  0.8113104E-01
        2   -1    0    0  501    0  0.00000000000E+00  0.00000000000E+00  0.28752557637E+04  0.28752557637E+04  0.25500000920E-02 0. -1.
       -2   -1    0    0    0  501  0.00000000000E+00  0.00000000000E+00 -0.10668849261E+04  0.10668849261E+04  0.25500000920E-02 0.  1.
    10030    2    1    2    0    0  0.00000000000E+00  0.00000000000E+00  0.18083708376E+04  0.39421406899E+04  0.35028942508E+04 0.  0.
        5    1    3    3  502    0  0.70465912343E+03 -0.10152721129E+04 -0.49249451996E+03  0.13303739646E+04  0.46999998093E+01 0. -1.
       -5    1    3    3    0  502 -0.70465912343E+03  0.10152721129E+04  0.23008653576E+04  0.26117667253E+04  0.46999998093E+01 0.  1.
</event>
<event>
 5   0  0.3190112E-07  0.3513366E+04  0.7818609E-02  0.8110630E-01
        2   -1    0    0  501    0  0.00000000000E+00  0.00000000000E+00  0.22319987377E+04  0.22319987377E+04  0.25500000920E-02 0.  1.
       -2   -1    0    0    0  501  0.00000000000E+00  0.00000000000E+00 -0.13825884966E+04  0.13825884966E+04  0.25500000920E-02 0. -1.
    10030    2    1    2    0    0  0.00000000000E+00  0.00000000000E+00  0.84941024107E+03  0.36145872343E+04  0.35133663511E+04 0.  0.
        5    1    3    3  502    0  0.42326177879E+03 -0.14808201766E+04  0.12939948263E+04  0.20115724271E+04  0.46999998093E+01 0.  1.
       -5    1    3    3    0  502 -0.42326177879E+03  0.14808201766E+04 -0.44458458522E+03  0.16030148072E+04  0.46999998093E+01 0. -1.
</event>
<event>
 5   0  0.1072381E-07  0.3509549E+04  0.7818609E-02  0.8111531E-01
       -1   -1    0    0    0  501  0.00000000000E+00  0.00000000000E+00  0.11789688823E+04  0.11789688823E+04  0.50400001928E-02 0.  1.
        1   -1    0    0  501    0  0.00000000000E+00  0.00000000000E+00 -0.26118027388E+04  0.26118027388E+04  0.50400001928E-02 0. -1.
    10030    2    1    2    0    0  0.00000000000E+00  0.00000000000E+00 -0.14328338565E+04  0.37907716212E+04  0.35095493476E+04 0.  0.
        1    1    3    3  502    0  0.83843450621E+03 -0.22001074614E+03 -0.23644063397E+04  0.25182919785E+04  0.50400001928E-02 0. -1.
       -1    1    3    3    0  502 -0.83843450621E+03  0.22001074614E+03  0.93157248319E+03  0.12724796427E+04  0.50400001928E-02 0.  1.
</event>
<event>
 5   0  0.3190185E-07  0.3501525E+04  0.7818609E-02  0.8113429E-01
       -2   -1    0    0    0  501  0.00000000000E+00  0.00000000000E+00  0.16714905668E+04  0.16714905668E+04  0.25500000920E-02 0. -1.
        2   -1    0    0  501    0  0.00000000000E+00  0.00000000000E+00 -0.18337939773E+04  0.18337939773E+04  0.25500000920E-02 0.  1.
    10030    2    1    2    0    0  0.00000000000E+00  0.00000000000E+00 -0.16230341055E+03  0.35052845441E+04  0.35015250018E+04 0.  0.
        1    1    3    3  502    0 -0.12507055684E+04 -0.60502602421E+03 -0.11475881442E+04  0.18020209370E+04  0.50400001928E-02 0.  1.
       -1    1    3    3    0  502  0.12507055684E+04  0.60502602421E+03  0.98528473365E+03  0.17032636071E+04  0.50400001928E-02 0. -1.
</event>
<event>
 5   0  0.3190185E-07  0.3489387E+04  0.7818609E-02  0.8116310E-01
        2   -1    0    0  501    0  0.00000000000E+00  0.00000000000E+00  0.97301703953E+03  0.97301703953E+03  0.25500000920E-02 0.  1.
       -2   -1    0    0    0  501  0.00000000000E+00  0.00000000000E+00 -0.31283689039E+04  0.31283689039E+04  0.25500000920E-02 0. -1.
    10030    2    1    2    0    0  0.00000000000E+00  0.00000000000E+00 -0.21553518644E+04  0.41013859435E+04  0.34893874818E+04 0.  0.
        1    1    3    3  502    0 -0.14751045557E+04  0.42214284092E+03 -0.20538983372E+04  0.25637153524E+04  0.50400001928E-02 0. -1.
       -1    1    3    3    0  502  0.14751045557E+04 -0.42214284092E+03 -0.10145352720E+03  0.15376705911E+04  0.50400001928E-02 0.  1.
</event>
<event>
 5   0  0.1072381E-07  0.3513067E+04  0.7818609E-02  0.8110700E-01
        1   -1    0    0  501    0  0.00000000000E+00  0.00000000000E+00  0.20997050706E+04  0.20997050706E+04  0.50400001928E-02 0. -1.
       -1   -1    0    0    0  501  0.00000000000E+00  0.00000000000E+00 -0.14694489955E+04  0.14694489955E+04  0.50400001928E-02 0.  1.
    10030    2    1    2    0    0  0.00000000000E+00  0.00000000000E+00  0.63025607517E+03  0.35691540661E+04  0.35130667553E+04 0.  0.
        1    1    3    3  502    0  0.24030649191E+03  0.16747125710E+04 -0.16464012303E+03  0.16998575751E+04  0.50400001928E-02 0. -1.
       -1    1    3    3    0  502 -0.24030649191E+03 -0.16747125710E+04  0.79489619820E+03  0.18692964910E+04  0.50400001928E-02 0.  1.
</event>
<event>
 5   0  0.2180451E-07  0.3505207E+04  0.7818609E-02  0.8112557E-01
        2   -1    0    0  501    0  0.00000000000E+00  0.00000000000E+00  0.17493924256E+04  0.17493924256E+04  0.25500000920E-02 0. -1.
       -2   -1    0    0    0  501  0.00000000000E+00  0.00000000000E+00 -0.17558207813E+04  0.17558207813E+04  0.25500000920E-02 0.  1.
    10030    2    1    2    0    0  0.00000000000E+00  0.00000000000E+00 -0.64283557332E+01  0.35052132069E+04  0.35052073123E+04 0.  0.
        4    1    3    3  502    0  0.98352868025E+03  0.58177501616E+03 -0.13320606955E+04  0.17550436301E+04  0.12699999809E+01 0.  1.
       -4    1    3    3    0  502 -0.98352868025E+03 -0.58177501616E+03  0.13256323398E+04  0.17501695768E+04  0.12699999809E+01 0. -1.
</event>
<event>
 5   0  0.1013863E-07  0.3499552E+04  0.7818609E-02  0.8113896E-01
       -1   -1    0    0    0  501  0.00000000000E+00  0.00000000000E+00  0.16291844806E+04  0.16291844806E+04  0.50400001928E-02 0.  1.
        1   -1    0    0  501    0  0.00000000000E+00  0.00000000000E+00 -0.18792934370E+04  0.18792934370E+04  0.50400001928E-02 0. -1.
    10030    2    1    2    0    0  0.00000000000E+00  0.00000000000E+00 -0.25010895640E+03  0.35084779177E+04  0.34995518011E+04 0.  0.
        2    1    3    3  502    0  0.14138852365E+04 -0.86167807509E+03 -0.69232022066E+03  0.17946776465E+04  0.25500000920E-02 0.  1.
       -2    1    3    3    0  502 -0.14138852365E+04  0.86167807509E+03  0.44221126426E+03  0.17138002711E+04  0.25500000920E-02 0. -1.
</event>
<event>
 5   0  0.3219205E-07  0.3534406E+04  0.7818609E-02  0.8105684E-01
       -2   -1    0    0    0  501  0.00000000000E+00  0.00000000000E+00  0.12637340086E+04  0.12637340087E+04  0.25500000920E-02 0.  1.
        2   -1    0    0  501    0  0.00000000000E+00  0.00000000000E+00 -0.24712530716E+04  0.24712530716E+04  0.25500000920E-02 0. -1.
    10030    2    1    2    0    0  0.00000000000E+00  0.00000000000E+00 -0.12075190629E+04  0.37349870802E+04  0.35344060607E+04 0.  0.
        2    1    3    3  502    0 -0.10879429949E+03 -0.74937860687E+03 -0.22911238488E+04  0.24130174029E+04  0.25500000920E-02 0. -1.
       -2    1    3    3    0  502  0.10879429949E+03  0.74937860687E+03  0.10836047858E+04  0.13219696774E+04  0.25500000920E-02 0.  1.
</event>
<event>
 5   0  0.1072381E-07  0.3494274E+04  0.7818609E-02  0.8115148E-01
        1   -1    0    0  501    0  0.00000000000E+00  0.00000000000E+00  0.22935624735E+04  0.22935624736E+04  0.50400001928E-02 0. -1.
       -1   -1    0    0    0  501  0.00000000000E+00  0.00000000000E+00 -0.13308937481E+04  0.13308937481E+04  0.50400001928E-02 0.  1.
    10030    2    1    2    0    0  0.00000000000E+00  0.00000000000E+00  0.96266872550E+03  0.36244562216E+04  0.34942741489E+04 0.  0.
        1    1    3    3  502    0  0.17261734004E+04  0.99976573371E+02  0.74130724648E+03  0.18812778522E+04  0.50400001928E-02 0. -1.
       -1    1    3    3    0  502 -0.17261734004E+04 -0.99976573371E+02  0.22136147902E+03  0.17431783695E+04  0.50400001928E-02 0.  1.
</event>
<event>
 5   0  0.3219205E-07  0.3491607E+04  0.7818609E-02  0.8115782E-01
       -2   -1    0    0    0  501  0.00000000000E+00  0.00000000000E+00  0.18280917843E+04  0.18280917843E+04  0.25500000920E-02 0.  1.
        2   -1    0    0  501    0  0.00000000000E+00  0.00000000000E+00 -0.16672188863E+04  0.16672188863E+04  0.25500000920E-02 0. -1.
    10030    2    1    2    0    0  0.00000000000E+00  0.00000000000E+00  0.16087289804E+03  0.34953106706E+04  0.34916065922E+04 0.  0.
        2    1    3    3  502    0  0.77790596360E+03  0.24826864691E+03  0.16251398872E+04  0.18187508521E+04  0.25500000920E-02 0.  1.
       -2    1    3    3    0  502 -0.77790596360E+03 -0.24826864691E+03 -0.14642669892E+04  0.16765598184E+04  0.25500000920E-02 0. -1.
</event>
<event>
 5   0  0.3119048E-07  0.3497484E+04  0.7818609E-02  0.8114386E-01
        2   -1    0    0  501    0  0.00000000000E+00  0.00000000000E+00  0.13875511312E+04  0.13875511312E+04  0.25500000920E-02 0.  1.
       -2   -1    0    0    0  501  0.00000000000E+00  0.00000000000E+00 -0.22039538674E+04  0.22039538674E+04  0.25500000920E-02 0. -1.
    10030    2    1    2    0    0  0.00000000000E+00  0.00000000000E+00 -0.81640273621E+03  0.35915049986E+04  0.34974840568E+04 0.  0.
        3    1    3    3  502    0 -0.12165323223E+04  0.22749162356E+03  0.86048492491E+03  0.15073611532E+04  0.10100000352E+00 0.  1.
       -3    1    3    3    0  502  0.12165323223E+04 -0.22749162356E+03 -0.16768876611E+04  0.20841438454E+04  0.10100000352E+00 0. -1.
</event>
<event>
 5   0  0.3119048E-07  0.3493137E+04  0.7818609E-02  0.8115418E-01
        2   -1    0    0  501    0  0.00000000000E+00  0.00000000000E+00  0.11050471488E+04  0.11050471488E+04  0.25500000920E-02 0.  1.
       -2   -1    0    0    0  501  0.00000000000E+00  0.00000000000E+00 -0.27605166670E+04  0.27605166670E+04  0.25500000920E-02 0. -1.
    10030    2    1    2    0    0  0.00000000000E+00  0.00000000000E+00 -0.16554695183E+04  0.38655638158E+04  0.34931367406E+04 0.  0.
        3    1    3    3  502    0 -0.13624694361E+04 -0.13950846472E+03 -0.20271335527E+04  0.24464374152E+04  0.10100000352E+00 0. -1.
       -3    1    3    3    0  502  0.13624694361E+04  0.13950846472E+03  0.37166403441E+03  0.14191264006E+04  0.10100000352E+00 0.  1.
</event>
<event>
 5   0  0.3190112E-07  0.3503489E+04  0.7818609E-02  0.8112964E-01
        2   -1    0    0  501    0  0.00000000000E+00  0.00000000000E+00  0.20980638801E+04  0.20980638801E+04  0.25500000920E-02 0.  1.
       -2   -1    0    0    0  501  0.00000000000E+00  0.00000000000E+00 -0.14625908931E+04  0.14625908931E+04  0.25500000920E-02 0. -1.
    10030    2    1    2    0    0  0.00000000000E+00  0.00000000000E+00  0.63547298703E+03  0.35606547732E+04  0.35034891889E+04 0.  0.
        5    1    3    3  502    0 -0.12362430313E+04  0.63016842095E+03 -0.76890430947E+03  0.15863937084E+04  0.46999998093E+01 0. -1.
       -5    1    3    3    0  502  0.12362430313E+04 -0.63016842095E+03  0.14043772965E+04  0.19742610648E+04  0.46999998093E+01 0.  1.
</event>
<event>
 5   0  0.1072381E-07  0.3503167E+04  0.7818609E-02  0.8113040E-01
       -1   -1    0    0    0  501  0.00000000000E+00  0.00000000000E+00  0.15346258886E+04  0.15346258886E+04  0.50400001928E-02 0. -1.
        1   -1    0    0  501    0  0.00000000000E+00  0.00000000000E+00 -0.19992139670E+04  0.19992139670E+04  0.50400001928E-02 0.  1.
    10030    2    1    2    0    0  0.00000000000E+00  0.00000000000E+00 -0.46458807842E+03  0.35338398556E+04  0.35031674300E+04 0.  0.
        1    1    3    3  502    0 -0.16811477637E+03 -0.17430601521E+04 -0.19291070496E+03  0.17617422660E+04  0.50400001928E-02 0. -1.
       -1    1    3    3    0  502  0.16811477637E+03  0.17430601521E+04 -0.27167737346E+03  0.17720975896E+04  0.50400001928E-02 0.  1.
</event>
<event>
 5   0  0.1072381E-07  0.3507087E+04  0.7818609E-02  0.8112113E-01
        1   -1    0    0  501    0  0.00000000000E+00  0.00000000000E+00  0.17110189320E+04  0.17110189320E+04  0.50400001928E-02 0.  1.
       -1   -1    0    0    0  501  0.00000000000E+00  0.00000000000E+00 -0.17971245339E+04  0.17971245339E+04  0.50400001928E-02 0. -1.
    10030    2    1    2    0    0  0.00000000000E+00  0.00000000000E+00 -0.86105601836E+02  0.35081434659E+04  0.35070865976E+04 0.  0.
        1    1    3    3  502    0  0.15367248901E+04 -0.63036690469E+03  0.51928053316E+03  0.17402695465E+04  0.50400001928E-02 0.  1.
       -1    1    3    3    0  502 -0.15367248901E+04  0.63036690469E+03 -0.60538613500E+03  0.17678739194E+04  0.50400001928E-02 0. -1.
</event>
<event>
 5   0  0.1033796E-07  0.3505219E+04  0.7818609E-02  0.8112554E-01
       -1   -1    0    0    0  501  0.00000000000E+00  0.00000000000E+00  0.15963434415E+04  0.15963434415E+04  0.50400001928E-02 0.  1.
        1   -1    0    0  501    0  0.00000000000E+00  0.00000000000E+00 -0.19241729321E+04  0.19241729321E+04  0.50400001928E-02 0. -1.
    10030    2    1    2    0    0  0.00000000000E+00  0.00000000000E+00 -0.32782949058E+03  0.35205163737E+04  0.35052194457E+04 0.  0.
        3    1    3    3  502    0 -0.26600958678E+03  0.57419144397E+03 -0.18054229270E+04  0.19131149652E+04  0.10100000352E+00 0. -1.
       -3    1    3    3    0  502  0.26600958678E+03 -0.57419144397E+03  0.14775934364E+04  0.16074014085E+04  0.10100000352E+00 0.  1.
</event>
<event>
 5   0  0.3190185E-07  0.3498239E+04  0.7818609E-02  0.8114207E-01
        2   -1    0    0  501    0  0.00000000000E+00  0.00000000000E+00  0.15253119358E+04  0.15253119358E+04  0.25500000920E-02 0.  1.
       -2   -1    0    0    0  501  0.00000000000E+00  0.00000000000E+00 -0.20057663374E+04  0.20057663374E+04  0.25500000920E-02 0. -1.
    10030    2    1    2    0    0  0.00000000000E+00  0.00000000000E+00 -0.48045440163E+03  0.35310782732E+04  0.34982391769E+04 0.  0.
        1    1    3    3  502    0 -0.35785057179E+03  0.14771427631E+04 -0.11140392713E+04  0.18844339395E+04  0.50400001928E-02 0. -1.
       -1    1    3    3    0  502  0.35785057179E+03 -0.14771427631E+04  0.63358486971E+03  0.16466443336E+04  0.50400001928E-02 0.  1.
</event>
<event>
 5   0  0.1033796E-07  0.3496912E+04  0.7818609E-02  0.8114522E-01
        1   -1    0    0  501    0  0.00000000000E+00  0.00000000000E+00  0.28200307053E+04  0.28200307053E+04  0.50400001928E-02 0. -1.
       -1   -1    0    0    0  501  0.00000000000E+00  0.00000000000E+00 -0.10840655664E+04  0.10840655665E+04  0.50400001928E-02 0.  1.
    10030    2    1    2    0    0  0.00000000000E+00  0.00000000000E+00  0.17359651389E+04  0.39040962718E+04  0.34969118856E+04 0.  0.
        3    1    3    3  502    0 -0.10672916417E+04 -0.12578111957E+04  0.22093030990E+03  0.16643349015E+04  0.10100000352E+00 0. -1.
       -3    1    3    3    0  502  0.10672916417E+04  0.12578111957E+04  0.15150348290E+04  0.22397613702E+04  0.10100000352E+00 0.  1.
</event>
<event>
 5   0  0.3190185E-07  0.3491690E+04  0.7818609E-02  0.8115762E-01
       -2   -1    0    0    0  501  0.00000000000E+00  0.00000000000E+00  0.13137188895E+04  0.13137188895E+04  0.25500000920E-02 0. -1.
        2   -1    0    0  501    0  0.00000000000E+00  0.00000000000E+00 -0.23201122585E+04  0.23201122585E+04  0.25500000920E-02 0.  1.
    10030    2    1    2    0    0  0.00000000000E+00  0.00000000000E+00 -0.10063933690E+04  0.36338311480E+04  0.34916903068E+04 0.  0.
        1    1    3    3  502    0  0.15844589023E+04 -0.60798019816E+03 -0.92953839816E+03  0.19349913612E+04  0.50400001928E-02 0.  1.
       -1    1    3    3    0  502 -0.15844589023E+04  0.60798019816E+03 -0.76854970884E+02  0.16988397867E+04  0.50400001928E-02 0. -1.
</event>
<event>
 5   0  0.3190185E-07  0.3501208E+04  0.7818609E-02  0.8113504E-01
       -2   -1    0    0    0  501  0.00000000000E+00  0.00000000000E+00  0.14381282740E+04  0.14381282740E+04  0.25500000920E-02 0. -1.
        2   -1    0    0  501    0  0.00000000000E+00  0.00000000000E+00 -0.21309740757E+04  0.21309740757E+04  0.25500000920E-02 0.  1.
    10030    2    1    2    0    0  0.00000000000E+00  0.00000000000E+00 -0.69284580176E+03  0.35691023497E+04  0.35012078312E+04 0.  0.
        1    1    3    3  502    0  0.64222465663E+03  0.43143165315E+03  0.12543883874E+04  0.14737964607E+04  0.50400001928E-02 0. -1.
       -1    1    3    3    0  502 -0.64222465663E+03 -0.43143165315E+03 -0.19472341892E+04  0.20953058890E+04  0.50400001928E-02 0.  1.
</event>
<event>
 5   0  0.3219205E-07  0.3479948E+04  0.7818609E-02  0.8118558E-01
        2   -1    0    0  501    0  0.00000000000E+00  0.00000000000E+00  0.16490315356E+04  0.16490315356E+04  0.25500000920E-02 0. -1.
       -2   -1    0    0    0  501  0.00000000000E+00  0.00000000000E+00 -0.18359322115E+04  0.18359322115E+04  0.25500000920E-02 0.  1.
    10030    2    1    2    0    0  0.00000000000E+00  0.00000000000E+00 -0.18690067596E+03  0.34849637471E+04  0.34799483410E+04 0.  0.
        2    1    3    3  502    0 -0.90371064991E+03 -0.14110387610E+04  0.37603956945E+03  0.17173028509E+04  0.25500000920E-02 0. -1.
       -2    1    3    3    0  502  0.90371064991E+03  0.14110387610E+04 -0.56294024541E+03  0.17676608962E+04  0.25500000920E-02 0.  1.
</event>
<event>
 5   0  0.1013863E-07  0.3429691E+04  0.7818609E-02  0.8130657E-01
        1   -1    0    0  501    0  0.00000000000E+00  0.00000000000E+00  0.21569754250E+04  0.21569754250E+04  0.50400001928E-02 0.  1.
       -1   -1    0    0    0  501  0.00000000000E+00  0.00000000000E+00 -0.13633418084E+04  0.13633418084E+04  0.50400001928E-02 0. -1.
    10030    2    1    2    0    0  0.00000000000E+00  0.00000000000E+00  0.79363361655E+03  0.35203172334E+04  0.34296908179E+04 0.  0.
        2    1    3    3  502    0  0.85809592349E+03  0.14807705375E+04  0.50776930052E+03  0.17851721657E+04  0.25500000920E-02 0.  1.
       -2    1    3    3    0  502 -0.85809592349E+03 -0.14807705375E+04  0.28586431603E+03  0.17351450677E+04  0.25500000920E-02 0. -1.
</event>
<event>
 5   0  0.3190112E-07  0.3499860E+04  0.7818609E-02  0.8113823E-01
       -2   -1    0    0    0  501  0.00000000000E+00  0.00000000000E+00  0.12690256292E+04  0.12690256292E+04  0.25500000920E-02 0.  1.
        2   -1    0    0  501    0  0.00000000000E+00  0.00000000000E+00 -0.24130751896E+04  0.24130751896E+04  0.25500000920E-02 0. -1.
    10030    2    1    2    0    0  0.00000000000E+00  0.00000000000E+00 -0.11440495605E+04  0.36821008188E+04  0.34998595748E+04 0.  0.
        5    1    3    3  502    0  0.55340766301E+03  0.70807057711E+03 -0.21517465244E+04  0.23318788945E+04  0.46999998093E+01 0. -1.
       -5    1    3    3    0  502 -0.55340766301E+03 -0.70807057711E+03  0.10076969639E+04  0.13502219243E+04  0.46999998093E+01 0.  1.
</event>
<event>
 5   0  0.1013863E-07  0.3497844E+04  0.7818609E-02  0.8114301E-01
       -1   -1    0    0    0  501  0.00000000000E+00  0.00000000000E+00  0.12245554901E+04  0.12245554902E+04  0.50400001928E-02 0. -1.
        1   -1    0    0  501    0  0.00000000000E+00  0.00000000000E+00 -0.24978274279E+04  0.24978274279E+04  0.50400001928E-02 0.  1.
    10030    2    1    2    0    0  0.00000000000E+00  0.00000000000E+00 -0.12732719377E+04  0.37223829180E+04  0.34978440733E+04 0.  0.
        5    1    3    3  502    0  0.58790226588E+03  0.88555235167E+03 -0.21146295514E+04  0.23667514173E+04  0.46999998093E+01 0.  1.
       -5    1    3    3    0  502 -0.58790226588E+03 -0.88555235167E+03  0.84135761363E+03  0.13556315007E+04  0.46999998093E+01 0. -1.
</event>
<event>
 5   0  0.3119048E-07  0.3509933E+04  0.7818609E-02  0.8111440E-01
        2   -1    0    0  501    0  0.00000000000E+00  0.00000000000E+00  0.19622669029E+04  0.19622669029E+04  0.25500000920E-02 0. -1.
       -2   -1    0    0    0  501  0.00000000000E+00  0.00000000000E+00 -0.15695662037E+04  0.15695662037E+04  0.25500000920E-02 0.  1.
    10030    2    1    2    0    0  0.00000000000E+00  0.00000000000E+00  0.39270069919E+03  0.35318331066E+04  0.35099332264E+04 0.  0.
        3    1    3    3  502    0  0.16004953640E+04  0.29871249205E+03  0.85548957185E+03  0.18392055298E+04  0.10100000352E+00 0. -1.
       -3    1    3    3    0  502 -0.16004953640E+04 -0.29871249205E+03 -0.46278887266E+03  0.16926275769E+04  0.10100000352E+00 0.  1.
</event>
<event>
 5   0  0.3190185E-07  0.3502385E+04  0.7818609E-02  0.8113225E-01
        2   -1    0    0  501    0  0.00000000000E+00  0.00000000000E+00  0.23279700664E+04  0.23279700664E+04  0.25500000920E-02 0. -1.
       -2   -1    0    0    0  501  0.00000000000E+00  0.00000000000E+00 -0.13173173898E+04  0.13173173898E+04  0.25500000920E-02 0.  1.
    10030    2    1    2    0    0  0.00000000000E+00  0.00000000000E+00  0.10106526766E+04  0.36452874562E+04  0.35023851595E+04 0.  0.
        1    1    3    3  502    0  0.53362270712E+03  0.11622533131E+04  0.17504178543E+04  0.21678442338E+04  0.50400001928E-02 0. -1.
       -1    1    3    3    0  502 -0.53362270712E+03 -0.11622533131E+04 -0.73976517763E+03  0.14774432224E+04  0.50400001928E-02 0.  1.
</event>
<event>
 5   0  0.2180451E-07  0.3458568E+04  0.7818609E-02  0.8123680E-01
       -2   -1    0    0    0  501  0.00000000000E+00  0.00000000000E+00  0.32320552867E+04  0.32320552867E+04  0.25500000920E-02 0.  1.
        2   -1    0    0  501    0  0.00000000000E+00  0.00000000000E+00 -0.92523886981E+03  0.92523886981E+03  0.25500000920E-02 0. -1.
    10030    2    1    2    0    0  0.00000000000E+00  0.00000000000E+00  0.23068164169E+04  0.41572941565E+04  0.34585680162E+04 0.  0.
        4    1    3    3  502    0  0.10216294918E+03  0.44710133435E+03 -0.85080281947E+03  0.96654225044E+03  0.12699999809E+01 0. -1.
       -4    1    3    3    0  502 -0.10216294918E+03 -0.44710133435E+03  0.31576192364E+04  0.31907519061E+04  0.12699999809E+01 0.  1.
</event>
<event>
 5   0  0.1013863E-07  0.3504833E+04  0.7818609E-02  0.8112646E-01
       -1   -1    0    0    0  501  0.00000000000E+00  0.00000000000E+00  0.16147160426E+04  0.16147160426E+04  0.50400001928E-02 0. -1.
        1   -1    0    0  501    0  0.00000000000E+00  0.00000000000E+00 -0.19018595024E+04  0.19018595024E+04  0.50400001928E-02 0.  1.
    10030    2    1    2    0    0  0.00000000000E+00  0.00000000000E+00 -0.28714345980E+03  0.35165755450E+04  0.35048326917E+04 0.  0.
        2    1    3    3  502    0  0.12997912523E+04 -0.62286436861E+03 -0.11436790146E+04  0.18399508172E+04  0.25500000920E-02 0.  1.
       -2    1    3    3    0  502 -0.12997912523E+04  0.62286436861E+03  0.85653555484E+03  0.16766247278E+04  0.25500000920E-02 0. -1.
</event>
<event>
 5   0  0.1013863E-07  0.3566011E+04  0.7818609E-02  0.8098322E-01
       -1   -1    0    0    0  501  0.00000000000E+00  0.00000000000E+00  0.13877075024E+04  0.13877075024E+04  0.50400001928E-02 0. -1.
        1   -1    0    0  501    0  0.00000000000E+00  0.00000000000E+00 -0.22909071661E+04  0.22909071661E+04  0.50400001928E-02 0.  1.
    10030    2    1    2    0    0  0.00000000000E+00  0.00000000000E+00 -0.90319966377E+03  0.36786146685E+04  0.35660112516E+04 0.  0.
        2    1    3    3  502    0  0.37784567674E+03  0.85254084736E+03  0.11160969214E+04  0.14543952660E+04  0.25500000920E-02 0. -1.
       -2    1    3    3    0  502 -0.37784567674E+03 -0.85254084736E+03 -0.20192965851E+04  0.22242194025E+04  0.25500000920E-02 0.  1.
</event>
<event>
 5   0  0.3190112E-07  0.3433129E+04  0.7818609E-02  0.8129823E-01
        2   -1    0    0  501    0  0.00000000000E+00  0.00000000000E+00  0.19617165522E+04  0.19617165522E+04  0.25500000920E-02 0.  1.
       -2   -1    0    0    0  501  0.00000000000E+00  0.00000000000E+00 -0.15020489311E+04  0.15020489311E+04  0.25500000920E-02 0. -1.
    10030    2    1    2    0    0  0.00000000000E+00  0.00000000000E+00  0.45966762112E+03  0.34637654833E+04  0.34331293307E+04 0.  0.
        5    1    3    3  502    0 -0.40249114352E+03 -0.14426545999E+04 -0.61629216860E+03  0.16195954873E+04  0.46999998093E+01 0. -1.
       -5    1    3    3    0  502  0.40249114352E+03  0.14426545999E+04  0.10759597897E+04  0.18441699961E+04  0.46999998093E+01 0.  1.
</event>
<event>
 5   0  0.3190185E-07  0.3501798E+04  0.7818609E-02  0.8113364E-01
        2   -1    0    0  501    0  0.00000000000E+00  0.00000000000E+00  0.21229106138E+04  0.21229106138E+04  0.25500000920E-02 0.  1.
       -2   -1    0    0    0  501  0.00000000000E+00  0.00000000000E+00 -0.14440771137E+04  0.14440771137E+04  0.25500000920E-02 0. -1.
    10030    2    1    2    0    0  0.00000000000E+00  0.00000000000E+00  0.67883350005E+03  0.35669877275E+04  0.35017976137E+04 0.  0.
        1    1    3    3  502    0 -0.10969963607E+04 -0.11999334419E+04  0.10014431044E+04  0.19094841114E+04  0.50400001928E-02 0.  1.
       -1    1    3    3    0  502  0.10969963607E+04  0.11999334419E+04 -0.32260960439E+03  0.16575036161E+04  0.50400001928E-02 0. -1.
</event>
<event>
 5   0  0.3190112E-07  0.3509907E+04  0.7818609E-02  0.8111446E-01
        2   -1    0    0  501    0  0.00000000000E+00  0.00000000000E+00  0.12662455113E+04  0.12662455113E+04  0.25500000920E-02 0. -1.
       -2   -1    0    0    0  501  0.00000000000E+00  0.00000000000E+00 -0.24322790387E+04  0.24322790387E+04  0.25500000920E-02 0.  1.
    10030    2    1    2    0    0  0.00000000000E+00  0.00000000000E+00 -0.11660335274E+04  0.36985245500E+04  0.35099073577E+04 0.  0.
        5    1    3    3  502    0 -0.17314823669E+04  0.62757372420E+02 -0.28896773252E+03  0.17565574614E+04  0.46999998093E+01 0.  1.
       -5    1    3    3    0  502  0.17314823669E+04 -0.62757372420E+02 -0.87706579489E+03  0.19419670886E+04  0.46999998093E+01 0. -1.
</event>
<event>
 5   0  0.2180451E-07  0.3543243E+04  0.7818609E-02  0.8103618E-01
        2   -1    0    0  501    0  0.00000000000E+00  0.00000000000E+00  0.22376061971E+04  0.22376061971E+04  0.25500000920E-02 0. -1.
       -2   -1    0    0    0  501  0.00000000000E+00  0.00000000000E+00 -0.14026787399E+04  0.14026787399E+04  0.25500000920E-02 0.  1.
    10030    2    1    2    0    0  0.00000000000E+00  0.00000000000E+00  0.83492745725E+03  0.36402849370E+04  0.35432429445E+04 0.  0.
        4    1    3    3  502    0 -0.12568333215E+04  0.24817584414E+03 -0.83974165028E+03  0.15317927079E+04  0.12699999809E+01 0.  1.
       -4    1    3    3    0  502  0.12568333215E+04 -0.24817584414E+03  0.16746691075E+04  0.21084922291E+04  0.12699999809E+01 0. -1.
</event>
<event>
 5   0  0.1013863E-07  0.3545240E+04  0.7818609E-02  0.8103152E-01
       -1   -1    0    0    0  501  0.00000000000E+00  0.00000000000E+00  0.23981461621E+04  0.23981461621E+04  0.50400001928E-02 0. -1.
        1   -1    0    0  501    0  0.00000000000E+00  0.00000000000E+00 -0.13102541748E+04  0.13102541748E+04  0.50400001928E-02 0.  1.
    10030    2    1    2    0    0  0.00000000000E+00  0.00000000000E+00  0.10878919873E+04  0.37084003369E+04  0.35452396369E+04 0.  0.
        2    1    3    3  502    0  0.63149936669E+02 -0.79531386638E+03 -0.11118348821E+04  0.13684622266E+04  0.25500000920E-02 0.  1.
       -2    1    3    3    0  502 -0.63149936669E+02  0.79531386638E+03  0.21997268693E+04  0.23399381103E+04  0.25500000920E-02 0. -1.
</event>
<event>
 5   0  0.1033796E-07  0.3536759E+04  0.7818609E-02  0.8105133E-01
        1   -1    0    0  501    0  0.00000000000E+00  0.00000000000E+00  0.30455720486E+04  0.30455720486E+04  0.50400001928E-02 0.  1.
       -1   -1    0    0    0  501  0.00000000000E+00  0.00000000000E+00 -0.10267909024E+04  0.10267909024E+04  0.50400001928E-02 0. -1.
    10030    2    1    2    0    0  0.00000000000E+00  0.00000000000E+00  0.20187811462E+04  0.40723629510E+04  0.35367587829E+04 0.  0.
        3    1    3    3  502    0 -0.17988393736E+03  0.82301499943E+03  0.27996671240E+04  0.29236702850E+04  0.10100000352E+00 0.  1.
       -3    1    3    3    0  502  0.17988393736E+03 -0.82301499943E+03 -0.78088597783E+03  0.11486926659E+04  0.10100000352E+00 0. -1.
</event>
<event>
 5   0  0.3190185E-07  0.3483566E+04  0.7818609E-02  0.8117696E-01
       -2   -1    0    0    0  501  0.00000000000E+00  0.00000000000E+00  0.16503506950E+04  0.16503506950E+04  0.25500000920E-02 0. -1.
        2   -1    0    0  501    0  0.00000000000E+00  0.00000000000E+00 -0.18382806313E+04  0.18382806313E+04  0.25500000920E-02 0.  1.
    10030    2    1    2    0    0  0.00000000000E+00  0.00000000000E+00 -0.18792993632E+03  0.34886313264E+04  0.34835658269E+04 0.  0.
        1    1    3    3  502    0  0.40187049870E+03 -0.28414499364E+01  0.16032854901E+04  0.16528860621E+04  0.50400001928E-02 0. -1.
       -1    1    3    3    0  502 -0.40187049870E+03  0.28414499364E+01 -0.17912154264E+04  0.18357452643E+04  0.50400001928E-02 0.  1.
</event>
<event>
 5   0  0.1013863E-07  0.3496884E+04  0.7818609E-02  0.8114529E-01
        1   -1    0    0  501    0  0.00000000000E+00  0.00000000000E+00  0.12460666382E+04  0.12460666382E+04  0.50400001928E-02 0. -1.
       -1   -1    0    0    0  501  0.00000000000E+00  0.00000000000E+00 -0.24533598262E+04  0.24533598262E+04  0.50400001928E-02 0.  1.
    10030    2    1    2    0    0  0.00000000000E+00  0.00000000000E+00 -0.12072931879E+04  0.36994264644E+04  0.34968842308E+04 0.  0.
        2    1    3    3  502    0 -0.84767536454E+03 -0.10258957907E+04 -0.18033651946E+04  0.22412366502E+04  0.25500000920E-02 0.  1.
       -2    1    3    3    0  502  0.84767536454E+03  0.10258957907E+04  0.59607200664E+03  0.14581898142E+04  0.25500000920E-02 0. -1.
</event>
<event>
 5   0  0.3190185E-07  0.3457641E+04  0.7818609E-02  0.8123903E-01
        2   -1    0    0  501    0  0.00000000000E+00  0.00000000000E+00  0.20154333401E+04  0.20154333401E+04  0.25500000920E-02 0. -1.
       -2   -1    0    0    0  501  0.00000000000E+00  0.00000000000E+00 -0.14829663780E+04  0.14829663780E+04  0.25500000920E-02 0.  1.
    10030    2    1    2    0    0  0.00000000000E+00  0.00000000000E+00  0.53246696217E+03  0.34983997181E+04  0.34576407450E+04 0.  0.
        1    1    3    3  502    0  0.70890605814E+03  0.91498335670E+03 -0.10330684985E+04  0.15514421887E+04  0.50400001928E-02 0.  1.
       -1    1    3    3    0  502 -0.70890605814E+03 -0.91498335670E+03  0.15655354607E+04  0.19469575293E+04  0.50400001928E-02 0. -1.
</event>
<event>
 5   0  0.3190185E-07  0.3508003E+04  0.7818609E-02  0.8111896E-01
        2   -1    0    0  501    0  0.00000000000E+00  0.00000000000E+00  0.14046434641E+04  0.14046434641E+04  0.25500000920E-02 0.  1.
       -2   -1    0    0    0  501  0.00000000000E+00  0.00000000000E+00 -0.21902511051E+04  0.21902511051E+04  0.25500000920E-02 0. -1.
    10030    2    1    2    0    0  0.00000000000E+00  0.00000000000E+00 -0.78560764100E+03  0.35948945691E+04  0.35080033634E+04 0.  0.
        1    1    3    3  502    0 -0.73978873800E+03  0.15845684013E+04 -0.53172530669E+03  0.18278063894E+04  0.50400001928E-02 0.  1.
       -1    1    3    3    0  502  0.73978873800E+03 -0.15845684013E+04 -0.25388233431E+03  0.17670881797E+04  0.50400001928E-02 0. -1.
</event>
<event>
 5   0  0.1072381E-07  0.3494035E+04  0.7818609E-02  0.8115205E-01
       -1   -1    0    0    0  501  0.00000000000E+00  0.00000000000E+00  0.28648512132E+04  0.28648512132E+04  0.50400001928E-02 0.  1.
        1   -1    0    0  501    0  0.00000000000E+00  0.00000000000E+00 -0.10653505953E+04  0.10653505953E+04  0.50400001928E-02 0. -1.
    10030    2    1    2    0    0  0.00000000000E+00  0.00000000000E+00  0.17995006179E+04  0.39302018085E+04  0.34940354580E+04 0.  0.
        1    1    3    3  502    0 -0.84950495848E+02 -0.86001000881E+03  0.26075830983E+04  0.27470572285E+04  0.50400001928E-02 0.  1.
       -1    1    3    3    0  502  0.84950495848E+02  0.86001000881E+03 -0.80808248041E+03  0.11831445800E+04  0.50400001928E-02 0. -1.
</event>
<event>
 5   0  0.1072381E-07  0.3504681E+04  0.7818609E-02  0.8112681E-01
        1   -1    0    0  501    0  0.00000000000E+00  0.00000000000E+00  0.13214389243E+04  0.13214389243E+04  0.50400001928E-02 0. -1.
       -1   -1    0    0    0  501  0.00000000000E+00  0.00000000000E+00 -0.23237533047E+04  0.23237533047E+04  0.50400001928E-02 0.  1.
    10030    2    1    2    0    0  0.00000000000E+00  0.00000000000E+00 -0.10023143804E+04  0.36451922291E+04  0.35046814791E+04 0.  0.
        1    1    3    3  502    0  0.73307446121E+03  0.52459918517E+03 -0.20640998464E+04  0.22523566873E+04  0.50400001928E-02 0.  1.
       -1    1    3    3    0  502 -0.73307446121E+03 -0.52459918517E+03  0.10617854660E+04  0.13928355418E+04  0.50400001928E-02 0. -1.
</event>
<event>
 5   0  0.3190185E-07  0.3496714E+04  0.7818609E-02  0.8114569E-01
        2   -1    0    0  501    0  0.00000000000E+00  0.00000000000E+00  0.26854270868E+04  0.26854270868E+04  0.25500000920E-02 0.  1.
       -2   -1    0    0    0  501  0.00000000000E+00  0.00000000000E+00 -0.11382741563E+04  0.11382741563E+04  0.25500000920E-02 0. -1.
    10030    2    1    2    0    0  0.00000000000E+00  0.00000000000E+00  0.15471529305E+04  0.38237012431E+04  0.34967140298E+04 0.  0.
        1    1    3    3  502    0 -0.39134535964E+03  0.17039892643E+04  0.77866432753E+03  0.19139092816E+04  0.50400001928E-02 0.  1.
       -1    1    3    3    0  502  0.39134535964E+03 -0.17039892643E+04  0.76848860293E+03  0.19097919615E+04  0.50400001928E-02 0. -1.
</event>
<event>
 5   0  0.3190112E-07  0.3510039E+04  0.7818609E-02  0.8111415E-01
       -2   -1    0    0    0  501  0.00000000000E+00  0.00000000000E+00  0.14096346592E+04  0.14096346592E+04  0.25500000920E-02 0. -1.
        2   -1    0    0  501    0  0.00000000000E+00  0.00000000000E+00 -0.21850294280E+04  0.21850294280E+04  0.25500000920E-02 0.  1.
    10030    2    1    2    0    0  0.00000000000E+00  0.00000000000E+00 -0.77539476885E+03  0.35946640872E+04  0.35100388676E+04 0.  0.
        5    1    3    3  502    0  0.12100744720E+04 -0.92637701608E+03 -0.12790942550E+04  0.19896127279E+04  0.46999998093E+01 0.  1.
       -5    1    3    3    0  502 -0.12100744720E+04  0.92637701608E+03  0.50369948617E+03  0.16050513593E+04  0.46999998093E+01 0. -1.
</event>
<event>
 5   0  0.1072381E-07  0.3510173E+04  0.7818609E-02  0.8111383E-01
        1   -1    0    0  501    0  0.00000000000E+00  0.00000000000E+00  0.17394957024E+04  0.17394957024E+04  0.50400001928E-02 0. -1.
       -1   -1    0    0    0  501  0.00000000000E+00  0.00000000000E+00 -0.17708171581E+04  0.17708171581E+04  0.50400001928E-02 0.  1.
    10030    2    1    2    0    0  0.00000000000E+00  0.00000000000E+00 -0.31321455691E+02  0.35103128605E+04  0.35101731218E+04 0.  0.
        1    1    3    3  502    0 -0.16685520194E+04  0.11412060749E+03  0.51656294072E+03  0.17504075601E+04  0.50400001928E-02 0. -1.
       -1    1    3    3    0  502  0.16685520194E+04 -0.11412060749E+03 -0.54788439642E+03  0.17599053004E+04  0.50400001928E-02 0.  1.
</event>
<event>
 5   0  0.3190185E-07  0.3507241E+04  0.7818609E-02  0.8112076E-01
       -2   -1    0    0    0  501  0.00000000000E+00  0.00000000000E+00  0.10318952449E+04  0.10318952449E+04  0.25500000920E-02 0. -1.
        2   -1    0    0  501    0  0.00000000000E+00  0.00000000000E+00 -0.29801329428E+04  0.29801329428E+04  0.25500000920E-02 0.  1.
    10030    2    1    2    0    0  0.00000000000E+00  0.00000000000E+00 -0.19482376980E+04  0.40120281877E+04  0.35072410882E+04 0.  0.
        1    1    3    3  502    0  0.96603392904E+03  0.73114414676E+03  0.47618572153E+03  0.13017473475E+04  0.50400001928E-02 0. -1.
       -1    1    3    3    0  502 -0.96603392904E+03 -0.73114414676E+03 -0.24244234195E+04  0.27102808401E+04  0.50400001928E-02 0.  1.
</event>
<event>
 5   0  0.1098171E-07  0.3518746E+04  0.7818609E-02  0.8109362E-01
        1   -1    0    0  501    0  0.00000000000E+00  0.00000000000E+00  0.27651619911E+04  0.27651619911E+04  0.50400001928E-02 0.  1.
       -1   -1    0    0    0  501  0.00000000000E+00  0.00000000000E+00 -0.11194256686E+04  0.11194256686E+04  0.50400001928E-02 0. -1.
    10030    2    1    2    0    0  0.00000000000E+00  0.00000000000E+00  0.16457363225E+04  0.38845876598E+04  0.35187459759E+04 0.  0.
        4    1    3    3  502    0  0.13871087991E+04  0.10759559404E+04  0.69393658664E+03  0.18876709473E+04  0.12699999809E+01 0. -1.
       -4    1    3    3    0  502 -0.13871087991E+04 -0.10759559404E+04  0.95179973587E+03  0.19969167124E+04  0.12699999809E+01 0.  1.
</event>
<event>
 5   0  0.1098171E-07  0.3488315E+04  0.7818609E-02  0.8116565E-01
       -1   -1    0    0    0  501  0.00000000000E+00  0.00000000000E+00  0.12808741468E+04  0.12808741468E+04  0.50400001928E-02 0. -1.
        1   -1    0    0  501    0  0.00000000000E+00  0.00000000000E+00 -0.23750073594E+04  0.23750073594E+04  0.50400001928E-02 0.  1.
    10030    2    1    2    0    0  0.00000000000E+00  0.00000000000E+00 -0.10941332126E+04  0.36558815062E+04  0.34883150804E+04 0.  0.
        4    1    3    3  502    0 -0.18575248660E+03 -0.79480123671E+03 -0.21624954258E+04  0.23114067300E+04  0.12699999809E+01 0.  1.
       -4    1    3    3    0  502  0.18575248660E+03  0.79480123671E+03  0.10683622132E+04  0.13444747761E+04  0.12699999809E+01 0. -1.
</event>
<event>
 5   0  0.1098171E-07  0.3502074E+04  0.7818609E-02  0.8113299E-01
       -1   -1    0    0    0  501  0.00000000000E+00  0.00000000000E+00  0.14006821577E+04  0.14006821577E+04  0.50400001928E-02 0. -1.
        1   -1    0    0  501    0  0.00000000000E+00  0.00000000000E+00 -0.21890271237E+04  0.21890271237E+04  0.50400001928E-02 0.  1.
    10030    2    1    2    0    0  0.00000000000E+00  0.00000000000E+00 -0.78834496599E+03  0.35897092814E+04  0.35020743766E+04 0.  0.
        4    1    3    3  502    0  0.12454832352E+04 -0.11574522362E+03 -0.16501943048E+04  0.20706927108E+04  0.12699999809E+01 0.  1.
       -4    1    3    3    0  502 -0.12454832352E+04  0.11574522362E+03  0.86184933878E+03  0.15190165706E+04  0.12699999809E+01 0. -1.
</event>
<event>
 5   0  0.3219205E-07  0.3487642E+04  0.7818609E-02  0.8116725E-01
        2   -1    0    0  501    0  0.00000000000E+00  0.00000000000E+00  0.17865617243E+04  0.17865617243E+04  0.25500000920E-02 0.  1.
       -2   -1    0    0    0  501  0.00000000000E+00  0.00000000000E+00 -0.17021030715E+04  0.17021030715E+04  0.25500000920E-02 0. -1.
    10030    2    1    2    0    0  0.00000000000E+00  0.00000000000E+00  0.84458652778E+02  0.34886647958E+04  0.34876422972E+04 0.  0.
        2    1    3    3  502    0  0.20941080605E+03  0.31267172404E+03 -0.16610017125E+04  0.17030981128E+04  0.25500000920E-02 0. -1.
       -2    1    3    3    0  502 -0.20941080605E+03 -0.31267172404E+03  0.17454603653E+04  0.17855666830E+04  0.25500000920E-02 0.  1.
</event>
<event>
 5   0  0.2180451E-07  0.3500922E+04  0.7818609E-02  0.8113572E-01
        2   -1    0    0  501    0  0.00000000000E+00  0.00000000000E+00  0.19196922808E+04  0.19196922808E+04  0.25500000920E-02 0.  1.
       -2   -1    0    0    0  501  0.00000000000E+00  0.00000000000E+00 -0.15961482514E+04  0.15961482514E+04  0.25500000920E-02 0. -1.
    10030    2    1    2    0    0  0.00000000000E+00  0.00000000000E+00  0.32354402945E+03  0.35158405322E+04  0.35009218656E+04 0.  0.
        4    1    3    3  502    0  0.30880783138E+03  0.16778354566E+04 -0.23183921109E+03  0.17216983269E+04  0.12699999809E+01 0. -1.
       -4    1    3    3    0  502 -0.30880783138E+03 -0.16778354566E+04  0.55538324053E+03  0.17941422053E+04  0.12699999809E+01 0.  1.
</event>
<event>
 5   0  0.3119048E-07  0.3506638E+04  0.7818609E-02  0.8112219E-01
        2   -1    0    0  501    0  0.00000000000E+00  0.00000000000E+00  0.26798108511E+04  0.26798108511E+04  0.25500000920E-02 0.  1.
       -2   -1    0    0    0  501  0.00000000000E+00  0.00000000000E+00 -0.11471432318E+04  0.11471432318E+04  0.25500000920E-02 0. -1.
    10030    2    1    2    0    0  0.00000000000E+00  0.00000000000E+00  0.15326676193E+04  0.38269540829E+04  0.35066376376E+04 0.  0.
        3    1    3    3  502    0 -0.54035584210E+03 -0.21757181783E+03 -0.10384514666E+04  0.11906735030E+04  0.10100000352E+00 0. -1.
       -3    1    3    3    0  502  0.54035584210E+03  0.21757181783E+03  0.25711190859E+04  0.26362805800E+04  0.10100000352E+00 0.  1.
</event>
<event>
 5   0  0.1033796E-07  0.3498441E+04  0.7818609E-02  0.8114160E-01
        1   -1    0    0  501    0  0.00000000000E+00  0.00000000000E+00  0.22870917347E+04  0.22870917347E+04  0.50400001928E-02 0.  1.
       -1   -1    0    0    0  501  0.00000000000E+00  0.00000000000E+00 -0.13378439218E+04  0.13378439218E+04  0.50400001928E-02 0. -1.
    10030    2    1    2    0    0  0.00000000000E+00  0.00000000000E+00  0.94924781289E+03  0.36249356564E+04  0.34984406674E+04 0.  0.
        3    1    3    3  502    0  0.14548561176E+04  0.69798329640E+03  0.11743063126E+04  0.19956909408E+04  0.10100000352E+00 0.  1.
       -3    1    3    3    0  502 -0.14548561176E+04 -0.69798329640E+03 -0.22505849967E+03  0.16292447157E+04  0.10100000352E+00 0. -1.
</event>
<event>
 5   0  0.3119048E-07  0.3504283E+04  0.7818609E-02  0.8112776E-01
       -2   -1    0    0    0  501  0.00000000000E+00  0.00000000000E+00  0.13329640818E+04  0.13329640818E+04  0.25500000920E-02 0.  1.
        2   -1    0    0  501    0  0.00000000000E+00  0.00000000000E+00 -0.23031371616E+04  0.23031371616E+04  0.25500000920E-02 0. -1.
    10030    2    1    2    0    0  0.00000000000E+00  0.00000000000E+00 -0.97017307984E+03  0.36361012434E+04  0.35042825866E+04 0.  0.
        3    1    3    3  502    0  0.10001093215E+04 -0.84230979899E+03  0.72510285120E+03  0.14951517005E+04  0.10100000352E+00 0.  1.
       -3    1    3    3    0  502 -0.10001093215E+04  0.84230979899E+03 -0.16952759310E+04  0.21409495429E+04  0.10100000352E+00 0. -1.
</event>
<event>
 5   0  0.1013863E-07  0.3512031E+04  0.7818609E-02  0.8110945E-01
        3   -1    0    0  501    0  0.00000000000E+00  0.00000000000E+00  0.28860680433E+04  0.28860680451E+04  0.10100000352E+00 0.  1.
       -3   -1    0    0    0  501  0.00000000000E+00  0.00000000000E+00 -0.10684397287E+04  0.10684397335E+04  0.10100000352E+00 0. -1.
    10030    2    1    2    0    0  0.00000000000E+00  0.00000000000E+00  0.18176283146E+04  0.39545077786E+04  0.35120306207E+04 0.  0.
        3    1    3    3  502    0  0.15923794566E+04 -0.70502586791E+03  0.11627389078E+04  0.20939664720E+04  0.10100000352E+00 0. -1.
       -3    1    3    3    0  502 -0.15923794566E+04  0.70502586791E+03  0.65488940685E+03  0.18605413066E+04  0.10100000352E+00 0.  1.
</event>
<event>
 5   0  0.3219205E-07  0.3492137E+04  0.7818609E-02  0.8115656E-01
       -2   -1    0    0    0  501  0.00000000000E+00  0.00000000000E+00  0.27469151507E+04  0.27469151507E+04  0.25500000920E-02 0.  1.
        2   -1    0    0  501    0  0.00000000000E+00  0.00000000000E+00 -0.11098829889E+04  0.11098829889E+04  0.25500000920E-02 0. -1.
    10030    2    1    2    0    0  0.00000000000E+00  0.00000000000E+00  0.16370321618E+04  0.38567981396E+04  0.34921365367E+04 0.  0.
        2    1    3    3  502    0  0.92612722208E+03  0.10373644980E+04 -0.34764110200E+03  0.14334193625E+04  0.25500000920E-02 0. -1.
       -2    1    3    3    0  502 -0.92612722208E+03 -0.10373644980E+04  0.19846732638E+04  0.24233787771E+04  0.25500000920E-02 0.  1.
</event>
<event>
 5   0  0.1033796E-07  0.3466138E+04  0.7818609E-02  0.8121862E-01
        1   -1    0    0  501    0  0.00000000000E+00  0.00000000000E+00  0.22001997317E+04  0.22001997317E+04  0.50400001928E-02 0. -1.
       -1   -1    0    0    0  501  0.00000000000E+00  0.00000000000E+00 -0.13651163532E+04  0.13651163532E+04  0.50400001928E-02 0.  1.
    10030    2    1    2    0    0  0.00000000000E+00  0.00000000000E+00  0.83508337848E+03  0.35653160849E+04  0.34661382743E+04 0.  0.
        3    1    3    3  502    0  0.58241743341E+02  0.23447294389E+01 -0.13641077915E+04  0.13653525828E+04  0.10100000352E+00 0.  1.
       -3    1    3    3    0  502 -0.58241743341E+02 -0.23447294389E+01  0.21991911700E+04  0.21999635021E+04  0.10100000352E+00 0. -1.
</event>
<event>
 5   0  0.3190112E-07  0.3463137E+04  0.7818609E-02  0.8122582E-01
       -2   -1    0    0    0  501  0.00000000000E+00  0.00000000000E+00  0.19422785207E+04  0.19422785207E+04  0.25500000920E-02 0.  1.
        2   -1    0    0  501    0  0.00000000000E+00  0.00000000000E+00 -0.15437175756E+04  0.15437175756E+04  0.25500000920E-02 0. -1.
    10030    2    1    2    0    0  0.00000000000E+00  0.00000000000E+00  0.39856094515E+03  0.34859960963E+04  0.34631370109E+04 0.  0.
        5    1    3    3  502    0  0.19662552028E+03  0.16066942359E+04 -0.41974166087E+03  0.16722240026E+04  0.46999998093E+01 0. -1.
       -5    1    3    3    0  502 -0.19662552028E+03 -0.16066942359E+04  0.81830260602E+03  0.18137720937E+04  0.46999998093E+01 0.  1.
</event>
<event>
 5   0  0.1013863E-07  0.3465765E+04  0.7818609E-02  0.8121952E-01
        1   -1    0    0  501    0  0.00000000000E+00  0.00000000000E+00  0.91792949016E+03  0.91792949017E+03  0.50400001928E-02 0.  1.
       -1   -1    0    0    0  501  0.00000000000E+00  0.00000000000E+00 -0.32713638032E+04  0.32713638032E+04  0.50400001928E-02 0. -1.
    10030    2    1    2    0    0  0.00000000000E+00  0.00000000000E+00 -0.23534343130E+04  0.41892932934E+04  0.34657647399E+04 0.  0.
        5    1    3    3  502    0 -0.50089474603E+03  0.15082739172E+04 -0.34181743335E+03  0.16256220359E+04  0.46999998093E+01 0.  1.
       -5    1    3    3    0  502  0.50089474603E+03 -0.15082739172E+04 -0.20116168797E+04  0.25636712575E+04  0.46999998093E+01 0. -1.
</event>
<event>
 5   0  0.3119048E-07  0.3474017E+04  0.7818609E-02  0.8119975E-01
       -2   -1    0    0    0  501  0.00000000000E+00  0.00000000000E+00  0.90377987205E+03  0.90377987205E+03  0.25500000920E-02 0.  1.
        2   -1    0    0  501    0  0.00000000000E+00  0.00000000000E+00 -0.33384222922E+04  0.33384222922E+04  0.25500000920E-02 0. -1.
    10030    2    1    2    0    0  0.00000000000E+00  0.00000000000E+00 -0.24346424201E+04  0.42422021642E+04  0.34740171975E+04 0.  0.
        3    1    3    3  502    0 -0.79410586529E+03 -0.13094055502E+04 -0.22183827697E+04  0.26956203633E+04  0.10100000352E+00 0. -1.
       -3    1    3    3    0  502  0.79410586529E+03  0.13094055502E+04 -0.21625965048E+03  0.15465818009E+04  0.10100000352E+00 0.  1.
</event>
<event>
 5   0  0.2180451E-07  0.3492865E+04  0.7818609E-02  0.8115483E-01
        2   -1    0    0  501    0  0.00000000000E+00  0.00000000000E+00  0.21311652441E+04  0.21311652441E+04  0.25500000920E-02 0.  1.
       -2   -1    0    0    0  501  0.00000000000E+00  0.00000000000E+00 -0.14311543902E+04  0.14311543902E+04  0.25500000920E-02 0. -1.
    10030    2    1    2    0    0  0.00000000000E+00  0.00000000000E+00  0.70001085394E+03  0.35623196343E+04  0.34928650104E+04 0.  0.
        4    1    3    3  502    0 -0.47477154769E+03  0.81831938970E+03 -0.11471666579E+04  0.14869591790E+04  0.12699999809E+01 0. -1.
       -4    1    3    3    0  502  0.47477154769E+03 -0.81831938970E+03  0.18471775119E+04  0.20753604553E+04  0.12699999809E+01 0.  1.
</event>
<event>
 5   0  0.2180451E-07  0.3498854E+04  0.7818609E-02  0.8114062E-01
        2   -1    0    0  501    0  0.00000000000E+00  0.00000000000E+00  0.24868878594E+04  0.24868878594E+04  0.25500000920E-02 0.  1.
       -2   -1    0    0    0  501  0.00000000000E+00  0.00000000000E+00 -0.12306525758E+04  0.12306525758E+04  0.25500000920E-02 0. -1.
    10030    2    1    2    0    0  0.00000000000E+00  0.00000000000E+00  0.12562352836E+04  0.37175404352E+04  0.34988540695E+04 0.  0.
        4    1    3    3  502    0 -0.75901445287E+03  0.10622425736E+04 -0.60915297334E+03  0.14406703935E+04  0.12699999809E+01 0. -1.
       -4    1    3    3    0  502  0.75901445287E+03 -0.10622425736E+04  0.18653882569E+04  0.22768700417E+04  0.12699999809E+01 0.  1.
</event>
<event>
 5   0  0.1033796E-07  0.3497111E+04  0.7818609E-02  0.8114475E-01
        1   -1    0    0  501    0  0.00000000000E+00  0.00000000000E+00  0.16732219295E+04  0.16732219295E+04  0.50400001928E-02 0.  1.
       -1   -1    0    0    0  501  0.00000000000E+00  0.00000000000E+00 -0.18272811538E+04  0.18272811538E+04  0.50400001928E-02 0. -1.
    10030    2    1    2    0    0  0.00000000000E+00  0.00000000000E+00 -0.15405922422E+03  0.35005030833E+04  0.34971113210E+04 0.  0.
        3    1    3    3  502    0  0.22891247059E+03 -0.15655500579E+04  0.66807059593E+03  0.17174592380E+04  0.10100000352E+00 0.  1.
       -3    1    3    3    0  502 -0.22891247059E+03  0.15655500579E+04 -0.82212982015E+03  0.17830438453E+04  0.10100000352E+00 0. -1.
</event>
<event>
 5   0  0.1098171E-07  0.3504340E+04  0.7818609E-02  0.8112762E-01
        1   -1    0    0  501    0  0.00000000000E+00  0.00000000000E+00  0.21297413306E+04  0.21297413306E+04  0.50400001928E-02 0.  1.
       -1   -1    0    0    0  501  0.00000000000E+00  0.00000000000E+00 -0.14415362320E+04  0.14415362321E+04  0.50400001928E-02 0. -1.
    10030    2    1    2    0    0  0.00000000000E+00  0.00000000000E+00  0.68820509858E+03  0.35712775627E+04  0.35043397626E+04 0.  0.
        4    1    3    3  502    0  0.13250914088E+04  0.46574841054E+03  0.14116368570E+04  0.19913585946E+04  0.12699999809E+01 0.  1.
       -4    1    3    3    0  502 -0.13250914088E+04 -0.46574841054E+03 -0.72343175841E+03  0.15799189680E+04  0.12699999809E+01 0. -1.
</event>
<event>
 5   0  0.3190185E-07  0.3517169E+04  0.7818609E-02  0.8109733E-01
        2   -1    0    0  501    0  0.00000000000E+00  0.00000000000E+00  0.10871523208E+04  0.10871523208E+04  0.25500000920E-02 0. -1.
       -2   -1    0    0    0  501  0.00000000000E+00  0.00000000000E+00 -0.28446973966E+04  0.28446973966E+04  0.25500000920E-02 0.  1.
    10030    2    1    2    0    0  0.00000000000E+00  0.00000000000E+00 -0.17575450758E+04  0.39318497174E+04  0.35171689619E+04 0.  0.
        1    1    3    3  502    0  0.50863918707E+03  0.15242517660E+03  0.99539655159E+03  0.11281673422E+04  0.50400001928E-02 0. -1.
       -1    1    3    3    0  502 -0.50863918707E+03 -0.15242517660E+03 -0.27529416274E+04  0.28036823751E+04  0.50400001928E-02 0.  1.
</event>
<event>
 5   0  0.1098171E-07  0.3492024E+04  0.7818609E-02  0.8115683E-01
        1   -1    0    0  501    0  0.00000000000E+00  0.00000000000E+00  0.21826698283E+04  0.21826698283E+04  0.50400001928E-02 0. -1.
       -1   -1    0    0    0  501  0.00000000000E+00  0.00000000000E+00 -0.13967106581E+04  0.13967106581E+04  0.50400001928E-02 0.  1.
    10030    2    1    2    0    0  0.00000000000E+00  0.00000000000E+00  0.78595917022E+03  0.35793804865E+04  0.34920241765E+04 0.  0.
        4    1    3    3  502    0  0.15989301463E+04  0.69798140801E+03  0.46400173304E+03  0.18052852627E+04  0.12699999809E+01 0. -1.
       -4    1    3    3    0  502 -0.15989301463E+04 -0.69798140801E+03  0.32195743718E+03  0.17740952237E+04  0.12699999809E+01 0.  1.
</event>
<event>
 5   0  0.2180451E-07  0.3527269E+04  0.7818609E-02  0.8107358E-01
       -2   -1    0    0    0  501  0.00000000000E+00  0.00000000000E+00  0.33370721532E+04  0.33370721532E+04  0.25500000920E-02 0.  1.
        2   -1    0    0  501    0  0.00000000000E+00  0.00000000000E+00 -0.93207658420E+03  0.93207658420E+03  0.25500000920E-02 0. -1.
    10030    2    1    2    0    0  0.00000000000E+00  0.00000000000E+00  0.24049955690E+04  0.42691487374E+04  0.35272690931E+04 0.  0.
        4    1    3    3  502    0  0.41968054779E+03  0.11763731935E+04 -0.30455099875E+03  0.12855888053E+04  0.12699999809E+01 0. -1.
       -4    1    3    3    0  502 -0.41968054779E+03 -0.11763731935E+04  0.27095465677E+04  0.29835599321E+04  0.12699999809E+01 0.  1.
</event>
<event>
 5   0  0.3119048E-07  0.3498344E+04  0.7818609E-02  0.8114182E-01
       -2   -1    0    0    0  501  0.00000000000E+00  0.00000000000E+00  0.17044475301E+04  0.17044475301E+04  0.25500000920E-02 0.  1.
        2   -1    0    0  501    0  0.00000000000E+00  0.00000000000E+00 -0.17950701962E+04  0.17950701962E+04  0.25500000920E-02 0. -1.
    10030    2    1    2    0    0  0.00000000000E+00  0.00000000000E+00 -0.90622666094E+02  0.34995177263E+04  0.34983441582E+04 0.  0.
        3    1    3    3  502    0  0.46937274085E+03 -0.14976164369E+04 -0.81786387072E+03  0.17697646972E+04  0.10100000352E+00 0. -1.
       -3    1    3    3    0  502 -0.46937274085E+03  0.14976164369E+04  0.72724120463E+03  0.17297530292E+04  0.10100000352E+00 0.  1.
</event>
<event>
 5   0  0.3190112E-07  0.3509867E+04  0.7818609E-02  0.8111456E-01
       -2   -1    0    0    0  501  0.00000000000E+00  0.00000000000E+00  0.14901623542E+04  0.14901623542E+04  0.25500000920E-02 0. -1.
        2   -1    0    0  501    0  0.00000000000E+00  0.00000000000E+00 -0.20667491457E+04  0.20667491457E+04  0.25500000920E-02 0.  1.
    10030    2    1    2    0    0  0.00000000000E+00  0.00000000000E+00 -0.57658679151E+03  0.35569114999E+04  0.35098671043E+04 0.  0.
        5    1    3    3  502    0  0.16814920925E+04  0.20971840110E+03 -0.75088984339E+03  0.18534441216E+04  0.46999998093E+01 0.  1.
       -5    1    3    3    0  502 -0.16814920925E+04 -0.20971840110E+03  0.17430305188E+03  0.17034673783E+04  0.46999998093E+01 0. -1.
</event>
<event>
 5   0  0.1013863E-07  0.3489171E+04  0.7818609E-02  0.8116361E-01
       -1   -1    0    0    0  501  0.00000000000E+00  0.00000000000E+00  0.23476975642E+04  0.23476975642E+04  0.50400001928E-02 0.  1.
        1   -1    0    0  501    0  0.00000000000E+00  0.00000000000E+00 -0.12964099701E+04  0.12964099701E+04  0.50400001928E-02 0. -1.
    10030    2    1    2    0    0  0.00000000000E+00  0.00000000000E+00  0.10512875942E+04  0.36441075343E+04  0.34891709783E+04 0.  0.
        2    1    3    3  502    0  0.83742415929E+03 -0.60543700616E+03  0.19936720556E+04  0.22455648413E+04  0.25500000920E-02 0.  1.
       -2    1    3    3    0  502 -0.83742415929E+03  0.60543700616E+03 -0.94238446146E+03  0.13985426930E+04  0.25500000920E-02 0. -1.
</event>
<event>
 5   0  0.1013863E-07  0.3500866E+04  0.7818609E-02  0.8113585E-01
        1   -1    0    0  501    0  0.00000000000E+00  0.00000000000E+00  0.24396496121E+04  0.24396496121E+04  0.50400001928E-02 0. -1.
       -1   -1    0    0    0  501  0.00000000000E+00  0.00000000000E+00 -0.12559247527E+04  0.12559247527E+04  0.50400001928E-02 0.  1.
    10030    2    1    2    0    0  0.00000000000E+00  0.00000000000E+00  0.11837248594E+04  0.36955743648E+04  0.35008663704E+04 0.  0.
        2    1    3    3  502    0  0.36799054729E+03  0.17014027309E+04  0.78601575404E+03  0.19099761939E+04  0.25500000920E-02 0. -1.
       -2    1    3    3    0  502 -0.36799054729E+03 -0.17014027309E+04  0.39770910533E+03  0.17855981709E+04  0.25500000920E-02 0.  1.
</event>
<event>
 5   0  0.1013863E-07  0.3451259E+04  0.7818609E-02  0.8125439E-01
       -3   -1    0    0    0  501  0.00000000000E+00  0.00000000000E+00  0.22998799242E+04  0.22998799264E+04  0.10100000352E+00 0.  1.
        3   -1    0    0  501    0  0.00000000000E+00  0.00000000000E+00 -0.12947623804E+04  0.12947623843E+04  0.10100000352E+00 0. -1.
    10030    2    1    2    0    0  0.00000000000E+00  0.00000000000E+00  0.10051175438E+04  0.35946423107E+04  0.34512594897E+04 0.  0.
        1    1    3    3  502    0  0.97067316599E+03 -0.10341791347E+04 -0.52116142910E+03  0.15110731660E+04  0.50400001928E-02 0.  1.
       -1    1    3    3    0  502 -0.97067316599E+03  0.10341791347E+04  0.15262789729E+04  0.20835691448E+04  0.50400001928E-02 0. -1.
</event>
<event>
 5   0  0.1072381E-07  0.3495861E+04  0.7818609E-02  0.8114772E-01
        1   -1    0    0  501    0  0.00000000000E+00  0.00000000000E+00  0.19084121600E+04  0.19084121600E+04  0.50400001928E-02 0.  1.
       -1   -1    0    0    0  501  0.00000000000E+00  0.00000000000E+00 -0.16009435614E+04  0.16009435615E+04  0.50400001928E-02 0. -1.
    10030    2    1    2    0    0  0.00000000000E+00  0.00000000000E+00  0.30746859858E+03  0.35093557215E+04  0.34958605008E+04 0.  0.
        1    1    3    3  502    0 -0.61320097182E+03  0.14568877367E+04  0.90275327755E+03  0.18203023895E+04  0.50400001928E-02 0.  1.
       -1    1    3    3    0  502  0.61320097182E+03 -0.14568877367E+04 -0.59528467897E+03  0.16890533320E+04  0.50400001928E-02 0. -1.
</event>
<event>
 5   0  0.3190112E-07  0.3502456E+04  0.7818609E-02  0.8113208E-01
        2   -1    0    0  501    0  0.00000000000E+00  0.00000000000E+00  0.19779947335E+04  0.19779947335E+04  0.25500000920E-02 0. -1.
       -2   -1    0    0    0  501  0.00000000000E+00  0.00000000000E+00 -0.15504585016E+04  0.15504585016E+04  0.25500000920E-02 0.  1.
    10030    2    1    2    0    0  0.00000000000E+00  0.00000000000E+00  0.42753623195E+03  0.35284532351E+04  0.35024555675E+04 0.  0.
        5    1    3    3  502    0  0.15649233409E+04  0.42364544116E+03 -0.45320059668E+03  0.16834112372E+04  0.46999998093E+01 0.  1.
       -5    1    3    3    0  502 -0.15649233409E+04 -0.42364544116E+03  0.88073682863E+03  0.18450419979E+04  0.46999998093E+01 0. -1.
</event>
<event>
 5   0  0.2180451E-07  0.3509797E+04  0.7818609E-02  0.8111472E-01
        2   -1    0    0  501    0  0.00000000000E+00  0.00000000000E+00  0.15390573398E+04  0.15390573398E+04  0.25500000920E-02 0.  1.
       -2   -1    0    0    0  501  0.00000000000E+00  0.00000000000E+00 -0.20010101713E+04  0.20010101713E+04  0.25500000920E-02 0. -1.
    10030    2    1    2    0    0  0.00000000000E+00  0.00000000000E+00 -0.46195283153E+03  0.35400675111E+04  0.35097973680E+04 0.  0.
        4    1    3    3  502    0 -0.16209608292E+04 -0.45833038260E+03  0.26529042816E+03  0.17052745742E+04  0.12699999809E+01 0.  1.
       -4    1    3    3    0  502  0.16209608292E+04  0.45833038260E+03 -0.72724325970E+03  0.18347929368E+04  0.12699999809E+01 0. -1.
</event>
<event>
 5   0  0.3190185E-07  0.3499016E+04  0.7818609E-02  0.8114023E-01
       -2   -1    0    0    0  501  0.00000000000E+00  0.00000000000E+00  0.27354073893E+04  0.27354073893E+04  0.25500000920E-02 0.  1.
        2   -1    0    0  501    0  0.00000000000E+00  0.00000000000E+00 -0.11189480455E+04  0.11189480455E+04  0.25500000920E-02 0. -1.
    10030    2    1    2    0    0  0.00000000000E+00  0.00000000000E+00  0.16164593438E+04  0.38543554348E+04  0.34990162914E+04 0.  0.
        1    1    3    3  502    0 -0.84364885436E+03  0.10899839627E+04  0.19951357557E+04  0.24249484762E+04  0.50400001928E-02 0.  1.
       -1    1    3    3    0  502  0.84364885436E+03 -0.10899839627E+04 -0.37867641192E+03  0.14294069586E+04  0.50400001928E-02 0. -1.
</event>
<event>
 5   0  0.3190185E-07  0.3514113E+04  0.7818609E-02  0.8110454E-01
        2   -1    0    0  501    0  0.00000000000E+00  0.00000000000E+00  0.18216431911E+04  0.18216431911E+04  0.25500000920E-02 0.  1.
       -2   -1    0    0    0  501  0.00000000000E+00  0.00000000000E+00 -0.16947592787E+04  0.16947592787E+04  0.25500000920E-02 0. -1.
    10030    2    1    2    0    0  0.00000000000E+00  0.00000000000E+00  0.12688391238E+03  0.35164024699E+04  0.35141125200E+04 0.  0.
        1    1    3    3  502    0  0.64521073640E+03  0.13522340296E+04 -0.85498670173E+03  0.17250611657E+04  0.50400001928E-02 0. -1.
       -1    1    3    3    0  502 -0.64521073640E+03 -0.13522340296E+04  0.98187061410E+03  0.17913413042E+04  0.50400001928E-02 0.  1.
</event>
<event>
 5   0  0.1013863E-07  0.3517487E+04  0.7818609E-02  0.8109658E-01
       -1   -1    0    0    0  501  0.00000000000E+00  0.00000000000E+00  0.20582437090E+04  0.20582437090E+04  0.50400001928E-02 0.  1.
        1   -1    0    0  501    0  0.00000000000E+00  0.00000000000E+00 -0.15028243050E+04  0.15028243050E+04  0.50400001928E-02 0. -1.
    10030    2    1    2    0    0  0.00000000000E+00  0.00000000000E+00  0.55541940397E+03  0.35610680140E+04  0.35174869845E+04 0.  0.
        2    1    3    3  502    0  0.13493579622E+04  0.10949951205E+04  0.55198598042E+03  0.18233128493E+04  0.25500000920E-02 0. -1.
       -2    1    3    3    0  502 -0.13493579622E+04 -0.10949951205E+04  0.34334235453E+01  0.17377551647E+04  0.25500000920E-02 0.  1.
</event>
<event>
 5   0  0.1013863E-07  0.3452386E+04  0.7818609E-02  0.8125167E-01
        1   -1    0    0  501    0  0.00000000000E+00  0.00000000000E+00  0.19533233714E+04  0.19533233714E+04  0.50400001928E-02 0. -1.
       -1   -1    0    0    0  501  0.00000000000E+00  0.00000000000E+00 -0.15254731372E+04  0.15254731372E+04  0.50400001928E-02 0.  1.
    10030    2    1    2    0    0  0.00000000000E+00  0.00000000000E+00  0.42785023419E+03  0.34787965086E+04  0.34523860337E+04 0.  0.
        5    1    3    3  502    0 -0.70553040511E+02  0.15573974642E+04 -0.53286221178E+03  0.16475523723E+04  0.46999998093E+01 0.  1.
       -5    1    3    3    0  502  0.70553040511E+02 -0.15573974642E+04  0.96071244597E+03  0.18312441363E+04  0.46999998093E+01 0. -1.
</event>
<event>
 5   0  0.3119048E-07  0.3505879E+04  0.7818609E-02  0.8112398E-01
       -2   -1    0    0    0  501  0.00000000000E+00  0.00000000000E+00  0.26876265497E+04  0.26876265497E+04  0.25500000920E-02 0. -1.
        2   -1    0    0  501    0  0.00000000000E+00  0.00000000000E+00 -0.11433125537E+04  0.11433125537E+04  0.25500000920E-02 0.  1.
    10030    2    1    2    0    0  0.00000000000E+00  0.00000000000E+00  0.15443139960E+04  0.38309391034E+04  0.35058791616E+04 0.  0.
        3    1    3    3  502    0 -0.57386546458E+03 -0.10410004994E+04 -0.63562478836E+03  0.13479697671E+04  0.10100000352E+00 0.  1.
       -3    1    3    3    0  502  0.57386546458E+03  0.10410004994E+04  0.21799387844E+04  0.24829693363E+04  0.10100000352E+00 0. -1.
</event>
<event>
 5   0  0.1013863E-07  0.3502214E+04  0.7818609E-02  0.8113265E-01
        1   -1    0    0  501    0  0.00000000000E+00  0.00000000000E+00  0.18875162343E+04  0.18875162344E+04  0.50400001928E-02 0. -1.
       -1   -1    0    0    0  501  0.00000000000E+00  0.00000000000E+00 -0.16245563694E+04  0.16245563694E+04  0.50400001928E-02 0.  1.
    10030    2    1    2    0    0  0.00000000000E+00  0.00000000000E+00  0.26295986494E+03  0.35120726038E+04  0.35022144542E+04 0.  0.
        2    1    3    3  502    0 -0.60290979759E+03  0.33413323205E+03 -0.14827813781E+04  0.16351715066E+04  0.25500000920E-02 0.  1.
       -2    1    3    3    0  502  0.60290979759E+03 -0.33413323205E+03  0.17457412430E+04  0.18769010971E+04  0.25500000920E-02 0. -1.
</event>
<event>
 5   0  0.3219205E-07  0.3505903E+04  0.7818609E-02  0.8112392E-01
       -2   -1    0    0    0  501  0.00000000000E+00  0.00000000000E+00  0.12859586772E+04  0.12859586772E+04  0.25500000920E-02 0. -1.
        2   -1    0    0  501    0  0.00000000000E+00  0.00000000000E+00 -0.23895319578E+04  0.23895319578E+04  0.25500000920E-02 0.  1.
    10030    2    1    2    0    0  0.00000000000E+00  0.00000000000E+00 -0.11035732806E+04  0.36754906350E+04  0.35059032249E+04 0.  0.
        2    1    3    3  502    0  0.58513157606E+02 -0.75327659692E+03 -0.22100678349E+04  0.23356475025E+04  0.25500000920E-02 0.  1.
       -2    1    3    3    0  502 -0.58513157606E+02  0.75327659692E+03  0.11064945543E+04  0.13398431325E+04  0.25500000920E-02 0. -1.
</event>
<event>
 5   0  0.1072381E-07  0.3499379E+04  0.7818609E-02  0.8113937E-01
       -1   -1    0    0    0  501  0.00000000000E+00  0.00000000000E+00  0.14105906632E+04  0.14105906633E+04  0.50400001928E-02 0. -1.
        1   -1    0    0  501    0  0.00000000000E+00  0.00000000000E+00 -0.21703054167E+04  0.21703054168E+04  0.50400001928E-02 0.  1.
    10030    2    1    2    0    0  0.00000000000E+00  0.00000000000E+00 -0.75971475351E+03  0.35808960800E+04  0.34993785490E+04 0.  0.
        1    1    3    3  502    0 -0.17344776359E+04 -0.21675757419E+03 -0.45922734689E+03  0.18072869920E+04  0.50400001928E-02 0. -1.
       -1    1    3    3    0  502  0.17344776359E+04  0.21675757419E+03 -0.30048740662E+03  0.17736090880E+04  0.50400001928E-02 0.  1.
</event>
<event>
 5   0  0.3119048E-07  0.3533428E+04  0.7818609E-02  0.8105913E-01
        2   -1    0    0  501    0  0.00000000000E+00  0.00000000000E+00  0.24422888794E+04  0.24422888794E+04  0.25500000920E-02 0. -1.
       -2   -1    0    0    0  501  0.00000000000E+00  0.00000000000E+00 -0.12780136497E+04  0.12780136497E+04  0.25500000920E-02 0.  1.
    10030    2    1    2    0    0  0.00000000000E+00  0.00000000000E+00  0.11642752297E+04  0.37203025292E+04  0.35334280943E+04 0.  0.
        3    1    3    3  502    0  0.91338250608E+03  0.73132132245E+03  0.19758442366E+04  0.22963142068E+04  0.10100000352E+00 0. -1.
       -3    1    3    3    0  502 -0.91338250608E+03 -0.73132132245E+03 -0.81156900684E+03  0.14239883223E+04  0.10100000352E+00 0.  1.
</event>
<event>
 5   0  0.3190112E-07  0.3497665E+04  0.7818609E-02  0.8114344E-01
        2   -1    0    0  501    0  0.00000000000E+00  0.00000000000E+00  0.28670549395E+04  0.28670549395E+04  0.25500000920E-02 0.  1.
       -2   -1    0    0    0  501  0.00000000000E+00  0.00000000000E+00 -0.10667444321E+04  0.10667444321E+04  0.25500000920E-02 0. -1.
    10030    2    1    2    0    0  0.00000000000E+00  0.00000000000E+00  0.18003105074E+04  0.39337993716E+04  0.34976648743E+04 0.  0.
        5    1    3    3  502    0 -0.11775305034E+04 -0.66852548870E+03  0.21449056400E+04  0.25365619862E+04  0.46999998093E+01 0.  1.
       -5    1    3    3    0  502  0.11775305034E+04  0.66852548870E+03 -0.34459513260E+03  0.13972373853E+04  0.46999998093E+01 0. -1.
</event>
<event>
 5   0  0.1072381E-07  0.3494877E+04  0.7818609E-02  0.8115005E-01
       -1   -1    0    0    0  501  0.00000000000E+00  0.00000000000E+00  0.23451499579E+04  0.23451499579E+04  0.50400001928E-02 0.  1.
        1   -1    0    0  501    0  0.00000000000E+00  0.00000000000E+00 -0.13020665549E+04  0.13020665549E+04  0.50400001928E-02 0. -1.
    10030    2    1    2    0    0  0.00000000000E+00  0.00000000000E+00  0.10430834030E+04  0.36472165128E+04  0.34948770087E+04 0.  0.
        1    1    3    3  502    0 -0.10931637900E+04 -0.97604412267E+03  0.15148020461E+04  0.21076751268E+04  0.50400001928E-02 0.  1.
       -1    1    3    3    0  502  0.10931637900E+04  0.97604412267E+03 -0.47171864307E+03  0.15395413861E+04  0.50400001928E-02 0. -1.
</event>
<event>
 5   0  0.1098171E-07  0.3438774E+04  0.7818609E-02  0.8128455E-01
       -1   -1    0    0    0  501  0.00000000000E+00  0.00000000000E+00  0.17134245780E+04  0.17134245780E+04  0.50400001928E-02 0.  1.
        1   -1    0    0  501    0  0.00000000000E+00  0.00000000000E+00 -0.17253705121E+04  0.17253705121E+04  0.50400001928E-02 0. -1.
    10030    2    1    2    0    0  0.00000000000E+00  0.00000000000E+00 -0.11945934088E+02  0.34387950901E+04  0.34387743407E+04 0.  0.
        4    1    3    3  502    0  0.67338546888E+03 -0.11889193395E+04  0.10377351286E+04  0.17157718367E+04  0.12699999809E+01 0.  1.
       -4    1    3    3    0  502 -0.67338546888E+03  0.11889193395E+04 -0.10496810627E+04  0.17230232534E+04  0.12699999809E+01 0. -1.
</event>
<event>
 5   0  0.1013863E-07  0.3499545E+04  0.7818609E-02  0.8113898E-01
       -1   -1    0    0    0  501  0.00000000000E+00  0.00000000000E+00  0.14177396353E+04  0.14177396354E+04  0.50400001928E-02 0. -1.
        1   -1    0    0  501    0  0.00000000000E+00  0.00000000000E+00 -0.21595664391E+04  0.21595664391E+04  0.50400001928E-02 0.  1.
    10030    2    1    2    0    0  0.00000000000E+00  0.00000000000E+00 -0.74182680376E+03  0.35773060745E+04  0.34995445052E+04 0.  0.
        5    1    3    3  502    0  0.89381472160E+03 -0.31119226616E+03  0.11335004898E+04  0.14766823740E+04  0.46999998093E+01 0. -1.
       -5    1    3    3    0  502 -0.89381472160E+03  0.31119226616E+03 -0.18753272936E+04  0.21006237005E+04  0.46999998093E+01 0.  1.
</event>
<event>
 5   0  0.1013863E-07  0.3498344E+04  0.7818609E-02  0.8114182E-01
       -1   -1    0    0    0  501  0.00000000000E+00  0.00000000000E+00  0.16320452873E+04  0.16320452873E+04  0.50400001928E-02 0.  1.
        1   -1    0    0  501    0  0.00000000000E+00  0.00000000000E+00 -0.18747048383E+04  0.18747048383E+04  0.50400001928E-02 0. -1.
    10030    2    1    2    0    0  0.00000000000E+00  0.00000000000E+00 -0.24265955103E+03  0.35067501256E+04  0.34983442921E+04 0.  0.
        5    1    3    3  502    0  0.23530497437E+02  0.10680737673E+04 -0.15096652033E+04  0.18494448823E+04  0.46999998093E+01 0. -1.
       -5    1    3    3    0  502 -0.23530497437E+02 -0.10680737673E+04  0.12670056522E+04  0.16573052433E+04  0.46999998093E+01 0.  1.
</event>
<event>
 5   0  0.3190112E-07  0.3505516E+04  0.7818609E-02  0.8112484E-01
       -2   -1    0    0    0  501  0.00000000000E+00  0.00000000000E+00  0.11070020642E+04  0.11070020642E+04  0.25500000920E-02 0.  1.
        2   -1    0    0  501    0  0.00000000000E+00  0.00000000000E+00 -0.27752073961E+04  0.27752073961E+04  0.25500000920E-02 0. -1.
    10030    2    1    2    0    0  0.00000000000E+00  0.00000000000E+00 -0.16682053319E+04  0.38822094603E+04  0.35055158343E+04 0.  0.
        5    1    3    3  502    0  0.16159677739E+04  0.43633234194E+03 -0.14099810127E+04  0.21885626117E+04  0.46999998093E+01 0. -1.
       -5    1    3    3    0  502 -0.16159677739E+04 -0.43633234194E+03 -0.25822431924E+03  0.16936468487E+04  0.46999998093E+01 0.  1.
</event>
<event>
 5   0  0.3119048E-07  0.3493015E+04  0.7818609E-02  0.8115447E-01
       -2   -1    0    0    0  501  0.00000000000E+00  0.00000000000E+00  0.12108052875E+04  0.12108052875E+04  0.25500000920E-02 0.  1.
        2   -1    0    0  501    0  0.00000000000E+00  0.00000000000E+00 -0.25192232424E+04  0.25192232424E+04  0.25500000920E-02 0. -1.
    10030    2    1    2    0    0  0.00000000000E+00  0.00000000000E+00 -0.13084179549E+04  0.37300285299E+04  0.34930152145E+04 0.  0.
        3    1    3    3  502    0  0.14835128703E+03 -0.11492941918E+04  0.74113013710E+03  0.13755577538E+04  0.10100000352E+00 0.  1.
       -3    1    3    3    0  502 -0.14835128703E+03  0.11492941918E+04 -0.20495480920E+04  0.23544707761E+04  0.10100000352E+00 0. -1.
</event>
<event>
 5   0  0.3119048E-07  0.3502618E+04  0.7818609E-02  0.8113170E-01
        2   -1    0    0  501    0  0.00000000000E+00  0.00000000000E+00  0.19107002323E+04  0.19107002323E+04  0.25500000920E-02 0. -1.
       -2   -1    0    0    0  501  0.00000000000E+00  0.00000000000E+00 -0.16052146402E+04  0.16052146402E+04  0.25500000920E-02 0.  1.
    10030    2    1    2    0    0  0.00000000000E+00  0.00000000000E+00  0.30548559210E+03  0.35159148726E+04  0.35026184411E+04 0.  0.
        3    1    3    3  502    0 -0.10819244571E+04 -0.11946507761E+04 -0.53493666353E+03  0.16982073643E+04  0.10100000352E+00 0.  1.
       -3    1    3    3    0  502  0.10819244571E+04  0.11946507761E+04  0.84042225562E+03  0.18177075083E+04  0.10100000352E+00 0. -1.
</event>
<event>
 5   0  0.3119048E-07  0.3497376E+04  0.7818609E-02  0.8114412E-01
        2   -1    0    0  501    0  0.00000000000E+00  0.00000000000E+00  0.22829572844E+04  0.22829572844E+04  0.25500000920E-02 0.  1.
       -2   -1    0    0    0  501  0.00000000000E+00  0.00000000000E+00 -0.13394509319E+04  0.13394509319E+04  0.25500000920E-02 0. -1.
    10030    2    1    2    0    0  0.00000000000E+00  0.00000000000E+00  0.94350635248E+03  0.36224082163E+04  0.34973757374E+04 0.  0.
        3    1    3    3  502    0 -0.11159372158E+04 -0.66270058829E+02 -0.92101402024E+03  0.14484386166E+04  0.10100000352E+00 0. -1.
       -3    1    3    3    0  502  0.11159372158E+04  0.66270058829E+02  0.18645203727E+04  0.21739695998E+04  0.10100000352E+00 0.  1.
</event>
<event>
 5   0  0.1013863E-07  0.3485162E+04  0.7818609E-02  0.8117315E-01
        1   -1    0    0  501    0  0.00000000000E+00  0.00000000000E+00  0.18811118828E+04  0.18811118828E+04  0.50400001928E-02 0. -1.
       -1   -1    0    0    0  501  0.00000000000E+00  0.00000000000E+00 -0.16142522379E+04  0.16142522379E+04  0.50400001928E-02 0.  1.
    10030    2    1    2    0    0  0.00000000000E+00  0.00000000000E+00  0.26685964483E+03  0.34953641207E+04  0.34851623013E+04 0.  0.
        2    1    3    3  502    0 -0.12186166956E+04  0.10625289319E+04  0.78540555568E+03  0.17974582801E+04  0.25500000920E-02 0. -1.
       -2    1    3    3    0  502  0.12186166956E+04 -0.10625289319E+04 -0.51854591085E+03  0.16979058406E+04  0.25500000920E-02 0.  1.
</event>
<event>
 5   0  0.3119048E-07  0.3499357E+04  0.7818609E-02  0.8113942E-01
       -2   -1    0    0    0  501  0.00000000000E+00  0.00000000000E+00  0.13317370700E+04  0.13317370700E+04  0.25500000920E-02 0. -1.
        2   -1    0    0  501    0  0.00000000000E+00  0.00000000000E+00 -0.22987834902E+04  0.22987834902E+04  0.25500000920E-02 0.  1.
    10030    2    1    2    0    0  0.00000000000E+00  0.00000000000E+00 -0.96704642024E+03  0.36305205602E+04  0.34993571923E+04 0.  0.
        3    1    3    3  502    0  0.32154323215E+03  0.23870467075E+03 -0.22505977930E+04  0.22859484697E+04  0.10100000352E+00 0.  1.
       -3    1    3    3    0  502 -0.32154323215E+03 -0.23870467075E+03  0.12835513728E+04  0.13445720905E+04  0.10100000352E+00 0. -1.
</event>
<event>
 5   0  0.2180451E-07  0.3494759E+04  0.7818609E-02  0.8115033E-01
       -2   -1    0    0    0  501  0.00000000000E+00  0.00000000000E+00  0.12252099212E+04  0.12252099212E+04  0.25500000920E-02 0.  1.
        2   -1    0    0  501    0  0.00000000000E+00  0.00000000000E+00 -0.24920918607E+04  0.24920918607E+04  0.25500000920E-02 0. -1.
    10030    2    1    2    0    0  0.00000000000E+00  0.00000000000E+00 -0.12668819395E+04  0.37173017820E+04  0.34947593178E+04 0.  0.
        4    1    3    3  502    0 -0.10380532502E+04 -0.87050040063E+03  0.54047150829E+03  0.14585734681E+04  0.12699999809E+01 0.  1.
       -4    1    3    3    0  502  0.10380532502E+04  0.87050040063E+03 -0.18073534478E+04  0.22587283139E+04  0.12699999809E+01 0. -1.
</event>
<event>
 5   0  0.3119048E-07  0.3518321E+04  0.7818609E-02  0.8109462E-01
       -2   -1    0    0    0  501  0.00000000000E+00  0.00000000000E+00  0.11744443108E+04  0.11744443108E+04  0.25500000920E-02 0.  1.
        2   -1    0    0  501    0  0.00000000000E+00  0.00000000000E+00 -0.26349873438E+04  0.26349873438E+04  0.25500000920E-02 0. -1.
    10030    2    1    2    0    0  0.00000000000E+00  0.00000000000E+00 -0.14605430330E+04  0.38094316546E+04  0.35183211308E+04 0.  0.
        3    1    3    3  502    0 -0.34674828648E+03 -0.15886038018E+04 -0.14572010652E+04  0.21834219400E+04  0.10100000352E+00 0. -1.
       -3    1    3    3    0  502  0.34674828648E+03  0.15886038018E+04 -0.33419677738E+01  0.16260097146E+04  0.10100000352E+00 0.  1.
</event>
<event>
 5   0  0.3190112E-07  0.3541464E+04  0.7818609E-02  0.8104033E-01
        2   -1    0    0  501    0  0.00000000000E+00  0.00000000000E+00  0.18805645134E+04  0.18805645134E+04  0.25500000920E-02 0.  1.
       -2   -1    0    0    0  501  0.00000000000E+00  0.00000000000E+00 -0.16673140466E+04  0.16673140466E+04  0.25500000920E-02 0. -1.
    10030    2    1    2    0    0  0.00000000000E+00  0.00000000000E+00  0.21325046673E+03  0.35478785600E+04  0.35414638943E+04 0.  0.
        5    1    3    3  502    0  0.70329329767E+03  0.12080448477E+04 -0.98230066878E+03  0.17084877847E+04  0.46999998093E+01 0. -1.
       -5    1    3    3    0  502 -0.70329329767E+03 -0.12080448477E+04  0.11955511355E+04  0.18393907753E+04  0.46999998093E+01 0.  1.
</event>
<event>
 5   0  0.3219205E-07  0.3491763E+04  0.7818609E-02  0.8115745E-01
       -2   -1    0    0    0  501  0.00000000000E+00  0.00000000000E+00  0.10339286826E+04  0.10339286826E+04  0.25500000920E-02 0. -1.
        2   -1    0    0  501    0  0.00000000000E+00  0.00000000000E+00 -0.29480785465E+04  0.29480785465E+04  0.25500000920E-02 0.  1.
    10030    2    1    2    0    0  0.00000000000E+00  0.00000000000E+00 -0.19141498639E+04  0.39820072290E+04  0.34917634328E+04 0.  0.
        2    1    3    3  502    0 -0.63195436644E+02  0.17412527566E+04 -0.83138162124E+03  0.19305828720E+04  0.25500000920E-02 0.  1.
       -2    1    3    3    0  502  0.63195436644E+02 -0.17412527566E+04 -0.10827682427E+04  0.20514243571E+04  0.25500000920E-02 0. -1.
</event>
<event>
 5   0  0.1013863E-07  0.3483262E+04  0.7818609E-02  0.8117768E-01
       -1   -1    0    0    0  501  0.00000000000E+00  0.00000000000E+00  0.16596004357E+04  0.16596004357E+04  0.50400001928E-02 0.  1.
        1   -1    0    0  501    0  0.00000000000E+00  0.00000000000E+00 -0.18277166581E+04  0.18277166581E+04  0.50400001928E-02 0. -1.
    10030    2    1    2    0    0  0.00000000000E+00  0.00000000000E+00 -0.16811622236E+03  0.34873170938E+04  0.34832624719E+04 0.  0.
        2    1    3    3  502    0  0.13470326954E+04 -0.70270004239E+03  0.76839936228E+03  0.17025633650E+04  0.25500000920E-02 0.  1.
       -2    1    3    3    0  502 -0.13470326954E+04  0.70270004239E+03 -0.93651558464E+03  0.17847537287E+04  0.25500000920E-02 0. -1.
</event>
<event>
 5   0  0.1013863E-07  0.3544554E+04  0.7818609E-02  0.8103312E-01
        1   -1    0    0  501    0  0.00000000000E+00  0.00000000000E+00  0.17527759842E+04  0.17527759842E+04  0.50400001928E-02 0.  1.
       -1   -1    0    0    0  501  0.00000000000E+00  0.00000000000E+00 -0.17919951480E+04  0.17919951480E+04  0.50400001928E-02 0. -1.
    10030    2    1    2    0    0  0.00000000000E+00  0.00000000000E+00 -0.39219163786E+02  0.35447711322E+04  0.35445541662E+04 0.  0.
        2    1    3    3  502    0  0.12637079829E+03  0.13680048768E+04 -0.11393026674E+04  0.17847737923E+04  0.25500000920E-02 0. -1.
       -2    1    3    3    0  502 -0.12637079829E+03 -0.13680048768E+04  0.11000835036E+04  0.17599973399E+04  0.25500000920E-02 0.  1.
</event>
<event>
 5   0  0.2180451E-07  0.3505777E+04  0.7818609E-02  0.8112422E-01
        2   -1    0    0  501    0  0.00000000000E+00  0.00000000000E+00  0.16476700669E+04  0.16476700669E+04  0.25500000920E-02 0.  1.
       -2   -1    0    0    0  501  0.00000000000E+00  0.00000000000E+00 -0.18648263949E+04  0.18648263949E+04  0.25500000920E-02 0. -1.
    10030    2    1    2    0    0  0.00000000000E+00  0.00000000000E+00 -0.21715632807E+03  0.35124964618E+04  0.35057773066E+04 0.  0.
        4    1    3    3  502    0  0.16609004577E+04 -0.46412036104E+03 -0.42321663213E+03  0.17757004169E+04  0.12699999809E+01 0.  1.
       -4    1    3    3    0  502 -0.16609004577E+04  0.46412036104E+03  0.20606030406E+03  0.17367960449E+04  0.12699999809E+01 0. -1.
</event>
<event>
 5   0  0.1033796E-07  0.3503292E+04  0.7818609E-02  0.8113010E-01
        1   -1    0    0  501    0  0.00000000000E+00  0.00000000000E+00  0.17112151622E+04  0.17112151622E+04  0.50400001928E-02 0.  1.
       -1   -1    0    0    0  501  0.00000000000E+00  0.00000000000E+00 -0.17930317940E+04  0.17930317940E+04  0.50400001928E-02 0. -1.
    10030    2    1    2    0    0  0.00000000000E+00  0.00000000000E+00 -0.81816631832E+02  0.35042469562E+04  0.35032917048E+04 0.  0.
        3    1    3    3  502    0 -0.11251384622E+04  0.12773661581E+04  0.37231729264E+03  0.17424755486E+04  0.10100000352E+00 0.  1.
       -3    1    3    3    0  502  0.11251384622E+04 -0.12773661581E+04 -0.45413392447E+03  0.17617714076E+04  0.10100000352E+00 0. -1.
</event>
<event>
 5   0  0.3190112E-07  0.3526740E+04  0.7818609E-02  0.8107482E-01
       -2   -1    0    0    0  501  0.00000000000E+00  0.00000000000E+00  0.11708205902E+04  0.11708205902E+04  0.25500000920E-02 0. -1.
        2   -1    0    0  501    0  0.00000000000E+00  0.00000000000E+00 -0.26558073377E+04  0.26558073377E+04  0.25500000920E-02 0.  1.
    10030    2    1    2    0    0  0.00000000000E+00  0.00000000000E+00 -0.14849867475E+04  0.38266279279E+04  0.35267400894E+04 0.  0.
        5    1    3    3  502    0  0.72930141884E+03 -0.82542954327E+03  0.75163918185E+03  0.13334909224E+04  0.46999998093E+01 0. -1.
       -5    1    3    3    0  502 -0.72930141884E+03  0.82542954327E+03 -0.22366259294E+04  0.24931370055E+04  0.46999998093E+01 0.  1.
</event>
<event>
 5   0  0.3190185E-07  0.3495207E+04  0.7818609E-02  0.8114927E-01
        2   -1    0    0  501    0  0.00000000000E+00  0.00000000000E+00  0.13242690399E+04  0.13242690399E+04  0.25500000920E-02 0. -1.
       -2   -1    0    0    0  501  0.00000000000E+00  0.00000000000E+00 -0.23062665296E+04  0.23062665296E+04  0.25500000920E-02 0.  1.
    10030    2    1    2    0    0  0.00000000000E+00  0.00000000000E+00 -0.98199748964E+03  0.36305355695E+04  0.34952066393E+04 0.  0.
        1    1    3    3  502    0  0.18405001037E+03 -0.89877777952E+03  0.10540199312E+04  0.13973667803E+04  0.50400001928E-02 0. -1.
       -1    1    3    3    0  502 -0.18405001037E+03  0.89877777952E+03 -0.20360174208E+04  0.22331687892E+04  0.50400001928E-02 0.  1.
</event>
<event>
 5   0  0.3119048E-07  0.3508546E+04  0.7818609E-02  0.8111768E-01
       -2   -1    0    0    0  501  0.00000000000E+00  0.00000000000E+00  0.22015211825E+04  0.22015211825E+04  0.25500000920E-02 0. -1.
        2   -1    0    0  501    0  0.00000000000E+00  0.00000000000E+00 -0.13978848597E+04  0.13978848597E+04  0.25500000920E-02 0.  1.
    10030    2    1    2    0    0  0.00000000000E+00  0.00000000000E+00  0.80363632284E+03  0.35994060422E+04  0.35085456413E+04 0.  0.
        3    1    3    3  502    0  0.97790616997E+01 -0.15240223590E+04  0.12930700805E+04  0.19986920783E+04  0.10100000352E+00 0.  1.
       -3    1    3    3    0  502 -0.97790616997E+01  0.15240223590E+04 -0.48943375762E+03  0.16007139639E+04  0.10100000352E+00 0. -1.
</event>
<event>
 5   0  0.2180451E-07  0.3501861E+04  0.7818609E-02  0.8113349E-01
       -2   -1    0    0    0  501  0.00000000000E+00  0.00000000000E+00  0.11609107765E+04  0.11609107765E+04  0.25500000920E-02 0.  1.
        2   -1    0    0  501    0  0.00000000000E+00  0.00000000000E+00 -0.26408206075E+04  0.26408206076E+04  0.25500000920E-02 0. -1.
    10030    2    1    2    0    0  0.00000000000E+00  0.00000000000E+00 -0.14799098311E+04  0.38017313840E+04  0.35018607065E+04 0.  0.
        4    1    3    3  502    0  0.29356436583E+03 -0.66949598748E+02  0.11325926090E+04  0.11719342629E+04  0.12699999809E+01 0.  1.
       -4    1    3    3    0  502 -0.29356436583E+03  0.66949598748E+02 -0.26125024401E+04  0.26297971211E+04  0.12699999809E+01 0. -1.
</event>
<event>
 5   0  0.1072381E-07  0.3496085E+04  0.7818609E-02  0.8114718E-01
        1   -1    0    0  501    0  0.00000000000E+00  0.00000000000E+00  0.13824755530E+04  0.13824755530E+04  0.50400001928E-02 0. -1.
       -1   -1    0    0    0  501  0.00000000000E+00  0.00000000000E+00 -0.22102755670E+04  0.22102755670E+04  0.50400001928E-02 0.  1.
    10030    2    1    2    0    0  0.00000000000E+00  0.00000000000E+00 -0.82780001398E+03  0.35927511200E+04  0.34960846310E+04 0.  0.
        1    1    3    3  502    0  0.10121349085E+03  0.26848450330E+03  0.13581105403E+04  0.13880894564E+04  0.50400001928E-02 0. -1.
       -1    1    3    3    0  502 -0.10121349085E+03 -0.26848450330E+03 -0.21859105543E+04  0.22046616636E+04  0.50400001928E-02 0.  1.
</event>
<event>
 5   0  0.2180451E-07  0.3491830E+04  0.7818609E-02  0.8115729E-01
        2   -1    0    0  501    0  0.00000000000E+00  0.00000000000E+00  0.17594120347E+04  0.17594120347E+04  0.25500000920E-02 0.  1.
       -2   -1    0    0    0  501  0.00000000000E+00  0.00000000000E+00 -0.17325215289E+04  0.17325215289E+04  0.25500000920E-02 0. -1.
    10030    2    1    2    0    0  0.00000000000E+00  0.00000000000E+00  0.26890505891E+02  0.34919335636E+04  0.34918300235E+04 0.  0.
        4    1    3    3  502    0 -0.13101193241E+04  0.68674564916E+03  0.94093455134E+03  0.17531091446E+04  0.12699999809E+01 0.  1.
       -4    1    3    3    0  502  0.13101193241E+04 -0.68674564916E+03 -0.91404404545E+03  0.17388244190E+04  0.12699999809E+01 0. -1.
</event>
<event>
 5   0  0.1072381E-07  0.3522079E+04  0.7818609E-02  0.8108577E-01
       -1   -1    0    0    0  501  0.00000000000E+00  0.00000000000E+00  0.17070788652E+04  0.17070788652E+04  0.50400001928E-02 0. -1.
        1   -1    0    0  501    0  0.00000000000E+00  0.00000000000E+00 -0.18167053557E+04  0.18167053557E+04  0.50400001928E-02 0.  1.
    10030    2    1    2    0    0  0.00000000000E+00  0.00000000000E+00 -0.10962649047E+03  0.35237842210E+04  0.35220785438E+04 0.  0.
        1    1    3    3  502    0  0.41679058260E+03  0.57348728788E+03  0.15580025627E+04  0.17117166952E+04  0.50400001928E-02 0. -1.
       -1    1    3    3    0  502 -0.41679058260E+03 -0.57348728788E+03 -0.16676290532E+04  0.18120675258E+04  0.50400001928E-02 0.  1.
</event>
<event>
 5   0  0.3119048E-07  0.3480543E+04  0.7818609E-02  0.8118417E-01
        2   -1    0    0  501    0  0.00000000000E+00  0.00000000000E+00  0.15988918912E+04  0.15988918912E+04  0.25500000920E-02 0.  1.
       -2   -1    0    0    0  501  0.00000000000E+00  0.00000000000E+00 -0.18941521860E+04  0.18941521860E+04  0.25500000920E-02 0. -1.
    10030    2    1    2    0    0  0.00000000000E+00  0.00000000000E+00 -0.29526029476E+03  0.34930440772E+04  0.34805428145E+04 0.  0.
        3    1    3    3  502    0 -0.92547337242E+03  0.12234689740E+04 -0.97226706767E+03  0.18162270107E+04  0.10100000352E+00 0. -1.
       -3    1    3    3    0  502  0.92547337242E+03 -0.12234689740E+04  0.67700677290E+03  0.16768170664E+04  0.10100000352E+00 0.  1.
</event>
<event>
 5   0  0.3119048E-07  0.3499860E+04  0.7818609E-02  0.8113823E-01
        2   -1    0    0  501    0  0.00000000000E+00  0.00000000000E+00  0.14246531701E+04  0.14246531701E+04  0.25500000920E-02 0. -1.
       -2   -1    0    0    0  501  0.00000000000E+00  0.00000000000E+00 -0.21494746507E+04  0.21494746507E+04  0.25500000920E-02 0.  1.
    10030    2    1    2    0    0  0.00000000000E+00  0.00000000000E+00 -0.72482148058E+03  0.35741278208E+04  0.34998604973E+04 0.  0.
        3    1    3    3  502    0 -0.47671319216E+03  0.14535050653E+04  0.50552024895E+03  0.16110503328E+04  0.10100000352E+00 0. -1.
       -3    1    3    3    0  502  0.47671319216E+03 -0.14535050653E+04 -0.12303417295E+04  0.19630774880E+04  0.10100000352E+00 0.  1.
</event>
<event>
 5   0  0.1098171E-07  0.3510442E+04  0.7818609E-02  0.8111320E-01
       -1   -1    0    0    0  501  0.00000000000E+00  0.00000000000E+00  0.11467631666E+04  0.11467631666E+04  0.50400001928E-02 0.  1.
        1   -1    0    0  501    0  0.00000000000E+00  0.00000000000E+00 -0.26865185009E+04  0.26865185009E+04  0.50400001928E-02 0. -1.
    10030    2    1    2    0    0  0.00000000000E+00  0.00000000000E+00 -0.15397553343E+04  0.38332816676E+04  0.35104418317E+04 0.  0.
        4    1    3    3  502    0 -0.94031200329E+03 -0.11288206592E+03 -0.23835759057E+04  0.25648323016E+04  0.12699999809E+01 0. -1.
       -4    1    3    3    0  502  0.94031200329E+03  0.11288206592E+03  0.84382057141E+03  0.12684493659E+04  0.12699999809E+01 0.  1.
</event>
<event>
 5   0  0.1072381E-07  0.3365147E+04  0.7818609E-02  0.8146514E-01
       -1   -1    0    0    0  501  0.00000000000E+00  0.00000000000E+00  0.15729270372E+04  0.15729270372E+04  0.50400001928E-02 0.  1.
        1   -1    0    0  501    0  0.00000000000E+00  0.00000000000E+00 -0.17998632069E+04  0.17998632070E+04  0.50400001928E-02 0. -1.
    10030    2    1    2    0    0  0.00000000000E+00  0.00000000000E+00 -0.22693616971E+03  0.33727902442E+04  0.33651469516E+04 0.  0.
        1    1    3    3  502    0 -0.47234339351E+03  0.44801804563E+03 -0.16685155372E+04  0.17910255577E+04  0.50400001928E-02 0. -1.
       -1    1    3    3    0  502  0.47234339351E+03 -0.44801804563E+03  0.14415793675E+04  0.15817646865E+04  0.50400001928E-02 0.  1.
</event>
<event>
 5   0  0.3190185E-07  0.3501132E+04  0.7818609E-02  0.8113522E-01
        2   -1    0    0  501    0  0.00000000000E+00  0.00000000000E+00  0.23014622233E+04  0.23014622233E+04  0.25500000920E-02 0.  1.
       -2   -1    0    0    0  501  0.00000000000E+00  0.00000000000E+00 -0.13315368724E+04  0.13315368724E+04  0.25500000920E-02 0. -1.
    10030    2    1    2    0    0  0.00000000000E+00  0.00000000000E+00  0.96992535092E+03  0.36329990956E+04  0.35011322801E+04 0.  0.
        1    1    3    3  502    0 -0.44851025752E+03  0.14368087671E+04  0.14124398546E+04  0.20641141507E+04  0.50400001928E-02 0.  1.
       -1    1    3    3    0  502  0.44851025752E+03 -0.14368087671E+04 -0.44251450366E+03  0.15688849449E+04  0.50400001928E-02 0. -1.
</event>
<event>
 5   0  0.1013863E-07  0.3474968E+04  0.7818609E-02  0.8119748E-01
        1   -1    0    0  501    0  0.00000000000E+00  0.00000000000E+00  0.18359653801E+04  0.18359653801E+04  0.50400001928E-02 0.  1.
       -1   -1    0    0    0  501  0.00000000000E+00  0.00000000000E+00 -0.16442853475E+04  0.16442853476E+04  0.50400001928E-02 0. -1.
    10030    2    1    2    0    0  0.00000000000E+00  0.00000000000E+00  0.19168003256E+03  0.34802507277E+04  0.34749681858E+04 0.  0.
        2    1    3    3  502    0 -0.14422799758E+04 -0.49352509059E+03  0.93084146161E+03  0.17861143217E+04  0.25500000920E-02 0.  1.
       -2    1    3    3    0  502  0.14422799758E+04  0.49352509059E+03 -0.73916142905E+03  0.16941364059E+04  0.25500000920E-02 0. -1.
</event>
<event>
 5   0  0.3119048E-07  0.3503115E+04  0.7818609E-02  0.8113052E-01
        2   -1    0    0  501    0  0.00000000000E+00  0.00000000000E+00  0.13605131117E+04  0.13605131117E+04  0.25500000920E-02 0.  1.
       -2   -1    0    0    0  501  0.00000000000E+00  0.00000000000E+00 -0.22549972474E+04  0.22549972474E+04  0.25500000920E-02 0. -1.
    10030    2    1    2    0    0  0.00000000000E+00  0.00000000000E+00 -0.89448413576E+03  0.36155103591E+04  0.35031147980E+04 0.  0.
        3    1    3    3  502    0  0.67025039006E+03 -0.14252072748E+04 -0.12383211428E+04  0.20034696465E+04  0.10100000352E+00 0. -1.
       -3    1    3    3    0  502 -0.67025039006E+03  0.14252072748E+04  0.34383700701E+03  0.16120407126E+04  0.10100000352E+00 0.  1.
</event>
<event>
 5   0  0.1013863E-07  0.3531070E+04  0.7818609E-02  0.8106466E-01
       -1   -1    0    0    0  501  0.00000000000E+00  0.00000000000E+00  0.12205030030E+04  0.12205030030E+04  0.50400001928E-02 0.  1.
        1   -1    0    0  501    0  0.00000000000E+00  0.00000000000E+00 -0.25539580023E+04  0.25539580023E+04  0.50400001928E-02 0. -1.
    10030    2    1    2    0    0  0.00000000000E+00  0.00000000000E+00 -0.13334549993E+04  0.37744610054E+04  0.35310697594E+04 0.  0.
        2    1    3    3  502    0 -0.77009151409E+03  0.98425830530E+03 -0.19998094762E+04  0.23581864414E+04  0.25500000920E-02 0. -1.
       -2    1    3    3    0  502  0.77009151409E+03 -0.98425830530E+03  0.66635447687E+03  0.14162745639E+04  0.25500000920E-02 0.  1.
</event>
<event>
 5   0  0.1013863E-07  0.3504010E+04  0.7818609E-02  0.8112840E-01
       -1   -1    0    0    0  501  0.00000000000E+00  0.00000000000E+00  0.28536440130E+04  0.28536440130E+04  0.50400001928E-02 0. -1.
        1   -1    0    0  501    0  0.00000000000E+00  0.00000000000E+00 -0.10756496067E+04  0.10756496067E+04  0.50400001928E-02 0.  1.
    10030    2    1    2    0    0  0.00000000000E+00  0.00000000000E+00  0.17779944063E+04  0.39292936197E+04  0.35040097375E+04 0.  0.
        5    1    3    3  502    0  0.98711394954E+03  0.11137850982E+04 -0.14764173276E+03  0.14955705819E+04  0.46999998093E+01 0. -1.
       -5    1    3    3    0  502 -0.98711394954E+03 -0.11137850982E+04  0.19256361391E+04  0.24337230378E+04  0.46999998093E+01 0.  1.
</event>
<event>
 5   0  0.1072381E-07  0.3506194E+04  0.7818609E-02  0.8112324E-01
        1   -1    0    0  501    0  0.00000000000E+00  0.00000000000E+00  0.26256056586E+04  0.26256056586E+04  0.50400001928E-02 0.  1.
       -1   -1    0    0    0  501  0.00000000000E+00  0.00000000000E+00 -0.11705296440E+04  0.11705296440E+04  0.50400001928E-02 0. -1.
    10030    2    1    2    0    0  0.00000000000E+00  0.00000000000E+00  0.14550760146E+04  0.37961353025E+04  0.35061940943E+04 0.  0.
        1    1    3    3  502    0  0.79895720332E+03  0.42921630864E+03 -0.89678807603E+03  0.12754560383E+04  0.50400001928E-02 0. -1.
       -1    1    3    3    0  502 -0.79895720332E+03 -0.42921630864E+03  0.23518640906E+04  0.25206792642E+04  0.50400001928E-02 0.  1.
</event>
<event>
 5   0  0.3190112E-07  0.3518809E+04  0.7818609E-02  0.8109347E-01
        2   -1    0    0  501    0  0.00000000000E+00  0.00000000000E+00  0.12133869172E+04  0.12133869172E+04  0.25500000920E-02 0. -1.
       -2   -1    0    0    0  501  0.00000000000E+00  0.00000000000E+00 -0.25511265135E+04  0.25511265135E+04  0.25500000920E-02 0.  1.
    10030    2    1    2    0    0  0.00000000000E+00  0.00000000000E+00 -0.13377395964E+04  0.37645134307E+04  0.35188086254E+04 0.  0.
        5    1    3    3  502    0 -0.11396780025E+04  0.11562339259E+04  0.56515400880E+02  0.16244872795E+04  0.46999998093E+01 0. -1.
       -5    1    3    3    0  502  0.11396780025E+04 -0.11562339259E+04 -0.13942549972E+04  0.21400261512E+04  0.46999998093E+01 0.  1.
</event>
<event>
 5   0  0.1013863E-07  0.3488725E+04  0.7818609E-02  0.8116467E-01
        1   -1    0    0  501    0  0.00000000000E+00  0.00000000000E+00  0.20434962745E+04  0.20434962745E+04  0.50400001928E-02 0.  1.
       -1   -1    0    0    0  501  0.00000000000E+00  0.00000000000E+00 -0.14890166109E+04  0.14890166109E+04  0.50400001928E-02 0. -1.
    10030    2    1    2    0    0  0.00000000000E+00  0.00000000000E+00  0.55447966358E+03  0.35325128855E+04  0.34887246364E+04 0.  0.
        2    1    3    3  502    0  0.11430892317E+03 -0.11723407180E+04  0.15799927627E+04  0.19707426061E+04  0.25500000920E-02 0.  1.
       -2    1    3    3    0  502 -0.11430892317E+03  0.11723407180E+04 -0.10255130992E+04  0.15617702794E+04  0.25500000920E-02 0. -1.
</event>
<event>
 5   0  0.1033796E-07  0.3495939E+04  0.7818609E-02  0.8114753E-01
        1   -1    0    0  501    0  0.00000000000E+00  0.00000000000E+00  0.18855396764E+04  0.18855396764E+04  0.50400001928E-02 0. -1.
       -1   -1    0    0    0  501  0.00000000000E+00  0.00000000000E+00 -0.16204360910E+04  0.16204360910E+04  0.50400001928E-02 0.  1.
    10030    2    1    2    0    0  0.00000000000E+00  0.00000000000E+00  0.26510358537E+03  0.35059757674E+04  0.34959385250E+04 0.  0.
        3    1    3    3  502    0 -0.57754660968E+03  0.14073304067E+04 -0.73088329744E+03  0.16876994296E+04  0.10100000352E+00 0.  1.
       -3    1    3    3    0  502  0.57754660968E+03 -0.14073304067E+04  0.99598688280E+03  0.18182763378E+04  0.10100000352E+00 0. -1.
</event>
<event>
 5   0  0.3119048E-07  0.3495880E+04  0.7818609E-02  0.8114767E-01
        2   -1    0    0  501    0  0.00000000000E+00  0.00000000000E+00  0.24405541870E+04  0.24405541870E+04  0.25500000920E-02 0. -1.
       -2   -1    0    0    0  501  0.00000000000E+00  0.00000000000E+00 -0.12518856129E+04  0.12518856129E+04  0.25500000920E-02 0.  1.
    10030    2    1    2    0    0  0.00000000000E+00  0.00000000000E+00  0.11886685741E+04  0.36924397999E+04  0.34958802464E+04 0.  0.
        3    1    3    3  502    0 -0.15603465870E+03  0.16278044108E+03  0.24251279227E+04  0.24355881709E+04  0.10100000352E+00 0. -1.
       -3    1    3    3    0  502  0.15603465870E+03 -0.16278044108E+03 -0.12364593485E+04  0.12568516291E+04  0.10100000352E+00 0.  1.
</event>
<event>
 5   0  0.3190112E-07  0.3494511E+04  0.7818609E-02  0.8115092E-01
        2   -1    0    0  501    0  0.00000000000E+00  0.00000000000E+00  0.11843164631E+04  0.11843164631E+04  0.25500000920E-02 0.  1.
       -2   -1    0    0    0  501  0.00000000000E+00  0.00000000000E+00 -0.25777748210E+04  0.25777748210E+04  0.25500000920E-02 0. -1.
    10030    2    1    2    0    0  0.00000000000E+00  0.00000000000E+00 -0.13934583579E+04  0.37620912842E+04  0.34945106432E+04 0.  0.
        5    1    3    3  502    0 -0.66582455392E+03 -0.15351873870E+04 -0.15548397813E+03  0.16805713336E+04  0.46999998093E+01 0.  1.
       -5    1    3    3    0  502  0.66582455392E+03  0.15351873870E+04 -0.12379743798E+04  0.20815199506E+04  0.46999998093E+01 0. -1.
</event>
<event>
 5   0  0.3190185E-07  0.3488908E+04  0.7818609E-02  0.8116424E-01
       -2   -1    0    0    0  501  0.00000000000E+00  0.00000000000E+00  0.15399177627E+04  0.15399177627E+04  0.25500000920E-02 0.  1.
        2   -1    0    0  501    0  0.00000000000E+00  0.00000000000E+00 -0.19761576004E+04  0.19761576004E+04  0.25500000920E-02 0. -1.
    10030    2    1    2    0    0  0.00000000000E+00  0.00000000000E+00 -0.43623983778E+03  0.35160753631E+04  0.34889082480E+04 0.  0.
        1    1    3    3  502    0 -0.86063306264E+03 -0.10372151366E+04  0.89803090238E+03  0.16195567325E+04  0.50400001928E-02 0.  1.
       -1    1    3    3    0  502  0.86063306264E+03  0.10372151366E+04 -0.13342707402E+04  0.18965186306E+04  0.50400001928E-02 0. -1.
</event>
<event>
 5   0  0.1098171E-07  0.3503873E+04  0.7818609E-02  0.8112873E-01
        1   -1    0    0  501    0  0.00000000000E+00  0.00000000000E+00  0.16663764479E+04  0.16663764479E+04  0.50400001928E-02 0. -1.
       -1   -1    0    0    0  501  0.00000000000E+00  0.00000000000E+00 -0.18418901229E+04  0.18418901229E+04  0.50400001928E-02 0.  1.
    10030    2    1    2    0    0  0.00000000000E+00  0.00000000000E+00 -0.17551367495E+03  0.35082665708E+04  0.35038734683E+04 0.  0.
        4    1    3    3  502    0 -0.14774414124E+04 -0.38728031304E+02  0.85413921768E+03  0.17070115417E+04  0.12699999809E+01 0. -1.
       -4    1    3    3    0  502  0.14774414124E+04  0.38728031304E+02 -0.10296528926E+04  0.18012550291E+04  0.12699999809E+01 0.  1.
</event>
<event>
 5   0  0.1033796E-07  0.3506361E+04  0.7818609E-02  0.8112284E-01
       -1   -1    0    0    0  501  0.00000000000E+00  0.00000000000E+00  0.15065603111E+04  0.15065603111E+04  0.50400001928E-02 0.  1.
        1   -1    0    0  501    0  0.00000000000E+00  0.00000000000E+00 -0.20401722707E+04  0.20401722707E+04  0.50400001928E-02 0. -1.
    10030    2    1    2    0    0  0.00000000000E+00  0.00000000000E+00 -0.53361195962E+03  0.35467325818E+04  0.35063614023E+04 0.  0.
        3    1    3    3  502    0 -0.69598725480E+03  0.82488789211E+03  0.11306961106E+04  0.15631097204E+04  0.10100000352E+00 0.  1.
       -3    1    3    3    0  502  0.69598725480E+03 -0.82488789211E+03 -0.16643080702E+04  0.19836228614E+04  0.10100000352E+00 0. -1.
</event>
<event>
 5   0  0.1072381E-07  0.3512869E+04  0.7818609E-02  0.8110747E-01
       -1   -1    0    0    0  501  0.00000000000E+00  0.00000000000E+00  0.21248373589E+04  0.21248373589E+04  0.50400001928E-02 0. -1.
        1   -1    0    0  501    0  0.00000000000E+00  0.00000000000E+00 -0.14519047852E+04  0.14519047852E+04  0.50400001928E-02 0.  1.
    10030    2    1    2    0    0  0.00000000000E+00  0.00000000000E+00  0.67293257368E+03  0.35767421441E+04  0.35128686449E+04 0.  0.
        1    1    3    3  502    0  0.17550417034E+04 -0.42226448936E+01  0.26539510827E+03  0.17749996549E+04  0.50400001928E-02 0.  1.
       -1    1    3    3    0  502 -0.17550417034E+04  0.42226448936E+01  0.40753746541E+03  0.18017424892E+04  0.50400001928E-02 0. -1.
</event>
<event>
 5   0  0.3219205E-07  0.3504453E+04  0.7818609E-02  0.8112735E-01
        2   -1    0    0  501    0  0.00000000000E+00  0.00000000000E+00  0.29871632945E+04  0.29871632945E+04  0.25500000920E-02 0. -1.
       -2   -1    0    0    0  501  0.00000000000E+00  0.00000000000E+00 -0.10278305082E+04  0.10278305082E+04  0.25500000920E-02 0.  1.
    10030    2    1    2    0    0  0.00000000000E+00  0.00000000000E+00  0.19593327863E+04  0.40149938027E+04  0.35044529200E+04 0.  0.
        2    1    3    3  502    0  0.18098666988E+03  0.15209424560E+04  0.19546931370E+04  0.24833137919E+04  0.25500000920E-02 0. -1.
       -2    1    3    3    0  502 -0.18098666988E+03 -0.15209424560E+04  0.46396492736E+01  0.15316800108E+04  0.25500000920E-02 0.  1.
</event>
<event>
 5   0  0.1072381E-07  0.3469607E+04  0.7818609E-02  0.8121031E-01
       -1   -1    0    0    0  501  0.00000000000E+00  0.00000000000E+00  0.11678067250E+04  0.11678067250E+04  0.50400001928E-02 0. -1.
        1   -1    0    0  501    0  0.00000000000E+00  0.00000000000E+00 -0.25770907694E+04  0.25770907694E+04  0.50400001928E-02 0.  1.
    10030    2    1    2    0    0  0.00000000000E+00  0.00000000000E+00 -0.14092840445E+04  0.37448974944E+04  0.34696074310E+04 0.  0.
        1    1    3    3  502    0 -0.44694274587E+03 -0.16360773360E+04 -0.31095969332E+03  0.17242977696E+04  0.50400001928E-02 0. -1.
       -1    1    3    3    0  502  0.44694274587E+03  0.16360773360E+04 -0.10983243511E+04  0.20205997248E+04  0.50400001928E-02 0.  1.
</event>
<event>
 5   0  0.3190112E-07  0.3501969E+04  0.7818609E-02  0.8113323E-01
        2   -1    0    0  501    0  0.00000000000E+00  0.00000000000E+00  0.21403489015E+04  0.21403489015E+04  0.25500000920E-02 0. -1.
       -2   -1    0    0    0  501  0.00000000000E+00  0.00000000000E+00 -0.14324520851E+04  0.14324520851E+04  0.25500000920E-02 0.  1.
    10030    2    1    2    0    0  0.00000000000E+00  0.00000000000E+00  0.70789681638E+03  0.35728009866E+04  0.35019693013E+04 0.  0.
        5    1    3    3  502    0  0.17467097223E+04  0.66387953896E+02  0.24929217699E+03  0.17656644341E+04  0.46999998093E+01 0.  1.
       -5    1    3    3    0  502 -0.17467097223E+04 -0.66387953896E+02  0.45860463939E+03  0.18071365525E+04  0.46999998093E+01 0. -1.
</event>
<event>
 5   0  0.1098171E-07  0.3481871E+04  0.7818609E-02  0.8118100E-01
        1   -1    0    0  501    0  0.00000000000E+00  0.00000000000E+00  0.25266149254E+04  0.25266149254E+04  0.50400001928E-02 0.  1.
       -1   -1    0    0    0  501  0.00000000000E+00  0.00000000000E+00 -0.11995720185E+04  0.11995720185E+04  0.50400001928E-02 0. -1.
    10030    2    1    2    0    0  0.00000000000E+00  0.00000000000E+00  0.13270429069E+04  0.37261869439E+04  0.34818710867E+04 0.  0.
        4    1    3    3  502    0 -0.15347292134E+03 -0.37745540994E+03 -0.11478238984E+04  0.12180015758E+04  0.12699999809E+01 0. -1.
       -4    1    3    3    0  502  0.15347292134E+03  0.37745540994E+03  0.24748668053E+04  0.25081853681E+04  0.12699999809E+01 0.  1.
</event>
<event>
 5   0  0.3190185E-07  0.3492069E+04  0.7818609E-02  0.8115672E-01
        2   -1    0    0  501    0  0.00000000000E+00  0.00000000000E+00  0.16949614757E+04  0.16949614757E+04  0.25500000920E-02 0.  1.
       -2   -1    0    0    0  501  0.00000000000E+00  0.00000000000E+00 -0.17986459704E+04  0.17986459704E+04  0.25500000920E-02 0. -1.
    10030    2    1    2    0    0  0.00000000000E+00  0.00000000000E+00 -0.10368449471E+03  0.34936074461E+04  0.34920685149E+04 0.  0.
        1    1    3    3  502    0  0.10348849810E+04  0.19144065393E+03 -0.14456536865E+04  0.17881697428E+04  0.50400001928E-02 0. -1.
       -1    1    3    3    0  502 -0.10348849810E+04 -0.19144065393E+03  0.13419691918E+04  0.17054377032E+04  0.50400001928E-02 0.  1.
</event>
<event>
 5   0  0.3190185E-07  0.3506584E+04  0.7818609E-02  0.8112231E-01
        2   -1    0    0  501    0  0.00000000000E+00  0.00000000000E+00  0.17524306228E+04  0.17524306228E+04  0.25500000920E-02 0. -1.
       -2   -1    0    0    0  501  0.00000000000E+00  0.00000000000E+00 -0.17541540415E+04  0.17541540415E+04  0.25500000920E-02 0.  1.
    10030    2    1    2    0    0  0.00000000000E+00  0.00000000000E+00 -0.17234187027E+01  0.35065846643E+04  0.35065842408E+04 0.  0.
        1    1    3    3  502    0 -0.42973309589E+03  0.99937808331E+02 -0.16977340840E+04  0.17541263122E+04  0.50400001928E-02 0.  1.
       -1    1    3    3    0  502  0.42973309589E+03 -0.99937808331E+02  0.16960106653E+04  0.17524583521E+04  0.50400001928E-02 0. -1.
</event>
<event>
 5   0  0.3190112E-07  0.3547404E+04  0.7818609E-02  0.8102647E-01
       -2   -1    0    0    0  501  0.00000000000E+00  0.00000000000E+00  0.23512220534E+04  0.23512220534E+04  0.25500000920E-02 0.  1.
        2   -1    0    0  501    0  0.00000000000E+00  0.00000000000E+00 -0.13380356959E+04  0.13380356959E+04  0.25500000920E-02 0. -1.
    10030    2    1    2    0    0  0.00000000000E+00  0.00000000000E+00  0.10131863575E+04  0.36892577493E+04  0.35474041419E+04 0.  0.
        5    1    3    3  502    0  0.17480017428E+04  0.10930184021E+03  0.21513672890E+03  0.17645857552E+04  0.46999998093E+01 0. -1.
       -5    1    3    3    0  502 -0.17480017428E+04 -0.10930184021E+03  0.79804962863E+03  0.19246719941E+04  0.46999998093E+01 0.  1.
</event>
<event>
 5   0  0.1013863E-07  0.3352480E+04  0.7818609E-02  0.8149669E-01
       -1   -1    0    0    0  501  0.00000000000E+00  0.00000000000E+00  0.10829343104E+04  0.10829343104E+04  0.50400001928E-02 0. -1.
        1   -1    0    0  501    0  0.00000000000E+00  0.00000000000E+00 -0.25945995463E+04  0.25945995463E+04  0.50400001928E-02 0.  1.
    10030    2    1    2    0    0  0.00000000000E+00  0.00000000000E+00 -0.15116652359E+04  0.36775338568E+04  0.33524801986E+04 0.  0.
        5    1    3    3  502    0 -0.14184126463E+03 -0.59654405904E+03  0.95548520365E+03  0.11353227837E+04  0.46999998093E+01 0. -1.
       -5    1    3    3    0  502  0.14184126463E+03  0.59654405904E+03 -0.24671504396E+04  0.25422110731E+04  0.46999998093E+01 0.  1.
</event>
<event>
 5   0  0.1013863E-07  0.3499587E+04  0.7818609E-02  0.8113888E-01
        1   -1    0    0  501    0  0.00000000000E+00  0.00000000000E+00  0.26372194064E+04  0.26372194064E+04  0.50400001928E-02 0. -1.
       -1   -1    0    0    0  501  0.00000000000E+00  0.00000000000E+00 -0.11609868588E+04  0.11609868588E+04  0.50400001928E-02 0.  1.
    10030    2    1    2    0    0  0.00000000000E+00  0.00000000000E+00  0.14762325476E+04  0.37982062653E+04  0.34995868755E+04 0.  0.
        5    1    3    3  502    0  0.10109284329E+04 -0.14081160810E+04  0.47902506495E+03  0.17984032631E+04  0.46999998093E+01 0. -1.
       -5    1    3    3    0  502 -0.10109284329E+04  0.14081160810E+04  0.99720748266E+03  0.19998030021E+04  0.46999998093E+01 0.  1.
</event>
<event>
 5   0  0.3190112E-07  0.3496580E+04  0.7818609E-02  0.8114601E-01
       -2   -1    0    0    0  501  0.00000000000E+00  0.00000000000E+00  0.12518706869E+04  0.12518706869E+04  0.25500000920E-02 0.  1.
        2   -1    0    0  501    0  0.00000000000E+00  0.00000000000E+00 -0.24415601975E+04  0.24415601975E+04  0.25500000920E-02 0. -1.
    10030    2    1    2    0    0  0.00000000000E+00  0.00000000000E+00 -0.11896895106E+04  0.36934308845E+04  0.34965798385E+04 0.  0.
        5    1    3    3  502    0 -0.29649693453E+03  0.18563505961E+03  0.12145186997E+04  0.12639021203E+04  0.46999998093E+01 0.  1.
       -5    1    3    3    0  502  0.29649693453E+03 -0.18563505961E+03 -0.24042082103E+04  0.24295287642E+04  0.46999998093E+01 0. -1.
</event>
<event>
 5   0  0.3190185E-07  0.3504968E+04  0.7818609E-02  0.8112613E-01
       -2   -1    0    0    0  501  0.00000000000E+00  0.00000000000E+00  0.12863449350E+04  0.12863449350E+04  0.25500000920E-02 0.  1.
        2   -1    0    0  501    0  0.00000000000E+00  0.00000000000E+00 -0.23875407427E+04  0.23875407427E+04  0.25500000920E-02 0. -1.
    10030    2    1    2    0    0  0.00000000000E+00  0.00000000000E+00 -0.11011958077E+04  0.36738856777E+04  0.35049684401E+04 0.  0.
        1    1    3    3  502    0  0.98214674159E+03  0.78543418540E+03 -0.18299447147E+04  0.22204091381E+04  0.50400001928E-02 0. -1.
       -1    1    3    3    0  502 -0.98214674159E+03 -0.78543418540E+03  0.72874890700E+03  0.14534765396E+04  0.50400001928E-02 0.  1.
</event>
<event>
 5   0  0.1013863E-07  0.3461941E+04  0.7818609E-02  0.8122869E-01
       -1   -1    0    0    0  501  0.00000000000E+00  0.00000000000E+00  0.18330854908E+04  0.18330854908E+04  0.50400001928E-02 0. -1.
        1   -1    0    0  501    0  0.00000000000E+00  0.00000000000E+00 -0.16345436864E+04  0.16345436864E+04  0.50400001928E-02 0.  1.
    10030    2    1    2    0    0  0.00000000000E+00  0.00000000000E+00  0.19854180443E+03  0.34676291771E+04  0.34619406786E+04 0.  0.
        5    1    3    3  502    0 -0.12103329064E+04  0.52644647321E+03  0.12210149073E+04  0.17980409137E+04  0.46999998093E+01 0. -1.
       -5    1    3    3    0  502  0.12103329064E+04 -0.52644647321E+03 -0.10224731029E+04  0.16695882635E+04  0.46999998093E+01 0.  1.
</event>
<event>
 5   0  0.1013863E-07  0.3502279E+04  0.7818609E-02  0.8113250E-01
        1   -1    0    0  501    0  0.00000000000E+00  0.00000000000E+00  0.26430999146E+04  0.26430999146E+04  0.50400001928E-02 0.  1.
       -1   -1    0    0    0  501  0.00000000000E+00  0.00000000000E+00 -0.11601866771E+04  0.11601866771E+04  0.50400001928E-02 0. -1.
    10030    2    1    2    0    0  0.00000000000E+00  0.00000000000E+00  0.14829132375E+04  0.38032865917E+04  0.35022788622E+04 0.  0.
        2    1    3    3  502    0  0.35220252326E+03 -0.10133682842E+04 -0.76152100477E+03  0.13156276591E+04  0.25500000920E-02 0. -1.
       -2    1    3    3    0  502 -0.35220252326E+03  0.10133682842E+04  0.22444342423E+04  0.24876589326E+04  0.25500000920E-02 0.  1.
</event>
<event>
 5   0  0.2180451E-07  0.3495333E+04  0.7818609E-02  0.8114897E-01
       -2   -1    0    0    0  501  0.00000000000E+00  0.00000000000E+00  0.13108787849E+04  0.13108787849E+04  0.25500000920E-02 0.  1.
        2   -1    0    0  501    0  0.00000000000E+00  0.00000000000E+00 -0.23299923024E+04  0.23299923024E+04  0.25500000920E-02 0. -1.
    10030    2    1    2    0    0  0.00000000000E+00  0.00000000000E+00 -0.10191135175E+04  0.36408710873E+04  0.34953325897E+04 0.  0.
        4    1    3    3  502    0  0.92637001656E+03 -0.17075989773E+03 -0.20429297389E+04  0.22496408338E+04  0.12699999809E+01 0. -1.
       -4    1    3    3    0  502 -0.92637001656E+03  0.17075989773E+03  0.10238162214E+04  0.13912302535E+04  0.12699999809E+01 0.  1.
</event>
<event>
 5   0  0.3190185E-07  0.3510318E+04  0.7818609E-02  0.8111349E-01
       -2   -1    0    0    0  501  0.00000000000E+00  0.00000000000E+00  0.15122316549E+04  0.15122316549E+04  0.25500000920E-02 0. -1.
        2   -1    0    0  501    0  0.00000000000E+00  0.00000000000E+00 -0.20371104115E+04  0.20371104115E+04  0.25500000920E-02 0.  1.
    10030    2    1    2    0    0  0.00000000000E+00  0.00000000000E+00 -0.52487875660E+03  0.35493420663E+04  0.35103178481E+04 0.  0.
        1    1    3    3  502    0 -0.16456221263E+04  0.52818143599E+03 -0.57167432971E+03  0.18204008765E+04  0.50400001928E-02 0.  1.
       -1    1    3    3    0  502  0.16456221263E+04 -0.52818143599E+03  0.46795573107E+02  0.17289411898E+04  0.50400001928E-02 0. -1.
</event>
<event>
 5   0  0.3119048E-07  0.3521540E+04  0.7818609E-02  0.8108704E-01
       -2   -1    0    0    0  501  0.00000000000E+00  0.00000000000E+00  0.12982318073E+04  0.12982318073E+04  0.25500000920E-02 0.  1.
        2   -1    0    0  501    0  0.00000000000E+00  0.00000000000E+00 -0.23881028014E+04  0.23881028014E+04  0.25500000920E-02 0. -1.
    10030    2    1    2    0    0  0.00000000000E+00  0.00000000000E+00 -0.10898709941E+04  0.36863346087E+04  0.35215400130E+04 0.  0.
        3    1    3    3  502    0 -0.14138553422E+04 -0.83035725526E+03 -0.12167070260E+04  0.20417776807E+04  0.10100000352E+00 0.  1.
       -3    1    3    3    0  502  0.14138553422E+04  0.83035725526E+03  0.12683603189E+03  0.16445569280E+04  0.10100000352E+00 0. -1.
</event>
<event>
 5   0  0.3190112E-07  0.3507165E+04  0.7818609E-02  0.8112094E-01
        2   -1    0    0  501    0  0.00000000000E+00  0.00000000000E+00  0.21761323231E+04  0.21761323231E+04  0.25500000920E-02 0. -1.
       -2   -1    0    0    0  501  0.00000000000E+00  0.00000000000E+00 -0.14130808645E+04  0.14130808645E+04  0.25500000920E-02 0.  1.
    10030    2    1    2    0    0  0.00000000000E+00  0.00000000000E+00  0.76305145865E+03  0.35892131876E+04  0.35071646351E+04 0.  0.
        5    1    3    3  502    0  0.58529840205E+03 -0.97514678460E+02  0.20702649030E+04  0.21536253599E+04  0.46999998093E+01 0. -1.
       -5    1    3    3    0  502 -0.58529840205E+03  0.97514678460E+02 -0.13072134444E+04  0.14355878277E+04  0.46999998093E+01 0.  1.
</event>
<event>
 5   0  0.3190112E-07  0.3513154E+04  0.7818609E-02  0.8110680E-01
        2   -1    0    0  501    0  0.00000000000E+00  0.00000000000E+00  0.27591905518E+04  0.27591905518E+04  0.25500000920E-02 0.  1.
       -2   -1    0    0    0  501  0.00000000000E+00  0.00000000000E+00 -0.11182856753E+04  0.11182856753E+04  0.25500000920E-02 0. -1.
    10030    2    1    2    0    0  0.00000000000E+00  0.00000000000E+00  0.16409048765E+04  0.38774762272E+04  0.35131542919E+04 0.  0.
        5    1    3    3  502    0 -0.80172568067E+03  0.12574048406E+04 -0.20409608536E+03  0.15051605569E+04  0.46999998093E+01 0. -1.
       -5    1    3    3    0  502  0.80172568067E+03 -0.12574048406E+04  0.18450009618E+04  0.23723156702E+04  0.46999998093E+01 0.  1.
</event>
<event>
 5   0  0.1013863E-07  0.3526886E+04  0.7818609E-02  0.8107448E-01
        1   -1    0    0  501    0  0.00000000000E+00  0.00000000000E+00  0.25620203418E+04  0.25620203418E+04  0.50400001928E-02 0. -1.
       -1   -1    0    0    0  501  0.00000000000E+00  0.00000000000E+00 -0.12137807049E+04  0.12137807049E+04  0.50400001928E-02 0.  1.
    10030    2    1    2    0    0  0.00000000000E+00  0.00000000000E+00  0.13482396369E+04  0.37758010467E+04  0.35268857970E+04 0.  0.
        5    1    3    3  502    0 -0.13403969234E+03  0.91962524393E+03 -0.93032812331E+03  0.13149941960E+04  0.46999998093E+01 0.  1.
       -5    1    3    3    0  502  0.13403969234E+03 -0.91962524393E+03  0.22785677602E+04  0.24608068507E+04  0.46999998093E+01 0. -1.
</event>
<event>
 5   0  0.2180451E-07  0.3480499E+04  0.7818609E-02  0.8118427E-01
       -2   -1    0    0    0  501  0.00000000000E+00  0.00000000000E+00  0.15374157294E+04  0.15374157294E+04  0.25500000920E-02 0. -1.
        2   -1    0    0  501    0  0.00000000000E+00  0.00000000000E+00 -0.19698429179E+04  0.19698429179E+04  0.25500000920E-02 0.  1.
    10030    2    1    2    0    0  0.00000000000E+00  0.00000000000E+00 -0.43242718855E+03  0.35072586473E+04  0.34804985197E+04 0.  0.
        4    1    3    3  502    0 -0.97592053895E+03  0.14272489700E+04 -0.17197386661E+02  0.17290916355E+04  0.12699999809E+01 0. -1.
       -4    1    3    3    0  502  0.97592053895E+03 -0.14272489700E+04 -0.41522980189E+03  0.17781670119E+04  0.12699999809E+01 0.  1.
</event>
<event>
 5   0  0.3190112E-07  0.3496096E+04  0.7818609E-02  0.8114716E-01
       -2   -1    0    0    0  501  0.00000000000E+00  0.00000000000E+00  0.12441468868E+04  0.12441468868E+04  0.25500000920E-02 0.  1.
        2   -1    0    0  501    0  0.00000000000E+00  0.00000000000E+00 -0.24560384152E+04  0.24560384152E+04  0.25500000920E-02 0. -1.
    10030    2    1    2    0    0  0.00000000000E+00  0.00000000000E+00 -0.12118915284E+04  0.37001853020E+04  0.34960964221E+04 0.  0.
        5    1    3    3  502    0  0.52693152816E+03 -0.31369490921E+03  0.11265579533E+04  0.12826598316E+04  0.46999998093E+01 0.  1.
       -5    1    3    3    0  502 -0.52693152816E+03  0.31369490921E+03 -0.23384494817E+04  0.24175254704E+04  0.46999998093E+01 0. -1.
</event>
<event>
 5   0  0.1013863E-07  0.3585596E+04  0.7818609E-02  0.8093799E-01
        1   -1    0    0  501    0  0.00000000000E+00  0.00000000000E+00  0.20035826386E+04  0.20035826386E+04  0.50400001928E-02 0.  1.
       -1   -1    0    0    0  501  0.00000000000E+00  0.00000000000E+00 -0.16041883571E+04  0.16041883571E+04  0.50400001928E-02 0. -1.
    10030    2    1    2    0    0  0.00000000000E+00  0.00000000000E+00  0.39939428147E+03  0.36077709957E+04  0.35855955942E+04 0.  0.
        2    1    3    3  502    0  0.14304724110E+04 -0.35955273793E+03 -0.82572019717E+03  0.16903678102E+04  0.25500000920E-02 0. -1.
       -2    1    3    3    0  502 -0.14304724110E+04  0.35955273793E+03  0.12251144786E+04  0.19174031855E+04  0.25500000920E-02 0.  1.
</event>
<event>
 5   0  0.1072381E-07  0.3459372E+04  0.7818609E-02  0.8123486E-01
        1   -1    0    0  501    0  0.00000000000E+00  0.00000000000E+00  0.19101893608E+04  0.19101893608E+04  0.50400001928E-02 0. -1.
       -1   -1    0    0    0  501  0.00000000000E+00  0.00000000000E+00 -0.15662397019E+04  0.15662397019E+04  0.50400001928E-02 0.  1.
    10030    2    1    2    0    0  0.00000000000E+00  0.00000000000E+00  0.34394965887E+03  0.34764290628E+04  0.34593724374E+04 0.  0.
        1    1    3    3  502    0 -0.63806386135E+02 -0.14591343300E+04  0.11031882756E+04  0.18303465845E+04  0.50400001928E-02 0. -1.
       -1    1    3    3    0  502  0.63806386135E+02  0.14591343300E+04 -0.75923861676E+03  0.16460824782E+04  0.50400001928E-02 0.  1.
</event>
<event>
 5   0  0.3190185E-07  0.3501420E+04  0.7818609E-02  0.8113454E-01
        2   -1    0    0  501    0  0.00000000000E+00  0.00000000000E+00  0.17885903062E+04  0.17885903062E+04  0.25500000920E-02 0. -1.
       -2   -1    0    0    0  501  0.00000000000E+00  0.00000000000E+00 -0.17136317268E+04  0.17136317268E+04  0.25500000920E-02 0.  1.
    10030    2    1    2    0    0  0.00000000000E+00  0.00000000000E+00  0.74958579465E+02  0.35022220330E+04  0.35014197663E+04 0.  0.
        1    1    3    3  502    0 -0.35712233934E+03 -0.53170826955E+01 -0.16768038526E+04  0.17144199593E+04  0.50400001928E-02 0.  1.
       -1    1    3    3    0  502  0.35712233934E+03  0.53170826955E+01  0.17517624320E+04  0.17878020738E+04  0.50400001928E-02 0. -1.
</event>
<event>
 5   0  0.1013863E-07  0.3512653E+04  0.7818609E-02  0.8110798E-01
        1   -1    0    0  501    0  0.00000000000E+00  0.00000000000E+00  0.12964549835E+04  0.12964549835E+04  0.50400001928E-02 0. -1.
       -1   -1    0    0    0  501  0.00000000000E+00  0.00000000000E+00 -0.23793213969E+04  0.23793213969E+04  0.50400001928E-02 0.  1.
    10030    2    1    2    0    0  0.00000000000E+00  0.00000000000E+00 -0.10828664135E+04  0.36757763804E+04  0.35126531752E+04 0.  0.
        2    1    3    3  502    0 -0.13180074435E+04  0.52989727481E+03 -0.16222318703E+04  0.21562863873E+04  0.25500000920E-02 0.  1.
       -2    1    3    3    0  502  0.13180074435E+04 -0.52989727481E+03  0.53936545684E+03  0.15194899931E+04  0.25500000920E-02 0. -1.
</event>
<event>
 5   0  0.1098171E-07  0.3495743E+04  0.7818609E-02  0.8114800E-01
        1   -1    0    0  501    0  0.00000000000E+00  0.00000000000E+00  0.27679175854E+04  0.27679175854E+04  0.50400001928E-02 0. -1.
       -1   -1    0    0    0  501  0.00000000000E+00  0.00000000000E+00 -0.11037373689E+04  0.11037373689E+04  0.50400001928E-02 0.  1.
    10030    2    1    2    0    0  0.00000000000E+00  0.00000000000E+00  0.16641802164E+04  0.38716549543E+04  0.34957425953E+04 0.  0.
        4    1    3    3  502    0 -0.59616946093E+03  0.12006794117E+04 -0.41012870975E+03  0.14018759743E+04  0.12699999809E+01 0.  1.
       -4    1    3    3    0  502  0.59616946093E+03 -0.12006794117E+04  0.20743089262E+04  0.24697789800E+04  0.12699999809E+01 0. -1.
</event>
<event>
 5   0  0.1033796E-07  0.3441457E+04  0.7818609E-02  0.8127806E-01
       -1   -1    0    0    0  501  0.00000000000E+00  0.00000000000E+00  0.25745120490E+04  0.25745120490E+04  0.50400001928E-02 0. -1.
        1   -1    0    0  501    0  0.00000000000E+00  0.00000000000E+00 -0.11500847894E+04  0.11500847894E+04  0.50400001928E-02 0.  1.
    10030    2    1    2    0    0  0.00000000000E+00  0.00000000000E+00  0.14244272596E+04  0.37245968384E+04  0.34414573353E+04 0.  0.
        3    1    3    3  502    0  0.79163482856E+03 -0.31230243200E+03  0.23308140363E+04  0.24813126754E+04  0.10100000352E+00 0. -1.
       -3    1    3    3    0  502 -0.79163482856E+03  0.31230243200E+03 -0.90638677670E+03  0.12432841630E+04  0.10100000352E+00 0.  1.
</event>
<event>
 5   0  0.3219205E-07  0.3502735E+04  0.7818609E-02  0.8113142E-01
       -2   -1    0    0    0  501  0.00000000000E+00  0.00000000000E+00  0.94447879710E+03  0.94447879710E+03  0.25500000920E-02 0. -1.
        2   -1    0    0  501    0  0.00000000000E+00  0.00000000000E+00 -0.32475992157E+04  0.32475992157E+04  0.25500000920E-02 0.  1.
    10030    2    1    2    0    0  0.00000000000E+00  0.00000000000E+00 -0.23031204186E+04  0.41920780128E+04  0.35027352744E+04 0.  0.
        2    1    3    3  502    0  0.73520953412E+03  0.86950456406E+03 -0.27441233577E+04  0.29709904490E+04  0.25500000920E-02 0.  1.
       -2    1    3    3    0  502 -0.73520953412E+03 -0.86950456406E+03  0.44100293913E+03  0.12210875637E+04  0.25500000920E-02 0. -1.
</event>
<event>
 5   0  0.2180451E-07  0.3495746E+04  0.7818609E-02  0.8114799E-01
       -2   -1    0    0    0  501  0.00000000000E+00  0.00000000000E+00  0.15019224522E+04  0.15019224522E+04  0.25500000920E-02 0. -1.
        2   -1    0    0  501    0  0.00000000000E+00  0.00000000000E+00 -0.20340996845E+04  0.20340996845E+04  0.25500000920E-02 0.  1.
    10030    2    1    2    0    0  0.00000000000E+00  0.00000000000E+00 -0.53217723233E+03  0.35360221367E+04  0.34957459783E+04 0.  0.
        4    1    3    3  502    0  0.25756345659E+02  0.51846430894E+03 -0.19543266724E+04  0.20220937131E+04  0.12699999809E+01 0.  1.
       -4    1    3    3    0  502 -0.25756345659E+02 -0.51846430894E+03  0.14221494401E+04  0.15139284236E+04  0.12699999809E+01 0. -1.
</event>
<event>
 5   0  0.3190112E-07  0.3503656E+04  0.7818609E-02  0.8112924E-01
       -2   -1    0    0    0  501  0.00000000000E+00  0.00000000000E+00  0.16890985658E+04  0.16890985658E+04  0.25500000920E-02 0.  1.
        2   -1    0    0  501    0  0.00000000000E+00  0.00000000000E+00 -0.18168868936E+04  0.18168868936E+04  0.25500000920E-02 0. -1.
    10030    2    1    2    0    0  0.00000000000E+00  0.00000000000E+00 -0.12778832783E+03  0.35059854593E+04  0.35036558313E+04 0.  0.
        5    1    3    3  502    0 -0.45243762791E+03  0.16164420173E+04 -0.56552016291E+03  0.17712763045E+04  0.46999998093E+01 0. -1.
       -5    1    3    3    0  502  0.45243762791E+03 -0.16164420173E+04  0.43773183509E+03  0.17347091548E+04  0.46999998093E+01 0.  1.
</event>
<event>
 5   0  0.3190185E-07  0.3505878E+04  0.7818609E-02  0.8112398E-01
        2   -1    0    0  501    0  0.00000000000E+00  0.00000000000E+00  0.15461673467E+04  0.15461673467E+04  0.25500000920E-02 0. -1.
       -2   -1    0    0    0  501  0.00000000000E+00  0.00000000000E+00 -0.19873627779E+04  0.19873627779E+04  0.25500000920E-02 0.  1.
    10030    2    1    2    0    0  0.00000000000E+00  0.00000000000E+00 -0.44119543121E+03  0.35335301245E+04  0.35058781685E+04 0.  0.
        1    1    3    3  502    0  0.10383785469E+04 -0.13111902131E+04  0.30827491091E+03  0.17007301968E+04  0.50400001928E-02 0. -1.
       -1    1    3    3    0  502 -0.10383785469E+04  0.13111902131E+04 -0.74947034212E+03  0.18327999278E+04  0.50400001928E-02 0.  1.
</event>
<event>
 5   0  0.3190112E-07  0.3506490E+04  0.7818609E-02  0.8112254E-01
       -2   -1    0    0    0  501  0.00000000000E+00  0.00000000000E+00  0.11538177273E+04  0.11538177273E+04  0.25500000920E-02 0. -1.
        2   -1    0    0  501    0  0.00000000000E+00  0.00000000000E+00 -0.26640840513E+04  0.26640840513E+04  0.25500000920E-02 0.  1.
    10030    2    1    2    0    0  0.00000000000E+00  0.00000000000E+00 -0.15102663240E+04  0.38179017787E+04  0.35064896438E+04 0.  0.
        5    1    3    3  502    0 -0.15534240715E+04  0.39351470081E+03  0.19274375160E+02  0.16026146627E+04  0.46999998093E+01 0. -1.
       -5    1    3    3    0  502  0.15534240715E+04 -0.39351470081E+03 -0.15295406992E+04  0.22152871160E+04  0.46999998093E+01 0.  1.
</event>
<event>
 5   0  0.3219205E-07  0.3496845E+04  0.7818609E-02  0.8114538E-01
        2   -1    0    0  501    0  0.00000000000E+00  0.00000000000E+00  0.22407455421E+04  0.22407455421E+04  0.25500000920E-02 0.  1.
       -2   -1    0    0    0  501  0.00000000000E+00  0.00000000000E+00 -0.13642693110E+04  0.13642693110E+04  0.25500000920E-02 0. -1.
    10030    2    1    2    0    0  0.00000000000E+00  0.00000000000E+00  0.87647623109E+03  0.36050148530E+04  0.34968445071E+04 0.  0.
        2    1    3    3  502    0  0.17202871284E+04 -0.31148973044E+02  0.75869488783E+03  0.18804191011E+04  0.25500000920E-02 0.  1.
       -2    1    3    3    0  502 -0.17202871284E+04  0.31148973044E+02  0.11778134325E+03  0.17245957520E+04  0.25500000920E-02 0. -1.
</event>
<event>
 5   0  0.1072381E-07  0.3497811E+04  0.7818609E-02  0.8114309E-01
        1   -1    0    0  501    0  0.00000000000E+00  0.00000000000E+00  0.14020207980E+04  0.14020207980E+04  0.50400001928E-02 0.  1.
       -1   -1    0    0    0  501  0.00000000000E+00  0.00000000000E+00 -0.21816153997E+04  0.21816153997E+04  0.50400001928E-02 0. -1.
    10030    2    1    2    0    0  0.00000000000E+00  0.00000000000E+00 -0.77959460169E+03  0.35836361977E+04  0.34978108374E+04 0.  0.
        1    1    3    3  502    0  0.15266023532E+04 -0.47440874647E+03  0.33689606888E+03  0.16337311177E+04  0.50400001928E-02 0.  1.
       -1    1    3    3    0  502 -0.15266023532E+04  0.47440874647E+03 -0.11164906706E+04  0.19499050800E+04  0.50400001928E-02 0. -1.
</event>
<event>
 5   0  0.1013863E-07  0.3496893E+04  0.7818609E-02  0.8114527E-01
        1   -1    0    0  501    0  0.00000000000E+00  0.00000000000E+00  0.14064473227E+04  0.14064473227E+04  0.50400001928E-02 0.  1.
       -1   -1    0    0    0  501  0.00000000000E+00  0.00000000000E+00 -0.21736075007E+04  0.21736075008E+04  0.50400001928E-02 0. -1.
    10030    2    1    2    0    0  0.00000000000E+00  0.00000000000E+00 -0.76716017808E+03  0.35800548234E+04  0.34968925920E+04 0.  0.
        2    1    3    3  502    0 -0.78619617404E+03  0.67006980790E+03 -0.18277898123E+04  0.20995031720E+04  0.25500000920E-02 0. -1.
       -2    1    3    3    0  502  0.78619617404E+03 -0.67006980790E+03  0.10606296342E+04  0.14805516514E+04  0.25500000920E-02 0.  1.
</event>
<event>
 5   0  0.2180451E-07  0.3498833E+04  0.7818609E-02  0.8114067E-01
       -2   -1    0    0    0  501  0.00000000000E+00  0.00000000000E+00  0.17632021778E+04  0.17632021778E+04  0.25500000920E-02 0.  1.
        2   -1    0    0  501    0  0.00000000000E+00  0.00000000000E+00 -0.17357382746E+04  0.17357382746E+04  0.25500000920E-02 0. -1.
    10030    2    1    2    0    0  0.00000000000E+00  0.00000000000E+00  0.27463903170E+02  0.34989404524E+04  0.34988326659E+04 0.  0.
        4    1    3    3  502    0 -0.73332707415E+03  0.15560142989E+04 -0.30487917679E+03  0.17469693820E+04  0.12699999809E+01 0. -1.
       -4    1    3    3    0  502  0.73332707415E+03 -0.15560142989E+04  0.33234307996E+03  0.17519710705E+04  0.12699999809E+01 0.  1.
</event>
<event>
 5   0  0.2180451E-07  0.3470636E+04  0.7818609E-02  0.8120784E-01
       -2   -1    0    0    0  501  0.00000000000E+00  0.00000000000E+00  0.15901473393E+04  0.15901473393E+04  0.25500000920E-02 0. -1.
        2   -1    0    0  501    0  0.00000000000E+00  0.00000000000E+00 -0.18937422226E+04  0.18937422226E+04  0.25500000920E-02 0.  1.
    10030    2    1    2    0    0  0.00000000000E+00  0.00000000000E+00 -0.30359488326E+03  0.34838895619E+04  0.34706363431E+04 0.  0.
        4    1    3    3  502    0 -0.12246640349E+04  0.11767645606E+04  0.20558274937E+03  0.17108017738E+04  0.12699999809E+01 0. -1.
       -4    1    3    3    0  502  0.12246640349E+04 -0.11767645606E+04 -0.50917763264E+03  0.17730877880E+04  0.12699999809E+01 0.  1.
</event>
<event>
 5   0  0.1013863E-07  0.3495630E+04  0.7818609E-02  0.8114826E-01
       -1   -1    0    0    0  501  0.00000000000E+00  0.00000000000E+00  0.10942975857E+04  0.10942975857E+04  0.50400001928E-02 0. -1.
        1   -1    0    0  501    0  0.00000000000E+00  0.00000000000E+00 -0.27916147368E+04  0.27916147368E+04  0.50400001928E-02 0.  1.
    10030    2    1    2    0    0  0.00000000000E+00  0.00000000000E+00 -0.16973171511E+04  0.38859123225E+04  0.34956299956E+04 0.  0.
        2    1    3    3  502    0  0.69086912460E+03 -0.15778954758E+04 -0.11780575059E+04  0.20868334306E+04  0.25500000920E-02 0. -1.
       -2    1    3    3    0  502 -0.69086912460E+03  0.15778954758E+04 -0.51925964524E+03  0.17990788919E+04  0.25500000920E-02 0.  1.
</event>
<event>
 5   0  0.3190112E-07  0.3503876E+04  0.7818609E-02  0.8112872E-01
       -2   -1    0    0    0  501  0.00000000000E+00  0.00000000000E+00  0.10285396842E+04  0.10285396842E+04  0.25500000920E-02 0. -1.
        2   -1    0    0  501    0  0.00000000000E+00  0.00000000000E+00 -0.29841206259E+04  0.29841206259E+04  0.25500000920E-02 0.  1.
    10030    2    1    2    0    0  0.00000000000E+00  0.00000000000E+00 -0.19555809417E+04  0.40126603101E+04  0.35038758461E+04 0.  0.
        5    1    3    3  502    0 -0.12012110219E+04 -0.12721476900E+04 -0.10801999016E+04  0.20562396703E+04  0.46999998093E+01 0. -1.
       -5    1    3    3    0  502  0.12012110219E+04  0.12721476900E+04 -0.87538104009E+03  0.19564206398E+04  0.46999998093E+01 0.  1.
</event>
<event>
 5   0  0.3219205E-07  0.3521154E+04  0.7818609E-02  0.8108795E-01
       -2   -1    0    0    0  501  0.00000000000E+00  0.00000000000E+00  0.14742247902E+04  0.14742247902E+04  0.25500000920E-02 0. -1.
        2   -1    0    0  501    0  0.00000000000E+00  0.00000000000E+00 -0.21025494479E+04  0.21025494479E+04  0.25500000920E-02 0.  1.
    10030    2    1    2    0    0  0.00000000000E+00  0.00000000000E+00 -0.62832465762E+03  0.35767742381E+04  0.35211535148E+04 0.  0.
        2    1    3    3  502    0  0.60010307104E+03  0.44005826687E+02 -0.19948584977E+04  0.20836315976E+04  0.25500000920E-02 0.  1.
       -2    1    3    3    0  502 -0.60010307104E+03 -0.44005826687E+02  0.13665338401E+04  0.14931426405E+04  0.25500000920E-02 0. -1.
</event>
<event>
 5   0  0.3190185E-07  0.3500619E+04  0.7818609E-02  0.8113643E-01
        2   -1    0    0  501    0  0.00000000000E+00  0.00000000000E+00  0.27334007587E+04  0.27334007587E+04  0.25500000920E-02 0. -1.
       -2   -1    0    0    0  501  0.00000000000E+00  0.00000000000E+00 -0.11207954709E+04  0.11207954709E+04  0.25500000920E-02 0.  1.
    10030    2    1    2    0    0  0.00000000000E+00  0.00000000000E+00  0.16126052878E+04  0.38541962296E+04  0.35006189113E+04 0.  0.
        1    1    3    3  502    0 -0.98114739641E+03 -0.13283482269E+04  0.16769744460E+03  0.16599041112E+04  0.50400001928E-02 0.  1.
       -1    1    3    3    0  502  0.98114739641E+03  0.13283482269E+04  0.14449078432E+04  0.21942921184E+04  0.50400001928E-02 0. -1.
</event>
<event>
 5   0  0.1013863E-07  0.3493200E+04  0.7818609E-02  0.8115403E-01
        3   -1    0    0  501    0  0.00000000000E+00  0.00000000000E+00  0.26062020339E+04  0.26062020358E+04  0.10100000352E+00 0.  1.
       -3   -1    0    0    0  501  0.00000000000E+00  0.00000000000E+00 -0.11705201227E+04  0.11705201270E+04  0.10100000352E+00 0. -1.
    10030    2    1    2    0    0  0.00000000000E+00  0.00000000000E+00  0.14356819112E+04  0.37767221629E+04  0.34932002155E+04 0.  0.
        3    1    3    3  502    0 -0.14933884874E+04 -0.41785737457E+03 -0.15099922075E+03  0.15580804648E+04  0.10100000352E+00 0. -1.
       -3    1    3    3    0  502  0.14933884874E+04  0.41785737457E+03  0.15866811319E+04  0.22186416981E+04  0.10100000352E+00 0.  1.
</event>
<event>
 5   0  0.3219205E-07  0.3499179E+04  0.7818609E-02  0.8113985E-01
       -2   -1    0    0    0  501  0.00000000000E+00  0.00000000000E+00  0.16830266377E+04  0.16830266377E+04  0.25500000920E-02 0.  1.
        2   -1    0    0  501    0  0.00000000000E+00  0.00000000000E+00 -0.18187848827E+04  0.18187848827E+04  0.25500000920E-02 0. -1.
    10030    2    1    2    0    0  0.00000000000E+00  0.00000000000E+00 -0.13575824502E+03  0.35018115204E+04  0.34991789928E+04 0.  0.
        2    1    3    3  502    0 -0.15797170289E+04  0.72752536745E+03  0.12269616496E+03  0.17435175366E+04  0.25500000920E-02 0. -1.
       -2    1    3    3    0  502  0.15797170289E+04 -0.72752536745E+03 -0.25845440998E+03  0.17582939838E+04  0.25500000920E-02 0.  1.
</event>
<event>
 5   0  0.3190185E-07  0.3497743E+04  0.7818609E-02  0.8114325E-01
        2   -1    0    0  501    0  0.00000000000E+00  0.00000000000E+00  0.20502512099E+04  0.20502512099E+04  0.25500000920E-02 0.  1.
       -2   -1    0    0    0  501  0.00000000000E+00  0.00000000000E+00 -0.14917936487E+04  0.14917936487E+04  0.25500000920E-02 0. -1.
    10030    2    1    2    0    0  0.00000000000E+00  0.00000000000E+00  0.55845756121E+03  0.35420448587E+04  0.34977431200E+04 0.  0.
        1    1    3    3  502    0 -0.10655862290E+04 -0.12755778200E+03 -0.11191328038E+04  0.15505493322E+04  0.50400001928E-02 0. -1.
       -1    1    3    3    0  502  0.10655862290E+04  0.12755778200E+03  0.16775903650E+04  0.19914955265E+04  0.50400001928E-02 0.  1.
</event>
<event>
 5   0  0.1033796E-07  0.3514358E+04  0.7818609E-02  0.8110396E-01
        1   -1    0    0  501    0  0.00000000000E+00  0.00000000000E+00  0.15420862807E+04  0.15420862807E+04  0.50400001928E-02 0.  1.
       -1   -1    0    0    0  501  0.00000000000E+00  0.00000000000E+00 -0.20022736187E+04  0.20022736187E+04  0.50400001928E-02 0. -1.
    10030    2    1    2    0    0  0.00000000000E+00  0.00000000000E+00 -0.46018733801E+03  0.35443598995E+04  0.35143583641E+04 0.  0.
        3    1    3    3  502    0  0.66723021583E+03 -0.16082407635E+04 -0.46885111506E+03  0.18031793845E+04  0.10100000352E+00 0. -1.
       -3    1    3    3    0  502 -0.66723021583E+03  0.16082407635E+04  0.86637770565E+01  0.17411805150E+04  0.10100000352E+00 0.  1.
</event>
<event>
 5   0  0.3190112E-07  0.3515975E+04  0.7818609E-02  0.8110015E-01
       -2   -1    0    0    0  501  0.00000000000E+00  0.00000000000E+00  0.16521748175E+04  0.16521748175E+04  0.25500000920E-02 0.  1.
        2   -1    0    0  501    0  0.00000000000E+00  0.00000000000E+00 -0.18705768204E+04  0.18705768204E+04  0.25500000920E-02 0. -1.
    10030    2    1    2    0    0  0.00000000000E+00  0.00000000000E+00 -0.21840200292E+03  0.35227516378E+04  0.35159749241E+04 0.  0.
        5    1    3    3  502    0  0.10156964663E+04 -0.31943020422E+03 -0.15107620298E+04  0.18482691816E+04  0.46999998093E+01 0. -1.
       -5    1    3    3    0  502 -0.10156964663E+04  0.31943020422E+03  0.12923600269E+04  0.16744824562E+04  0.46999998093E+01 0.  1.
</event>
<event>
 5   0  0.2180451E-07  0.3502027E+04  0.7818609E-02  0.8113310E-01
        2   -1    0    0  501    0  0.00000000000E+00  0.00000000000E+00  0.31085962521E+04  0.31085962521E+04  0.25500000920E-02 0. -1.
       -2   -1    0    0    0  501  0.00000000000E+00  0.00000000000E+00 -0.98631254486E+03  0.98631254486E+03  0.25500000920E-02 0.  1.
    10030    2    1    2    0    0  0.00000000000E+00  0.00000000000E+00  0.21222837073E+04  0.40949087970E+04  0.35020265450E+04 0.  0.
        4    1    3    3  502    0  0.25435012297E+03  0.11450931286E+04  0.25812789216E+04  0.28353015258E+04  0.12699999809E+01 0. -1.
       -4    1    3    3    0  502 -0.25435012297E+03 -0.11450931286E+04 -0.45899521429E+03  0.12596072712E+04  0.12699999809E+01 0.  1.
</event>
<event>
 5   0  0.3219205E-07  0.3472646E+04  0.7818609E-02  0.8120303E-01
        2   -1    0    0  501    0  0.00000000000E+00  0.00000000000E+00  0.14473396265E+04  0.14473396266E+04  0.25500000920E-02 0. -1.
       -2   -1    0    0    0  501  0.00000000000E+00  0.00000000000E+00 -0.20830060915E+04  0.20830060915E+04  0.25500000920E-02 0.  1.
    10030    2    1    2    0    0  0.00000000000E+00  0.00000000000E+00 -0.63566646498E+03  0.35303457181E+04  0.34726458262E+04 0.  0.
        2    1    3    3  502    0  0.39181579961E+03  0.12683713083E+04 -0.14555944761E+04  0.19700357041E+04  0.25500000920E-02 0.  1.
       -2    1    3    3    0  502 -0.39181579961E+03 -0.12683713083E+04  0.81992801111E+03  0.15603100140E+04  0.25500000920E-02 0. -1.
</event>
<event>
 5   0  0.1033796E-07  0.3501737E+04  0.7818609E-02  0.8113378E-01
       -1   -1    0    0    0  501  0.00000000000E+00  0.00000000000E+00  0.33042798286E+04  0.33042798286E+04  0.50400001928E-02 0. -1.
        1   -1    0    0  501    0  0.00000000000E+00  0.00000000000E+00 -0.92774849645E+03  0.92774849647E+03  0.50400001928E-02 0.  1.
    10030    2    1    2    0    0  0.00000000000E+00  0.00000000000E+00  0.23765313321E+04  0.42320283251E+04  0.35017370792E+04 0.  0.
        3    1    3    3  502    0  0.92073802018E+03 -0.72740947828E+03 -0.38222669408E+03  0.12340908827E+04  0.10100000352E+00 0.  1.
       -3    1    3    3    0  502 -0.92073802018E+03  0.72740947828E+03  0.27587580262E+04  0.29979374424E+04  0.10100000352E+00 0. -1.
</event>
<event>
 5   0  0.1013863E-07  0.3501767E+04  0.7818609E-02  0.8113371E-01
       -1   -1    0    0    0  501  0.00000000000E+00  0.00000000000E+00  0.32480409943E+04  0.32480409943E+04  0.50400001928E-02 0.  1.
        1   -1    0    0  501    0  0.00000000000E+00  0.00000000000E+00 -0.94382830953E+03  0.94382830954E+03  0.50400001928E-02 0. -1.
    10030    2    1    2    0    0  0.00000000000E+00  0.00000000000E+00  0.23042126848E+04  0.41918693039E+04  0.35017670059E+04 0.  0.
        5    1    3    3  502    0 -0.62409652914E+03 -0.91772793866E+03  0.27731786263E+04  0.29870157064E+04  0.46999998093E+01 0. -1.
       -5    1    3    3    0  502  0.62409652914E+03  0.91772793866E+03 -0.46896594147E+03  0.12048535975E+04  0.46999998093E+01 0.  1.
</event>
<event>
 5   0  0.2180451E-07  0.3495600E+04  0.7818609E-02  0.8114833E-01
       -2   -1    0    0    0  501  0.00000000000E+00  0.00000000000E+00  0.12408429957E+04  0.12408429957E+04  0.25500000920E-02 0. -1.
        2   -1    0    0  501    0  0.00000000000E+00  0.00000000000E+00 -0.24618787374E+04  0.24618787374E+04  0.25500000920E-02 0.  1.
    10030    2    1    2    0    0  0.00000000000E+00  0.00000000000E+00 -0.12210357416E+04  0.37027217331E+04  0.34956000844E+04 0.  0.
        4    1    3    3  502    0 -0.87985487201E+02 -0.24986663396E+03  0.12194542850E+04  0.12478962885E+04  0.12699999809E+01 0. -1.
       -4    1    3    3    0  502  0.87985487201E+02  0.24986663396E+03 -0.24404900266E+04  0.24548254446E+04  0.12699999809E+01 0.  1.
</event>
<event>
 5   0  0.3190112E-07  0.3272188E+04  0.7818609E-02  0.8170008E-01
        2   -1    0    0  501    0  0.00000000000E+00  0.00000000000E+00  0.25665195360E+04  0.25665195360E+04  0.25500000920E-02 0.  1.
       -2   -1    0    0    0  501  0.00000000000E+00  0.00000000000E+00 -0.10429705564E+04  0.10429705564E+04  0.25500000920E-02 0. -1.
    10030    2    1    2    0    0  0.00000000000E+00  0.00000000000E+00  0.15235489796E+04  0.36094900924E+04  0.32721884472E+04 0.  0.
        5    1    3    3  502    0 -0.14661957314E+04 -0.54839963331E+03  0.23701590556E+03  0.15832468885E+04  0.46999998093E+01 0. -1.
       -5    1    3    3    0  502  0.14661957314E+04  0.54839963331E+03  0.12865330741E+04  0.20262432039E+04  0.46999998093E+01 0.  1.
</event>
<event>
 5   0  0.3119048E-07  0.3505847E+04  0.7818609E-02  0.8112406E-01
       -2   -1    0    0    0  501  0.00000000000E+00  0.00000000000E+00  0.18249418822E+04  0.18249418822E+04  0.25500000920E-02 0.  1.
        2   -1    0    0  501    0  0.00000000000E+00  0.00000000000E+00 -0.16837470165E+04  0.16837470165E+04  0.25500000920E-02 0. -1.
    10030    2    1    2    0    0  0.00000000000E+00  0.00000000000E+00  0.14119486572E+03  0.35086888987E+04  0.35058468018E+04 0.  0.
        3    1    3    3  502    0 -0.28744209852E+03  0.46842913331E+03  0.17364862945E+04  0.18213822977E+04  0.10100000352E+00 0.  1.
       -3    1    3    3    0  502  0.28744209852E+03 -0.46842913331E+03 -0.15952914288E+04  0.16873066010E+04  0.10100000352E+00 0. -1.
</event>
<event>
 5   0  0.1013863E-07  0.3510155E+04  0.7818609E-02  0.8111387E-01
        1   -1    0    0  501    0  0.00000000000E+00  0.00000000000E+00  0.13748951176E+04  0.13748951176E+04  0.50400001928E-02 0. -1.
       -1   -1    0    0    0  501  0.00000000000E+00  0.00000000000E+00 -0.22403872323E+04  0.22403872323E+04  0.50400001928E-02 0.  1.
    10030    2    1    2    0    0  0.00000000000E+00  0.00000000000E+00 -0.86549211473E+03  0.36152823499E+04  0.35101552486E+04 0.  0.
        2    1    3    3  502    0  0.51169235468E+03 -0.32357029558E+03  0.12639438156E+04  0.14014566604E+04  0.25500000920E-02 0. -1.
       -2    1    3    3    0  502 -0.51169235468E+03  0.32357029558E+03 -0.21294359303E+04  0.22138256895E+04  0.25500000920E-02 0.  1.
</event>
<event>
 5   0  0.1013863E-07  0.3510780E+04  0.7818609E-02  0.8111240E-01
        1   -1    0    0  501    0  0.00000000000E+00  0.00000000000E+00  0.13227333002E+04  0.13227333002E+04  0.50400001928E-02 0. -1.
       -1   -1    0    0    0  501  0.00000000000E+00  0.00000000000E+00 -0.23295656573E+04  0.23295656573E+04  0.50400001928E-02 0.  1.
    10030    2    1    2    0    0  0.00000000000E+00  0.00000000000E+00 -0.10068323571E+04  0.36522989574E+04  0.35107800101E+04 0.  0.
        2    1    3    3  502    0  0.90555837866E+03  0.91659807692E+03 -0.17436147520E+04  0.21680360733E+04  0.25500000920E-02 0.  1.
       -2    1    3    3    0  502 -0.90555837866E+03 -0.91659807692E+03  0.73678239491E+03  0.14842628841E+04  0.25500000920E-02 0. -1.
</event>
<event>
 5   0  0.1013863E-07  0.3488524E+04  0.7818609E-02  0.8116515E-01
        1   -1    0    0  501    0  0.00000000000E+00  0.00000000000E+00  0.22698069749E+04  0.22698069749E+04  0.50400001928E-02 0. -1.
       -1   -1    0    0    0  501  0.00000000000E+00  0.00000000000E+00 -0.13404004888E+04  0.13404004888E+04  0.50400001928E-02 0.  1.
    10030    2    1    2    0    0  0.00000000000E+00  0.00000000000E+00  0.92940648607E+03  0.36102074637E+04  0.34885242603E+04 0.  0.
        2    1    3    3  502    0  0.94578139559E+02  0.13683284623E+04 -0.65046570232E+03  0.15180162829E+04  0.25500000920E-02 0.  1.
       -2    1    3    3    0  502 -0.94578139559E+02 -0.13683284623E+04  0.15798721884E+04  0.20921911808E+04  0.25500000920E-02 0. -1.
</event>
<event>
 5   0  0.2180451E-07  0.3509386E+04  0.7818609E-02  0.8111569E-01
        2   -1    0    0  501    0  0.00000000000E+00  0.00000000000E+00  0.15628129505E+04  0.15628129505E+04  0.25500000920E-02 0.  1.
       -2   -1    0    0    0  501  0.00000000000E+00  0.00000000000E+00 -0.19701323412E+04  0.19701323412E+04  0.25500000920E-02 0. -1.
    10030    2    1    2    0    0  0.00000000000E+00  0.00000000000E+00 -0.40731939068E+03  0.35329452917E+04  0.35093864632E+04 0.  0.
        4    1    3    3  502    0  0.10044205550E+04  0.14078303216E+04  0.95149061928E+02  0.17320224659E+04  0.12699999809E+01 0.  1.
       -4    1    3    3    0  502 -0.10044205550E+04 -0.14078303216E+04 -0.50246845261E+03  0.18009228258E+04  0.12699999809E+01 0. -1.
</event>
<event>
 5   0  0.3190112E-07  0.3486513E+04  0.7818609E-02  0.8116994E-01
       -2   -1    0    0    0  501  0.00000000000E+00  0.00000000000E+00  0.17658684796E+04  0.17658684796E+04  0.25500000920E-02 0. -1.
        2   -1    0    0  501    0  0.00000000000E+00  0.00000000000E+00 -0.17209336960E+04  0.17209336960E+04  0.25500000920E-02 0.  1.
    10030    2    1    2    0    0  0.00000000000E+00  0.00000000000E+00  0.44934783670E+02  0.34868021756E+04  0.34865126239E+04 0.  0.
        5    1    3    3  502    0 -0.11335802640E+04 -0.10588852129E+04  0.81794426852E+03  0.17536524814E+04  0.46999998093E+01 0. -1.
       -5    1    3    3    0  502  0.11335802640E+04  0.10588852129E+04 -0.77300948485E+03  0.17331496942E+04  0.46999998093E+01 0.  1.
</event>
<event>
 5   0  0.3190185E-07  0.3503401E+04  0.7818609E-02  0.8112984E-01
        2   -1    0    0  501    0  0.00000000000E+00  0.00000000000E+00  0.17933749160E+04  0.17933749160E+04  0.25500000920E-02 0. -1.
       -2   -1    0    0    0  501  0.00000000000E+00  0.00000000000E+00 -0.17109942214E+04  0.17109942214E+04  0.25500000920E-02 0.  1.
    10030    2    1    2    0    0  0.00000000000E+00  0.00000000000E+00  0.82380694549E+02  0.35043691374E+04  0.35034007011E+04 0.  0.
        1    1    3    3  502    0  0.11934926369E+03  0.96393521602E+03 -0.14169638871E+04  0.17179062852E+04  0.50400001928E-02 0.  1.
       -1    1    3    3    0  502 -0.11934926369E+03 -0.96393521602E+03  0.14993445817E+04  0.17864628521E+04  0.50400001928E-02 0. -1.
</event>
<event>
 5   0  0.1098171E-07  0.3501755E+04  0.7818609E-02  0.8113374E-01
        1   -1    0    0  501    0  0.00000000000E+00  0.00000000000E+00  0.14951924902E+04  0.14951924902E+04  0.50400001928E-02 0. -1.
       -1   -1    0    0    0  501  0.00000000000E+00  0.00000000000E+00 -0.20502861803E+04  0.20502861803E+04  0.50400001928E-02 0.  1.
    10030    2    1    2    0    0  0.00000000000E+00  0.00000000000E+00 -0.55509369006E+03  0.35454786705E+04  0.35017552739E+04 0.  0.
        4    1    3    3  502    0  0.74554480442E+03  0.71426039222E+03  0.11541693879E+04  0.15485843704E+04  0.12699999809E+01 0. -1.
       -4    1    3    3    0  502 -0.74554480442E+03 -0.71426039222E+03 -0.17092630780E+04  0.19968943002E+04  0.12699999809E+01 0.  1.
</event>
<event>
 5   0  0.2180451E-07  0.3501295E+04  0.7818609E-02  0.8113483E-01
       -2   -1    0    0    0  501  0.00000000000E+00  0.00000000000E+00  0.13362937541E+04  0.13362937541E+04  0.25500000920E-02 0.  1.
        2   -1    0    0  501    0  0.00000000000E+00  0.00000000000E+00 -0.22934824086E+04  0.22934824086E+04  0.25500000920E-02 0. -1.
    10030    2    1    2    0    0  0.00000000000E+00  0.00000000000E+00 -0.95718865455E+03  0.36297761627E+04  0.35012947421E+04 0.  0.
        4    1    3    3  502    0 -0.90107809846E+03  0.63245428526E+03 -0.18897284974E+04  0.21870106468E+04  0.12699999809E+01 0. -1.
       -4    1    3    3    0  502  0.90107809846E+03 -0.63245428526E+03  0.93253984284E+03  0.14427655159E+04  0.12699999809E+01 0.  1.
</event>
<event>
 5   0  0.1098171E-07  0.3438636E+04  0.7818609E-02  0.8128488E-01
       -1   -1    0    0    0  501  0.00000000000E+00  0.00000000000E+00  0.12166653207E+04  0.12166653207E+04  0.50400001928E-02 0. -1.
        1   -1    0    0  501    0  0.00000000000E+00  0.00000000000E+00 -0.24296363514E+04  0.24296363514E+04  0.50400001928E-02 0.  1.
    10030    2    1    2    0    0  0.00000000000E+00  0.00000000000E+00 -0.12129710307E+04  0.36463016720E+04  0.34386359450E+04 0.  0.
        4    1    3    3  502    0 -0.72397387856E+03 -0.12769418796E+04 -0.15557192537E+04  0.21389209312E+04  0.12699999809E+01 0.  1.
       -4    1    3    3    0  502  0.72397387856E+03  0.12769418796E+04  0.34274822295E+03  0.15073807409E+04  0.12699999809E+01 0. -1.
</event>
<event>
 5   0  0.3190185E-07  0.3501003E+04  0.7818609E-02  0.8113552E-01
        2   -1    0    0  501    0  0.00000000000E+00  0.00000000000E+00  0.23585720054E+04  0.23585720054E+04  0.25500000920E-02 0.  1.
       -2   -1    0    0    0  501  0.00000000000E+00  0.00000000000E+00 -0.12991993529E+04  0.12991993530E+04  0.25500000920E-02 0. -1.
    10030    2    1    2    0    0  0.00000000000E+00  0.00000000000E+00  0.10593726524E+04  0.36577713583E+04  0.35010028411E+04 0.  0.
        1    1    3    3  502    0 -0.25061156533E+03  0.11381761121E+04 -0.83494124086E+03  0.14336589185E+04  0.50400001928E-02 0. -1.
       -1    1    3    3    0  502  0.25061156533E+03 -0.11381761121E+04  0.18943138933E+04  0.22241124399E+04  0.50400001928E-02 0.  1.
</event>
<event>
 5   0  0.2180451E-07  0.3505137E+04  0.7818609E-02  0.8112574E-01
        2   -1    0    0  501    0  0.00000000000E+00  0.00000000000E+00  0.10495983689E+04  0.10495983689E+04  0.25500000920E-02 0. -1.
       -2   -1    0    0    0  501  0.00000000000E+00  0.00000000000E+00 -0.29263543287E+04  0.29263543287E+04  0.25500000920E-02 0.  1.
    10030    2    1    2    0    0  0.00000000000E+00  0.00000000000E+00 -0.18767559598E+04  0.39759526976E+04  0.35051372185E+04 0.  0.
        4    1    3    3  502    0  0.10342367375E+04 -0.46435859696E+03  0.57763782568E+03  0.12723763619E+04  0.12699999809E+01 0. -1.
       -4    1    3    3    0  502 -0.10342367375E+04  0.46435859696E+03 -0.24543937855E+04  0.27035763357E+04  0.12699999809E+01 0.  1.
</event>
<event>
 5   0  0.1072381E-07  0.3501874E+04  0.7818609E-02  0.8113346E-01
       -1   -1    0    0    0  501  0.00000000000E+00  0.00000000000E+00  0.21697066679E+04  0.21697066679E+04  0.50400001928E-02 0.  1.
        1   -1    0    0  501    0  0.00000000000E+00  0.00000000000E+00 -0.14129927758E+04  0.14129927758E+04  0.50400001928E-02 0. -1.
    10030    2    1    2    0    0  0.00000000000E+00  0.00000000000E+00  0.75671389207E+03  0.35826994437E+04  0.35018736969E+04 0.  0.
        1    1    3    3  502    0 -0.15691163762E+04  0.17589411114E+03 -0.39588935942E+03  0.16278185788E+04  0.50400001928E-02 0. -1.
       -1    1    3    3    0  502  0.15691163762E+04 -0.17589411114E+03  0.11526032515E+04  0.19548808649E+04  0.50400001928E-02 0.  1.
</event>
<event>
 5   0  0.3190185E-07  0.3525984E+04  0.7818609E-02  0.8107660E-01
       -2   -1    0    0    0  501  0.00000000000E+00  0.00000000000E+00  0.24801039852E+04  0.24801039852E+04  0.25500000920E-02 0. -1.
        2   -1    0    0  501    0  0.00000000000E+00  0.00000000000E+00 -0.12532301168E+04  0.12532301168E+04  0.25500000920E-02 0.  1.
    10030    2    1    2    0    0  0.00000000000E+00  0.00000000000E+00  0.12268738683E+04  0.37333341020E+04  0.35259841219E+04 0.  0.
        1    1    3    3  502    0 -0.11915071325E+04  0.21192960407E+03  0.19708321918E+04  0.23127435941E+04  0.50400001928E-02 0. -1.
       -1    1    3    3    0  502  0.11915071325E+04 -0.21192960407E+03 -0.74395832345E+03  0.14205905079E+04  0.50400001928E-02 0.  1.
</event>
<event>
 5   0  0.1033796E-07  0.3502548E+04  0.7818609E-02  0.8113186E-01
        1   -1    0    0  501    0  0.00000000000E+00  0.00000000000E+00  0.27354933406E+04  0.27354933406E+04  0.50400001928E-02 0. -1.
       -1   -1    0    0    0  501  0.00000000000E+00  0.00000000000E+00 -0.11211727489E+04  0.11211727489E+04  0.50400001928E-02 0.  1.
    10030    2    1    2    0    0  0.00000000000E+00  0.00000000000E+00  0.16143205917E+04  0.38566660895E+04  0.35025479801E+04 0.  0.
        3    1    3    3  502    0  0.11591566765E+04 -0.11459241614E+04  0.15123599855E+04  0.22235150371E+04  0.10100000352E+00 0. -1.
       -3    1    3    3    0  502 -0.11591566765E+04  0.11459241614E+04  0.10196060626E+03  0.16331510524E+04  0.10100000352E+00 0.  1.
</event>
<event>
 5   0  0.1013863E-07  0.3499453E+04  0.7818609E-02  0.8113920E-01
       -1   -1    0    0    0  501  0.00000000000E+00  0.00000000000E+00  0.13092518363E+04  0.13092518363E+04  0.50400001928E-02 0.  1.
        1   -1    0    0  501    0  0.00000000000E+00  0.00000000000E+00 -0.23383905606E+04  0.23383905606E+04  0.50400001928E-02 0. -1.
    10030    2    1    2    0    0  0.00000000000E+00  0.00000000000E+00 -0.10291387244E+04  0.36476423969E+04  0.34994526061E+04 0.  0.
        5    1    3    3  502    0 -0.35122534567E+02 -0.16562243461E+04 -0.11016310952E+04  0.19894536529E+04  0.46999998093E+01 0. -1.
       -5    1    3    3    0  502  0.35122534567E+02  0.16562243461E+04  0.72492370840E+02  0.16581887441E+04  0.46999998093E+01 0.  1.
</event>
<event>
 5   0  0.1098171E-07  0.3533925E+04  0.7818609E-02  0.8105797E-01
        1   -1    0    0  501    0  0.00000000000E+00  0.00000000000E+00  0.19734802817E+04  0.19734802817E+04  0.50400001928E-02 0.  1.
       -1   -1    0    0    0  501  0.00000000000E+00  0.00000000000E+00 -0.15820557586E+04  0.15820557586E+04  0.50400001928E-02 0. -1.
    10030    2    1    2    0    0  0.00000000000E+00  0.00000000000E+00  0.39142452303E+03  0.35555360403E+04  0.35339246422E+04 0.  0.
        4    1    3    3  502    0 -0.16764451440E+04 -0.55700626184E+03  0.23375798969E+03  0.17819564269E+04  0.12699999809E+01 0.  1.
       -4    1    3    3    0  502  0.16764451440E+04  0.55700626184E+03  0.15766653333E+03  0.17735796134E+04  0.12699999809E+01 0. -1.
</event>
<event>
 5   0  0.1033796E-07  0.3492010E+04  0.7818609E-02  0.8115686E-01
        1   -1    0    0  501    0  0.00000000000E+00  0.00000000000E+00  0.23820452363E+04  0.23820452363E+04  0.50400001928E-02 0. -1.
       -1   -1    0    0    0  501  0.00000000000E+00  0.00000000000E+00 -0.12797963023E+04  0.12797963023E+04  0.50400001928E-02 0.  1.
    10030    2    1    2    0    0  0.00000000000E+00  0.00000000000E+00  0.11022489340E+04  0.36618415386E+04  0.34920095563E+04 0.  0.
        3    1    3    3  502    0 -0.49147222649E+03 -0.21183088988E+03  0.22939143610E+04  0.23555170094E+04  0.10100000352E+00 0. -1.
       -3    1    3    3    0  502  0.49147222649E+03  0.21183088988E+03 -0.11916654271E+04  0.13063245292E+04  0.10100000352E+00 0.  1.
</event>
<event>
 5   0  0.1033796E-07  0.3519452E+04  0.7818609E-02  0.8109195E-01
       -1   -1    0    0    0  501  0.00000000000E+00  0.00000000000E+00  0.16945078267E+04  0.16945078267E+04  0.50400001928E-02 0. -1.
        1   -1    0    0  501    0  0.00000000000E+00  0.00000000000E+00 -0.18274544040E+04  0.18274544040E+04  0.50400001928E-02 0.  1.
    10030    2    1    2    0    0  0.00000000000E+00  0.00000000000E+00 -0.13294657730E+03  0.35219622307E+04  0.35194521110E+04 0.  0.
        3    1    3    3  502    0  0.12058457753E+04  0.90576247175E+03  0.84090715464E+03  0.17267294351E+04  0.10100000352E+00 0. -1.
       -3    1    3    3    0  502 -0.12058457753E+04 -0.90576247175E+03 -0.97385373194E+03  0.17952327956E+04  0.10100000352E+00 0.  1.
</event>
<event>
 5   0  0.1098171E-07  0.3501378E+04  0.7818609E-02  0.8113463E-01
        1   -1    0    0  501    0  0.00000000000E+00  0.00000000000E+00  0.13851088021E+04  0.13851088022E+04  0.50400001928E-02 0.  1.
       -1   -1    0    0    0  501  0.00000000000E+00  0.00000000000E+00 -0.22127590568E+04  0.22127590568E+04  0.50400001928E-02 0. -1.
    10030    2    1    2    0    0  0.00000000000E+00  0.00000000000E+00 -0.82765025465E+03  0.35978678590E+04  0.35013780411E+04 0.  0.
        4    1    3    3  502    0 -0.30342313933E+03 -0.39038082980E+03  0.13118745815E+04  0.14019555358E+04  0.12699999809E+01 0.  1.
       -4    1    3    3    0  502  0.30342313933E+03  0.39038082980E+03 -0.21395248362E+04  0.21959123232E+04  0.12699999809E+01 0. -1.
</event>
<event>
 5   0  0.1033796E-07  0.3509363E+04  0.7818609E-02  0.8111575E-01
       -1   -1    0    0    0  501  0.00000000000E+00  0.00000000000E+00  0.17456515271E+04  0.17456515271E+04  0.50400001928E-02 0.  1.
        1   -1    0    0  501    0  0.00000000000E+00  0.00000000000E+00 -0.17637585089E+04  0.17637585089E+04  0.50400001928E-02 0. -1.
    10030    2    1    2    0    0  0.00000000000E+00  0.00000000000E+00 -0.18106981775E+02  0.35094100360E+04  0.35093633238E+04 0.  0.
        3    1    3    3  502    0 -0.12540534617E+04 -0.96011506990E+03 -0.77354825919E+03  0.17586494681E+04  0.10100000352E+00 0. -1.
       -3    1    3    3    0  502  0.12540534617E+04  0.96011506990E+03  0.75544127742E+03  0.17507605679E+04  0.10100000352E+00 0.  1.
</event>
<event>
 5   0  0.1072381E-07  0.3433322E+04  0.7818609E-02  0.8129776E-01
       -1   -1    0    0    0  501  0.00000000000E+00  0.00000000000E+00  0.10953380890E+04  0.10953380890E+04  0.50400001928E-02 0. -1.
        1   -1    0    0  501    0  0.00000000000E+00  0.00000000000E+00 -0.26904248855E+04  0.26904248855E+04  0.50400001928E-02 0.  1.
    10030    2    1    2    0    0  0.00000000000E+00  0.00000000000E+00 -0.15950867965E+04  0.37857629745E+04  0.34333219206E+04 0.  0.
        1    1    3    3  502    0 -0.64142211226E+03  0.50866137027E+03  0.86624505048E+03  0.11918637519E+04  0.50400001928E-02 0. -1.
       -1    1    3    3    0  502  0.64142211226E+03 -0.50866137027E+03 -0.24613318470E+04  0.25938992226E+04  0.50400001928E-02 0.  1.
</event>
<event>
 5   0  0.1033796E-07  0.3502179E+04  0.7818609E-02  0.8113274E-01
        1   -1    0    0  501    0  0.00000000000E+00  0.00000000000E+00  0.23066924762E+04  0.23066924762E+04  0.50400001928E-02 0.  1.
       -1   -1    0    0    0  501  0.00000000000E+00  0.00000000000E+00 -0.13293123025E+04  0.13293123025E+04  0.50400001928E-02 0. -1.
    10030    2    1    2    0    0  0.00000000000E+00  0.00000000000E+00  0.97738017364E+03  0.36360047787E+04  0.35021791426E+04 0.  0.
        3    1    3    3  502    0 -0.16395419739E+04  0.25448908016E+03 -0.92571576415E+02  0.16617557230E+04  0.10100000352E+00 0. -1.
       -3    1    3    3    0  502  0.16395419739E+04 -0.25448908016E+03  0.10699517501E+04  0.19742490556E+04  0.10100000352E+00 0.  1.
</event>
<event>
 5   0  0.3190185E-07  0.3509618E+04  0.7818609E-02  0.8111514E-01
       -2   -1    0    0    0  501  0.00000000000E+00  0.00000000000E+00  0.29233778640E+04  0.29233778640E+04  0.25500000920E-02 0.  1.
        2   -1    0    0  501    0  0.00000000000E+00  0.00000000000E+00 -0.10533549365E+04  0.10533549365E+04  0.25500000920E-02 0. -1.
    10030    2    1    2    0    0  0.00000000000E+00  0.00000000000E+00  0.18700229275E+04  0.39767328005E+04  0.35096179304E+04 0.  0.
        1    1    3    3  502    0  0.12342361641E+04  0.35597415731E+03  0.22896641528E+04  0.26253796758E+04  0.50400001928E-02 0.  1.
       -1    1    3    3    0  502 -0.12342361641E+04 -0.35597415731E+03 -0.41964122529E+03  0.13513531247E+04  0.50400001928E-02 0. -1.
</event>
<event>
 5   0  0.3219205E-07  0.3499941E+04  0.7818609E-02  0.8113804E-01
        2   -1    0    0  501    0  0.00000000000E+00  0.00000000000E+00  0.20673930524E+04  0.20673930524E+04  0.25500000920E-02 0. -1.
       -2   -1    0    0    0  501  0.00000000000E+00  0.00000000000E+00 -0.14812842454E+04  0.14812842454E+04  0.25500000920E-02 0.  1.
    10030    2    1    2    0    0  0.00000000000E+00  0.00000000000E+00  0.58610880707E+03  0.35486772978E+04  0.34999410038E+04 0.  0.
        2    1    3    3  502    0  0.67553067872E+03  0.12020045180E+04 -0.79955973248E+03  0.15938796457E+04  0.25500000920E-02 0.  1.
       -2    1    3    3    0  502 -0.67553067872E+03 -0.12020045180E+04  0.13856685396E+04  0.19547976521E+04  0.25500000920E-02 0. -1.
</event>
<event>
 5   0  0.1013863E-07  0.3503110E+04  0.7818609E-02  0.8113053E-01
        1   -1    0    0  501    0  0.00000000000E+00  0.00000000000E+00  0.18712630824E+04  0.18712630824E+04  0.50400001928E-02 0.  1.
       -1   -1    0    0    0  501  0.00000000000E+00  0.00000000000E+00 -0.16395049804E+04  0.16395049804E+04  0.50400001928E-02 0. -1.
    10030    2    1    2    0    0  0.00000000000E+00  0.00000000000E+00  0.23175810201E+03  0.35107680628E+04  0.35031101286E+04 0.  0.
        5    1    3    3  502    0 -0.55070948714E+03  0.78459261164E+03  0.15850497896E+04  0.18523691400E+04  0.46999998093E+01 0.  1.
       -5    1    3    3    0  502  0.55070948714E+03 -0.78459261164E+03 -0.13532916876E+04  0.16583989228E+04  0.46999998093E+01 0. -1.
</event>
<event>
 5   0  0.3190185E-07  0.3497927E+04  0.7818609E-02  0.8114281E-01
       -2   -1    0    0    0  501  0.00000000000E+00  0.00000000000E+00  0.22272636003E+04  0.22272636003E+04  0.25500000920E-02 0.  1.
        2   -1    0    0  501    0  0.00000000000E+00  0.00000000000E+00 -0.13733773039E+04  0.13733773040E+04  0.25500000920E-02 0. -1.
    10030    2    1    2    0    0  0.00000000000E+00  0.00000000000E+00  0.85388629633E+03  0.36006409042E+04  0.34979269738E+04 0.  0.
        1    1    3    3  502    0  0.16050600946E+04 -0.33347667402E+03 -0.20041924488E+03  0.16515424527E+04  0.50400001928E-02 0. -1.
       -1    1    3    3    0  502 -0.16050600946E+04  0.33347667402E+03  0.10543055412E+04  0.19490984515E+04  0.50400001928E-02 0.  1.
</event>
<event>
 5   0  0.3190185E-07  0.3509869E+04  0.7818609E-02  0.8111455E-01
       -2   -1    0    0    0  501  0.00000000000E+00  0.00000000000E+00  0.11080978974E+04  0.11080978974E+04  0.25500000920E-02 0.  1.
        2   -1    0    0  501    0  0.00000000000E+00  0.00000000000E+00 -0.27793523329E+04  0.27793523329E+04  0.25500000920E-02 0. -1.
    10030    2    1    2    0    0  0.00000000000E+00  0.00000000000E+00 -0.16712544356E+04  0.38874502303E+04  0.35098686450E+04 0.  0.
        1    1    3    3  502    0 -0.91476849222E+03 -0.68019476601E+03 -0.23134556212E+04  0.25790585929E+04  0.50400001928E-02 0. -1.
       -1    1    3    3    0  502  0.91476849222E+03  0.68019476601E+03  0.64220118567E+03  0.13083916375E+04  0.50400001928E-02 0.  1.
</event>
<event>
 5   0  0.2180451E-07  0.3518382E+04  0.7818609E-02  0.8109448E-01
        2   -1    0    0  501    0  0.00000000000E+00  0.00000000000E+00  0.15678710110E+04  0.15678710110E+04  0.25500000920E-02 0. -1.
       -2   -1    0    0    0  501  0.00000000000E+00  0.00000000000E+00 -0.19738563876E+04  0.19738563876E+04  0.25500000920E-02 0.  1.
    10030    2    1    2    0    0  0.00000000000E+00  0.00000000000E+00 -0.40598537664E+03  0.35417273986E+04  0.35183815655E+04 0.  0.
        4    1    3    3  502    0 -0.13153966975E+04 -0.11343572035E+04 -0.48361811800E+03  0.18030315677E+04  0.12699999809E+01 0.  1.
       -4    1    3    3    0  502  0.13153966975E+04  0.11343572035E+04  0.77632741361E+02  0.17386958309E+04  0.12699999809E+01 0. -1.
</event>
<event>
 5   0  0.3219205E-07  0.3489562E+04  0.7818609E-02  0.8116268E-01
        2   -1    0    0  501    0  0.00000000000E+00  0.00000000000E+00  0.16130588884E+04  0.16130588884E+04  0.25500000920E-02 0. -1.
       -2   -1    0    0    0  501  0.00000000000E+00  0.00000000000E+00 -0.18872590405E+04  0.18872590405E+04  0.25500000920E-02 0.  1.
    10030    2    1    2    0    0  0.00000000000E+00  0.00000000000E+00 -0.27420015211E+03  0.35003179288E+04  0.34895615598E+04 0.  0.
        2    1    3    3  502    0 -0.13701182769E+04  0.48641024028E+03  0.83046690118E+03  0.16743638459E+04  0.25500000920E-02 0.  1.
       -2    1    3    3    0  502  0.13701182769E+04 -0.48641024028E+03 -0.11046670533E+04  0.18259540830E+04  0.25500000920E-02 0. -1.
</event>
<event>
 5   0  0.1013863E-07  0.3495798E+04  0.7818609E-02  0.8114787E-01
       -1   -1    0    0    0  501  0.00000000000E+00  0.00000000000E+00  0.13046303292E+04  0.13046303292E+04  0.50400001928E-02 0.  1.
        1   -1    0    0  501    0  0.00000000000E+00  0.00000000000E+00 -0.23417750331E+04  0.23417750331E+04  0.50400001928E-02 0. -1.
    10030    2    1    2    0    0  0.00000000000E+00  0.00000000000E+00 -0.10371447039E+04  0.36464053623E+04  0.34957978959E+04 0.  0.
        5    1    3    3  502    0  0.61887962276E+03 -0.15792933933E+04 -0.78558401559E+02  0.16980497996E+04  0.46999998093E+01 0.  1.
       -5    1    3    3    0  502 -0.61887962276E+03  0.15792933933E+04 -0.95858630237E+03  0.19483555627E+04  0.46999998093E+01 0. -1.
</event>
<event>
 5   0  0.3219205E-07  0.3498147E+04  0.7818609E-02  0.8114229E-01
        2   -1    0    0  501    0  0.00000000000E+00  0.00000000000E+00  0.13660190601E+04  0.13660190601E+04  0.25500000920E-02 0. -1.
       -2   -1    0    0    0  501  0.00000000000E+00  0.00000000000E+00 -0.22395433322E+04  0.22395433322E+04  0.25500000920E-02 0.  1.
    10030    2    1    2    0    0  0.00000000000E+00  0.00000000000E+00 -0.87352427217E+03  0.36055623923E+04  0.34981474398E+04 0.  0.
        2    1    3    3  502    0 -0.12949386322E+04  0.45320416300E+03  0.68144668954E+03  0.15318712952E+04  0.25500000920E-02 0. -1.
       -2    1    3    3    0  502  0.12949386322E+04 -0.45320416300E+03 -0.15549709617E+04  0.20736910971E+04  0.25500000920E-02 0.  1.
</event>
<event>
 5   0  0.1013863E-07  0.3513453E+04  0.7818609E-02  0.8110609E-01
        1   -1    0    0  501    0  0.00000000000E+00  0.00000000000E+00  0.21626572774E+04  0.21626572774E+04  0.50400001928E-02 0. -1.
       -1   -1    0    0    0  501  0.00000000000E+00  0.00000000000E+00 -0.14269890566E+04  0.14269890566E+04  0.50400001928E-02 0.  1.
    10030    2    1    2    0    0  0.00000000000E+00  0.00000000000E+00  0.73566822081E+03  0.35896463339E+04  0.35134531549E+04 0.  0.
        5    1    3    3  502    0 -0.11043532707E+04 -0.49330217556E+03 -0.93381285467E+03  0.15280614256E+04  0.46999998093E+01 0.  1.
       -5    1    3    3    0  502  0.11043532707E+04  0.49330217556E+03  0.16694810755E+04  0.20615849083E+04  0.46999998093E+01 0. -1.
</event>
<event>
 5   0  0.1013863E-07  0.3505546E+04  0.7818609E-02  0.8112477E-01
        1   -1    0    0  501    0  0.00000000000E+00  0.00000000000E+00  0.14104979154E+04  0.14104979154E+04  0.50400001928E-02 0.  1.
       -1   -1    0    0    0  501  0.00000000000E+00  0.00000000000E+00 -0.21781054461E+04  0.21781054461E+04  0.50400001928E-02 0. -1.
    10030    2    1    2    0    0  0.00000000000E+00  0.00000000000E+00 -0.76760753073E+03  0.35886033615E+04  0.35055460009E+04 0.  0.
        2    1    3    3  502    0  0.50056224903E+03 -0.89310056866E+03  0.10725852798E+04  0.14827779245E+04  0.25500000920E-02 0.  1.
       -2    1    3    3    0  502 -0.50056224903E+03  0.89310056866E+03 -0.18401928106E+04  0.21058254370E+04  0.25500000920E-02 0. -1.
</event>
<event>
 5   0  0.3190112E-07  0.3483819E+04  0.7818609E-02  0.8117635E-01
        2   -1    0    0  501    0  0.00000000000E+00  0.00000000000E+00  0.13918017462E+04  0.13918017462E+04  0.25500000920E-02 0.  1.
       -2   -1    0    0    0  501  0.00000000000E+00  0.00000000000E+00 -0.21800869602E+04  0.21800869602E+04  0.25500000920E-02 0. -1.
    10030    2    1    2    0    0  0.00000000000E+00  0.00000000000E+00 -0.78828521397E+03  0.35718887063E+04  0.34838190757E+04 0.  0.
        5    1    3    3  502    0 -0.14461614458E+04 -0.45711553975E+03  0.48418710707E+03  0.15921045156E+04  0.46999998093E+01 0.  1.
       -5    1    3    3    0  502  0.14461614458E+04  0.45711553975E+03 -0.12724723210E+04  0.19797841907E+04  0.46999998093E+01 0. -1.
</event>
<event>
 5   0  0.1013863E-07  0.3499352E+04  0.7818609E-02  0.8113943E-01
        1   -1    0    0  501    0  0.00000000000E+00  0.00000000000E+00  0.18650591481E+04  0.18650591481E+04  0.50400001928E-02 0.  1.
       -1   -1    0    0    0  501  0.00000000000E+00  0.00000000000E+00 -0.16414315760E+04  0.16414315760E+04  0.50400001928E-02 0. -1.
    10030    2    1    2    0    0  0.00000000000E+00  0.00000000000E+00  0.22362757204E+03  0.35064907241E+04  0.34993524983E+04 0.  0.
        2    1    3    3  502    0  0.16083029766E+04  0.67622738119E+03 -0.20535317452E+02  0.17448047555E+04  0.25500000920E-02 0. -1.
       -2    1    3    3    0  502 -0.16083029766E+04 -0.67622738119E+03  0.24416288949E+03  0.17616859686E+04  0.25500000920E-02 0.  1.
</event>
<event>
 5   0  0.3190185E-07  0.3499372E+04  0.7818609E-02  0.8113939E-01
       -2   -1    0    0    0  501  0.00000000000E+00  0.00000000000E+00  0.15795367661E+04  0.15795367661E+04  0.25500000920E-02 0.  1.
        2   -1    0    0  501    0  0.00000000000E+00  0.00000000000E+00 -0.19381643903E+04  0.19381643903E+04  0.25500000920E-02 0. -1.
    10030    2    1    2    0    0  0.00000000000E+00  0.00000000000E+00 -0.35862762417E+03  0.35177011564E+04  0.34993724656E+04 0.  0.
        1    1    3    3  502    0  0.38339311352E+03 -0.16421614415E+04 -0.64835974514E+03  0.18066695432E+04  0.50400001928E-02 0.  1.
       -1    1    3    3    0  502 -0.38339311352E+03  0.16421614415E+04  0.28973212097E+03  0.17110316132E+04  0.50400001928E-02 0. -1.
</event>
<event>
 5   0  0.2180451E-07  0.3501379E+04  0.7818609E-02  0.8113463E-01
        2   -1    0    0  501    0  0.00000000000E+00  0.00000000000E+00  0.95566350139E+03  0.95566350140E+03  0.25500000920E-02 0.  1.
       -2   -1    0    0    0  501  0.00000000000E+00  0.00000000000E+00 -0.32071050828E+04  0.32071050828E+04  0.25500000920E-02 0. -1.
    10030    2    1    2    0    0  0.00000000000E+00  0.00000000000E+00 -0.22514415814E+04  0.41627685842E+04  0.35013787415E+04 0.  0.
        4    1    3    3  502    0  0.60086322169E+03  0.98434292729E+03 -0.26916997217E+04  0.29283470789E+04  0.12699999809E+01 0. -1.
       -4    1    3    3    0  502 -0.60086322169E+03 -0.98434292729E+03  0.44025814033E+03  0.12344215053E+04  0.12699999809E+01 0.  1.
</event>
<event>
 5   0  0.1033796E-07  0.3508392E+04  0.7818609E-02  0.8111804E-01
        1   -1    0    0  501    0  0.00000000000E+00  0.00000000000E+00  0.20858679961E+04  0.20858679961E+04  0.50400001928E-02 0.  1.
       -1   -1    0    0    0  501  0.00000000000E+00  0.00000000000E+00 -0.14752630957E+04  0.14752630957E+04  0.50400001928E-02 0. -1.
    10030    2    1    2    0    0  0.00000000000E+00  0.00000000000E+00  0.61060490039E+03  0.35611310917E+04  0.35083922683E+04 0.  0.
        3    1    3    3  502    0 -0.52602341172E+03 -0.34326413866E+03 -0.13572053770E+04  0.14955057152E+04  0.10100000352E+00 0. -1.
       -3    1    3    3    0  502  0.52602341172E+03  0.34326413866E+03  0.19678102774E+04  0.20656253766E+04  0.10100000352E+00 0.  1.
</event>
<event>
 5   0  0.3119048E-07  0.3503581E+04  0.7818609E-02  0.8112942E-01
       -2   -1    0    0    0  501  0.00000000000E+00  0.00000000000E+00  0.13977791781E+04  0.13977791781E+04  0.25500000920E-02 0.  1.
        2   -1    0    0  501    0  0.00000000000E+00  0.00000000000E+00 -0.21954618144E+04  0.21954618144E+04  0.25500000920E-02 0. -1.
    10030    2    1    2    0    0  0.00000000000E+00  0.00000000000E+00 -0.79768263631E+03  0.35932409925E+04  0.35035814879E+04 0.  0.
        3    1    3    3  502    0 -0.90051864010E+03  0.30032625548E+03 -0.19088095595E+04  0.21318263592E+04  0.10100000352E+00 0. -1.
       -3    1    3    3    0  502  0.90051864010E+03 -0.30032625548E+03  0.11111269232E+04  0.14614146334E+04  0.10100000352E+00 0.  1.
</event>
<event>
 5   0  0.1033796E-07  0.3514892E+04  0.7818609E-02  0.8110270E-01
        1   -1    0    0  501    0  0.00000000000E+00  0.00000000000E+00  0.12012434464E+04  0.12012434464E+04  0.50400001928E-02 0.  1.
       -1   -1    0    0    0  501  0.00000000000E+00  0.00000000000E+00 -0.25711830317E+04  0.25711830317E+04  0.50400001928E-02 0. -1.
    10030    2    1    2    0    0  0.00000000000E+00  0.00000000000E+00 -0.13699395854E+04  0.37724264781E+04  0.35148921840E+04 0.  0.
        3    1    3    3  502    0 -0.11901608027E+03 -0.10671406053E+04 -0.21781892308E+04  0.24284691133E+04  0.10100000352E+00 0. -1.
       -3    1    3    3    0  502  0.11901608027E+03  0.10671406053E+04  0.80824964544E+03  0.13439573648E+04  0.10100000352E+00 0.  1.
</event>
<event>
 5   0  0.1013863E-07  0.3497666E+04  0.7818609E-02  0.8114343E-01
        1   -1    0    0  501    0  0.00000000000E+00  0.00000000000E+00  0.20469898354E+04  0.20469898354E+04  0.50400001928E-02 0. -1.
       -1   -1    0    0    0  501  0.00000000000E+00  0.00000000000E+00 -0.14941048530E+04  0.14941048530E+04  0.50400001928E-02 0.  1.
    10030    2    1    2    0    0  0.00000000000E+00  0.00000000000E+00  0.55288498237E+03  0.35410946884E+04  0.34976663346E+04 0.  0.
        2    1    3    3  502    0  0.12908731087E+04 -0.64551493351E+03  0.12763155564E+04  0.19266614419E+04  0.25500000920E-02 0. -1.
       -2    1    3    3    0  502 -0.12908731087E+04  0.64551493351E+03 -0.72343057399E+03  0.16144332465E+04  0.25500000920E-02 0.  1.
</event>
<event>
 5   0  0.3219205E-07  0.3500192E+04  0.7818609E-02  0.8113744E-01
        2   -1    0    0  501    0  0.00000000000E+00  0.00000000000E+00  0.16985409137E+04  0.16985409137E+04  0.25500000920E-02 0. -1.
       -2   -1    0    0    0  501  0.00000000000E+00  0.00000000000E+00 -0.18032158432E+04  0.18032158432E+04  0.25500000920E-02 0.  1.
    10030    2    1    2    0    0  0.00000000000E+00  0.00000000000E+00 -0.10467492947E+03  0.35017567569E+04  0.35001919295E+04 0.  0.
        2    1    3    3  502    0 -0.11954876054E+02  0.14204243500E+04  0.97041484845E+03  0.17203061447E+04  0.25500000920E-02 0. -1.
       -2    1    3    3    0  502  0.11954876054E+02 -0.14204243500E+04 -0.10750897779E+04  0.17814506122E+04  0.25500000920E-02 0.  1.
</event>
<event>
 5   0  0.1013863E-07  0.3504687E+04  0.7818609E-02  0.8112680E-01
        1   -1    0    0  501    0  0.00000000000E+00  0.00000000000E+00  0.11559653187E+04  0.11559653187E+04  0.50400001928E-02 0.  1.
       -1   -1    0    0    0  501  0.00000000000E+00  0.00000000000E+00 -0.26564010051E+04  0.26564010051E+04  0.50400001928E-02 0. -1.
    10030    2    1    2    0    0  0.00000000000E+00  0.00000000000E+00 -0.15004356863E+04  0.38123663238E+04  0.35046868245E+04 0.  0.
        5    1    3    3  502    0 -0.91740432050E+03 -0.88299638200E+03  0.55937215397E+03  0.13907669088E+04  0.46999998093E+01 0.  1.
       -5    1    3    3    0  502  0.91740432050E+03  0.88299638200E+03 -0.20598078403E+04  0.24215994150E+04  0.46999998093E+01 0. -1.
</event>
<event>
 5   0  0.1098171E-07  0.3492883E+04  0.7818609E-02  0.8115479E-01
       -1   -1    0    0    0  501  0.00000000000E+00  0.00000000000E+00  0.20608923959E+04  0.20608923959E+04  0.50400001928E-02 0.  1.
        1   -1    0    0  501    0  0.00000000000E+00  0.00000000000E+00 -0.14799691210E+04  0.14799691210E+04  0.50400001928E-02 0. -1.
    10030    2    1    2    0    0  0.00000000000E+00  0.00000000000E+00  0.58092327489E+03  0.35408615169E+04  0.34928825389E+04 0.  0.
        4    1    3    3  502    0  0.35562695841E+03 -0.10459324707E+04  0.16616725170E+04  0.19953953076E+04  0.12699999809E+01 0.  1.
       -4    1    3    3    0  502 -0.35562695841E+03  0.10459324707E+04 -0.10807492421E+04  0.15454662093E+04  0.12699999809E+01 0. -1.
</event>
<event>
 5   0  0.2180451E-07  0.3504828E+04  0.7818609E-02  0.8112647E-01
       -2   -1    0    0    0  501  0.00000000000E+00  0.00000000000E+00  0.20652499542E+04  0.20652499542E+04  0.25500000920E-02 0.  1.
        2   -1    0    0  501    0  0.00000000000E+00  0.00000000000E+00 -0.14869654796E+04  0.14869654796E+04  0.25500000920E-02 0. -1.
    10030    2    1    2    0    0  0.00000000000E+00  0.00000000000E+00  0.57828447464E+03  0.35522154338E+04  0.35048283203E+04 0.  0.
        4    1    3    3  502    0 -0.12805963561E+04  0.59687661025E+03 -0.76158337145E+03  0.16050543791E+04  0.12699999809E+01 0. -1.
       -4    1    3    3    0  502  0.12805963561E+04 -0.59687661025E+03  0.13398678461E+04  0.19471610547E+04  0.12699999809E+01 0.  1.
</event>
<event>
 5   0  0.1098171E-07  0.3483877E+04  0.7818609E-02  0.8117621E-01
       -1   -1    0    0    0  501  0.00000000000E+00  0.00000000000E+00  0.19239716788E+04  0.19239716788E+04  0.50400001928E-02 0. -1.
        1   -1    0    0  501    0  0.00000000000E+00  0.00000000000E+00 -0.15771284529E+04  0.15771284529E+04  0.50400001928E-02 0.  1.
    10030    2    1    2    0    0  0.00000000000E+00  0.00000000000E+00  0.34684322592E+03  0.35011001317E+04  0.34838774245E+04 0.  0.
        4    1    3    3  502    0  0.16576196110E+04  0.48304461107E+03 -0.58618074837E+02  0.17275626074E+04  0.12699999809E+01 0. -1.
       -4    1    3    3    0  502 -0.16576196110E+04 -0.48304461107E+03  0.40546130075E+03  0.17735375243E+04  0.12699999809E+01 0.  1.
</event>
<event>
 5   0  0.2180451E-07  0.3505767E+04  0.7818609E-02  0.8112425E-01
        2   -1    0    0  501    0  0.00000000000E+00  0.00000000000E+00  0.17371842860E+04  0.17371842860E+04  0.25500000920E-02 0. -1.
       -2   -1    0    0    0  501  0.00000000000E+00  0.00000000000E+00 -0.17687242857E+04  0.17687242857E+04  0.25500000920E-02 0.  1.
    10030    2    1    2    0    0  0.00000000000E+00  0.00000000000E+00 -0.31539999717E+02  0.35059085718E+04  0.35057666982E+04 0.  0.
        4    1    3    3  502    0  0.57774761509E+03  0.25630811416E+03  0.16192616895E+04  0.17382451462E+04  0.12699999809E+01 0. -1.
       -4    1    3    3    0  502 -0.57774761509E+03 -0.25630811416E+03 -0.16508016892E+04  0.17676634256E+04  0.12699999809E+01 0.  1.
</event>
<event>
 5   0  0.3119048E-07  0.3484839E+04  0.7818609E-02  0.8117392E-01
       -2   -1    0    0    0  501  0.00000000000E+00  0.00000000000E+00  0.13187391975E+04  0.13187391975E+04  0.25500000920E-02 0.  1.
        2   -1    0    0  501    0  0.00000000000E+00  0.00000000000E+00 -0.23022185613E+04  0.23022185613E+04  0.25500000920E-02 0. -1.
    10030    2    1    2    0    0  0.00000000000E+00  0.00000000000E+00 -0.98347936376E+03  0.36209577588E+04  0.34848390826E+04 0.  0.
        3    1    3    3  502    0  0.12588429712E+02 -0.69508068745E+03 -0.21518738547E+04  0.22613838081E+04  0.10100000352E+00 0. -1.
       -3    1    3    3    0  502 -0.12588429712E+02  0.69508068745E+03  0.11683944910E+04  0.13595739507E+04  0.10100000352E+00 0.  1.
</event>
<event>
 5   0  0.1098171E-07  0.3513833E+04  0.7818609E-02  0.8110520E-01
       -1   -1    0    0    0  501  0.00000000000E+00  0.00000000000E+00  0.23189992742E+04  0.23189992742E+04  0.50400001928E-02 0. -1.
        1   -1    0    0  501    0  0.00000000000E+00  0.00000000000E+00 -0.13310721849E+04  0.13310721849E+04  0.50400001928E-02 0.  1.
    10030    2    1    2    0    0  0.00000000000E+00  0.00000000000E+00  0.98792708935E+03  0.36500714591E+04  0.35138329104E+04 0.  0.
        4    1    3    3  502    0 -0.11683415527E+04 -0.38506392761E+03 -0.80904656053E+03  0.14723634613E+04  0.12699999809E+01 0.  1.
       -4    1    3    3    0  502  0.11683415527E+04  0.38506392761E+03  0.17969736499E+04  0.21777079977E+04  0.12699999809E+01 0. -1.
</event>
<event>
 5   0  0.3190112E-07  0.3490771E+04  0.7818609E-02  0.8115981E-01
        2   -1    0    0  501    0  0.00000000000E+00  0.00000000000E+00  0.26234312051E+04  0.26234312051E+04  0.25500000920E-02 0. -1.
       -2   -1    0    0    0  501  0.00000000000E+00  0.00000000000E+00 -0.11612158846E+04  0.11612158846E+04  0.25500000920E-02 0.  1.
    10030    2    1    2    0    0  0.00000000000E+00  0.00000000000E+00  0.14622153206E+04  0.37846470897E+04  0.34907706813E+04 0.  0.
        5    1    3    3  502    0  0.65443354959E+03  0.16018389889E+04  0.48345587737E+03  0.17966421715E+04  0.46999998093E+01 0. -1.
       -5    1    3    3    0  502 -0.65443354959E+03 -0.16018389889E+04  0.97875944319E+03  0.19880049182E+04  0.46999998093E+01 0.  1.
</event>
<event>
 5   0  0.3190112E-07  0.3502339E+04  0.7818609E-02  0.8113236E-01
        2   -1    0    0  501    0  0.00000000000E+00  0.00000000000E+00  0.28395972909E+04  0.28395972909E+04  0.25500000920E-02 0. -1.
       -2   -1    0    0    0  501  0.00000000000E+00  0.00000000000E+00 -0.10799400794E+04  0.10799400794E+04  0.25500000920E-02 0.  1.
    10030    2    1    2    0    0  0.00000000000E+00  0.00000000000E+00  0.17596572115E+04  0.39195373704E+04  0.35023391748E+04 0.  0.
        5    1    3    3  502    0 -0.62960646144E+03 -0.92260107703E+03  0.23891789810E+04  0.26373841845E+04  0.46999998093E+01 0. -1.
       -5    1    3    3    0  502  0.62960646144E+03  0.92260107703E+03 -0.62952176947E+03  0.12821531858E+04  0.46999998093E+01 0.  1.
</event>
<event>
 5   0  0.3219205E-07  0.3495431E+04  0.7818609E-02  0.8114874E-01
       -2   -1    0    0    0  501  0.00000000000E+00  0.00000000000E+00  0.13892705021E+04  0.13892705021E+04  0.25500000920E-02 0.  1.
        2   -1    0    0  501    0  0.00000000000E+00  0.00000000000E+00 -0.21986430460E+04  0.21986430460E+04  0.25500000920E-02 0. -1.
    10030    2    1    2    0    0  0.00000000000E+00  0.00000000000E+00 -0.80937254390E+03  0.35879135481E+04  0.34954312629E+04 0.  0.
        2    1    3    3  502    0 -0.17377750811E+04  0.13962782959E+03 -0.27833697873E+03  0.17654545129E+04  0.25500000920E-02 0. -1.
       -2    1    3    3    0  502  0.17377750811E+04 -0.13962782959E+03 -0.53103556518E+03  0.18224590352E+04  0.25500000920E-02 0.  1.
</event>
<event>
 5   0  0.1033796E-07  0.3480202E+04  0.7818609E-02  0.8118498E-01
        1   -1    0    0  501    0  0.00000000000E+00  0.00000000000E+00  0.18200949927E+04  0.18200949927E+04  0.50400001928E-02 0.  1.
       -1   -1    0    0    0  501  0.00000000000E+00  0.00000000000E+00 -0.16636229470E+04  0.16636229470E+04  0.50400001928E-02 0. -1.
    10030    2    1    2    0    0  0.00000000000E+00  0.00000000000E+00  0.15647204571E+03  0.34837179397E+04  0.34802021755E+04 0.  0.
        3    1    3    3  502    0 -0.17340732917E+04 -0.11863380220E+03 -0.47188311858E+01  0.17381330322E+04  0.10100000352E+00 0.  1.
       -3    1    3    3    0  502  0.17340732917E+04  0.11863380220E+03  0.16119087690E+03  0.17455849075E+04  0.10100000352E+00 0. -1.
</event>
</LesHouchesEvents>
