<LesHouchesEvents version="3.0">
<header>
<!--
#*********************************************************************
#                                                                    *
#                        MadGraph5_aMC@NLO                           *
#                                                                    *
#                           Going Beyond                             *
#                                                                    *
#                   http://madgraph.hep.uiuc.edu                     *
#                   http://madgraph.phys.ucl.ac.be                   *
#                   http://amcatnlo.cern.ch                          *
#                                                                    *
#                     The MadGraph5_aMC@NLO team                     *
#                                                                    *
#....................................................................*
#                                                                    *
# This file contains all the information necessary to reproduce      *
# the events generated:                                              *
#                                                                    *
# 1. software version                                                *
# 2. proc_card          : code generation info including model       *
# 3. param_card         : model primary parameters in the LH format  *
# 4. run_card           : running parameters (collider and cuts)     *
# 5. pythia_card        : present only if pythia has been run        *
# 6. pgs_card           : present only if pgs has been run           *
# 7. delphes_cards      : present only if delphes has been run       *
#                                                                    *
#                                                                    *
#*********************************************************************
-->
<MGVersion>
#5.2.2.3
</MGVersion>
<MG5ProcCard>
#************************************************************
#*                     MadGraph5_aMC@NLO                    *
#*                                                          *
#*                *                       *                 *
#*                  *        * *        *                   *
#*                    * * * * 5 * * * *                     *
#*                  *        * *        *                   *
#*                *                       *                 *
#*                                                          *
#*                                                          *
#*         VERSION 2.2.3                 2015-02-10         *
#*                                                          *
#*    The MadGraph5_aMC@NLO Development Team - Find us at   *
#*    https://server06.fynu.ucl.ac.be/projects/madgraph     *
#*                                                          *
#************************************************************
#*                                                          *
#*               Command File for MadGraph5_aMC@NLO         *
#*                                                          *
#*     run as ./bin/mg5_aMC  filename                       *
#*                                                          *
#************************************************************
set group_subprocesses Auto
set ignore_six_quark_processes False
set loop_optimized_output True
set gauge unitary
set complex_mass_scheme False
import model sm
define p = g u c d s u~ c~ d~ s~
define j = g u c d s u~ c~ d~ s~
define l+ = e+ mu+
define l- = e- mu-
define vl = ve vm vt
define vl~ = ve~ vm~ vt~
import model Zprime_UFO
generate p p > zph, zph > j j
add process p p > zph, zph > b b~
output Dijet_signal
</MG5ProcCard>
<MGProcCard>
#*********************************************************************
#                        MadGraph/MadEvent                           *
#                   http://madgraph.hep.uiuc.edu                     *
#                                                                    *
#                          proc_card.dat                             *
#*********************************************************************
#                                                                    *
#            This Files is generated by MADGRAPH 5                   *
#                                                                    *
# WARNING: This Files is generated for MADEVENT (compatibility issue)*
#          This files is NOT a valid MG4 proc_card.dat               *
#          Running this in MG4 will NEVER reproduce the result of MG5*
#                                                                    *
#*********************************************************************
#*********************************************************************
# Process(es) requested : mg2 input                                  *
#*********************************************************************
# Begin PROCESS # This is TAG. Do not modify this line
p p > zph , zph > j j           #Process
# Be carefull the coupling are here in MG5 convention
          
end_coup           # End the couplings input

done               # this tells MG there are no more procs
# End PROCESS  # This is TAG. Do not modify this line
#*********************************************************************
# Model information                                                  *
#*********************************************************************
# Begin MODEL  # This is TAG. Do not modify this line
Zprime_UFO
# End   MODEL  # This is TAG. Do not modify this line
#*********************************************************************
# Start multiparticle definitions                                    *
#*********************************************************************
# Begin MULTIPARTICLES # This is TAG. Do not modify this line

# End  MULTIPARTICLES # This is TAG. Do not modify this line
</MGProcCard>
<MGRunCard>
#*********************************************************************
#                       MadGraph5_aMC@NLO                            *
#                                                                    *
#                     run_card.dat MadEvent                          *
#                                                                    *
#  This file is used to set the parameters of the run.               *
#                                                                    *
#  Some notation/conventions:                                        *
#                                                                    *
#   Lines starting with a '# ' are info or comments                  *
#                                                                    *
#   mind the format:   value    = variable     ! comment             *
#*********************************************************************
#
#*******************                                                 
# Running parameters
#*******************                                                 
#                                                                    
#*********************************************************************
# Tag name for the run (one word)                                    *
#*********************************************************************
  tag_1     = run_tag ! name of the run 
#*********************************************************************
# Run to generate the grid pack                                      *
#*********************************************************************
  .false.     = gridpack  !True = setting up the grid pack
#*********************************************************************
# Number of events and rnd seed                                      *
# Warning: Do not generate more than 1M events in a single run       *
# If you want to run Pythia, avoid more than 50k events in a run.    *
#*********************************************************************
  2000 = nevents ! Number of unweighted events requested 
 822 = iseed   ! rnd seed (0=assigned automatically=default))
#*********************************************************************
# Collider type and energy                                           *
# lpp: 0=No PDF, 1=proton, -1=antiproton, 2=photon from proton,      *
#                                         3=photon from electron     *
#*********************************************************************
        1     = lpp1    ! beam 1 type 
        1     = lpp2    ! beam 2 type
     4000     = ebeam1  ! beam 1 total energy in GeV
     4000     = ebeam2  ! beam 2 total energy in GeV
#*********************************************************************
# Beam polarization from -100 (left-handed) to 100 (right-handed)    *
#*********************************************************************
        0     = polbeam1 ! beam polarization for beam 1
        0     = polbeam2 ! beam polarization for beam 2
#*********************************************************************
# PDF CHOICE: this automatically fixes also alpha_s and its evol.    *
#*********************************************************************
 'nn23lo1'    = pdlabel     ! PDF set                                     
 230000    = lhaid     ! if pdlabel=lhapdf, this is the lhapdf number
#*********************************************************************
# Renormalization and factorization scales                           *
#*********************************************************************
 F        = fixed_ren_scale  ! if .true. use fixed ren scale
 F        = fixed_fac_scale  ! if .true. use fixed fac scale
 91.1880  = scale            ! fixed ren scale
 91.1880  = dsqrt_q2fact1    ! fixed fact scale for pdf1
 91.1880  = dsqrt_q2fact2    ! fixed fact scale for pdf2
 1        = scalefact        ! scale factor for event-by-event scales
#*********************************************************************
# Matching - Warning! ickkw > 1 is still beta
#*********************************************************************
 0        = ickkw            ! 0 no matching, 1 MLM, 2 CKKW matching
 1        = highestmult      ! for ickkw=2, highest mult group
 1        = ktscheme         ! for ickkw=1, 1 Durham kT, 2 Pythia pTE
 1        = alpsfact         ! scale factor for QCD emission vx
 F        = chcluster        ! cluster only according to channel diag
 T        = pdfwgt           ! for ickkw=1, perform pdf reweighting
 5        = asrwgtflavor     ! highest quark flavor for a_s reweight
 T        = clusinfo         ! include clustering tag in output
 3.0      = lhe_version       ! Change the way clustering information pass to shower.        
#*********************************************************************
#**********************************************************
#
#**********************************************************
# Automatic ptj and mjj cuts if xqcut > 0
# (turn off for VBF and single top processes)
#**********************************************************
   T  = auto_ptj_mjj  ! Automatic setting of ptj and mjj
#**********************************************************
#                                                                    
#**********************************
# BW cutoff (M+/-bwcutoff*Gamma)
#**********************************
  15  = bwcutoff      ! (M+/-bwcutoff*Gamma)
#**********************************************************
# Apply pt/E/eta/dr/mij cuts on decay products or not
# (note that etmiss/ptll/ptheavy/ht/sorted cuts always apply)
#**********************************************************
   T  = cut_decays    ! Cut decay products 
#*************************************************************
# Number of helicities to sum per event (0 = all helicities)
# 0 gives more stable result, but longer run time (needed for
# long decay chains e.g.).
# Use >=2 if most helicities contribute, e.g. pure QCD.
#*************************************************************
   0  = nhel          ! Number of helicities used per event
#*******************                                                 
# Standard Cuts
#*******************                                                 
#                                                                    
#*********************************************************************
# Minimum and maximum pt's (for max, -1 means no cut)                *
#*********************************************************************
 20  = ptj       ! minimum pt for the jets 
  0  = ptb       ! minimum pt for the b 
 10  = pta       ! minimum pt for the photons 
 10  = ptl       ! minimum pt for the charged leptons 
  0  = misset    ! minimum missing Et (sum of neutrino's momenta)
  0  = ptheavy   ! minimum pt for one heavy final state
 1.0 = ptonium   ! minimum pt for the quarkonium states
 -1  = ptjmax    ! maximum pt for the jets
 -1  = ptbmax    ! maximum pt for the b
 -1  = ptamax    ! maximum pt for the photons
 -1  = ptlmax    ! maximum pt for the charged leptons
 -1  = missetmax ! maximum missing Et (sum of neutrino's momenta)
#*********************************************************************
# Minimum and maximum E's (in the center of mass frame)              *
#*********************************************************************
  0  = ej     ! minimum E for the jets 
  0  = eb     ! minimum E for the b 
  0  = ea     ! minimum E for the photons 
  0  = el     ! minimum E for the charged leptons 
 -1   = ejmax ! maximum E for the jets
 -1   = ebmax ! maximum E for the b
 -1   = eamax ! maximum E for the photons
 -1   = elmax ! maximum E for the charged leptons
#*********************************************************************
# Maximum and minimum absolute rapidity (for max, -1 means no cut)   *
#*********************************************************************
   5  = etaj    ! max rap for the jets 
  -1  = etab    ! max rap for the b
 2.5  = etaa    ! max rap for the photons 
 2.5  = etal    ! max rap for the charged leptons 
 0.6  = etaonium ! max rap for the quarkonium states
   0  = etajmin ! min rap for the jets
   0  = etabmin ! min rap for the b
   0  = etaamin ! min rap for the photons
   0  = etalmin ! main rap for the charged leptons
#*********************************************************************
# Minimum and maximum DeltaR distance                                *
#*********************************************************************
 0.4 = drjj    ! min distance between jets 
 0   = drbb    ! min distance between b's 
 0.4 = drll    ! min distance between leptons 
 0.4 = draa    ! min distance between gammas 
 0   = drbj    ! min distance between b and jet 
 0.4 = draj    ! min distance between gamma and jet 
 0.4 = drjl    ! min distance between jet and lepton 
 0   = drab    ! min distance between gamma and b 
 0   = drbl    ! min distance between b and lepton 
 0.4 = dral    ! min distance between gamma and lepton 
 -1  = drjjmax ! max distance between jets
 -1  = drbbmax ! max distance between b's
 -1  = drllmax ! max distance between leptons
 -1  = draamax ! max distance between gammas
 -1  = drbjmax ! max distance between b and jet
 -1  = drajmax ! max distance between gamma and jet
 -1  = drjlmax ! max distance between jet and lepton
 -1  = drabmax ! max distance between gamma and b
 -1  = drblmax ! max distance between b and lepton
 -1  = dralmax ! maxdistance between gamma and lepton
#*********************************************************************
# Minimum and maximum invariant mass for pairs                       *
# WARNING: for four lepton final state mmll cut require to have      *
#          different lepton masses for each flavor!                  *           
#*********************************************************************
 0   = mmjj    ! min invariant mass of a jet pair 
 0   = mmbb    ! min invariant mass of a b pair 
 0   = mmaa    ! min invariant mass of gamma gamma pair
 0   = mmll    ! min invariant mass of l+l- (same flavour) lepton pair
 -1  = mmjjmax ! max invariant mass of a jet pair
 -1  = mmbbmax ! max invariant mass of a b pair
 -1  = mmaamax ! max invariant mass of gamma gamma pair
 -1  = mmllmax ! max invariant mass of l+l- (same flavour) lepton pair
#*********************************************************************
# Minimum and maximum invariant mass for all letpons                 *
#*********************************************************************
 0   = mmnl    ! min invariant mass for all letpons (l+- and vl) 
 -1  = mmnlmax ! max invariant mass for all letpons (l+- and vl) 
#*********************************************************************
# Minimum and maximum pt for 4-momenta sum of leptons                *
#*********************************************************************
 0   = ptllmin  ! Minimum pt for 4-momenta sum of leptons(l and vl)
 -1  = ptllmax  ! Maximum pt for 4-momenta sum of leptons(l and vl)
#*********************************************************************
# Inclusive cuts                                                     *
#*********************************************************************
 0  = xptj ! minimum pt for at least one jet  
 0  = xptb ! minimum pt for at least one b 
 0  = xpta ! minimum pt for at least one photon 
 0  = xptl ! minimum pt for at least one charged lepton 
#*********************************************************************
# Control the pt's of the jets sorted by pt                          *
#*********************************************************************
 0   = ptj1min ! minimum pt for the leading jet in pt
 0   = ptj2min ! minimum pt for the second jet in pt
 0   = ptj3min ! minimum pt for the third jet in pt
 0   = ptj4min ! minimum pt for the fourth jet in pt
 -1  = ptj1max ! maximum pt for the leading jet in pt 
 -1  = ptj2max ! maximum pt for the second jet in pt
 -1  = ptj3max ! maximum pt for the third jet in pt
 -1  = ptj4max ! maximum pt for the fourth jet in pt
 0   = cutuse  ! reject event if fails any (0) / all (1) jet pt cuts
#*********************************************************************
# Control the pt's of leptons sorted by pt                           *
#*********************************************************************
 0   = ptl1min ! minimum pt for the leading lepton in pt
 0   = ptl2min ! minimum pt for the second lepton in pt
 0   = ptl3min ! minimum pt for the third lepton in pt
 0   = ptl4min ! minimum pt for the fourth lepton in pt
 -1  = ptl1max ! maximum pt for the leading lepton in pt 
 -1  = ptl2max ! maximum pt for the second lepton in pt
 -1  = ptl3max ! maximum pt for the third lepton in pt
 -1  = ptl4max ! maximum pt for the fourth lepton in pt
#*********************************************************************
# Control the Ht(k)=Sum of k leading jets                            *
#*********************************************************************
 0   = htjmin ! minimum jet HT=Sum(jet pt)
 -1  = htjmax ! maximum jet HT=Sum(jet pt)
 0   = ihtmin  !inclusive Ht for all partons (including b)
 -1  = ihtmax  !inclusive Ht for all partons (including b)
 0   = ht2min ! minimum Ht for the two leading jets
 0   = ht3min ! minimum Ht for the three leading jets
 0   = ht4min ! minimum Ht for the four leading jets
 -1  = ht2max ! maximum Ht for the two leading jets
 -1  = ht3max ! maximum Ht for the three leading jets
 -1  = ht4max ! maximum Ht for the four leading jets
#***********************************************************************
# Photon-isolation cuts, according to hep-ph/9801442                   *
# When ptgmin=0, all the other parameters are ignored                  *
# When ptgmin>0, pta and draj are not going to be used                 *
#***********************************************************************
   0 = ptgmin ! Min photon transverse momentum
 0.4 = R0gamma ! Radius of isolation code
 1.0 = xn ! n parameter of eq.(3.4) in hep-ph/9801442
 1.0 = epsgamma ! epsilon_gamma parameter of eq.(3.4) in hep-ph/9801442
 .true. = isoEM ! isolate photons from EM energy (photons and leptons)
#*********************************************************************
# WBF cuts                                                           *
#*********************************************************************
 0   = xetamin ! minimum rapidity for two jets in the WBF case  
 0   = deltaeta ! minimum rapidity for two jets in the WBF case 
#*********************************************************************
# KT DURHAM CUT                                                      *
#*********************************************************************
 -1    =  ktdurham        
 0.4  =  dparameter 
#*********************************************************************
# maximal pdg code for quark to be considered as a light jet         *
# (otherwise b cuts are applied)                                     *
#*********************************************************************
 4 = maxjetflavor    ! Maximum jet pdg code
#*********************************************************************
# Jet measure cuts                                                   *
#*********************************************************************
 0   = xqcut   ! minimum kt jet measure between partons
#*********************************************************************
#
#*********************************************************************
# Store info for systematics studies                                 *
# WARNING: If use_syst is T, matched Pythia output is                *
#          meaningful ONLY if plotted taking matchscale              *
#          reweighting into account!                                 *
#*********************************************************************
   F  = use_syst      ! Enable systematics studies
#
#**************************************
# Parameter of the systematics study
#  will be used by SysCalc (if installed)
#**************************************                                  
#
0.5 1 2 = sys_scalefact  # factorization/renormalization scale factor
0.5 1 2 = sys_alpsfact  # \alpha_s emission scale factors
30 50 = sys_matchscale # variation of merging scale
# PDF sets and number of members (0 or none for all members).
CT10nlo.LHgrid = sys_pdf # matching scales
# MSTW2008nlo68cl.LHgrid 1  = sys_pdf
</MGRunCard>
<slha>
######################################################################
## PARAM_CARD AUTOMATICALY GENERATED BY MG5 FOLLOWING UFO MODEL   ####
######################################################################
##                                                                  ##
##  Width set on Auto will be computed following the information    ##
##        present in the decay.py files of the model.               ##
##        See  arXiv:1402.1178 for more details.                    ##
##                                                                  ##
######################################################################

###################################
## INFORMATION FOR CKMBLOCK
###################################
Block ckmblock 
    1 2.277360e-01 # cabi 

###################################
## INFORMATION FOR FRBLOCK
###################################
Block frblock 
    1 4.000000e-01 # gz 

###################################
## INFORMATION FOR MASS
###################################
Block mass 
    1 5.040000e-03 # MD 
    2 2.550000e-03 # MU 
    3 1.010000e-01 # MS 
    4 1.270000e+00 # MC 
    5 4.700000e+00 # MB 
    6 1.720000e+02 # MT 
   11 5.110000e-04 # Me 
   13 1.056600e-01 # MM 
   15 1.777000e+00 # MTA 
   23 9.118760e+01 # MZ 
   25 1.200000e+02 # MH 
  10030 5.000000e+02 # MZph 
  10031 3.000000e+02 # MZpl 
## Dependent parameters, given by model restrictions.
## Those values should be edited following the 
## analytical expression. MG5 ignores those values 
## but they are important for interfacing the output of MG5
## to external program such as Pythia.
  12 0.000000 # ve : 0.0 
  14 0.000000 # vm : 0.0 
  16 0.000000 # vt : 0.0 
  21 0.000000 # g : 0.0 
  22 0.000000 # a : 0.0 
  24 79.824360 # w+ : cmath.sqrt(MZ__exp__2/2. + cmath.sqrt(MZ__exp__4/4. - (aEW*cmath.pi*MZ__exp__2)/(Gf*sqrt__2))) 

###################################
## INFORMATION FOR SMINPUTS
###################################
Block sminputs 
    1 1.279000e+02 # aEWM1 
    2 1.166370e-05 # Gf 
    3 1.184000e-01 # aS 

###################################
## INFORMATION FOR YUKAWA
###################################
Block yukawa 
    1 5.040000e-03 # ymdo 
    2 2.550000e-03 # ymup 
    3 1.010000e-01 # yms 
    4 1.270000e+00 # ymc 
    5 4.700000e+00 # ymb 
    6 1.720000e+02 # ymt 
   11 5.110000e-04 # yme 
   13 1.056600e-01 # ymm 
   15 1.777000e+00 # ymtau 

###################################
## INFORMATION FOR DECAY
###################################
DECAY   6 1.508336e+00 # WT 
DECAY  23 2.495200e+00 # WZ 
DECAY  24 2.085000e+00 # WW 
DECAY  25 5.753088e-03 # WH 
## Dependent parameters, given by model restrictions.
## Those values should be edited following the 
## analytical expression. MG5 ignores those values 
## but they are important for interfacing the output of MG5
## to external program such as Pythia.
DECAY  1 0.000000 # d : 0.0 
DECAY  2 0.000000 # u : 0.0 
DECAY  3 0.000000 # s : 0.0 
DECAY  4 0.000000 # c : 0.0 
DECAY  5 0.000000 # b : 0.0 
DECAY  11 0.000000 # e- : 0.0 
DECAY  12 0.000000 # ve : 0.0 
DECAY  13 0.000000 # mu- : 0.0 
DECAY  14 0.000000 # vm : 0.0 
DECAY  15 0.000000 # ta- : 0.0 
DECAY  16 0.000000 # vt : 0.0 
DECAY  21 0.000000 # g : 0.0 
DECAY  22 0.000000 # a : 0.0 
DECAY  10030 0.308725 # zph : (gz__exp__2*MZph*(5 + cmath.sqrt(1 - (4*MT__exp__2)/MZph__exp__2)))/(144.*cmath.pi) 
DECAY  10031 0.132629 # zpl : (5*gz__exp__2*MZpl)/(144.*cmath.pi) 
#===========================================================
# QUANTUM NUMBERS OF NEW STATE(S) (NON SM PDG CODE)
#===========================================================

Block QNUMBERS 10030  # zph 
        1 0  # 3 times electric charge
        2 3  # number of spin states (2S+1)
        3 1  # colour rep (1: singlet, 3: triplet, 8: octet)
        4 0  # Particle/Antiparticle distinction (0=own anti)
Block QNUMBERS 10031  # zpl 
        1 0  # 3 times electric charge
        2 3  # number of spin states (2S+1)
        3 1  # colour rep (1: singlet, 3: triplet, 8: octet)
        4 0  # Particle/Antiparticle distinction (0=own anti)
</slha>
## END BANNER##
<MGGenerationInfo>
#  Number of Events        :         4263
#  Integrated weight (pb)  :  0.64103E+01
#  Max wgt                 :  0.19828E-02
#  Average wgt             :  0.15037E-02
</MGGenerationInfo>
</header>
<init>
     2212     2212  0.40000000000E+04  0.40000000000E+04 0 0  247000  247000 2   1
  0.64039471515E+01  0.12647453464E-01  0.19828470000E-02   0
</init>
<event>
 5   0  0.1855407E-02  0.5043395E+03  0.7818609E-02  0.1012652E+00
       -2   -1    0    0    0  501  0.00000000000E+00  0.00000000000E+00  0.19128715338E+03  0.19128715340E+03  0.25500000920E-02 0. -1.
        2   -1    0    0  501    0  0.00000000000E+00  0.00000000000E+00 -0.33242995150E+03  0.33242995151E+03  0.25500000920E-02 0.  1.
    10030    2    1    2    0    0  0.00000000000E+00  0.00000000000E+00 -0.14114279812E+03  0.52371710491E+03  0.50433948538E+03 0.  0.
        1    1    3    3  502    0 -0.18086212181E+03 -0.49819978176E+02  0.10441558638E+03  0.21469921294E+03  0.50400001928E-02 0. -1.
       -1    1    3    3    0  502  0.18086212181E+03  0.49819978176E+02 -0.24555838450E+03  0.30901789197E+03  0.50400001928E-02 0.  1.
</event>
<event>
 5   0  0.8012875E-03  0.5030170E+03  0.7818609E-02  0.1012994E+00
       -3   -1    0    0    0  501  0.00000000000E+00  0.00000000000E+00  0.69208458061E+03  0.69208458798E+03  0.10100000352E+00 0.  1.
        3   -1    0    0  501    0  0.00000000000E+00  0.00000000000E+00 -0.91399953550E+02  0.91400009354E+02  0.10100000352E+00 0. -1.
    10030    2    1    2    0    0  0.00000000000E+00  0.00000000000E+00  0.60068462706E+03  0.78348459734E+03  0.50301699084E+03 0.  0.
        4    1    3    3  502    0  0.13979784597E+03 -0.19319364535E+03  0.42482806827E+03  0.48718345911E+03  0.12699999809E+01 0.  1.
       -4    1    3    3    0  502 -0.13979784597E+03  0.19319364535E+03  0.17585655879E+03  0.29630113822E+03  0.12699999809E+01 0. -1.
</event>
<event>
 5   0  0.1855407E-02  0.5004496E+03  0.7818609E-02  0.1013662E+00
        2   -1    0    0  501    0  0.00000000000E+00  0.00000000000E+00  0.89044161307E+03  0.89044161308E+03  0.25500000920E-02 0. -1.
       -2   -1    0    0    0  501  0.00000000000E+00  0.00000000000E+00 -0.70316165429E+02  0.70316165475E+02  0.25500000920E-02 0.  1.
    10030    2    1    2    0    0  0.00000000000E+00  0.00000000000E+00  0.82012544764E+03  0.96075777855E+03  0.50044955707E+03 0.  0.
        1    1    3    3  502    0 -0.21003337696E+03 -0.27296786415E+02  0.15426703723E+03  0.26202567199E+03  0.50400001928E-02 0.  1.
       -1    1    3    3    0  502  0.21003337696E+03  0.27296786415E+02  0.66585841042E+03  0.69873210656E+03  0.50400001928E-02 0. -1.
</event>
<event>
 5   0  0.1923706E-02  0.4995559E+03  0.7818609E-02  0.1013895E+00
       -2   -1    0    0    0  501  0.00000000000E+00  0.00000000000E+00  0.37811421318E+03  0.37811421319E+03  0.25500000920E-02 0.  1.
        2   -1    0    0  501    0  0.00000000000E+00  0.00000000000E+00 -0.16500045678E+03  0.16500045680E+03  0.25500000920E-02 0. -1.
    10030    2    1    2    0    0  0.00000000000E+00  0.00000000000E+00  0.21311375640E+03  0.54311466999E+03  0.49955587435E+03 0.  0.
        3    1    3    3  502    0 -0.13932513729E+03 -0.12426174916E+03  0.28696749083E+03  0.34234898449E+03  0.10100000352E+00 0.  1.
       -3    1    3    3    0  502  0.13932513729E+03  0.12426174916E+03 -0.73853734433E+02  0.20076568550E+03  0.10100000352E+00 0. -1.
</event>
<event>
 5   0  0.1855407E-02  0.5002384E+03  0.7818609E-02  0.1013717E+00
        2   -1    0    0  501    0  0.00000000000E+00  0.00000000000E+00  0.54916845490E+03  0.54916845491E+03  0.25500000920E-02 0.  1.
       -2   -1    0    0    0  501  0.00000000000E+00  0.00000000000E+00 -0.11391699283E+03  0.11391699286E+03  0.25500000920E-02 0. -1.
    10030    2    1    2    0    0  0.00000000000E+00  0.00000000000E+00  0.43525146207E+03  0.66308544777E+03  0.50023841897E+03 0.  0.
        1    1    3    3  502    0 -0.47750625197E+02 -0.23684743418E+03  0.30335427859E+03  0.38781522359E+03  0.50400001928E-02 0. -1.
       -1    1    3    3    0  502  0.47750625197E+02  0.23684743418E+03  0.13189718347E+03  0.27527022418E+03  0.50400001928E-02 0.  1.
</event>
<event>
 5   0  0.1923706E-02  0.4985393E+03  0.7818609E-02  0.1014161E+00
        2   -1    0    0  501    0  0.00000000000E+00  0.00000000000E+00  0.85772179339E+02  0.85772179377E+02  0.25500000920E-02 0.  1.
       -2   -1    0    0    0  501  0.00000000000E+00  0.00000000000E+00 -0.72442308104E+03  0.72442308105E+03  0.25500000920E-02 0. -1.
    10030    2    1    2    0    0  0.00000000000E+00  0.00000000000E+00 -0.63865090170E+03  0.81019526042E+03  0.49853925198E+03 0.  0.
        3    1    3    3  502    0  0.25776098618E+02 -0.83029118540E+02 -0.69898606519E+03  0.70437189845E+03  0.10100000352E+00 0. -1.
       -3    1    3    3    0  502 -0.25776098618E+02  0.83029118540E+02  0.60335163491E+02  0.10582336198E+03  0.10100000352E+00 0.  1.
</event>
<event>
 5   0  0.1180937E-02  0.4997119E+03  0.7818609E-02  0.1013854E+00
        1   -1    0    0  501    0  0.00000000000E+00  0.00000000000E+00  0.19839856017E+03  0.19839856023E+03  0.50400001928E-02 0. -1.
       -1   -1    0    0    0  501  0.00000000000E+00  0.00000000000E+00 -0.31465956371E+03  0.31465956375E+03  0.50400001928E-02 0.  1.
    10030    2    1    2    0    0  0.00000000000E+00  0.00000000000E+00 -0.11626100354E+03  0.51305812398E+03  0.49971193465E+03 0.  0.
        1    1    3    3  502    0 -0.36871599061E+02  0.24704484049E+03 -0.64404043734E+02  0.25795067145E+03  0.50400001928E-02 0. -1.
       -1    1    3    3    0  502  0.36871599061E+02 -0.24704484049E+03 -0.51856959806E+02  0.25510745253E+03  0.50400001928E-02 0.  1.
</event>
<event>
 5   0  0.1225989E-02  0.5001815E+03  0.7818609E-02  0.1013732E+00
        1   -1    0    0  501    0  0.00000000000E+00  0.00000000000E+00  0.89230934985E+02  0.89230935127E+02  0.50400001928E-02 0. -1.
       -1   -1    0    0    0  501  0.00000000000E+00  0.00000000000E+00 -0.70093832957E+03  0.70093832959E+03  0.50400001928E-02 0.  1.
    10030    2    1    2    0    0  0.00000000000E+00  0.00000000000E+00 -0.61170739458E+03  0.79016926472E+03  0.50018149737E+03 0.  0.
        3    1    3    3  502    0  0.23408000654E+03 -0.55202103399E+02 -0.41421050518E+03  0.47896876149E+03  0.10100000352E+00 0.  1.
       -3    1    3    3    0  502 -0.23408000654E+03  0.55202103399E+02 -0.19749688941E+03  0.31120050323E+03  0.10100000352E+00 0. -1.
</event>
<event>
 5   0  0.1855407E-02  0.5000085E+03  0.7818609E-02  0.1013777E+00
       -2   -1    0    0    0  501  0.00000000000E+00  0.00000000000E+00  0.72087778882E+02  0.72087778928E+02  0.25500000920E-02 0.  1.
        2   -1    0    0  501    0  0.00000000000E+00  0.00000000000E+00 -0.86702799955E+03  0.86702799955E+03  0.25500000920E-02 0. -1.
    10030    2    1    2    0    0  0.00000000000E+00  0.00000000000E+00 -0.79494022067E+03  0.93911577848E+03  0.50000849089E+03 0.  0.
        1    1    3    3  502    0 -0.86793132673E+02  0.21342308788E+03 -0.21518156435E+03  0.31525476679E+03  0.50400001928E-02 0.  1.
       -1    1    3    3    0  502  0.86793132673E+02 -0.21342308788E+03 -0.57975865631E+03  0.62386101170E+03  0.50400001928E-02 0. -1.
</event>
<event>
 5   0  0.8012875E-03  0.4999966E+03  0.7818609E-02  0.1013780E+00
       -4   -1    0    0    0  501  0.00000000000E+00  0.00000000000E+00  0.31524916819E+03  0.31525172632E+03  0.12699999809E+01 0.  1.
        4   -1    0    0  501    0  0.00000000000E+00  0.00000000000E+00 -0.19824776758E+03  0.19825183543E+03  0.12699999809E+01 0. -1.
    10030    2    1    2    0    0  0.00000000000E+00  0.00000000000E+00  0.11700140061E+03  0.51350356174E+03  0.49999658017E+03 0.  0.
        4    1    3    3  502    0  0.23747659176E+03 -0.96777600025E+01 -0.21109402676E+02  0.23861267874E+03  0.12699999809E+01 0. -1.
       -4    1    3    3    0  502 -0.23747659176E+03  0.96777600025E+01  0.13811080329E+03  0.27489088300E+03  0.12699999809E+01 0.  1.
</event>
<event>
 5   0  0.1855407E-02  0.5001365E+03  0.7818609E-02  0.1013743E+00
        2   -1    0    0  501    0  0.00000000000E+00  0.00000000000E+00  0.55525815563E+03  0.55525815564E+03  0.25500000920E-02 0.  1.
       -2   -1    0    0    0  501  0.00000000000E+00  0.00000000000E+00 -0.11262171019E+03  0.11262171022E+03  0.25500000920E-02 0. -1.
    10030    2    1    2    0    0  0.00000000000E+00  0.00000000000E+00  0.44263644544E+03  0.66787986585E+03  0.50013647375E+03 0.  0.
        1    1    3    3  502    0 -0.16418162564E+02  0.10174596954E+03 -0.82941918323E+02  0.13229195070E+03  0.50400001928E-02 0. -1.
       -1    1    3    3    0  502  0.16418162564E+02 -0.10174596954E+03  0.52557836377E+03  0.53558791516E+03  0.50400001928E-02 0.  1.
</event>
<event>
 5   0  0.1967813E-02  0.5022513E+03  0.7818609E-02  0.1013193E+00
       -2   -1    0    0    0  501  0.00000000000E+00  0.00000000000E+00  0.14695707599E+03  0.14695707601E+03  0.25500000920E-02 0. -1.
        2   -1    0    0  501    0  0.00000000000E+00  0.00000000000E+00 -0.42913272780E+03  0.42913272781E+03  0.25500000920E-02 0.  1.
    10030    2    1    2    0    0  0.00000000000E+00  0.00000000000E+00 -0.28217565181E+03  0.57608980382E+03  0.50225129526E+03 0.  0.
        5    1    3    3  502    0  0.24744832401E+03 -0.41713260605E+02 -0.13140035272E+03  0.28329986209E+03  0.46999998093E+01 0. -1.
       -5    1    3    3    0  502 -0.24744832401E+03  0.41713260605E+02 -0.15077529909E+03  0.29278994173E+03  0.46999998093E+01 0.  1.
</event>
<event>
 5   0  0.1967813E-02  0.5001385E+03  0.7818609E-02  0.1013743E+00
       -2   -1    0    0    0  501  0.00000000000E+00  0.00000000000E+00  0.71428772216E+02  0.71428772261E+02  0.25500000920E-02 0.  1.
        2   -1    0    0  501    0  0.00000000000E+00  0.00000000000E+00 -0.87548221987E+03  0.87548221988E+03  0.25500000920E-02 0. -1.
    10030    2    1    2    0    0  0.00000000000E+00  0.00000000000E+00 -0.80405344766E+03  0.94691099214E+03  0.50013846117E+03 0.  0.
        5    1    3    3  502    0  0.20171027430E+03 -0.13377317496E+03 -0.52072052897E+03  0.57424233246E+03  0.46999998093E+01 0.  1.
       -5    1    3    3    0  502 -0.20171027430E+03  0.13377317496E+03 -0.28333291869E+03  0.37266865968E+03  0.46999998093E+01 0. -1.
</event>
<event>
 5   0  0.1225989E-02  0.5119308E+03  0.7818609E-02  0.1010711E+00
        1   -1    0    0  501    0  0.00000000000E+00  0.00000000000E+00  0.13389574527E+04  0.13389574527E+04  0.50400001928E-02 0. -1.
       -1   -1    0    0    0  501  0.00000000000E+00  0.00000000000E+00 -0.48932304755E+02  0.48932305014E+02  0.50400001928E-02 0.  1.
    10030    2    1    2    0    0  0.00000000000E+00  0.00000000000E+00  0.12900251480E+04  0.13878897577E+04  0.51193075437E+03 0.  0.
        3    1    3    3  502    0  0.16806256858E+03 -0.11588873930E+03  0.10636369748E+04  0.10830507149E+04  0.10100000352E+00 0. -1.
       -3    1    3    3    0  502 -0.16806256858E+03  0.11588873930E+03  0.22638817322E+03  0.30483904282E+03  0.10100000352E+00 0.  1.
</event>
<event>
 5   0  0.1227864E-02  0.5001821E+03  0.7818609E-02  0.1013731E+00
       -1   -1    0    0    0  501  0.00000000000E+00  0.00000000000E+00  0.12104122220E+03  0.12104122231E+03  0.50400001928E-02 0.  1.
        1   -1    0    0  501    0  0.00000000000E+00  0.00000000000E+00 -0.51672929447E+03  0.51672929449E+03  0.50400001928E-02 0. -1.
    10030    2    1    2    0    0  0.00000000000E+00  0.00000000000E+00 -0.39568807227E+03  0.63777051680E+03  0.50018214839E+03 0.  0.
        5    1    3    3  502    0  0.24955884250E+03 -0.14485213695E+02 -0.19040714657E+03  0.31427123436E+03  0.46999998093E+01 0.  1.
       -5    1    3    3    0  502 -0.24955884250E+03  0.14485213695E+02 -0.20528092570E+03  0.32349928244E+03  0.46999998093E+01 0. -1.
</event>
<event>
 5   0  0.8012875E-03  0.4996700E+03  0.7818609E-02  0.1013865E+00
        3   -1    0    0  501    0  0.00000000000E+00  0.00000000000E+00  0.31249265488E+03  0.31249267120E+03  0.10100000352E+00 0. -1.
       -3   -1    0    0    0  501  0.00000000000E+00  0.00000000000E+00 -0.19974074640E+03  0.19974077193E+03  0.10100000352E+00 0.  1.
    10030    2    1    2    0    0  0.00000000000E+00  0.00000000000E+00  0.11275190848E+03  0.51223344314E+03  0.49966999850E+03 0.  0.
        1    1    3    3  502    0  0.13065483935E+03  0.20146500021E+02 -0.16094711009E+03  0.20827995771E+03  0.50400001928E-02 0.  1.
       -1    1    3    3    0  502 -0.13065483935E+03 -0.20146500021E+02  0.27369901858E+03  0.30395348543E+03  0.50400001928E-02 0. -1.
</event>
<event>
 5   0  0.1180937E-02  0.4987725E+03  0.7818609E-02  0.1014100E+00
       -1   -1    0    0    0  501  0.00000000000E+00  0.00000000000E+00  0.38725424758E+03  0.38725424761E+03  0.50400001928E-02 0. -1.
        1   -1    0    0  501    0  0.00000000000E+00  0.00000000000E+00 -0.16060123403E+03  0.16060123411E+03  0.50400001928E-02 0.  1.
    10030    2    1    2    0    0  0.00000000000E+00  0.00000000000E+00  0.22665301355E+03  0.54785548172E+03  0.49877253362E+03 0.  0.
        1    1    3    3  502    0 -0.19800435193E+03 -0.11408551314E+03  0.36380907438E+01  0.22854860188E+03  0.50400001928E-02 0.  1.
       -1    1    3    3    0  502  0.19800435193E+03  0.11408551314E+03  0.22301492280E+03  0.31930687984E+03  0.50400001928E-02 0. -1.
</event>
<event>
 5   0  0.1180937E-02  0.5002437E+03  0.7818609E-02  0.1013715E+00
       -1   -1    0    0    0  501  0.00000000000E+00  0.00000000000E+00  0.12542271799E+03  0.12542271809E+03  0.50400001928E-02 0.  1.
        1   -1    0    0  501    0  0.00000000000E+00  0.00000000000E+00 -0.49880063765E+03  0.49880063768E+03  0.50400001928E-02 0. -1.
    10030    2    1    2    0    0  0.00000000000E+00  0.00000000000E+00 -0.37337791966E+03  0.62422335576E+03  0.50024366762E+03 0.  0.
        1    1    3    3  502    0 -0.29731086758E+02 -0.20414879005E+03 -0.36316115872E+03  0.41766816162E+03  0.50400001928E-02 0. -1.
       -1    1    3    3    0  502  0.29731086758E+02  0.20414879005E+03 -0.10216760944E+02  0.20655519415E+03  0.50400001928E-02 0.  1.
</event>
<event>
 5   0  0.1225989E-02  0.4997375E+03  0.7818609E-02  0.1013847E+00
       -1   -1    0    0    0  501  0.00000000000E+00  0.00000000000E+00  0.37759625801E+03  0.37759625804E+03  0.50400001928E-02 0. -1.
        1   -1    0    0  501    0  0.00000000000E+00  0.00000000000E+00 -0.16534696733E+03  0.16534696741E+03  0.50400001928E-02 0.  1.
    10030    2    1    2    0    0  0.00000000000E+00  0.00000000000E+00  0.21224929068E+03  0.54294322545E+03  0.49973751577E+03 0.  0.
        3    1    3    3  502    0  0.10897849422E+03 -0.23556461754E+02 -0.13682217550E+03  0.17649798016E+03  0.10100000352E+00 0.  1.
       -3    1    3    3    0  502 -0.10897849422E+03  0.23556461754E+02  0.34907146618E+03  0.36644524529E+03  0.10100000352E+00 0. -1.
</event>
<event>
 5   0  0.1855407E-02  0.5005839E+03  0.7818609E-02  0.1013627E+00
       -2   -1    0    0    0  501  0.00000000000E+00  0.00000000000E+00  0.98075132413E+02  0.98075132446E+02  0.25500000920E-02 0.  1.
        2   -1    0    0  501    0  0.00000000000E+00  0.00000000000E+00 -0.63875569936E+03  0.63875569936E+03  0.25500000920E-02 0. -1.
    10030    2    1    2    0    0  0.00000000000E+00  0.00000000000E+00 -0.54068056695E+03  0.73683083181E+03  0.50058385834E+03 0.  0.
        1    1    3    3  502    0 -0.33513854817E+02 -0.17565068649E+03 -0.12562332736E+02  0.17926001885E+03  0.50400001928E-02 0.  1.
       -1    1    3    3    0  502  0.33513854817E+02  0.17565068649E+03 -0.52811823421E+03  0.55757081296E+03  0.50400001928E-02 0. -1.
</event>
<event>
 5   0  0.1209831E-02  0.4998348E+03  0.7818609E-02  0.1013822E+00
        1   -1    0    0  501    0  0.00000000000E+00  0.00000000000E+00  0.26144549945E+03  0.26144549950E+03  0.50400001928E-02 0. -1.
       -1   -1    0    0    0  501  0.00000000000E+00  0.00000000000E+00 -0.23889763100E+03  0.23889763105E+03  0.50400001928E-02 0.  1.
    10030    2    1    2    0    0  0.00000000000E+00  0.00000000000E+00  0.22547868454E+02  0.50034313055E+03  0.49983481463E+03 0.  0.
        4    1    3    3  502    0 -0.24686486999E+02 -0.15807138764E+03 -0.18091379326E+03  0.24151066172E+03  0.12699999809E+01 0.  1.
       -4    1    3    3    0  502  0.24686486999E+02  0.15807138764E+03  0.20346166171E+03  0.25883246883E+03  0.12699999809E+01 0. -1.
</event>
<event>
 5   0  0.1180937E-02  0.5028098E+03  0.7818609E-02  0.1013048E+00
        1   -1    0    0  501    0  0.00000000000E+00  0.00000000000E+00  0.71067559838E+03  0.71067559840E+03  0.50400001928E-02 0. -1.
       -1   -1    0    0    0  501  0.00000000000E+00  0.00000000000E+00 -0.88935698110E+02  0.88935698253E+02  0.50400001928E-02 0.  1.
    10030    2    1    2    0    0  0.00000000000E+00  0.00000000000E+00  0.62173990027E+03  0.79961129665E+03  0.50280982702E+03 0.  0.
        1    1    3    3  502    0  0.13200335569E+03 -0.20536621083E+03  0.40634358642E+03  0.47404142932E+03  0.50400001928E-02 0. -1.
       -1    1    3    3    0  502 -0.13200335569E+03  0.20536621083E+03  0.21539631385E+03  0.32556986733E+03  0.50400001928E-02 0.  1.
</event>
<event>
 5   0  0.1982847E-02  0.4995388E+03  0.7818609E-02  0.1013899E+00
       -2   -1    0    0    0  501  0.00000000000E+00  0.00000000000E+00  0.39965103306E+02  0.39965103388E+02  0.25500000920E-02 0. -1.
        2   -1    0    0  501    0  0.00000000000E+00  0.00000000000E+00 -0.15609809478E+04  0.15609809478E+04  0.25500000920E-02 0.  1.
    10030    2    1    2    0    0  0.00000000000E+00  0.00000000000E+00 -0.15210158445E+04  0.16009460512E+04  0.49953884696E+03 0.  0.
        2    1    3    3  502    0 -0.23389238979E+03  0.49982056287E+02 -0.99118817046E+03  0.10196361337E+04  0.25500000920E-02 0.  1.
       -2    1    3    3    0  502  0.23389238979E+03 -0.49982056287E+02 -0.52982767402E+03  0.58130991744E+03  0.25500000920E-02 0. -1.
</event>
<event>
 5   0  0.1225989E-02  0.4998798E+03  0.7818609E-02  0.1013810E+00
       -1   -1    0    0    0  501  0.00000000000E+00  0.00000000000E+00  0.16638501934E+03  0.16638501942E+03  0.50400001928E-02 0. -1.
        1   -1    0    0  501    0  0.00000000000E+00  0.00000000000E+00 -0.37545424759E+03  0.37545424762E+03  0.50400001928E-02 0.  1.
    10030    2    1    2    0    0  0.00000000000E+00  0.00000000000E+00 -0.20906922824E+03  0.54183926704E+03  0.49987983467E+03 0.  0.
        3    1    3    3  502    0  0.14665117271E+03 -0.16364660506E+03 -0.23362430985E+03  0.32072902295E+03  0.10100000352E+00 0.  1.
       -3    1    3    3    0  502 -0.14665117271E+03  0.16364660506E+03  0.24555081612E+02  0.22111024409E+03  0.10100000352E+00 0. -1.
</event>
<event>
 5   0  0.1227864E-02  0.5002097E+03  0.7818609E-02  0.1013724E+00
       -1   -1    0    0    0  501  0.00000000000E+00  0.00000000000E+00  0.74736033695E+02  0.74736033864E+02  0.50400001928E-02 0. -1.
        1   -1    0    0  501    0  0.00000000000E+00  0.00000000000E+00 -0.83697826599E+03  0.83697826600E+03  0.50400001928E-02 0.  1.
    10030    2    1    2    0    0  0.00000000000E+00  0.00000000000E+00 -0.76224223229E+03  0.91171429987E+03  0.50020969992E+03 0.  0.
        5    1    3    3  502    0  0.19165005848E+03 -0.86491742074E+02 -0.62781977004E+03  0.66211050438E+03  0.46999998093E+01 0.  1.
       -5    1    3    3    0  502 -0.19165005848E+03  0.86491742074E+02 -0.13442246226E+03  0.24960379549E+03  0.46999998093E+01 0. -1.
</event>
<event>
 5   0  0.1923706E-02  0.5009836E+03  0.7818609E-02  0.1013523E+00
        2   -1    0    0  501    0  0.00000000000E+00  0.00000000000E+00  0.28138036896E+03  0.28138036897E+03  0.25500000920E-02 0.  1.
       -2   -1    0    0    0  501  0.00000000000E+00  0.00000000000E+00 -0.22299400122E+03  0.22299400123E+03  0.25500000920E-02 0. -1.
    10030    2    1    2    0    0  0.00000000000E+00  0.00000000000E+00  0.58386367741E+02  0.50437437020E+03  0.50098356997E+03 0.  0.
        3    1    3    3  502    0 -0.49976289628E+02  0.13678580579E+03 -0.17599532658E+03  0.22843456694E+03  0.10100000352E+00 0. -1.
       -3    1    3    3    0  502  0.49976289628E+02 -0.13678580579E+03  0.23438169432E+03  0.27593980327E+03  0.10100000352E+00 0.  1.
</event>
<event>
 5   0  0.1209831E-02  0.4995889E+03  0.7818609E-02  0.1013886E+00
        1   -1    0    0  501    0  0.00000000000E+00  0.00000000000E+00  0.15991740703E+03  0.15991740711E+03  0.50400001928E-02 0. -1.
       -1   -1    0    0    0  501  0.00000000000E+00  0.00000000000E+00 -0.39018437407E+03  0.39018437411E+03  0.50400001928E-02 0.  1.
    10030    2    1    2    0    0  0.00000000000E+00  0.00000000000E+00 -0.23026696704E+03  0.55010178122E+03  0.49958892461E+03 0.  0.
        4    1    3    3  502    0 -0.49737883115E+02  0.14974811552E+03 -0.32835463241E+03  0.36430307800E+03  0.12699999809E+01 0.  1.
       -4    1    3    3    0  502  0.49737883115E+02 -0.14974811552E+03  0.98087665368E+02  0.18579870322E+03  0.12699999809E+01 0. -1.
</event>
<event>
 5   0  0.1982847E-02  0.5003269E+03  0.7818609E-02  0.1013694E+00
        2   -1    0    0  501    0  0.00000000000E+00  0.00000000000E+00  0.61555680300E+03  0.61555680300E+03  0.25500000920E-02 0. -1.
       -2   -1    0    0    0  501  0.00000000000E+00  0.00000000000E+00 -0.10166690534E+03  0.10166690537E+03  0.25500000920E-02 0.  1.
    10030    2    1    2    0    0  0.00000000000E+00  0.00000000000E+00  0.51388989765E+03  0.71722370837E+03  0.50032691407E+03 0.  0.
        2    1    3    3  502    0  0.13393236395E+03 -0.11848469609E+03  0.61615609812E+01  0.17892586778E+03  0.25500000920E-02 0. -1.
       -2    1    3    3    0  502 -0.13393236395E+03  0.11848469609E+03  0.50772833667E+03  0.53829784059E+03  0.25500000920E-02 0.  1.
</event>
<event>
 5   0  0.1217270E-02  0.5030993E+03  0.7818609E-02  0.1012973E+00
       -1   -1    0    0    0  501  0.00000000000E+00  0.00000000000E+00  0.21396161165E+03  0.21396161171E+03  0.50400001928E-02 0. -1.
        1   -1    0    0  501    0  0.00000000000E+00  0.00000000000E+00 -0.29574101249E+03  0.29574101254E+03  0.50400001928E-02 0.  1.
    10030    2    1    2    0    0  0.00000000000E+00  0.00000000000E+00 -0.81779400847E+02  0.50970262424E+03  0.50309928916E+03 0.  0.
        2    1    3    3  502    0 -0.14318657499E+03 -0.18156815845E+03  0.59444658636E+02  0.23875313374E+03  0.25500000920E-02 0. -1.
       -2    1    3    3    0  502  0.14318657499E+03  0.18156815845E+03 -0.14122405948E+03  0.27094949051E+03  0.25500000920E-02 0.  1.
</event>
<event>
 5   0  0.1923706E-02  0.4970106E+03  0.7818609E-02  0.1014562E+00
       -2   -1    0    0    0  501  0.00000000000E+00  0.00000000000E+00  0.83392127876E+02  0.83392127915E+02  0.25500000920E-02 0.  1.
        2   -1    0    0  501    0  0.00000000000E+00  0.00000000000E+00 -0.74053601588E+03  0.74053601589E+03  0.25500000920E-02 0. -1.
    10030    2    1    2    0    0  0.00000000000E+00  0.00000000000E+00 -0.65714388801E+03  0.82392814380E+03  0.49701055985E+03 0.  0.
        3    1    3    3  502    0  0.23117412254E+03 -0.36621877960E+02 -0.19014855333E+03  0.30156113711E+03  0.10100000352E+00 0.  1.
       -3    1    3    3    0  502 -0.23117412254E+03  0.36621877960E+02 -0.46699533467E+03  0.52236700669E+03  0.10100000352E+00 0. -1.
</event>
<event>
 5   0  0.1967813E-02  0.5000844E+03  0.7818609E-02  0.1013757E+00
        2   -1    0    0  501    0  0.00000000000E+00  0.00000000000E+00  0.53867945679E+03  0.53867945679E+03  0.25500000920E-02 0. -1.
       -2   -1    0    0    0  501  0.00000000000E+00  0.00000000000E+00 -0.11606366150E+03  0.11606366153E+03  0.25500000920E-02 0.  1.
    10030    2    1    2    0    0  0.00000000000E+00  0.00000000000E+00  0.42261579528E+03  0.65474311833E+03  0.50008443344E+03 0.  0.
        5    1    3    3  502    0 -0.22447645109E+03  0.59028572754E+02  0.89715500837E+02  0.24888754606E+03  0.46999998093E+01 0. -1.
       -5    1    3    3    0  502  0.22447645109E+03 -0.59028572754E+02  0.33290029445E+03  0.40585557226E+03  0.46999998093E+01 0.  1.
</event>
<event>
 5   0  0.1217270E-02  0.5004037E+03  0.7818609E-02  0.1013674E+00
       -1   -1    0    0    0  501  0.00000000000E+00  0.00000000000E+00  0.11109995421E+03  0.11109995433E+03  0.50400001928E-02 0. -1.
        1   -1    0    0  501    0  0.00000000000E+00  0.00000000000E+00 -0.56346521074E+03  0.56346521077E+03  0.50400001928E-02 0.  1.
    10030    2    1    2    0    0  0.00000000000E+00  0.00000000000E+00 -0.45236525653E+03  0.67456516510E+03  0.50040367369E+03 0.  0.
        2    1    3    3  502    0 -0.92535861411E+02 -0.22989779153E+03 -0.27258894118E+03  0.36840278373E+03  0.25500000920E-02 0. -1.
       -2    1    3    3    0  502  0.92535861411E+02  0.22989779153E+03 -0.17977631535E+03  0.30616238137E+03  0.25500000920E-02 0.  1.
</event>
<event>
 5   0  0.1923706E-02  0.4995292E+03  0.7818609E-02  0.1013902E+00
        2   -1    0    0  501    0  0.00000000000E+00  0.00000000000E+00  0.22719899652E+04  0.22719899652E+04  0.25500000920E-02 0.  1.
       -2   -1    0    0    0  501  0.00000000000E+00  0.00000000000E+00 -0.27457139475E+02  0.27457139594E+02  0.25500000920E-02 0. -1.
    10030    2    1    2    0    0  0.00000000000E+00  0.00000000000E+00  0.22445328257E+04  0.22994471048E+04  0.49952916030E+03 0.  0.
        3    1    3    3  502    0 -0.23749128686E+03 -0.25878564035E+02  0.14577190895E+04  0.14771651111E+04  0.10100000352E+00 0.  1.
       -3    1    3    3    0  502  0.23749128686E+03  0.25878564035E+02  0.78681373621E+03  0.82228199366E+03  0.10100000352E+00 0. -1.
</event>
<event>
 5   0  0.1855407E-02  0.4997859E+03  0.7818609E-02  0.1013835E+00
        2   -1    0    0  501    0  0.00000000000E+00  0.00000000000E+00  0.83006309228E+03  0.83006309228E+03  0.25500000920E-02 0. -1.
       -2   -1    0    0    0  501  0.00000000000E+00  0.00000000000E+00 -0.75231018308E+02  0.75231018351E+02  0.25500000920E-02 0.  1.
    10030    2    1    2    0    0  0.00000000000E+00  0.00000000000E+00  0.75483207397E+03  0.90529411063E+03  0.49978592102E+03 0.  0.
        1    1    3    3  502    0 -0.13278259547E+03 -0.33971157969E+01 -0.59933844546E+01  0.13296119261E+03  0.50400001928E-02 0.  1.
       -1    1    3    3    0  502  0.13278259547E+03  0.33971157969E+01  0.76082545842E+03  0.77233291803E+03  0.50400001928E-02 0. -1.
</event>
<event>
 5   0  0.1225989E-02  0.4994534E+03  0.7818609E-02  0.1013922E+00
        1   -1    0    0  501    0  0.00000000000E+00  0.00000000000E+00  0.59175878229E+03  0.59175878231E+03  0.50400001928E-02 0. -1.
       -1   -1    0    0    0  501  0.00000000000E+00  0.00000000000E+00 -0.10538657327E+03  0.10538657339E+03  0.50400001928E-02 0.  1.
    10030    2    1    2    0    0  0.00000000000E+00  0.00000000000E+00  0.48637220901E+03  0.69714535570E+03  0.49945342253E+03 0.  0.
        3    1    3    3  502    0  0.20855604184E+03 -0.11426082392E+03  0.34960063252E+03  0.42281410920E+03  0.10100000352E+00 0. -1.
       -3    1    3    3    0  502 -0.20855604184E+03  0.11426082392E+03  0.13677157649E+03  0.27433124651E+03  0.10100000352E+00 0.  1.
</event>
<event>
 5   0  0.1923706E-02  0.5000853E+03  0.7818609E-02  0.1013757E+00
        2   -1    0    0  501    0  0.00000000000E+00  0.00000000000E+00  0.84263236507E+03  0.84263236508E+03  0.25500000920E-02 0. -1.
       -2   -1    0    0    0  501  0.00000000000E+00  0.00000000000E+00 -0.74197633667E+02  0.74197633711E+02  0.25500000920E-02 0.  1.
    10030    2    1    2    0    0  0.00000000000E+00  0.00000000000E+00  0.76843473141E+03  0.91682999879E+03  0.50008530297E+03 0.  0.
        3    1    3    3  502    0 -0.58335233810E+02  0.21381823998E+03  0.59644326802E+03  0.63629067368E+03  0.10100000352E+00 0.  1.
       -3    1    3    3    0  502  0.58335233810E+02 -0.21381823998E+03  0.17199146339E+03  0.28053932511E+03  0.10100000352E+00 0. -1.
</event>
<event>
 5   0  0.1209831E-02  0.4999976E+03  0.7818609E-02  0.1013780E+00
        1   -1    0    0  501    0  0.00000000000E+00  0.00000000000E+00  0.96272039751E+03  0.96272039752E+03  0.50400001928E-02 0. -1.
       -1   -1    0    0    0  501  0.00000000000E+00  0.00000000000E+00 -0.64919583950E+02  0.64919584146E+02  0.50400001928E-02 0.  1.
    10030    2    1    2    0    0  0.00000000000E+00  0.00000000000E+00  0.89780081356E+03  0.10276399817E+04  0.49999763109E+03 0.  0.
        4    1    3    3  502    0 -0.19379434076E+03  0.15559455215E+03  0.39329793676E+03  0.46524272281E+03  0.12699999809E+01 0. -1.
       -4    1    3    3    0  502  0.19379434076E+03 -0.15559455215E+03  0.50450287680E+03  0.56239725885E+03  0.12699999809E+01 0.  1.
</event>
<event>
 5   0  0.1209831E-02  0.5007194E+03  0.7818609E-02  0.1013591E+00
        1   -1    0    0  501    0  0.00000000000E+00  0.00000000000E+00  0.43919511584E+03  0.43919511587E+03  0.50400001928E-02 0. -1.
       -1   -1    0    0    0  501  0.00000000000E+00  0.00000000000E+00 -0.14271554561E+03  0.14271554569E+03  0.50400001928E-02 0.  1.
    10030    2    1    2    0    0  0.00000000000E+00  0.00000000000E+00  0.29647957024E+03  0.58191066156E+03  0.50071936499E+03 0.  0.
        4    1    3    3  502    0  0.14006223689E+03 -0.18981478822E+03  0.50790439304E+02  0.24130554418E+03  0.12699999809E+01 0.  1.
       -4    1    3    3    0  502 -0.14006223689E+03  0.18981478822E+03  0.24568913093E+03  0.34060511738E+03  0.12699999809E+01 0. -1.
</event>
<event>
 5   0  0.1225989E-02  0.4993615E+03  0.7818609E-02  0.1013946E+00
        1   -1    0    0  501    0  0.00000000000E+00  0.00000000000E+00  0.75816144998E+03  0.75816144999E+03  0.50400001928E-02 0.  1.
       -1   -1    0    0    0  501  0.00000000000E+00  0.00000000000E+00 -0.82225857678E+02  0.82225857833E+02  0.50400001928E-02 0. -1.
    10030    2    1    2    0    0  0.00000000000E+00  0.00000000000E+00  0.67593559230E+03  0.84038730783E+03  0.49936149453E+03 0.  0.
        3    1    3    3  502    0 -0.15974157304E+03 -0.23865848846E+02  0.17533123685E+02  0.16246344058E+03  0.10100000352E+00 0. -1.
       -3    1    3    3    0  502  0.15974157304E+03  0.23865848846E+02  0.65840246861E+03  0.67792386724E+03  0.10100000352E+00 0.  1.
</event>
<event>
 5   0  0.1941387E-02  0.5001947E+03  0.7818609E-02  0.1013728E+00
        2   -1    0    0  501    0  0.00000000000E+00  0.00000000000E+00  0.15505367574E+04  0.15505367574E+04  0.25500000920E-02 0. -1.
       -2   -1    0    0    0  501  0.00000000000E+00  0.00000000000E+00 -0.40340025016E+02  0.40340025097E+02  0.25500000920E-02 0.  1.
    10030    2    1    2    0    0  0.00000000000E+00  0.00000000000E+00  0.15101967324E+04  0.15908767825E+04  0.50019472868E+03 0.  0.
        4    1    3    3  502    0  0.17403014441E+03  0.50798349568E+02  0.20716187443E+03  0.27529006266E+03  0.12699999809E+01 0.  1.
       -4    1    3    3    0  502 -0.17403014441E+03 -0.50798349568E+02  0.13030348580E+04  0.13155867199E+04  0.12699999809E+01 0. -1.
</event>
<event>
 5   0  0.1941387E-02  0.4995933E+03  0.7818609E-02  0.1013885E+00
        2   -1    0    0  501    0  0.00000000000E+00  0.00000000000E+00  0.10490814415E+03  0.10490814418E+03  0.25500000920E-02 0.  1.
       -2   -1    0    0    0  501  0.00000000000E+00  0.00000000000E+00 -0.59479050558E+03  0.59479050558E+03  0.25500000920E-02 0. -1.
    10030    2    1    2    0    0  0.00000000000E+00  0.00000000000E+00 -0.48988236143E+03  0.69969864976E+03  0.49959330704E+03 0.  0.
        4    1    3    3  502    0  0.13585370667E+03 -0.15757021143E+03 -0.51321614375E+02  0.21428980878E+03  0.12699999809E+01 0.  1.
       -4    1    3    3    0  502 -0.13585370667E+03  0.15757021143E+03 -0.43856074705E+03  0.48540884098E+03  0.12699999809E+01 0. -1.
</event>
<event>
 5   0  0.8012875E-03  0.5000885E+03  0.7818609E-02  0.1013756E+00
       -4   -1    0    0    0  501  0.00000000000E+00  0.00000000000E+00  0.22785319950E+03  0.22785673881E+03  0.12699999809E+01 0. -1.
        4   -1    0    0  501    0  0.00000000000E+00  0.00000000000E+00 -0.27438934555E+03  0.27439228460E+03  0.12699999809E+01 0.  1.
    10030    2    1    2    0    0  0.00000000000E+00  0.00000000000E+00 -0.46536146045E+02  0.50224902342E+03  0.50008846081E+03 0.  0.
        2    1    3    3  502    0  0.91598991868E+02  0.14502230683E+02 -0.25648118085E+03  0.27273299423E+03  0.25500000920E-02 0.  1.
       -2    1    3    3    0  502 -0.91598991868E+02 -0.14502230683E+02  0.20994503481E+03  0.22951602918E+03  0.25500000920E-02 0. -1.
</event>
<event>
 5   0  0.1225989E-02  0.5004267E+03  0.7818609E-02  0.1013668E+00
        1   -1    0    0  501    0  0.00000000000E+00  0.00000000000E+00  0.26394572882E+03  0.26394572887E+03  0.50400001928E-02 0. -1.
       -1   -1    0    0    0  501  0.00000000000E+00  0.00000000000E+00 -0.23719543902E+03  0.23719543907E+03  0.50400001928E-02 0.  1.
    10030    2    1    2    0    0  0.00000000000E+00  0.00000000000E+00  0.26750289801E+02  0.50114116794E+03  0.50042671012E+03 0.  0.
        3    1    3    3  502    0  0.86655606542E+02 -0.17696183296E+03 -0.14105925518E+03  0.24232706853E+03  0.10100000352E+00 0.  1.
       -3    1    3    3    0  502 -0.86655606542E+02  0.17696183296E+03  0.16780954498E+03  0.25881409942E+03  0.10100000352E+00 0. -1.
</event>
<event>
 5   0  0.1225989E-02  0.4998046E+03  0.7818609E-02  0.1013830E+00
        1   -1    0    0  501    0  0.00000000000E+00  0.00000000000E+00  0.34762835759E+03  0.34762835762E+03  0.50400001928E-02 0.  1.
       -1   -1    0    0    0  501  0.00000000000E+00  0.00000000000E+00 -0.17964918966E+03  0.17964918973E+03  0.50400001928E-02 0. -1.
    10030    2    1    2    0    0  0.00000000000E+00  0.00000000000E+00  0.16797916793E+03  0.52727754735E+03  0.49980457289E+03 0.  0.
        3    1    3    3  502    0 -0.14610681936E+03  0.56512325589E+02  0.28939772225E+03  0.32907734266E+03  0.10100000352E+00 0.  1.
       -3    1    3    3    0  502  0.14610681936E+03 -0.56512325589E+02 -0.12141855432E+03  0.19820020470E+03  0.10100000352E+00 0. -1.
</event>
<event>
 5   0  0.1982847E-02  0.4988071E+03  0.7818609E-02  0.1014091E+00
       -2   -1    0    0    0  501  0.00000000000E+00  0.00000000000E+00  0.46564060406E+02  0.46564060475E+02  0.25500000920E-02 0. -1.
        2   -1    0    0  501    0  0.00000000000E+00  0.00000000000E+00 -0.13358400994E+04  0.13358400994E+04  0.25500000920E-02 0.  1.
    10030    2    1    2    0    0  0.00000000000E+00  0.00000000000E+00 -0.12892760390E+04  0.13824041599E+04  0.49880713360E+03 0.  0.
        2    1    3    3  502    0 -0.57170265033E+02  0.58038696283E+02 -0.12979247770E+04  0.13004790103E+04  0.25500000920E-02 0.  1.
       -2    1    3    3    0  502  0.57170265033E+02 -0.58038696283E+02  0.86487379384E+01  0.81925149646E+02  0.25500000920E-02 0. -1.
</event>
<event>
 5   0  0.1923706E-02  0.4999444E+03  0.7818609E-02  0.1013793E+00
       -2   -1    0    0    0  501  0.00000000000E+00  0.00000000000E+00  0.87255864915E+02  0.87255864952E+02  0.25500000920E-02 0. -1.
        2   -1    0    0  501    0  0.00000000000E+00  0.00000000000E+00 -0.71612485116E+03  0.71612485116E+03  0.25500000920E-02 0.  1.
    10030    2    1    2    0    0  0.00000000000E+00  0.00000000000E+00 -0.62886898624E+03  0.80338071611E+03  0.49994437007E+03 0.  0.
        3    1    3    3  502    0 -0.19777937612E+03  0.69352830291E+02 -0.95515285388E+02  0.23032515414E+03  0.10100000352E+00 0.  1.
       -3    1    3    3    0  502  0.19777937612E+03 -0.69352830291E+02 -0.53335370085E+03  0.57305556197E+03  0.10100000352E+00 0. -1.
</event>
<event>
 5   0  0.1855407E-02  0.5002448E+03  0.7818609E-02  0.1013715E+00
       -2   -1    0    0    0  501  0.00000000000E+00  0.00000000000E+00  0.16279839405E+03  0.16279839407E+03  0.25500000920E-02 0.  1.
        2   -1    0    0  501    0  0.00000000000E+00  0.00000000000E+00 -0.38428649222E+03  0.38428649223E+03  0.25500000920E-02 0. -1.
    10030    2    1    2    0    0  0.00000000000E+00  0.00000000000E+00 -0.22148809818E+03  0.54708488630E+03  0.50024483524E+03 0.  0.
        1    1    3    3  502    0 -0.13766194834E+03 -0.18363250162E+03 -0.19864467591E+01  0.22951177240E+03  0.50400001928E-02 0. -1.
       -1    1    3    3    0  502  0.13766194834E+03  0.18363250162E+03 -0.21950165142E+03  0.31757311390E+03  0.50400001928E-02 0.  1.
</event>
<event>
 5   0  0.1982847E-02  0.5067302E+03  0.7818609E-02  0.1012037E+00
        2   -1    0    0  501    0  0.00000000000E+00  0.00000000000E+00  0.27546123489E+03  0.27546123490E+03  0.25500000920E-02 0.  1.
       -2   -1    0    0    0  501  0.00000000000E+00  0.00000000000E+00 -0.23304139339E+03  0.23304139340E+03  0.25500000920E-02 0. -1.
    10030    2    1    2    0    0  0.00000000000E+00  0.00000000000E+00  0.42419841497E+02  0.50850262830E+03  0.50673018465E+03 0.  0.
        2    1    3    3  502    0 -0.67070624202E+02 -0.16324612075E+02 -0.22342322712E+03  0.23384375128E+03  0.25500000920E-02 0. -1.
       -2    1    3    3    0  502  0.67070624202E+02  0.16324612075E+02  0.26584306862E+03  0.27465887702E+03  0.25500000920E-02 0.  1.
</event>
<event>
 5   0  0.1923706E-02  0.5006394E+03  0.7818609E-02  0.1013612E+00
        2   -1    0    0  501    0  0.00000000000E+00  0.00000000000E+00  0.19807548661E+03  0.19807548663E+03  0.25500000920E-02 0.  1.
       -2   -1    0    0    0  501  0.00000000000E+00  0.00000000000E+00 -0.31634377419E+03  0.31634377420E+03  0.25500000920E-02 0. -1.
    10030    2    1    2    0    0  0.00000000000E+00  0.00000000000E+00 -0.11826828758E+03  0.51441926083E+03  0.50063937926E+03 0.  0.
        3    1    3    3  502    0 -0.35683942300E+02  0.22198469543E+03 -0.17220568515E+03  0.28320550302E+03  0.10100000352E+00 0. -1.
       -3    1    3    3    0  502  0.35683942300E+02 -0.22198469543E+03  0.53937397570E+02  0.23121375781E+03  0.10100000352E+00 0.  1.
</event>
<event>
 5   0  0.1225989E-02  0.4987912E+03  0.7818609E-02  0.1014095E+00
        1   -1    0    0  501    0  0.00000000000E+00  0.00000000000E+00  0.28000511635E+04  0.28000511635E+04  0.50400001928E-02 0.  1.
       -1   -1    0    0    0  501  0.00000000000E+00  0.00000000000E+00 -0.22213219938E+02  0.22213220510E+02  0.50400001928E-02 0. -1.
    10030    2    1    2    0    0  0.00000000000E+00  0.00000000000E+00  0.27778379436E+04  0.28222643840E+04  0.49879115127E+03 0.  0.
        3    1    3    3  502    0  0.11873466996E+03 -0.44156303233E+02  0.17338559874E+03  0.21473303663E+03  0.10100000352E+00 0. -1.
       -3    1    3    3    0  502 -0.11873466996E+03  0.44156303233E+02  0.26044523449E+04  0.26075313474E+04  0.10100000352E+00 0.  1.
</event>
<event>
 5   0  0.1967813E-02  0.5007155E+03  0.7818609E-02  0.1013592E+00
       -2   -1    0    0    0  501  0.00000000000E+00  0.00000000000E+00  0.53060690779E+02  0.53060690840E+02  0.25500000920E-02 0. -1.
        2   -1    0    0  501    0  0.00000000000E+00  0.00000000000E+00 -0.11812700184E+04  0.11812700184E+04  0.25500000920E-02 0.  1.
    10030    2    1    2    0    0  0.00000000000E+00  0.00000000000E+00 -0.11282093276E+04  0.12343307093E+04  0.50071550091E+03 0.  0.
        5    1    3    3  502    0  0.55323295114E+02  0.24341560364E+03 -0.60989847304E+03  0.65902204856E+03  0.46999998093E+01 0.  1.
       -5    1    3    3    0  502 -0.55323295114E+02 -0.24341560364E+03 -0.51831085461E+03  0.57530866071E+03  0.46999998093E+01 0. -1.
</event>
<event>
 5   0  0.1227864E-02  0.4995555E+03  0.7818609E-02  0.1013895E+00
        1   -1    0    0  501    0  0.00000000000E+00  0.00000000000E+00  0.16007251354E+04  0.16007251354E+04  0.50400001928E-02 0.  1.
       -1   -1    0    0    0  501  0.00000000000E+00  0.00000000000E+00 -0.38975410916E+02  0.38975411242E+02  0.50400001928E-02 0. -1.
    10030    2    1    2    0    0  0.00000000000E+00  0.00000000000E+00  0.15617497245E+04  0.16397005467E+04  0.49955548316E+03 0.  0.
        5    1    3    3  502    0  0.15900913179E+03  0.97448494391E+02  0.13260434476E+04  0.13391017243E+04  0.46999998093E+01 0.  1.
       -5    1    3    3    0  502 -0.15900913179E+03 -0.97448494391E+02  0.23570627690E+03  0.30059882239E+03  0.46999998093E+01 0. -1.
</event>
<event>
 5   0  0.1180937E-02  0.5014505E+03  0.7818609E-02  0.1013401E+00
        1   -1    0    0  501    0  0.00000000000E+00  0.00000000000E+00  0.29228504585E+03  0.29228504589E+03  0.50400001928E-02 0.  1.
       -1   -1    0    0    0  501  0.00000000000E+00  0.00000000000E+00 -0.21507484364E+03  0.21507484370E+03  0.50400001928E-02 0. -1.
    10030    2    1    2    0    0  0.00000000000E+00  0.00000000000E+00  0.77210202211E+02  0.50735988959E+03  0.50145053818E+03 0.  0.
        1    1    3    3  502    0  0.19051195560E+03  0.35848801495E+02 -0.12227569602E+03  0.22919704985E+03  0.50400001928E-02 0. -1.
       -1    1    3    3    0  502 -0.19051195560E+03 -0.35848801495E+02  0.19948589824E+03  0.27816283975E+03  0.50400001928E-02 0.  1.
</event>
<event>
 5   0  0.8012875E-03  0.5009686E+03  0.7818609E-02  0.1013526E+00
        3   -1    0    0  501    0  0.00000000000E+00  0.00000000000E+00  0.12295638152E+04  0.12295638194E+04  0.10100000352E+00 0.  1.
       -3   -1    0    0    0  501  0.00000000000E+00  0.00000000000E+00 -0.51028111422E+02  0.51028211377E+02  0.10100000352E+00 0. -1.
    10030    2    1    2    0    0  0.00000000000E+00  0.00000000000E+00  0.11785357038E+04  0.12805920308E+04  0.50096860589E+03 0.  0.
        1    1    3    3  502    0 -0.10455070495E+03  0.18984754557E+03  0.91027041171E+03  0.93571639022E+03  0.50400001928E-02 0.  1.
       -1    1    3    3    0  502  0.10455070495E+03 -0.18984754557E+03  0.26826529210E+03  0.34487564054E+03  0.50400001928E-02 0. -1.
</event>
<event>
 5   0  0.1923706E-02  0.5082546E+03  0.7818609E-02  0.1011647E+00
        2   -1    0    0  501    0  0.00000000000E+00  0.00000000000E+00  0.66786740813E+03  0.66786740813E+03  0.25500000920E-02 0.  1.
       -2   -1    0    0    0  501  0.00000000000E+00  0.00000000000E+00 -0.96696849429E+02  0.96696849462E+02  0.25500000920E-02 0. -1.
    10030    2    1    2    0    0  0.00000000000E+00  0.00000000000E+00  0.57117055870E+03  0.76456425759E+03  0.50825455912E+03 0.  0.
        3    1    3    3  502    0 -0.21979126912E+03  0.46254302940E+02  0.10675135335E+03  0.24868358242E+03  0.10100000352E+00 0. -1.
       -3    1    3    3    0  502  0.21979126912E+03 -0.46254302940E+02  0.46441920534E+03  0.51588067517E+03  0.10100000352E+00 0.  1.
</event>
<event>
 5   0  0.1180937E-02  0.4991876E+03  0.7818609E-02  0.1013991E+00
       -1   -1    0    0    0  501  0.00000000000E+00  0.00000000000E+00  0.89526785123E+03  0.89526785125E+03  0.50400001928E-02 0. -1.
        1   -1    0    0  501    0  0.00000000000E+00  0.00000000000E+00 -0.69584833804E+02  0.69584833987E+02  0.50400001928E-02 0.  1.
    10030    2    1    2    0    0  0.00000000000E+00  0.00000000000E+00  0.82568301743E+03  0.96485268523E+03  0.49918759894E+03 0.  0.
        1    1    3    3  502    0  0.12867104801E+03  0.11650570363E+03  0.66181159774E+02  0.18576803683E+03  0.50400001928E-02 0.  1.
       -1    1    3    3    0  502 -0.12867104801E+03 -0.11650570363E+03  0.75950185765E+03  0.77908464840E+03  0.50400001928E-02 0. -1.
</event>
<event>
 5   0  0.1225989E-02  0.4989451E+03  0.7818609E-02  0.1014055E+00
       -1   -1    0    0    0  501  0.00000000000E+00  0.00000000000E+00  0.91538910693E+02  0.91538910831E+02  0.50400001928E-02 0.  1.
        1   -1    0    0  501    0  0.00000000000E+00  0.00000000000E+00 -0.67989166775E+03  0.67989166777E+03  0.50400001928E-02 0. -1.
    10030    2    1    2    0    0  0.00000000000E+00  0.00000000000E+00 -0.58835275706E+03  0.77143057860E+03  0.49894505796E+03 0.  0.
        3    1    3    3  502    0  0.11329797788E+03 -0.22136910173E+03 -0.32493690935E+03  0.40917565452E+03  0.10100000352E+00 0.  1.
       -3    1    3    3    0  502 -0.11329797788E+03  0.22136910173E+03 -0.26341584771E+03  0.36225492408E+03  0.10100000352E+00 0. -1.
</event>
<event>
 5   0  0.1217270E-02  0.5005043E+03  0.7818609E-02  0.1013647E+00
        1   -1    0    0  501    0  0.00000000000E+00  0.00000000000E+00  0.71468025310E+03  0.71468025312E+03  0.50400001928E-02 0. -1.
       -1   -1    0    0    0  501  0.00000000000E+00  0.00000000000E+00 -0.87628191449E+02  0.87628191594E+02  0.50400001928E-02 0.  1.
    10030    2    1    2    0    0  0.00000000000E+00  0.00000000000E+00  0.62705206166E+03  0.80230844472E+03  0.50050429812E+03 0.  0.
        2    1    3    3  502    0 -0.24578186871E+03 -0.46329827961E+02  0.32702916895E+03  0.41170773286E+03  0.25500000920E-02 0.  1.
       -2    1    3    3    0  502  0.24578186871E+03  0.46329827961E+02  0.30002289270E+03  0.39060071185E+03  0.25500000920E-02 0. -1.
</event>
<event>
 5   0  0.1225989E-02  0.4997837E+03  0.7818609E-02  0.1013835E+00
       -1   -1    0    0    0  501  0.00000000000E+00  0.00000000000E+00  0.74040553134E+02  0.74040553305E+02  0.50400001928E-02 0.  1.
        1   -1    0    0  501    0  0.00000000000E+00  0.00000000000E+00 -0.84340195665E+03  0.84340195667E+03  0.50400001928E-02 0. -1.
    10030    2    1    2    0    0  0.00000000000E+00  0.00000000000E+00 -0.76936140352E+03  0.91744250997E+03  0.49978374311E+03 0.  0.
        3    1    3    3  502    0  0.81820222408E+02 -0.16168680556E+03 -0.70054961297E+03  0.72360689764E+03  0.10100000352E+00 0. -1.
       -3    1    3    3    0  502 -0.81820222408E+02  0.16168680556E+03 -0.68811790551E+02  0.19383561233E+03  0.10100000352E+00 0.  1.
</event>
<event>
 5   0  0.1941387E-02  0.5000097E+03  0.7818609E-02  0.1013776E+00
        2   -1    0    0  501    0  0.00000000000E+00  0.00000000000E+00  0.29751062111E+03  0.29751062112E+03  0.25500000920E-02 0.  1.
       -2   -1    0    0    0  501  0.00000000000E+00  0.00000000000E+00 -0.21008472243E+03  0.21008472245E+03  0.25500000920E-02 0. -1.
    10030    2    1    2    0    0  0.00000000000E+00  0.00000000000E+00  0.87425898678E+02  0.50759534357E+03  0.50000974496E+03 0.  0.
        4    1    3    3  502    0 -0.21622433642E+03  0.75190802652E+02  0.14570707889E+03  0.27136467383E+03  0.12699999809E+01 0.  1.
       -4    1    3    3    0  502  0.21622433642E+03 -0.75190802652E+02 -0.58281180211E+02  0.23623066975E+03  0.12699999809E+01 0. -1.
</event>
<event>
 5   0  0.1855407E-02  0.4957754E+03  0.7818609E-02  0.1014888E+00
       -2   -1    0    0    0  501  0.00000000000E+00  0.00000000000E+00  0.20848023215E+02  0.20848023371E+02  0.25500000920E-02 0. -1.
        2   -1    0    0  501    0  0.00000000000E+00  0.00000000000E+00 -0.29474411872E+04  0.29474411872E+04  0.25500000920E-02 0.  1.
    10030    2    1    2    0    0  0.00000000000E+00  0.00000000000E+00 -0.29265931640E+04  0.29682892106E+04  0.49577544324E+03 0.  0.
        1    1    3    3  502    0  0.95202478710E+02  0.63526291877E+02 -0.14681150167E+03  0.18615240734E+03  0.50400001928E-02 0. -1.
       -1    1    3    3    0  502 -0.95202478710E+02 -0.63526291877E+02 -0.27797816623E+04  0.27821368032E+04  0.50400001928E-02 0.  1.
</event>
<event>
 5   0  0.1209831E-02  0.5008408E+03  0.7818609E-02  0.1013560E+00
        1   -1    0    0  501    0  0.00000000000E+00  0.00000000000E+00  0.39330465324E+03  0.39330465328E+03  0.50400001928E-02 0. -1.
       -1   -1    0    0    0  501  0.00000000000E+00  0.00000000000E+00 -0.15944477517E+03  0.15944477525E+03  0.50400001928E-02 0.  1.
    10030    2    1    2    0    0  0.00000000000E+00  0.00000000000E+00  0.23385987808E+03  0.55274942852E+03  0.50084078124E+03 0.  0.
        4    1    3    3  502    0 -0.24717346479E+03  0.59727407695E+01  0.16077616075E+03  0.29492538394E+03  0.12699999809E+01 0. -1.
       -4    1    3    3    0  502  0.24717346479E+03 -0.59727407695E+01  0.73083717332E+02  0.25782404458E+03  0.12699999809E+01 0.  1.
</event>
<event>
 5   0  0.1982847E-02  0.5008072E+03  0.7818609E-02  0.1013568E+00
        2   -1    0    0  501    0  0.00000000000E+00  0.00000000000E+00  0.31336971831E+03  0.31336971832E+03  0.25500000920E-02 0.  1.
       -2   -1    0    0    0  501  0.00000000000E+00  0.00000000000E+00 -0.20008942888E+03  0.20008942890E+03  0.25500000920E-02 0. -1.
    10030    2    1    2    0    0  0.00000000000E+00  0.00000000000E+00  0.11328028943E+03  0.51345914722E+03  0.50080722029E+03 0.  0.
        2    1    3    3  502    0 -0.19027676705E+03 -0.37909978975E+02  0.21894143666E+03  0.29253677936E+03  0.25500000920E-02 0.  1.
       -2    1    3    3    0  502  0.19027676705E+03  0.37909978975E+02 -0.10566114723E+03  0.22092236787E+03  0.25500000920E-02 0. -1.
</event>
<event>
 5   0  0.1225989E-02  0.4999742E+03  0.7818609E-02  0.1013786E+00
       -1   -1    0    0    0  501  0.00000000000E+00  0.00000000000E+00  0.33670784556E+03  0.33670784560E+03  0.50400001928E-02 0. -1.
        1   -1    0    0  501    0  0.00000000000E+00  0.00000000000E+00 -0.18560174180E+03  0.18560174187E+03  0.50400001928E-02 0.  1.
    10030    2    1    2    0    0  0.00000000000E+00  0.00000000000E+00  0.15110610376E+03  0.52230958746E+03  0.49997424990E+03 0.  0.
        3    1    3    3  502    0 -0.87320971022E+02 -0.19390407861E+03  0.21283837949E+03  0.30087194895E+03  0.10100000352E+00 0. -1.
       -3    1    3    3    0  502  0.87320971022E+02  0.19390407861E+03 -0.61732275725E+02  0.22143763851E+03  0.10100000352E+00 0.  1.
</event>
<event>
 5   0  0.1982847E-02  0.5001715E+03  0.7818609E-02  0.1013734E+00
       -2   -1    0    0    0  501  0.00000000000E+00  0.00000000000E+00  0.39619762640E+02  0.39619762722E+02  0.25500000920E-02 0. -1.
        2   -1    0    0  501    0  0.00000000000E+00  0.00000000000E+00 -0.15785777396E+04  0.15785777396E+04  0.25500000920E-02 0.  1.
    10030    2    1    2    0    0  0.00000000000E+00  0.00000000000E+00 -0.15389579770E+04  0.16181975023E+04  0.50017147228E+03 0.  0.
        2    1    3    3  502    0 -0.10965360959E+03 -0.93557623841E+01 -0.14960252203E+04  0.15000676332E+04  0.25500000920E-02 0.  1.
       -2    1    3    3    0  502  0.10965360959E+03  0.93557623841E+01 -0.42932756704E+02  0.11812986917E+03  0.25500000920E-02 0. -1.
</event>
<event>
 5   0  0.1217270E-02  0.5012411E+03  0.7818609E-02  0.1013455E+00
        1   -1    0    0  501    0  0.00000000000E+00  0.00000000000E+00  0.16165158051E+03  0.16165158059E+03  0.50400001928E-02 0. -1.
       -1   -1    0    0    0  501  0.00000000000E+00  0.00000000000E+00 -0.38855587780E+03  0.38855587783E+03  0.50400001928E-02 0.  1.
    10030    2    1    2    0    0  0.00000000000E+00  0.00000000000E+00 -0.22690429729E+03  0.55020745842E+03  0.50124114673E+03 0.  0.
        2    1    3    3  502    0 -0.13331798983E+03 -0.12661363697E+03 -0.30040128895E+03  0.35220112704E+03  0.25500000920E-02 0.  1.
       -2    1    3    3    0  502  0.13331798983E+03  0.12661363697E+03  0.73496991662E+02  0.19800633138E+03  0.25500000920E-02 0. -1.
</event>
<event>
 5   0  0.1217270E-02  0.4998550E+03  0.7818609E-02  0.1013817E+00
       -1   -1    0    0    0  501  0.00000000000E+00  0.00000000000E+00  0.59576023635E+02  0.59576023848E+02  0.50400001928E-02 0. -1.
        1   -1    0    0  501    0  0.00000000000E+00  0.00000000000E+00 -0.10484714850E+04  0.10484714850E+04  0.50400001928E-02 0.  1.
    10030    2    1    2    0    0  0.00000000000E+00  0.00000000000E+00 -0.98889546140E+03  0.11080475089E+04  0.49985502737E+03 0.  0.
        2    1    3    3  502    0 -0.71285399395E+02 -0.82451689161E+02  0.41156263214E+01  0.10907257950E+03  0.25500000920E-02 0. -1.
       -2    1    3    3    0  502  0.71285399395E+02  0.82451689161E+02 -0.99301108772E+03  0.99897492939E+03  0.25500000920E-02 0.  1.
</event>
<event>
 5   0  0.1217270E-02  0.4997466E+03  0.7818609E-02  0.1013845E+00
       -1   -1    0    0    0  501  0.00000000000E+00  0.00000000000E+00  0.68657505639E+02  0.68657505824E+02  0.50400001928E-02 0.  1.
        1   -1    0    0  501    0  0.00000000000E+00  0.00000000000E+00 -0.90939322825E+03  0.90939322827E+03  0.50400001928E-02 0. -1.
    10030    2    1    2    0    0  0.00000000000E+00  0.00000000000E+00 -0.84073572261E+03  0.97805073409E+03  0.49974661898E+03 0.  0.
        2    1    3    3  502    0  0.88801524542E+02  0.99186747596E+02 -0.83420377448E+03  0.84476011922E+03  0.25500000920E-02 0. -1.
       -2    1    3    3    0  502 -0.88801524542E+02 -0.99186747596E+02 -0.65319481315E+01  0.13329061487E+03  0.25500000920E-02 0.  1.
</event>
<event>
 5   0  0.1941387E-02  0.4994276E+03  0.7818609E-02  0.1013928E+00
        2   -1    0    0  501    0  0.00000000000E+00  0.00000000000E+00  0.92773728731E+02  0.92773728767E+02  0.25500000920E-02 0. -1.
       -2   -1    0    0    0  501  0.00000000000E+00  0.00000000000E+00 -0.67214060702E+03  0.67214060703E+03  0.25500000920E-02 0.  1.
    10030    2    1    2    0    0  0.00000000000E+00  0.00000000000E+00 -0.57936687829E+03  0.76491433579E+03  0.49942763384E+03 0.  0.
        4    1    3    3  502    0 -0.12611905223E+03 -0.28860922943E+02 -0.61679868061E+03  0.63022312994E+03  0.12699999809E+01 0.  1.
       -4    1    3    3    0  502  0.12611905223E+03  0.28860922943E+02  0.37431802322E+02  0.13469120585E+03  0.12699999809E+01 0. -1.
</event>
<event>
 5   0  0.1227864E-02  0.4994830E+03  0.7818609E-02  0.1013914E+00
        1   -1    0    0  501    0  0.00000000000E+00  0.00000000000E+00  0.30064719027E+03  0.30064719032E+03  0.50400001928E-02 0. -1.
       -1   -1    0    0    0  501  0.00000000000E+00  0.00000000000E+00 -0.20745520553E+03  0.20745520559E+03  0.50400001928E-02 0.  1.
    10030    2    1    2    0    0  0.00000000000E+00  0.00000000000E+00  0.93191984741E+02  0.50810239591E+03  0.49948303145E+03 0.  0.
        5    1    3    3  502    0  0.28626523038E+02  0.18712114934E+03  0.21224001376E+03  0.28443226925E+03  0.46999998093E+01 0. -1.
       -5    1    3    3    0  502 -0.28626523038E+02 -0.18712114934E+03 -0.11904802902E+03  0.22367012666E+03  0.46999998093E+01 0.  1.
</event>
<event>
 5   0  0.1967813E-02  0.5003246E+03  0.7818609E-02  0.1013694E+00
        2   -1    0    0  501    0  0.00000000000E+00  0.00000000000E+00  0.62342175142E+03  0.62342175142E+03  0.25500000920E-02 0. -1.
       -2   -1    0    0    0  501  0.00000000000E+00  0.00000000000E+00 -0.10038338854E+03  0.10038338857E+03  0.25500000920E-02 0.  1.
    10030    2    1    2    0    0  0.00000000000E+00  0.00000000000E+00  0.52303836288E+03  0.72380513999E+03  0.50032464625E+03 0.  0.
        5    1    3    3  502    0 -0.16548556551E+03 -0.12430390538E+03  0.58355040698E+02  0.21509145510E+03  0.46999998093E+01 0.  1.
       -5    1    3    3    0  502  0.16548556551E+03  0.12430390538E+03  0.46468332218E+03  0.50871368489E+03  0.46999998093E+01 0. -1.
</event>
<event>
 5   0  0.1967813E-02  0.4991306E+03  0.7818609E-02  0.1014006E+00
        2   -1    0    0  501    0  0.00000000000E+00  0.00000000000E+00  0.38020828987E+03  0.38020828988E+03  0.25500000920E-02 0.  1.
       -2   -1    0    0    0  501  0.00000000000E+00  0.00000000000E+00 -0.16381238926E+03  0.16381238928E+03  0.25500000920E-02 0. -1.
    10030    2    1    2    0    0  0.00000000000E+00  0.00000000000E+00  0.21639590061E+03  0.54402067916E+03  0.49913055762E+03 0.  0.
        5    1    3    3  502    0 -0.24629047362E+03  0.11823133631E+02  0.14987223731E+03  0.28858718163E+03  0.46999998093E+01 0.  1.
       -5    1    3    3    0  502  0.24629047362E+03 -0.11823133631E+02  0.66523663304E+02  0.25543349753E+03  0.46999998093E+01 0. -1.
</event>
<event>
 5   0  0.1941387E-02  0.5022635E+03  0.7818609E-02  0.1013190E+00
       -2   -1    0    0    0  501  0.00000000000E+00  0.00000000000E+00  0.63855296042E+02  0.63855296093E+02  0.25500000920E-02 0. -1.
        2   -1    0    0  501    0  0.00000000000E+00  0.00000000000E+00 -0.98765743216E+03  0.98765743216E+03  0.25500000920E-02 0.  1.
    10030    2    1    2    0    0  0.00000000000E+00  0.00000000000E+00 -0.92380213612E+03  0.10515127283E+04  0.50226350752E+03 0.  0.
        4    1    3    3  502    0 -0.16981444558E+03 -0.21842205122E+02 -0.84651902586E+03  0.86366087204E+03  0.12699999809E+01 0.  1.
       -4    1    3    3    0  502  0.16981444558E+03  0.21842205122E+02 -0.77283110252E+02  0.18785185621E+03  0.12699999809E+01 0. -1.
</event>
<event>
 5   0  0.1209831E-02  0.4997955E+03  0.7818609E-02  0.1013832E+00
        1   -1    0    0  501    0  0.00000000000E+00  0.00000000000E+00  0.22808966004E+03  0.22808966010E+03  0.50400001928E-02 0.  1.
       -1   -1    0    0    0  501  0.00000000000E+00  0.00000000000E+00 -0.27379100004E+03  0.27379100008E+03  0.50400001928E-02 0. -1.
    10030    2    1    2    0    0  0.00000000000E+00  0.00000000000E+00 -0.45701339993E+02  0.50188066018E+03  0.49979554278E+03 0.  0.
        4    1    3    3  502    0 -0.17129271048E+03  0.18195020250E+03 -0.22385709671E+02  0.25089799072E+03  0.12699999809E+01 0.  1.
       -4    1    3    3    0  502  0.17129271048E+03 -0.18195020250E+03 -0.23315630322E+02  0.25098266946E+03  0.12699999809E+01 0. -1.
</event>
<event>
 5   0  0.8012875E-03  0.5022144E+03  0.7818609E-02  0.1013203E+00
       -4   -1    0    0    0  501  0.00000000000E+00  0.00000000000E+00  0.20044312768E+03  0.20044715097E+03  0.12699999809E+01 0. -1.
        4   -1    0    0  501    0  0.00000000000E+00  0.00000000000E+00 -0.31456870922E+03  0.31457127287E+03  0.12699999809E+01 0.  1.
    10030    2    1    2    0    0  0.00000000000E+00  0.00000000000E+00 -0.11412558154E+03  0.51501842385E+03  0.50221442487E+03 0.  0.
        1    1    3    3  502    0  0.11418827792E+03  0.73221897613E+02 -0.27376623995E+03  0.30552964384E+03  0.50400001928E-02 0.  1.
       -1    1    3    3    0  502 -0.11418827792E+03 -0.73221897613E+02  0.15964065842E+03  0.20948878001E+03  0.50400001928E-02 0. -1.
</event>
<event>
 5   0  0.8012875E-03  0.4997446E+03  0.7818609E-02  0.1013846E+00
        3   -1    0    0  501    0  0.00000000000E+00  0.00000000000E+00  0.90590665462E+02  0.90590721765E+02  0.10100000352E+00 0.  1.
       -3   -1    0    0    0  501  0.00000000000E+00  0.00000000000E+00 -0.68921168030E+03  0.68921168770E+03  0.10100000352E+00 0. -1.
    10030    2    1    2    0    0  0.00000000000E+00  0.00000000000E+00 -0.59862101483E+03  0.77980240946E+03  0.49974461318E+03 0.  0.
        2    1    3    3  502    0  0.61018826978E+02  0.18739504949E+03 -0.59617508865E+02  0.20589912382E+03  0.25500000920E-02 0.  1.
       -2    1    3    3    0  502 -0.61018826978E+02 -0.18739504949E+03 -0.53900350597E+03  0.57390328564E+03  0.25500000920E-02 0. -1.
</event>
<event>
 5   0  0.1982847E-02  0.5001009E+03  0.7818609E-02  0.1013753E+00
       -2   -1    0    0    0  501  0.00000000000E+00  0.00000000000E+00  0.21288362855E+03  0.21288362856E+03  0.25500000920E-02 0. -1.
        2   -1    0    0  501    0  0.00000000000E+00  0.00000000000E+00 -0.29370608183E+03  0.29370608184E+03  0.25500000920E-02 0.  1.
    10030    2    1    2    0    0  0.00000000000E+00  0.00000000000E+00 -0.80822453285E+02  0.50658971040E+03  0.50010085556E+03 0.  0.
        2    1    3    3  502    0 -0.18526871074E+03 -0.15783360521E+03 -0.98507572061E+02  0.26256367584E+03  0.25500000920E-02 0.  1.
       -2    1    3    3    0  502  0.18526871074E+03  0.15783360521E+03  0.17685118777E+02  0.24402603456E+03  0.25500000920E-02 0. -1.
</event>
<event>
 5   0  0.1217270E-02  0.5027873E+03  0.7818609E-02  0.1013054E+00
       -1   -1    0    0    0  501  0.00000000000E+00  0.00000000000E+00  0.75649471201E+02  0.75649471369E+02  0.50400001928E-02 0.  1.
        1   -1    0    0  501    0  0.00000000000E+00  0.00000000000E+00 -0.83541575867E+03  0.83541575869E+03  0.50400001928E-02 0. -1.
    10030    2    1    2    0    0  0.00000000000E+00  0.00000000000E+00 -0.75976628747E+03  0.91106523006E+03  0.50278727295E+03 0.  0.
        2    1    3    3  502    0  0.76673570988E+02  0.21862386354E+03 -0.55671649585E+03  0.60299957459E+03  0.25500000920E-02 0. -1.
       -2    1    3    3    0  502 -0.76673570988E+02 -0.21862386354E+03 -0.20304979162E+03  0.30806565547E+03  0.25500000920E-02 0.  1.
</event>
<event>
 5   0  0.1923706E-02  0.5005129E+03  0.7818609E-02  0.1013645E+00
       -2   -1    0    0    0  501  0.00000000000E+00  0.00000000000E+00  0.19558061895E+03  0.19558061897E+03  0.25500000920E-02 0.  1.
        2   -1    0    0  501    0  0.00000000000E+00  0.00000000000E+00 -0.32021731690E+03  0.32021731691E+03  0.25500000920E-02 0. -1.
    10030    2    1    2    0    0  0.00000000000E+00  0.00000000000E+00 -0.12463669795E+03  0.51579793588E+03  0.50051294107E+03 0.  0.
        3    1    3    3  502    0  0.14028841691E+03  0.17426666916E+03  0.53260956071E+02  0.22997054494E+03  0.10100000352E+00 0.  1.
       -3    1    3    3    0  502 -0.14028841691E+03 -0.17426666916E+03 -0.17789765402E+03  0.28582739093E+03  0.10100000352E+00 0. -1.
</event>
<event>
 5   0  0.1967813E-02  0.4978763E+03  0.7818609E-02  0.1014335E+00
       -2   -1    0    0    0  501  0.00000000000E+00  0.00000000000E+00  0.55697928027E+03  0.55697928028E+03  0.25500000920E-02 0.  1.
        2   -1    0    0  501    0  0.00000000000E+00  0.00000000000E+00 -0.11126122340E+03  0.11126122343E+03  0.25500000920E-02 0. -1.
    10030    2    1    2    0    0  0.00000000000E+00  0.00000000000E+00  0.44571805687E+03  0.66824050371E+03  0.49787627437E+03 0.  0.
        5    1    3    3  502    0  0.10672648991E+03  0.10846987065E+03  0.48721042475E+03  0.51044328232E+03  0.46999998093E+01 0.  1.
       -5    1    3    3    0  502 -0.10672648991E+03 -0.10846987065E+03 -0.41492367883E+02  0.15779722139E+03  0.46999998093E+01 0. -1.
</event>
<event>
 5   0  0.1227864E-02  0.5003903E+03  0.7818609E-02  0.1013677E+00
       -1   -1    0    0    0  501  0.00000000000E+00  0.00000000000E+00  0.34062093960E+03  0.34062093964E+03  0.50400001928E-02 0. -1.
        1   -1    0    0  501    0  0.00000000000E+00  0.00000000000E+00 -0.18377498078E+03  0.18377498085E+03  0.50400001928E-02 0.  1.
    10030    2    1    2    0    0  0.00000000000E+00  0.00000000000E+00  0.15684595883E+03  0.52439592049E+03  0.50039027431E+03 0.  0.
        5    1    3    3  502    0  0.11668912689E+03  0.21725292787E+03  0.12239206634E+03  0.27534904195E+03  0.46999998093E+01 0. -1.
       -5    1    3    3    0  502 -0.11668912689E+03 -0.21725292787E+03  0.34453892482E+02  0.24904687854E+03  0.46999998093E+01 0.  1.
</event>
<event>
 5   0  0.1180937E-02  0.5006853E+03  0.7818609E-02  0.1013600E+00
       -1   -1    0    0    0  501  0.00000000000E+00  0.00000000000E+00  0.17900952327E+03  0.17900952334E+03  0.50400001928E-02 0.  1.
        1   -1    0    0  501    0  0.00000000000E+00  0.00000000000E+00 -0.35010112912E+03  0.35010112916E+03  0.50400001928E-02 0. -1.
    10030    2    1    2    0    0  0.00000000000E+00  0.00000000000E+00 -0.17109160585E+03  0.52911065250E+03  0.50068527539E+03 0.  0.
        1    1    3    3  502    0 -0.12918658182E+03 -0.46409554469E+01 -0.31210156923E+03  0.33781370744E+03  0.50400001928E-02 0. -1.
       -1    1    3    3    0  502  0.12918658182E+03  0.46409554469E+01  0.14100996338E+03  0.19129694506E+03  0.50400001928E-02 0.  1.
</event>
<event>
 5   0  0.1923706E-02  0.5007095E+03  0.7818609E-02  0.1013594E+00
        2   -1    0    0  501    0  0.00000000000E+00  0.00000000000E+00  0.13293992034E+04  0.13293992034E+04  0.25500000920E-02 0. -1.
       -2   -1    0    0    0  501  0.00000000000E+00  0.00000000000E+00 -0.47147237979E+02  0.47147238048E+02  0.25500000920E-02 0.  1.
    10030    2    1    2    0    0  0.00000000000E+00  0.00000000000E+00  0.12822519654E+04  0.13765464415E+04  0.50070949926E+03 0.  0.
        3    1    3    3  502    0  0.14073754572E+03  0.11172672532E+03  0.11203659629E+04  0.11346848986E+04  0.10100000352E+00 0. -1.
       -3    1    3    3    0  502 -0.14073754572E+03 -0.11172672532E+03  0.16188600250E+03  0.24186154290E+03  0.10100000352E+00 0.  1.
</event>
<event>
 5   0  0.1855407E-02  0.5001311E+03  0.7818609E-02  0.1013745E+00
       -2   -1    0    0    0  501  0.00000000000E+00  0.00000000000E+00  0.92202426776E+02  0.92202426812E+02  0.25500000920E-02 0. -1.
        2   -1    0    0  501    0  0.00000000000E+00  0.00000000000E+00 -0.67821172751E+03  0.67821172752E+03  0.25500000920E-02 0.  1.
    10030    2    1    2    0    0  0.00000000000E+00  0.00000000000E+00 -0.58600930073E+03  0.77041415433E+03  0.50013105147E+03 0.  0.
        1    1    3    3  502    0 -0.29945498273E+02  0.48206251033E+02 -0.66816110230E+03  0.67056680067E+03  0.50400001928E-02 0.  1.
       -1    1    3    3    0  502  0.29945498273E+02 -0.48206251033E+02  0.82151801570E+02  0.99847353655E+02  0.50400001928E-02 0. -1.
</event>
<event>
 5   0  0.1855407E-02  0.4993914E+03  0.7818609E-02  0.1013938E+00
       -2   -1    0    0    0  501  0.00000000000E+00  0.00000000000E+00  0.17510944638E+03  0.17510944640E+03  0.25500000920E-02 0. -1.
        2   -1    0    0  501    0  0.00000000000E+00  0.00000000000E+00 -0.35605133514E+03  0.35605133515E+03  0.25500000920E-02 0.  1.
    10030    2    1    2    0    0  0.00000000000E+00  0.00000000000E+00 -0.18094188876E+03  0.53116078155E+03  0.49939143840E+03 0.  0.
        1    1    3    3  502    0 -0.17154166519E+03  0.11598358316E+03 -0.23887957554E+03  0.31613634099E+03  0.50400001928E-02 0.  1.
       -1    1    3    3    0  502  0.17154166519E+03 -0.11598358316E+03  0.57937686780E+02  0.21502444055E+03  0.50400001928E-02 0. -1.
</event>
<event>
 5   0  0.1982847E-02  0.4995592E+03  0.7818609E-02  0.1013894E+00
        2   -1    0    0  501    0  0.00000000000E+00  0.00000000000E+00  0.33768672920E+03  0.33768672920E+03  0.25500000920E-02 0. -1.
       -2   -1    0    0    0  501  0.00000000000E+00  0.00000000000E+00 -0.18475660096E+03  0.18475660097E+03  0.25500000920E-02 0.  1.
    10030    2    1    2    0    0  0.00000000000E+00  0.00000000000E+00  0.15293012824E+03  0.52244333018E+03  0.49955921483E+03 0.  0.
        2    1    3    3  502    0 -0.22913553743E+03  0.46341248377E+01 -0.27408965846E+02  0.23081555632E+03  0.25500000920E-02 0.  1.
       -2    1    3    3    0  502  0.22913553743E+03 -0.46341248377E+01  0.18033909408E+03  0.29162777386E+03  0.25500000920E-02 0. -1.
</event>
<event>
 5   0  0.1209831E-02  0.5003871E+03  0.7818609E-02  0.1013678E+00
       -1   -1    0    0    0  501  0.00000000000E+00  0.00000000000E+00  0.54204339533E+02  0.54204339768E+02  0.50400001928E-02 0.  1.
        1   -1    0    0  501    0  0.00000000000E+00  0.00000000000E+00 -0.11548304944E+04  0.11548304944E+04  0.50400001928E-02 0. -1.
    10030    2    1    2    0    0  0.00000000000E+00  0.00000000000E+00 -0.11006261549E+04  0.12090348342E+04  0.50038714760E+03 0.  0.
        4    1    3    3  502    0 -0.85400115424E+02 -0.47291844629E+02  0.62813471470E+01  0.97830294412E+02  0.12699999809E+01 0.  1.
       -4    1    3    3    0  502  0.85400115424E+02  0.47291844629E+02 -0.11069075020E+04  0.11112045398E+04  0.12699999809E+01 0. -1.
</event>
<event>
 5   0  0.1855407E-02  0.5013601E+03  0.7818609E-02  0.1013425E+00
        2   -1    0    0  501    0  0.00000000000E+00  0.00000000000E+00  0.72381834045E+02  0.72381834090E+02  0.25500000920E-02 0. -1.
       -2   -1    0    0    0  501  0.00000000000E+00  0.00000000000E+00 -0.86818032677E+03  0.86818032677E+03  0.25500000920E-02 0.  1.
    10030    2    1    2    0    0  0.00000000000E+00  0.00000000000E+00 -0.79579849273E+03  0.94056216086E+03  0.50136008759E+03 0.  0.
        1    1    3    3  502    0 -0.19462700592E+03 -0.15535882078E+02 -0.69285518233E+03  0.71983980077E+03  0.50400001928E-02 0.  1.
       -1    1    3    3    0  502  0.19462700592E+03  0.15535882078E+02 -0.10294331040E+03  0.22072236010E+03  0.50400001928E-02 0. -1.
</event>
<event>
 5   0  0.1941387E-02  0.5053873E+03  0.7818609E-02  0.1012382E+00
        2   -1    0    0  501    0  0.00000000000E+00  0.00000000000E+00  0.10003372116E+04  0.10003372116E+04  0.25500000920E-02 0. -1.
       -2   -1    0    0    0  501  0.00000000000E+00  0.00000000000E+00 -0.63832551159E+02  0.63832551210E+02  0.25500000920E-02 0.  1.
    10030    2    1    2    0    0  0.00000000000E+00  0.00000000000E+00  0.93650466045E+03  0.10641697628E+04  0.50538728225E+03 0.  0.
        4    1    3    3  502    0  0.82495281280E+01 -0.24231669689E+03  0.61813907150E+03  0.66399018134E+03  0.12699999809E+01 0. -1.
       -4    1    3    3    0  502 -0.82495281280E+01  0.24231669689E+03  0.31836558894E+03  0.40017958147E+03  0.12699999809E+01 0.  1.
</event>
<event>
 5   0  0.1923706E-02  0.4991161E+03  0.7818609E-02  0.1014010E+00
        2   -1    0    0  501    0  0.00000000000E+00  0.00000000000E+00  0.88479710227E+02  0.88479710263E+02  0.25500000920E-02 0.  1.
       -2   -1    0    0    0  501  0.00000000000E+00  0.00000000000E+00 -0.70388147765E+03  0.70388147765E+03  0.25500000920E-02 0. -1.
    10030    2    1    2    0    0  0.00000000000E+00  0.00000000000E+00 -0.61540176742E+03  0.79236118792E+03  0.49911613555E+03 0.  0.
        3    1    3    3  502    0 -0.33016009161E+02 -0.94271476119E+01  0.84711969298E+02  0.91405994970E+02  0.10100000352E+00 0.  1.
       -3    1    3    3    0  502  0.33016009161E+02  0.94271476119E+01 -0.70011373672E+03  0.70095519295E+03  0.10100000352E+00 0. -1.
</event>
<event>
 5   0  0.1225989E-02  0.5006731E+03  0.7818609E-02  0.1013603E+00
       -1   -1    0    0    0  501  0.00000000000E+00  0.00000000000E+00  0.13917885476E+03  0.13917885485E+03  0.50400001928E-02 0.  1.
        1   -1    0    0  501    0  0.00000000000E+00  0.00000000000E+00 -0.45027231600E+03  0.45027231603E+03  0.50400001928E-02 0. -1.
    10030    2    1    2    0    0  0.00000000000E+00  0.00000000000E+00 -0.31109346124E+03  0.58945117088E+03  0.50067308817E+03 0.  0.
        3    1    3    3  502    0 -0.21911099638E+03  0.82983184948E+02 -0.51752074013E+02  0.23994608787E+03  0.10100000352E+00 0.  1.
       -3    1    3    3    0  502  0.21911099638E+03 -0.82983184948E+02 -0.25934138723E+03  0.34950508301E+03  0.10100000352E+00 0. -1.
</event>
<event>
 5   0  0.8012875E-03  0.4988739E+03  0.7818609E-02  0.1014073E+00
        4   -1    0    0  501    0  0.00000000000E+00  0.00000000000E+00  0.36063264949E+03  0.36063488569E+03  0.12699999809E+01 0. -1.
       -4   -1    0    0    0  501  0.00000000000E+00  0.00000000000E+00 -0.17252167932E+03  0.17252635374E+03  0.12699999809E+01 0.  1.
    10030    2    1    2    0    0  0.00000000000E+00  0.00000000000E+00  0.18811097017E+03  0.53316123944E+03  0.49887390204E+03 0.  0.
        2    1    3    3  502    0  0.86236890762E+02 -0.16191067948E+03 -0.86578522150E+02  0.20284898314E+03  0.25500000920E-02 0.  1.
       -2    1    3    3    0  502 -0.86236890762E+02  0.16191067948E+03  0.27468949232E+03  0.33031225629E+03  0.25500000920E-02 0. -1.
</event>
<event>
 5   0  0.1855407E-02  0.4999171E+03  0.7818609E-02  0.1013801E+00
        2   -1    0    0  501    0  0.00000000000E+00  0.00000000000E+00  0.23913345990E+04  0.23913345990E+04  0.25500000920E-02 0.  1.
       -2   -1    0    0    0  501  0.00000000000E+00  0.00000000000E+00 -0.26127369333E+02  0.26127369458E+02  0.25500000920E-02 0. -1.
    10030    2    1    2    0    0  0.00000000000E+00  0.00000000000E+00  0.23652072297E+04  0.24174619685E+04  0.49991712281E+03 0.  0.
        1    1    3    3  502    0  0.13202184080E+03 -0.10612263819E+03  0.20714765402E+04  0.20783904440E+04  0.50400001928E-02 0.  1.
       -1    1    3    3    0  502 -0.13202184080E+03  0.10612263819E+03  0.29373068944E+03  0.33907152450E+03  0.50400001928E-02 0. -1.
</event>
<event>
 5   0  0.8012875E-03  0.5007947E+03  0.7818609E-02  0.1013572E+00
        3   -1    0    0  501    0  0.00000000000E+00  0.00000000000E+00  0.72360271579E+03  0.72360272284E+03  0.10100000352E+00 0. -1.
       -3   -1    0    0    0  501  0.00000000000E+00  0.00000000000E+00 -0.86648111383E+02  0.86648170248E+02  0.10100000352E+00 0.  1.
    10030    2    1    2    0    0  0.00000000000E+00  0.00000000000E+00  0.63695460441E+03  0.81025089309E+03  0.50079471011E+03 0.  0.
        5    1    3    3  502    0  0.17889063934E+03  0.16357510165E+03  0.21720377883E+03  0.32551228281E+03  0.46999998093E+01 0.  1.
       -5    1    3    3    0  502 -0.17889063934E+03 -0.16357510165E+03  0.41975082558E+03  0.48473861028E+03  0.46999998093E+01 0. -1.
</event>
<event>
 5   0  0.1941387E-02  0.4999743E+03  0.7818609E-02  0.1013786E+00
       -2   -1    0    0    0  501  0.00000000000E+00  0.00000000000E+00  0.47797838928E+02  0.47797838996E+02  0.25500000920E-02 0. -1.
        2   -1    0    0  501    0  0.00000000000E+00  0.00000000000E+00 -0.13074561185E+04  0.13074561185E+04  0.25500000920E-02 0.  1.
    10030    2    1    2    0    0  0.00000000000E+00  0.00000000000E+00 -0.12596582796E+04  0.13552539575E+04  0.49997430736E+03 0.  0.
        4    1    3    3  502    0  0.35339475309E+01 -0.48497330539E+02 -0.12945043986E+04  0.12954179753E+04  0.12699999809E+01 0.  1.
       -4    1    3    3    0  502 -0.35339475309E+01  0.48497330539E+02  0.34846119022E+02  0.59835982197E+02  0.12699999809E+01 0. -1.
</event>
<event>
 5   0  0.1923706E-02  0.4998342E+03  0.7818609E-02  0.1013822E+00
       -2   -1    0    0    0  501  0.00000000000E+00  0.00000000000E+00  0.43334333229E+02  0.43334333304E+02  0.25500000920E-02 0.  1.
        2   -1    0    0  501    0  0.00000000000E+00  0.00000000000E+00 -0.14413181271E+04  0.14413181271E+04  0.25500000920E-02 0. -1.
    10030    2    1    2    0    0  0.00000000000E+00  0.00000000000E+00 -0.13979837939E+04  0.14846524604E+04  0.49983421278E+03 0.  0.
        3    1    3    3  502    0  0.84747154394E+02 -0.15780679656E+03 -0.12166537145E+04  0.12297688142E+04  0.10100000352E+00 0. -1.
       -3    1    3    3    0  502 -0.84747154394E+02  0.15780679656E+03 -0.18133007943E+03  0.25488364625E+03  0.10100000352E+00 0.  1.
</event>
<event>
 5   0  0.1180937E-02  0.4999134E+03  0.7818609E-02  0.1013802E+00
       -1   -1    0    0    0  501  0.00000000000E+00  0.00000000000E+00  0.21484377144E+03  0.21484377150E+03  0.50400001928E-02 0. -1.
        1   -1    0    0  501    0  0.00000000000E+00  0.00000000000E+00 -0.29080825372E+03  0.29080825376E+03  0.50400001928E-02 0.  1.
    10030    2    1    2    0    0  0.00000000000E+00  0.00000000000E+00 -0.75964482275E+02  0.50565202526E+03  0.49991336058E+03 0.  0.
        1    1    3    3  502    0 -0.39580544080E+02 -0.15475249931E+03 -0.23244788411E+03  0.28204073175E+03  0.50400001928E-02 0.  1.
       -1    1    3    3    0  502  0.39580544080E+02  0.15475249931E+03  0.15648340183E+03  0.22361129352E+03  0.50400001928E-02 0. -1.
</event>
<event>
 5   0  0.1982847E-02  0.5037605E+03  0.7818609E-02  0.1012802E+00
       -2   -1    0    0    0  501  0.00000000000E+00  0.00000000000E+00  0.41447863352E+03  0.41447863353E+03  0.25500000920E-02 0. -1.
        2   -1    0    0  501    0  0.00000000000E+00  0.00000000000E+00 -0.15306859266E+03  0.15306859268E+03  0.25500000920E-02 0.  1.
    10030    2    1    2    0    0  0.00000000000E+00  0.00000000000E+00  0.26141004086E+03  0.56754722621E+03  0.50376050313E+03 0.  0.
        2    1    3    3  502    0  0.15568783247E+03 -0.19825504200E+02 -0.91247660654E+02  0.18154307307E+03  0.25500000920E-02 0.  1.
       -2    1    3    3    0  502 -0.15568783247E+03  0.19825504200E+02  0.35265770152E+03  0.38600415314E+03  0.25500000920E-02 0. -1.
</event>
<event>
 5   0  0.1209831E-02  0.5004347E+03  0.7818609E-02  0.1013666E+00
        1   -1    0    0  501    0  0.00000000000E+00  0.00000000000E+00  0.20627014680E+03  0.20627014686E+03  0.50400001928E-02 0. -1.
       -1   -1    0    0    0  501  0.00000000000E+00  0.00000000000E+00 -0.30352783334E+03  0.30352783338E+03  0.50400001928E-02 0.  1.
    10030    2    1    2    0    0  0.00000000000E+00  0.00000000000E+00 -0.97257686543E+02  0.50979798024E+03  0.50043473407E+03 0.  0.
        4    1    3    3  502    0  0.13901086934E+03  0.13314415874E+03 -0.21148148302E+03  0.28596751452E+03  0.12699999809E+01 0.  1.
       -4    1    3    3    0  502 -0.13901086934E+03 -0.13314415874E+03  0.11422379648E+03  0.22383046572E+03  0.12699999809E+01 0. -1.
</event>
<event>
 5   0  0.1217270E-02  0.4978101E+03  0.7818609E-02  0.1014352E+00
       -1   -1    0    0    0  501  0.00000000000E+00  0.00000000000E+00  0.16760301291E+03  0.16760301298E+03  0.50400001928E-02 0. -1.
        1   -1    0    0  501    0  0.00000000000E+00  0.00000000000E+00 -0.36964562425E+03  0.36964562429E+03  0.50400001928E-02 0.  1.
    10030    2    1    2    0    0  0.00000000000E+00  0.00000000000E+00 -0.20204261135E+03  0.53724863727E+03  0.49781008573E+03 0.  0.
        2    1    3    3  502    0  0.52447634538E+02  0.20288974102E+03 -0.24597005676E+03  0.32313506496E+03  0.25500000920E-02 0.  1.
       -2    1    3    3    0  502 -0.52447634538E+02 -0.20288974102E+03  0.43927445413E+02  0.21411357231E+03  0.25500000920E-02 0. -1.
</event>
<event>
 5   0  0.1967813E-02  0.4981913E+03  0.7818609E-02  0.1014252E+00
        2   -1    0    0  501    0  0.00000000000E+00  0.00000000000E+00  0.36288872287E+03  0.36288872287E+03  0.25500000920E-02 0.  1.
       -2   -1    0    0    0  501  0.00000000000E+00  0.00000000000E+00 -0.17098530592E+03  0.17098530594E+03  0.25500000920E-02 0. -1.
    10030    2    1    2    0    0  0.00000000000E+00  0.00000000000E+00  0.19190341695E+03  0.53387402881E+03  0.49819128576E+03 0.  0.
        5    1    3    3  502    0  0.12486289353E+03 -0.21136631027E+03  0.14091003177E+03  0.28309748560E+03  0.46999998093E+01 0.  1.
       -5    1    3    3    0  502 -0.12486289353E+03  0.21136631027E+03  0.50993385176E+02  0.25077654322E+03  0.46999998093E+01 0. -1.
</event>
<event>
 5   0  0.1180937E-02  0.5036957E+03  0.7818609E-02  0.1012819E+00
       -1   -1    0    0    0  501  0.00000000000E+00  0.00000000000E+00  0.78643095459E+02  0.78643095620E+02  0.50400001928E-02 0.  1.
        1   -1    0    0  501    0  0.00000000000E+00  0.00000000000E+00 -0.80652146747E+03  0.80652146748E+03  0.50400001928E-02 0. -1.
    10030    2    1    2    0    0  0.00000000000E+00  0.00000000000E+00 -0.72787837201E+03  0.88516456310E+03  0.50369572098E+03 0.  0.
        1    1    3    3  502    0 -0.39180732164E+02  0.12551316714E+03 -0.74141423112E+03  0.75298323157E+03  0.50400001928E-02 0. -1.
       -1    1    3    3    0  502  0.39180732164E+02 -0.12551316714E+03  0.13535859106E+02  0.13218133153E+03  0.50400001928E-02 0.  1.
</event>
<event>
 5   0  0.1941387E-02  0.4974530E+03  0.7818609E-02  0.1014446E+00
        2   -1    0    0  501    0  0.00000000000E+00  0.00000000000E+00  0.18968044824E+03  0.18968044826E+03  0.25500000920E-02 0. -1.
       -2   -1    0    0    0  501  0.00000000000E+00  0.00000000000E+00 -0.32615314936E+03  0.32615314937E+03  0.25500000920E-02 0.  1.
    10030    2    1    2    0    0  0.00000000000E+00  0.00000000000E+00 -0.13647270112E+03  0.51583359763E+03  0.49745301517E+03 0.  0.
        4    1    3    3  502    0 -0.36693878762E+02 -0.94055654819E+01  0.18666841335E+03  0.19047733420E+03  0.12699999809E+01 0. -1.
       -4    1    3    3    0  502  0.36693878762E+02  0.94055654819E+01 -0.32314111447E+03  0.32535626344E+03  0.12699999809E+01 0.  1.
</event>
<event>
 5   0  0.1227864E-02  0.4997189E+03  0.7818609E-02  0.1013852E+00
        1   -1    0    0  501    0  0.00000000000E+00  0.00000000000E+00  0.68884410636E+03  0.68884410638E+03  0.50400001928E-02 0. -1.
       -1   -1    0    0    0  501  0.00000000000E+00  0.00000000000E+00 -0.90629698410E+02  0.90629698550E+02  0.50400001928E-02 0.  1.
    10030    2    1    2    0    0  0.00000000000E+00  0.00000000000E+00  0.59821440795E+03  0.77947380493E+03  0.49971885565E+03 0.  0.
        5    1    3    3  502    0 -0.80920984312E+02 -0.78592232917E+02 -0.48571730480E+02  0.12290747649E+03  0.46999998093E+01 0.  1.
       -5    1    3    3    0  502  0.80920984312E+02  0.78592232917E+02  0.64678613843E+03  0.65656632844E+03  0.46999998093E+01 0. -1.
</event>
<event>
 5   0  0.1923706E-02  0.4993586E+03  0.7818609E-02  0.1013946E+00
        2   -1    0    0  501    0  0.00000000000E+00  0.00000000000E+00  0.15792641640E+04  0.15792641640E+04  0.25500000920E-02 0.  1.
       -2   -1    0    0    0  501  0.00000000000E+00  0.00000000000E+00 -0.39473921034E+02  0.39473921116E+02  0.25500000920E-02 0. -1.
    10030    2    1    2    0    0  0.00000000000E+00  0.00000000000E+00  0.15397902429E+04  0.16187380851E+04  0.49935858446E+03 0.  0.
        3    1    3    3  502    0  0.21318181342E+03 -0.25829752359E+02  0.35697044994E+03  0.41658321379E+03  0.10100000352E+00 0. -1.
       -3    1    3    3    0  502 -0.21318181342E+03  0.25829752359E+02  0.11828197930E+04  0.12021548713E+04  0.10100000352E+00 0.  1.
</event>
<event>
 5   0  0.1923706E-02  0.5011420E+03  0.7818609E-02  0.1013481E+00
       -2   -1    0    0    0  501  0.00000000000E+00  0.00000000000E+00  0.10731122408E+03  0.10731122411E+03  0.25500000920E-02 0.  1.
        2   -1    0    0  501    0  0.00000000000E+00  0.00000000000E+00 -0.58508157406E+03  0.58508157406E+03  0.25500000920E-02 0. -1.
    10030    2    1    2    0    0  0.00000000000E+00  0.00000000000E+00 -0.47777034998E+03  0.69239279817E+03  0.50114197553E+03 0.  0.
        3    1    3    3  502    0 -0.15140550400E+03  0.10358568312E+03 -0.47470391963E+03  0.50891791274E+03  0.10100000352E+00 0. -1.
       -3    1    3    3    0  502  0.15140550400E+03 -0.10358568312E+03 -0.30664303482E+01  0.18347488543E+03  0.10100000352E+00 0.  1.
</event>
<event>
 5   0  0.1225989E-02  0.5000972E+03  0.7818609E-02  0.1013754E+00
       -1   -1    0    0    0  501  0.00000000000E+00  0.00000000000E+00  0.91824213481E+02  0.91824213619E+02  0.50400001928E-02 0. -1.
        1   -1    0    0  501    0  0.00000000000E+00  0.00000000000E+00 -0.68091314336E+03  0.68091314338E+03  0.50400001928E-02 0.  1.
    10030    2    1    2    0    0  0.00000000000E+00  0.00000000000E+00 -0.58908892988E+03  0.77273735700E+03  0.50009724614E+03 0.  0.
        3    1    3    3  502    0 -0.23670062127E+03  0.63381356202E+02 -0.21759660121E+03  0.32770821089E+03  0.10100000352E+00 0. -1.
       -3    1    3    3    0  502  0.23670062127E+03 -0.63381356202E+02 -0.37149232867E+03  0.44502914611E+03  0.10100000352E+00 0.  1.
</event>
<event>
 5   0  0.1982847E-02  0.5002250E+03  0.7818609E-02  0.1013720E+00
       -2   -1    0    0    0  501  0.00000000000E+00  0.00000000000E+00  0.10449284417E+03  0.10449284421E+03  0.25500000920E-02 0. -1.
        2   -1    0    0  501    0  0.00000000000E+00  0.00000000000E+00 -0.59866541076E+03  0.59866541076E+03  0.25500000920E-02 0.  1.
    10030    2    1    2    0    0  0.00000000000E+00  0.00000000000E+00 -0.49417256658E+03  0.70315825497E+03  0.50022495536E+03 0.  0.
        2    1    3    3  502    0  0.17075853101E+03  0.53984746950E+02 -0.16608369710E+01  0.17909658624E+03  0.25500000920E-02 0. -1.
       -2    1    3    3    0  502 -0.17075853101E+03 -0.53984746950E+02 -0.49251172961E+03  0.52406166873E+03  0.25500000920E-02 0.  1.
</event>
<event>
 5   0  0.1941387E-02  0.4999382E+03  0.7818609E-02  0.1013795E+00
        2   -1    0    0  501    0  0.00000000000E+00  0.00000000000E+00  0.77939201909E+03  0.77939201909E+03  0.25500000920E-02 0. -1.
       -2   -1    0    0    0  501  0.00000000000E+00  0.00000000000E+00 -0.80170875830E+02  0.80170875870E+02  0.25500000920E-02 0.  1.
    10030    2    1    2    0    0  0.00000000000E+00  0.00000000000E+00  0.69922114326E+03  0.85956289496E+03  0.49993815939E+03 0.  0.
        4    1    3    3  502    0  0.13457860807E+02  0.13757427179E+03 -0.84708473328E+01  0.13849607370E+03  0.12699999809E+01 0.  1.
       -4    1    3    3    0  502 -0.13457860807E+02 -0.13757427179E+03  0.70769199059E+03  0.72106682126E+03  0.12699999809E+01 0. -1.
</event>
<event>
 5   0  0.1941387E-02  0.5002831E+03  0.7818609E-02  0.1013705E+00
       -2   -1    0    0    0  501  0.00000000000E+00  0.00000000000E+00  0.49931079359E+02  0.49931079424E+02  0.25500000920E-02 0.  1.
        2   -1    0    0  501    0  0.00000000000E+00  0.00000000000E+00 -0.12531432983E+04  0.12531432983E+04  0.25500000920E-02 0. -1.
    10030    2    1    2    0    0  0.00000000000E+00  0.00000000000E+00 -0.12032122190E+04  0.13030743778E+04  0.50028310993E+03 0.  0.
        4    1    3    3  502    0 -0.19318983114E+03  0.13441215342E+03 -0.82231663760E+03  0.85533338717E+03  0.12699999809E+01 0.  1.
       -4    1    3    3    0  502  0.19318983114E+03 -0.13441215342E+03 -0.38089558138E+03  0.44774099059E+03  0.12699999809E+01 0. -1.
</event>
<event>
 5   0  0.1217270E-02  0.5010640E+03  0.7818609E-02  0.1013502E+00
        1   -1    0    0  501    0  0.00000000000E+00  0.00000000000E+00  0.68371420318E+03  0.68371420320E+03  0.50400001928E-02 0. -1.
       -1   -1    0    0    0  501  0.00000000000E+00  0.00000000000E+00 -0.91801917385E+02  0.91801917523E+02  0.50400001928E-02 0.  1.
    10030    2    1    2    0    0  0.00000000000E+00  0.00000000000E+00  0.59191228580E+03  0.77551612073E+03  0.50106396740E+03 0.  0.
        2    1    3    3  502    0 -0.95418904296E+02 -0.23142913542E+03  0.31159235180E+03  0.39969238887E+03  0.25500000920E-02 0.  1.
       -2    1    3    3    0  502  0.95418904296E+02  0.23142913542E+03  0.28031993400E+03  0.37582373185E+03  0.25500000920E-02 0. -1.
</event>
<event>
 5   0  0.1225989E-02  0.4989889E+03  0.7818609E-02  0.1014043E+00
       -1   -1    0    0    0  501  0.00000000000E+00  0.00000000000E+00  0.28141097516E+03  0.28141097521E+03  0.50400001928E-02 0. -1.
        1   -1    0    0  501    0  0.00000000000E+00  0.00000000000E+00 -0.22119780878E+03  0.22119780884E+03  0.50400001928E-02 0.  1.
    10030    2    1    2    0    0  0.00000000000E+00  0.00000000000E+00  0.60213166380E+02  0.50260878405E+03  0.49898894216E+03 0.  0.
        3    1    3    3  502    0 -0.10183513409E+03  0.52570888669E+02  0.25332966522E+03  0.27804679885E+03  0.10100000352E+00 0. -1.
       -3    1    3    3    0  502  0.10183513409E+03 -0.52570888669E+02 -0.19311649884E+03  0.22456198520E+03  0.10100000352E+00 0.  1.
</event>
<event>
 5   0  0.1209831E-02  0.4990574E+03  0.7818609E-02  0.1014025E+00
       -1   -1    0    0    0  501  0.00000000000E+00  0.00000000000E+00  0.16223146812E+03  0.16223146820E+03  0.50400001928E-02 0.  1.
        1   -1    0    0  501    0  0.00000000000E+00  0.00000000000E+00 -0.38380088684E+03  0.38380088687E+03  0.50400001928E-02 0. -1.
    10030    2    1    2    0    0  0.00000000000E+00  0.00000000000E+00 -0.22156941872E+03  0.54603235508E+03  0.49905743705E+03 0.  0.
        4    1    3    3  502    0 -0.15508995703E+03  0.93225587540E+02  0.77198531846E+02  0.19673619688E+03  0.12699999809E+01 0.  1.
       -4    1    3    3    0  502  0.15508995703E+03 -0.93225587540E+02 -0.29876795056E+03  0.34929615819E+03  0.12699999809E+01 0. -1.
</event>
<event>
 5   0  0.1217270E-02  0.5003222E+03  0.7818609E-02  0.1013695E+00
        1   -1    0    0  501    0  0.00000000000E+00  0.00000000000E+00  0.18194017618E+03  0.18194017625E+03  0.50400001928E-02 0. -1.
       -1   -1    0    0    0  501  0.00000000000E+00  0.00000000000E+00 -0.34396241495E+03  0.34396241499E+03  0.50400001928E-02 0.  1.
    10030    2    1    2    0    0  0.00000000000E+00  0.00000000000E+00 -0.16202223877E+03  0.52590259124E+03  0.50032222579E+03 0.  0.
        2    1    3    3  502    0 -0.18961992643E+03  0.15184989209E+03 -0.18237787874E+02  0.24361182882E+03  0.25500000920E-02 0. -1.
       -2    1    3    3    0  502  0.18961992643E+03 -0.15184989209E+03 -0.14378445090E+03  0.28229076243E+03  0.25500000920E-02 0.  1.
</event>
<event>
 5   0  0.1180937E-02  0.5009441E+03  0.7818609E-02  0.1013533E+00
        1   -1    0    0  501    0  0.00000000000E+00  0.00000000000E+00  0.93334027951E+03  0.93334027952E+03  0.50400001928E-02 0. -1.
       -1   -1    0    0    0  501  0.00000000000E+00  0.00000000000E+00 -0.67216895531E+02  0.67216895720E+02  0.50400001928E-02 0.  1.
    10030    2    1    2    0    0  0.00000000000E+00  0.00000000000E+00  0.86612338397E+03  0.10005571752E+04  0.50094405342E+03 0.  0.
        1    1    3    3  502    0 -0.53258663885E+02  0.59357870530E+02 -0.41181748083E+02  0.89753988620E+02  0.50400001928E-02 0.  1.
       -1    1    3    3    0  502  0.53258663885E+02 -0.59357870530E+02  0.90730513206E+03  0.91080318662E+03  0.50400001928E-02 0. -1.
</event>
<event>
 5   0  0.1982847E-02  0.5003675E+03  0.7818609E-02  0.1013683E+00
       -2   -1    0    0    0  501  0.00000000000E+00  0.00000000000E+00  0.11287723122E+03  0.11287723125E+03  0.25500000920E-02 0.  1.
        2   -1    0    0  501    0  0.00000000000E+00  0.00000000000E+00 -0.55451313103E+03  0.55451313104E+03  0.25500000920E-02 0. -1.
    10030    2    1    2    0    0  0.00000000000E+00  0.00000000000E+00 -0.44163589981E+03  0.66739036228E+03  0.50036749262E+03 0.  0.
        2    1    3    3  502    0 -0.14330930345E+03  0.19401016048E+03 -0.30943699846E+03  0.39233755218E+03  0.25500000920E-02 0. -1.
       -2    1    3    3    0  502  0.14330930345E+03 -0.19401016048E+03 -0.13219890135E+03  0.27505281011E+03  0.25500000920E-02 0.  1.
</event>
<event>
 5   0  0.1217270E-02  0.5039360E+03  0.7818609E-02  0.1012757E+00
        1   -1    0    0  501    0  0.00000000000E+00  0.00000000000E+00  0.25673043355E+03  0.25673043360E+03  0.50400001928E-02 0. -1.
       -1   -1    0    0    0  501  0.00000000000E+00  0.00000000000E+00 -0.24729387529E+03  0.24729387534E+03  0.50400001928E-02 0.  1.
    10030    2    1    2    0    0  0.00000000000E+00  0.00000000000E+00  0.94365582629E+01  0.50402430894E+03  0.50393596356E+03 0.  0.
        2    1    3    3  502    0 -0.17073478225E+03  0.73058495213E+02 -0.16560530450E+03  0.24882328363E+03  0.25500000920E-02 0.  1.
       -2    1    3    3    0  502  0.17073478225E+03 -0.73058495213E+02  0.17504186276E+03  0.25520102531E+03  0.25500000920E-02 0. -1.
</event>
<event>
 5   0  0.1941387E-02  0.5013799E+03  0.7818609E-02  0.1013419E+00
       -2   -1    0    0    0  501  0.00000000000E+00  0.00000000000E+00  0.14004268959E+03  0.14004268961E+03  0.25500000920E-02 0.  1.
        2   -1    0    0  501    0  0.00000000000E+00  0.00000000000E+00 -0.44875931484E+03  0.44875931485E+03  0.25500000920E-02 0. -1.
    10030    2    1    2    0    0  0.00000000000E+00  0.00000000000E+00 -0.30871662525E+03  0.58880200446E+03  0.50137994151E+03 0.  0.
        4    1    3    3  502    0  0.20350627238E+03  0.25043805711E+02  0.15018259985E+02  0.20559464033E+03  0.12699999809E+01 0.  1.
       -4    1    3    3    0  502 -0.20350627238E+03 -0.25043805711E+02 -0.32373488523E+03  0.38320736412E+03  0.12699999809E+01 0. -1.
</event>
<event>
 5   0  0.1209831E-02  0.4994101E+03  0.7818609E-02  0.1013933E+00
       -1   -1    0    0    0  501  0.00000000000E+00  0.00000000000E+00  0.74577541515E+02  0.74577541685E+02  0.50400001928E-02 0.  1.
        1   -1    0    0  501    0  0.00000000000E+00  0.00000000000E+00 -0.83607771105E+03  0.83607771107E+03  0.50400001928E-02 0. -1.
    10030    2    1    2    0    0  0.00000000000E+00  0.00000000000E+00 -0.76150016954E+03  0.91065525275E+03  0.49941013322E+03 0.  0.
        4    1    3    3  502    0  0.92169260219E+02 -0.73861808494E+02 -0.78191277085E+03  0.79078437858E+03  0.12699999809E+01 0. -1.
       -4    1    3    3    0  502 -0.92169260219E+02  0.73861808494E+02  0.20412601313E+02  0.11987087418E+03  0.12699999809E+01 0.  1.
</event>
<event>
 5   0  0.1225989E-02  0.4989363E+03  0.7818609E-02  0.1014057E+00
        1   -1    0    0  501    0  0.00000000000E+00  0.00000000000E+00  0.51709080144E+03  0.51709080146E+03  0.50400001928E-02 0. -1.
       -1   -1    0    0    0  501  0.00000000000E+00  0.00000000000E+00 -0.12035480126E+03  0.12035480137E+03  0.50400001928E-02 0.  1.
    10030    2    1    2    0    0  0.00000000000E+00  0.00000000000E+00  0.39673600018E+03  0.63744560283E+03  0.49893631129E+03 0.  0.
        3    1    3    3  502    0 -0.17490724304E+03  0.10712240699E+03  0.16935817659E+02  0.20580229801E+03  0.10100000352E+00 0.  1.
       -3    1    3    3    0  502  0.17490724304E+03 -0.10712240699E+03  0.37980018252E+03  0.43164330481E+03  0.10100000352E+00 0. -1.
</event>
<event>
 5   0  0.1982847E-02  0.4987475E+03  0.7818609E-02  0.1014106E+00
        2   -1    0    0  501    0  0.00000000000E+00  0.00000000000E+00  0.10869179405E+04  0.10869179405E+04  0.25500000920E-02 0. -1.
       -2   -1    0    0    0  501  0.00000000000E+00  0.00000000000E+00 -0.57214307991E+02  0.57214308048E+02  0.25500000920E-02 0.  1.
    10030    2    1    2    0    0  0.00000000000E+00  0.00000000000E+00  0.10297036325E+04  0.11441322486E+04  0.49874746253E+03 0.  0.
        2    1    3    3  502    0 -0.24806840121E+03 -0.24757726028E+02  0.50101507531E+03  0.55961324356E+03  0.25500000920E-02 0.  1.
       -2    1    3    3    0  502  0.24806840121E+03  0.24757726028E+02  0.52868855722E+03  0.58451900501E+03  0.25500000920E-02 0. -1.
</event>
<event>
 5   0  0.1855407E-02  0.5001946E+03  0.7818609E-02  0.1013728E+00
       -2   -1    0    0    0  501  0.00000000000E+00  0.00000000000E+00  0.46952938517E+03  0.46952938518E+03  0.25500000920E-02 0. -1.
        2   -1    0    0  501    0  0.00000000000E+00  0.00000000000E+00 -0.13321565723E+03  0.13321565725E+03  0.25500000920E-02 0.  1.
    10030    2    1    2    0    0  0.00000000000E+00  0.00000000000E+00  0.33631372794E+03  0.60274504243E+03  0.50019462469E+03 0.  0.
        1    1    3    3  502    0 -0.10773913665E+03 -0.16555538129E+03 -0.16696503480E+02  0.19822986428E+03  0.50400001928E-02 0.  1.
       -1    1    3    3    0  502  0.10773913665E+03  0.16555538129E+03  0.35301023142E+03  0.40451517815E+03  0.50400001928E-02 0. -1.
</event>
<event>
 5   0  0.1967813E-02  0.4889704E+03  0.7818609E-02  0.1016699E+00
       -2   -1    0    0    0  501  0.00000000000E+00  0.00000000000E+00  0.11222855078E+03  0.11222855081E+03  0.25500000920E-02 0. -1.
        2   -1    0    0  501    0  0.00000000000E+00  0.00000000000E+00 -0.53260072290E+03  0.53260072291E+03  0.25500000920E-02 0.  1.
    10030    2    1    2    0    0  0.00000000000E+00  0.00000000000E+00 -0.42037217212E+03  0.64482927371E+03  0.48897037655E+03 0.  0.
        5    1    3    3  502    0 -0.22406483049E+03 -0.83527043013E+02 -0.27702861602E+03  0.36599010815E+03  0.46999998093E+01 0.  1.
       -5    1    3    3    0  502  0.22406483049E+03  0.83527043013E+02 -0.14334355610E+03  0.27883916556E+03  0.46999998093E+01 0. -1.
</event>
<event>
 5   0  0.1217270E-02  0.5037688E+03  0.7818609E-02  0.1012800E+00
        1   -1    0    0  501    0  0.00000000000E+00  0.00000000000E+00  0.42141131177E+03  0.42141131180E+03  0.50400001928E-02 0.  1.
       -1   -1    0    0    0  501  0.00000000000E+00  0.00000000000E+00 -0.15055540089E+03  0.15055540098E+03  0.50400001928E-02 0. -1.
    10030    2    1    2    0    0  0.00000000000E+00  0.00000000000E+00  0.27085591088E+03  0.57196671278E+03  0.50376879227E+03 0.  0.
        2    1    3    3  502    0 -0.20954921976E+03  0.13707924631E+02 -0.22495243331E+02  0.21119852906E+03  0.25500000920E-02 0. -1.
       -2    1    3    3    0  502  0.20954921976E+03 -0.13707924631E+02  0.29335115421E+03  0.36076818371E+03  0.25500000920E-02 0.  1.
</event>
<event>
 5   0  0.1180937E-02  0.4999723E+03  0.7818609E-02  0.1013786E+00
        1   -1    0    0  501    0  0.00000000000E+00  0.00000000000E+00  0.11709649314E+04  0.11709649314E+04  0.50400001928E-02 0. -1.
       -1   -1    0    0    0  501  0.00000000000E+00  0.00000000000E+00 -0.53368879996E+02  0.53368880234E+02  0.50400001928E-02 0.  1.
    10030    2    1    2    0    0  0.00000000000E+00  0.00000000000E+00  0.11175960514E+04  0.12243338116E+04  0.49997234745E+03 0.  0.
        1    1    3    3  502    0 -0.15817757005E+03 -0.15432786987E+03  0.84496087938E+03  0.87338200279E+03  0.50400001928E-02 0. -1.
       -1    1    3    3    0  502  0.15817757005E+03  0.15432786987E+03  0.27263517199E+03  0.35095180882E+03  0.50400001928E-02 0.  1.
</event>
<event>
 5   0  0.1225989E-02  0.5003871E+03  0.7818609E-02  0.1013678E+00
        1   -1    0    0  501    0  0.00000000000E+00  0.00000000000E+00  0.66472118575E+02  0.66472118766E+02  0.50400001928E-02 0. -1.
       -1   -1    0    0    0  501  0.00000000000E+00  0.00000000000E+00 -0.94170015448E+03  0.94170015449E+03  0.50400001928E-02 0.  1.
    10030    2    1    2    0    0  0.00000000000E+00  0.00000000000E+00 -0.87522803590E+03  0.10081722733E+04  0.50038706791E+03 0.  0.
        3    1    3    3  502    0 -0.21304670742E+03 -0.50394054920E+01 -0.70171610721E+03  0.73336198460E+03  0.10100000352E+00 0.  1.
       -3    1    3    3    0  502  0.21304670742E+03  0.50394054920E+01 -0.17351192870E+03  0.27481028865E+03  0.10100000352E+00 0. -1.
</event>
<event>
 5   0  0.1923706E-02  0.5001741E+03  0.7818609E-02  0.1013733E+00
        2   -1    0    0  501    0  0.00000000000E+00  0.00000000000E+00  0.10297505624E+04  0.10297505624E+04  0.25500000920E-02 0.  1.
       -2   -1    0    0    0  501  0.00000000000E+00  0.00000000000E+00 -0.60736586258E+02  0.60736586311E+02  0.25500000920E-02 0. -1.
    10030    2    1    2    0    0  0.00000000000E+00  0.00000000000E+00  0.96901397612E+03  0.10904871487E+04  0.50017410524E+03 0.  0.
        3    1    3    3  502    0  0.17572509207E+03 -0.11493463720E+03  0.18833260843E+03  0.28206109340E+03  0.10100000352E+00 0. -1.
       -3    1    3    3    0  502 -0.17572509207E+03  0.11493463720E+03  0.78068136770E+03  0.80842605529E+03  0.10100000352E+00 0.  1.
</event>
<event>
 5   0  0.1982847E-02  0.5001555E+03  0.7818609E-02  0.1013738E+00
       -2   -1    0    0    0  501  0.00000000000E+00  0.00000000000E+00  0.49697788256E+02  0.49697788321E+02  0.25500000920E-02 0.  1.
        2   -1    0    0  501    0  0.00000000000E+00  0.00000000000E+00 -0.12583835834E+04  0.12583835834E+04  0.25500000920E-02 0. -1.
    10030    2    1    2    0    0  0.00000000000E+00  0.00000000000E+00 -0.12086857951E+04  0.13080813717E+04  0.50015549948E+03 0.  0.
        2    1    3    3  502    0 -0.12061654244E+03  0.11560844400E+03 -0.10910032568E+04  0.11037217806E+04  0.25500000920E-02 0. -1.
       -2    1    3    3    0  502  0.12061654244E+03 -0.11560844400E+03 -0.11768253829E+03  0.20435959106E+03  0.25500000920E-02 0.  1.
</event>
<event>
 5   0  0.8012875E-03  0.4981925E+03  0.7818609E-02  0.1014252E+00
        4   -1    0    0  501    0  0.00000000000E+00  0.00000000000E+00  0.68110048478E+02  0.68121887845E+02  0.12699999809E+01 0.  1.
       -4   -1    0    0    0  501  0.00000000000E+00  0.00000000000E+00 -0.91091862781E+03  0.91091951312E+03  0.12699999809E+01 0. -1.
    10030    2    1    2    0    0  0.00000000000E+00  0.00000000000E+00 -0.84280857933E+03  0.97904140097E+03  0.49819249635E+03 0.  0.
        2    1    3    3  502    0 -0.96248984931E+02 -0.18176446261E+03 -0.69755854000E+03  0.72724830952E+03  0.25500000920E-02 0. -1.
       -2    1    3    3    0  502  0.96248984931E+02  0.18176446261E+03 -0.14525003933E+03  0.25179309145E+03  0.25500000920E-02 0.  1.
</event>
<event>
 5   0  0.8012875E-03  0.4992996E+03  0.7818609E-02  0.1013962E+00
        4   -1    0    0  501    0  0.00000000000E+00  0.00000000000E+00  0.34151589050E+03  0.34151825188E+03  0.12699999809E+01 0.  1.
       -4   -1    0    0    0  501  0.00000000000E+00  0.00000000000E+00 -0.18249005913E+03  0.18249447822E+03  0.12699999809E+01 0. -1.
    10030    2    1    2    0    0  0.00000000000E+00  0.00000000000E+00  0.15902583137E+03  0.52401273010E+03  0.49929963575E+03 0.  0.
        1    1    3    3  502    0  0.61686544398E+02 -0.13232969533E+03  0.29204198642E+03  0.32650405799E+03  0.50400001928E-02 0.  1.
       -1    1    3    3    0  502 -0.61686544398E+02  0.13232969533E+03 -0.13301615505E+03  0.19750867211E+03  0.50400001928E-02 0. -1.
</event>
<event>
 5   0  0.1941387E-02  0.5003144E+03  0.7818609E-02  0.1013697E+00
       -2   -1    0    0    0  501  0.00000000000E+00  0.00000000000E+00  0.16999544758E+03  0.16999544760E+03  0.25500000920E-02 0. -1.
        2   -1    0    0  501    0  0.00000000000E+00  0.00000000000E+00 -0.36811940197E+03  0.36811940198E+03  0.25500000920E-02 0.  1.
    10030    2    1    2    0    0  0.00000000000E+00  0.00000000000E+00 -0.19812395439E+03  0.53811484958E+03  0.50031439120E+03 0.  0.
        4    1    3    3  502    0 -0.19354318130E+03  0.49160704006E+02  0.62991022858E+02  0.20939250156E+03  0.12699999809E+01 0. -1.
       -4    1    3    3    0  502  0.19354318130E+03 -0.49160704006E+02 -0.26111497725E+03  0.32872234802E+03  0.12699999809E+01 0.  1.
</event>
<event>
 5   0  0.1180937E-02  0.4998649E+03  0.7818609E-02  0.1013814E+00
        1   -1    0    0  501    0  0.00000000000E+00  0.00000000000E+00  0.16820117785E+04  0.16820117785E+04  0.50400001928E-02 0. -1.
       -1   -1    0    0    0  501  0.00000000000E+00  0.00000000000E+00 -0.37137809021E+02  0.37137809363E+02  0.50400001928E-02 0.  1.
    10030    2    1    2    0    0  0.00000000000E+00  0.00000000000E+00  0.16448739695E+04  0.17191495878E+04  0.49986491176E+03 0.  0.
        1    1    3    3  502    0  0.19933168569E+03 -0.97461183916E+02  0.12180892188E+04  0.12381329284E+04  0.50400001928E-02 0. -1.
       -1    1    3    3    0  502 -0.19933168569E+03  0.97461183916E+02  0.42678475062E+03  0.48101665946E+03  0.50400001928E-02 0.  1.
</event>
<event>
 5   0  0.1855407E-02  0.5041198E+03  0.7818609E-02  0.1012709E+00
        2   -1    0    0  501    0  0.00000000000E+00  0.00000000000E+00  0.74946087322E+03  0.74946087323E+03  0.25500000920E-02 0.  1.
       -2   -1    0    0    0  501  0.00000000000E+00  0.00000000000E+00 -0.84773201455E+02  0.84773201493E+02  0.25500000920E-02 0. -1.
    10030    2    1    2    0    0  0.00000000000E+00  0.00000000000E+00  0.66468767177E+03  0.83423407472E+03  0.50411981753E+03 0.  0.
        1    1    3    3  502    0 -0.55973218377E+02 -0.23372356376E+03  0.20659295034E+03  0.31692325977E+03  0.50400001928E-02 0. -1.
       -1    1    3    3    0  502  0.55973218377E+02  0.23372356376E+03  0.45809472143E+03  0.51731081495E+03  0.50400001928E-02 0.  1.
</event>
<event>
 5   0  0.8012875E-03  0.5006633E+03  0.7818609E-02  0.1013606E+00
       -4   -1    0    0    0  501  0.00000000000E+00  0.00000000000E+00  0.50917639821E+03  0.50917798204E+03  0.12699999809E+01 0. -1.
        4   -1    0    0  501    0  0.00000000000E+00  0.00000000000E+00 -0.12306807271E+03  0.12307462541E+03  0.12699999809E+01 0.  1.
    10030    2    1    2    0    0  0.00000000000E+00  0.00000000000E+00  0.38610832550E+03  0.63225260745E+03  0.50066328067E+03 0.  0.
        2    1    3    3  502    0 -0.68218240095E+02 -0.15033473860E+03  0.43069336273E+03  0.46124942777E+03  0.25500000920E-02 0. -1.
       -2    1    3    3    0  502  0.68218240095E+02  0.15033473860E+03 -0.44585037229E+02  0.17100317968E+03  0.25500000920E-02 0.  1.
</event>
<event>
 5   0  0.1217270E-02  0.5000898E+03  0.7818609E-02  0.1013755E+00
        1   -1    0    0  501    0  0.00000000000E+00  0.00000000000E+00  0.12675780277E+03  0.12675780287E+03  0.50400001928E-02 0.  1.
       -1   -1    0    0    0  501  0.00000000000E+00  0.00000000000E+00 -0.49324335140E+03  0.49324335142E+03  0.50400001928E-02 0. -1.
    10030    2    1    2    0    0  0.00000000000E+00  0.00000000000E+00 -0.36648554863E+03  0.62000115429E+03  0.50008976591E+03 0.  0.
        2    1    3    3  502    0 -0.18809032222E+03 -0.12332372181E+03 -0.47795866944E+02  0.22993728401E+03  0.25500000920E-02 0.  1.
       -2    1    3    3    0  502  0.18809032222E+03  0.12332372181E+03 -0.31868968168E+03  0.39006387028E+03  0.25500000920E-02 0. -1.
</event>
<event>
 5   0  0.1941387E-02  0.4849641E+03  0.7818609E-02  0.1017780E+00
        2   -1    0    0  501    0  0.00000000000E+00  0.00000000000E+00  0.38451035385E+03  0.38451035386E+03  0.25500000920E-02 0.  1.
       -2   -1    0    0    0  501  0.00000000000E+00  0.00000000000E+00 -0.15291534954E+03  0.15291534956E+03  0.25500000920E-02 0. -1.
    10030    2    1    2    0    0  0.00000000000E+00  0.00000000000E+00  0.23159500431E+03  0.53742570343E+03  0.48496406123E+03 0.  0.
        4    1    3    3  502    0  0.17276469665E+03  0.15418679088E+03  0.36080288333E+02  0.23435999445E+03  0.12699999809E+01 0. -1.
       -4    1    3    3    0  502 -0.17276469665E+03 -0.15418679088E+03  0.19551471598E+03  0.30306570898E+03  0.12699999809E+01 0.  1.
</event>
<event>
 5   0  0.1982847E-02  0.4997821E+03  0.7818609E-02  0.1013836E+00
       -2   -1    0    0    0  501  0.00000000000E+00  0.00000000000E+00  0.93980006385E+02  0.93980006420E+02  0.25500000920E-02 0. -1.
        2   -1    0    0  501    0  0.00000000000E+00  0.00000000000E+00 -0.66445550268E+03  0.66445550269E+03  0.25500000920E-02 0.  1.
    10030    2    1    2    0    0  0.00000000000E+00  0.00000000000E+00 -0.57047549630E+03  0.75843550911E+03  0.49978208211E+03 0.  0.
        2    1    3    3  502    0 -0.42601715891E+02 -0.40657488448E+02 -0.65377509483E+03  0.65642197723E+03  0.25500000920E-02 0.  1.
       -2    1    3    3    0  502  0.42601715891E+02  0.40657488448E+02  0.83299598533E+02  0.10201353188E+03  0.25500000920E-02 0. -1.
</event>
<event>
 5   0  0.1225989E-02  0.4993026E+03  0.7818609E-02  0.1013961E+00
        1   -1    0    0  501    0  0.00000000000E+00  0.00000000000E+00  0.76047247164E+03  0.76047247166E+03  0.50400001928E-02 0. -1.
       -1   -1    0    0    0  501  0.00000000000E+00  0.00000000000E+00 -0.81956656838E+02  0.81956656993E+02  0.50400001928E-02 0.  1.
    10030    2    1    2    0    0  0.00000000000E+00  0.00000000000E+00  0.67851581481E+03  0.84242912865E+03  0.49930263955E+03 0.  0.
        3    1    3    3  502    0 -0.15458626668E+03 -0.12954355868E+03  0.58749782589E+03  0.62115388840E+03  0.10100000352E+00 0. -1.
       -3    1    3    3    0  502  0.15458626668E+03  0.12954355868E+03  0.91017988913E+02  0.22127524025E+03  0.10100000352E+00 0.  1.
</event>
<event>
 5   0  0.1967813E-02  0.5000727E+03  0.7818609E-02  0.1013760E+00
        2   -1    0    0  501    0  0.00000000000E+00  0.00000000000E+00  0.12593887259E+04  0.12593887259E+04  0.25500000920E-02 0. -1.
       -2   -1    0    0    0  501  0.00000000000E+00  0.00000000000E+00 -0.49641688733E+02  0.49641688799E+02  0.25500000920E-02 0.  1.
    10030    2    1    2    0    0  0.00000000000E+00  0.00000000000E+00  0.12097470372E+04  0.13090304147E+04  0.50007272739E+03 0.  0.
        5    1    3    3  502    0 -0.47083899802E+02  0.23833608341E+03  0.75918594551E+03  0.79712381229E+03  0.46999998093E+01 0.  1.
       -5    1    3    3    0  502  0.47083899802E+02 -0.23833608341E+03  0.45056109167E+03  0.51190660242E+03  0.46999998093E+01 0. -1.
</event>
<event>
 5   0  0.1982847E-02  0.4991005E+03  0.7818609E-02  0.1014014E+00
       -2   -1    0    0    0  501  0.00000000000E+00  0.00000000000E+00  0.50503576712E+03  0.50503576712E+03  0.25500000920E-02 0.  1.
        2   -1    0    0  501    0  0.00000000000E+00  0.00000000000E+00 -0.12330875305E+03  0.12330875308E+03  0.25500000920E-02 0. -1.
    10030    2    1    2    0    0  0.00000000000E+00  0.00000000000E+00  0.38172701406E+03  0.62834452020E+03  0.49910051373E+03 0.  0.
        2    1    3    3  502    0 -0.53181089246E+02  0.75599807509E+02  0.48269045613E+03  0.49146071623E+03  0.25500000920E-02 0.  1.
       -2    1    3    3    0  502  0.53181089246E+02 -0.75599807509E+02 -0.10096344207E+03  0.13688380397E+03  0.25500000920E-02 0. -1.
</event>
<event>
 5   0  0.1967813E-02  0.5003270E+03  0.7818609E-02  0.1013694E+00
       -2   -1    0    0    0  501  0.00000000000E+00  0.00000000000E+00  0.30926825211E+03  0.30926825212E+03  0.25500000920E-02 0. -1.
        2   -1    0    0  501    0  0.00000000000E+00  0.00000000000E+00 -0.20235435616E+03  0.20235435618E+03  0.25500000920E-02 0.  1.
    10030    2    1    2    0    0  0.00000000000E+00  0.00000000000E+00  0.10691389595E+03  0.51162260830E+03  0.50032700525E+03 0.  0.
        5    1    3    3  502    0  0.30623455452E+02 -0.20803569859E+03  0.19195110173E+03  0.28475245981E+03  0.46999998093E+01 0. -1.
       -5    1    3    3    0  502 -0.30623455452E+02  0.20803569859E+03 -0.85037205784E+02  0.22687014849E+03  0.46999998093E+01 0.  1.
</event>
<event>
 5   0  0.8012875E-03  0.5000488E+03  0.7818609E-02  0.1013766E+00
       -3   -1    0    0    0  501  0.00000000000E+00  0.00000000000E+00  0.16960154066E+03  0.16960157073E+03  0.10100000352E+00 0. -1.
        3   -1    0    0  501    0  0.00000000000E+00  0.00000000000E+00 -0.36858273053E+03  0.36858274437E+03  0.10100000352E+00 0.  1.
    10030    2    1    2    0    0  0.00000000000E+00  0.00000000000E+00 -0.19898118988E+03  0.53818431510E+03  0.50004884071E+03 0.  0.
        5    1    3    3  502    0  0.19265627930E+03  0.39938964343E+01 -0.27087597738E+03  0.33245793461E+03  0.46999998093E+01 0.  1.
       -5    1    3    3    0  502 -0.19265627930E+03 -0.39938964343E+01  0.71894787508E+02  0.20572638049E+03  0.46999998093E+01 0. -1.
</event>
<event>
 5   0  0.1225989E-02  0.5004624E+03  0.7818609E-02  0.1013658E+00
       -1   -1    0    0    0  501  0.00000000000E+00  0.00000000000E+00  0.86574334673E+03  0.86574334675E+03  0.50400001928E-02 0.  1.
        1   -1    0    0  501    0  0.00000000000E+00  0.00000000000E+00 -0.72325887679E+02  0.72325887855E+02  0.50400001928E-02 0. -1.
    10030    2    1    2    0    0  0.00000000000E+00  0.00000000000E+00  0.79341745905E+03  0.93806923460E+03  0.50046241075E+03 0.  0.
        3    1    3    3  502    0  0.21871863485E+03  0.15879978736E+02  0.17080108217E+03  0.27796229030E+03  0.10100000352E+00 0. -1.
       -3    1    3    3    0  502 -0.21871863485E+03 -0.15879978736E+02  0.62261637688E+03  0.66010694430E+03  0.10100000352E+00 0.  1.
</event>
<event>
 5   0  0.1855407E-02  0.5003199E+03  0.7818609E-02  0.1013695E+00
        2   -1    0    0  501    0  0.00000000000E+00  0.00000000000E+00  0.11746946362E+04  0.11746946362E+04  0.25500000920E-02 0.  1.
       -2   -1    0    0    0  501  0.00000000000E+00  0.00000000000E+00 -0.53273411893E+02  0.53273411954E+02  0.25500000920E-02 0. -1.
    10030    2    1    2    0    0  0.00000000000E+00  0.00000000000E+00  0.11214212244E+04  0.12279680482E+04  0.50031986267E+03 0.  0.
        1    1    3    3  502    0 -0.12088411366E+03 -0.17085747588E+03  0.22441101434E+03  0.30686405685E+03  0.50400001928E-02 0. -1.
       -1    1    3    3    0  502  0.12088411366E+03  0.17085747588E+03  0.89701021001E+03  0.92110399135E+03  0.50400001928E-02 0.  1.
</event>
<event>
 5   0  0.1225989E-02  0.5002152E+03  0.7818609E-02  0.1013723E+00
        1   -1    0    0  501    0  0.00000000000E+00  0.00000000000E+00  0.12102461452E+04  0.12102461452E+04  0.50400001928E-02 0.  1.
       -1   -1    0    0    0  501  0.00000000000E+00  0.00000000000E+00 -0.51686851768E+02  0.51686852014E+02  0.50400001928E-02 0. -1.
    10030    2    1    2    0    0  0.00000000000E+00  0.00000000000E+00  0.11585592934E+04  0.12619329972E+04  0.50021520678E+03 0.  0.
        3    1    3    3  502    0 -0.85261299634E+02 -0.70437125935E+02  0.11452091625E+04  0.11505367939E+04  0.10100000352E+00 0.  1.
       -3    1    3    3    0  502  0.85261299634E+02  0.70437125935E+02  0.13350130909E+02  0.11139620335E+03  0.10100000352E+00 0. -1.
</event>
<event>
 5   0  0.8012875E-03  0.5028815E+03  0.7818609E-02  0.1013030E+00
       -3   -1    0    0    0  501  0.00000000000E+00  0.00000000000E+00  0.93264506005E+02  0.93264560693E+02  0.10100000352E+00 0. -1.
        3   -1    0    0  501    0  0.00000000000E+00  0.00000000000E+00 -0.67788296535E+03  0.67788297288E+03  0.10100000352E+00 0.  1.
    10030    2    1    2    0    0  0.00000000000E+00  0.00000000000E+00 -0.58461845935E+03  0.77114753357E+03  0.50288147264E+03 0.  0.
        5    1    3    3  502    0  0.20014434212E+03 -0.63139526829E+02 -0.80070708346E+02  0.22467257479E+03  0.46999998093E+01 0. -1.
       -5    1    3    3    0  502 -0.20014434212E+03  0.63139526829E+02 -0.50454775100E+03  0.54647495878E+03  0.46999998093E+01 0.  1.
</event>
<event>
 5   0  0.1982847E-02  0.5008091E+03  0.7818609E-02  0.1013568E+00
       -2   -1    0    0    0  501  0.00000000000E+00  0.00000000000E+00  0.12315396596E+03  0.12315396599E+03  0.25500000920E-02 0. -1.
        2   -1    0    0  501    0  0.00000000000E+00  0.00000000000E+00 -0.50913859120E+03  0.50913859120E+03  0.25500000920E-02 0.  1.
    10030    2    1    2    0    0  0.00000000000E+00  0.00000000000E+00 -0.38598462524E+03  0.63229255719E+03  0.50080909233E+03 0.  0.
        2    1    3    3  502    0  0.20314898374E+03 -0.33239716806E+02 -0.12983524811E+02  0.20625944898E+03  0.25500000920E-02 0. -1.
       -2    1    3    3    0  502 -0.20314898374E+03  0.33239716806E+02 -0.37300110043E+03  0.42603310821E+03  0.25500000920E-02 0.  1.
</event>
<event>
 5   0  0.1923706E-02  0.4971198E+03  0.7818609E-02  0.1014533E+00
       -2   -1    0    0    0  501  0.00000000000E+00  0.00000000000E+00  0.15493982969E+03  0.15493982971E+03  0.25500000920E-02 0. -1.
        2   -1    0    0  501    0  0.00000000000E+00  0.00000000000E+00 -0.39874849905E+03  0.39874849906E+03  0.25500000920E-02 0.  1.
    10030    2    1    2    0    0  0.00000000000E+00  0.00000000000E+00 -0.24380866936E+03  0.55368832877E+03  0.49711980263E+03 0.  0.
        3    1    3    3  502    0 -0.28970709550E+02  0.22079473939E+03 -0.24488839425E+03  0.33099842114E+03  0.10100000352E+00 0. -1.
       -3    1    3    3    0  502  0.28970709550E+02 -0.22079473939E+03  0.10797248923E+01  0.22268990764E+03  0.10100000352E+00 0.  1.
</event>
<event>
 5   0  0.1855407E-02  0.5012613E+03  0.7818609E-02  0.1013450E+00
        2   -1    0    0  501    0  0.00000000000E+00  0.00000000000E+00  0.22168632030E+04  0.22168632030E+04  0.25500000920E-02 0.  1.
       -2   -1    0    0    0  501  0.00000000000E+00  0.00000000000E+00 -0.28335411496E+02  0.28335411611E+02  0.25500000920E-02 0. -1.
    10030    2    1    2    0    0  0.00000000000E+00  0.00000000000E+00  0.21885277915E+04  0.22451986146E+04  0.50126133391E+03 0.  0.
        1    1    3    3  502    0 -0.14241296065E+03 -0.27635646174E+02  0.20096949935E+04  0.20149241046E+04  0.50400001928E-02 0.  1.
       -1    1    3    3    0  502  0.14241296065E+03  0.27635646174E+02  0.17883279799E+03  0.23027451002E+03  0.50400001928E-02 0. -1.
</event>
<event>
 5   0  0.1967813E-02  0.5000447E+03  0.7818609E-02  0.1013767E+00
       -2   -1    0    0    0  501  0.00000000000E+00  0.00000000000E+00  0.25866320423E+03  0.25866320424E+03  0.25500000920E-02 0.  1.
        2   -1    0    0  501    0  0.00000000000E+00  0.00000000000E+00 -0.24167015661E+03  0.24167015663E+03  0.25500000920E-02 0. -1.
    10030    2    1    2    0    0  0.00000000000E+00  0.00000000000E+00  0.16993047614E+02  0.50033336086E+03  0.50004470633E+03 0.  0.
        5    1    3    3  502    0 -0.23624944275E+03  0.50749587917E+02  0.72562909845E+02  0.25234259600E+03  0.46999998093E+01 0.  1.
       -5    1    3    3    0  502  0.23624944275E+03 -0.50749587917E+02 -0.55569862231E+02  0.24799076487E+03  0.46999998093E+01 0. -1.
</event>
<event>
 5   0  0.1217270E-02  0.5002156E+03  0.7818609E-02  0.1013723E+00
        1   -1    0    0  501    0  0.00000000000E+00  0.00000000000E+00  0.12720975884E+03  0.12720975894E+03  0.50400001928E-02 0.  1.
       -1   -1    0    0    0  501  0.00000000000E+00  0.00000000000E+00 -0.49173826231E+03  0.49173826234E+03  0.50400001928E-02 0. -1.
    10030    2    1    2    0    0  0.00000000000E+00  0.00000000000E+00 -0.36452850347E+03  0.61894802127E+03  0.50021557672E+03 0.  0.
        2    1    3    3  502    0  0.35608062949E+02  0.17270966545E+03  0.37197068209E+02  0.18022259730E+03  0.25500000920E-02 0.  1.
       -2    1    3    3    0  502 -0.35608062949E+02 -0.17270966545E+03 -0.40172557168E+03  0.43872542397E+03  0.25500000920E-02 0. -1.
</event>
<event>
 5   0  0.1225989E-02  0.4997947E+03  0.7818609E-02  0.1013833E+00
        1   -1    0    0  501    0  0.00000000000E+00  0.00000000000E+00  0.56572581141E+03  0.56572581144E+03  0.50400001928E-02 0.  1.
       -1   -1    0    0    0  501  0.00000000000E+00  0.00000000000E+00 -0.11038686221E+03  0.11038686233E+03  0.50400001928E-02 0. -1.
    10030    2    1    2    0    0  0.00000000000E+00  0.00000000000E+00  0.45533894920E+03  0.67611267376E+03  0.49979474683E+03 0.  0.
        3    1    3    3  502    0  0.26673697725E+02  0.53161042069E+02  0.55601112164E+03  0.55918329744E+03  0.10100000352E+00 0.  1.
       -3    1    3    3    0  502 -0.26673697725E+02 -0.53161042069E+02 -0.10067217244E+03  0.11692937633E+03  0.10100000352E+00 0. -1.
</event>
<event>
 5   0  0.1227864E-02  0.4984166E+03  0.7818609E-02  0.1014193E+00
        1   -1    0    0  501    0  0.00000000000E+00  0.00000000000E+00  0.15554974421E+03  0.15554974429E+03  0.50400001928E-02 0.  1.
       -1   -1    0    0    0  501  0.00000000000E+00  0.00000000000E+00 -0.39925998543E+03  0.39925998546E+03  0.50400001928E-02 0. -1.
    10030    2    1    2    0    0  0.00000000000E+00  0.00000000000E+00 -0.24371024122E+03  0.55480972976E+03  0.49841664755E+03 0.  0.
        5    1    3    3  502    0 -0.21913914268E+03  0.11856152266E+03 -0.12405344206E+03  0.27837051746E+03  0.46999998093E+01 0. -1.
       -5    1    3    3    0  502  0.21913914268E+03 -0.11856152266E+03 -0.11965679916E+03  0.27643921229E+03  0.46999998093E+01 0.  1.
</event>
<event>
 5   0  0.1941387E-02  0.5046324E+03  0.7818609E-02  0.1012577E+00
        2   -1    0    0  501    0  0.00000000000E+00  0.00000000000E+00  0.11793564183E+04  0.11793564183E+04  0.25500000920E-02 0. -1.
       -2   -1    0    0    0  501  0.00000000000E+00  0.00000000000E+00 -0.53981528819E+02  0.53981528879E+02  0.25500000920E-02 0.  1.
    10030    2    1    2    0    0  0.00000000000E+00  0.00000000000E+00  0.11253748894E+04  0.12333379471E+04  0.50463239103E+03 0.  0.
        4    1    3    3  502    0  0.21721998517E+02 -0.11814223921E+02  0.11763801937E+04  0.11766407244E+04  0.12699999809E+01 0. -1.
       -4    1    3    3    0  502 -0.21721998517E+02  0.11814223921E+02 -0.51005304289E+02  0.56697222789E+02  0.12699999809E+01 0.  1.
</event>
<event>
 5   0  0.1217270E-02  0.5005236E+03  0.7818609E-02  0.1013642E+00
       -1   -1    0    0    0  501  0.00000000000E+00  0.00000000000E+00  0.50069992443E+02  0.50069992697E+02  0.50400001928E-02 0.  1.
        1   -1    0    0  501    0  0.00000000000E+00  0.00000000000E+00 -0.12508681971E+04  0.12508681971E+04  0.50400001928E-02 0. -1.
    10030    2    1    2    0    0  0.00000000000E+00  0.00000000000E+00 -0.12007982047E+04  0.13009381898E+04  0.50052357127E+03 0.  0.
        2    1    3    3  502    0  0.19106323230E+03 -0.71259880660E+02 -0.22331709294E+03  0.30241305087E+03  0.25500000920E-02 0.  1.
       -2    1    3    3    0  502 -0.19106323230E+03  0.71259880660E+02 -0.97748111175E+03  0.99852513897E+03  0.25500000920E-02 0. -1.
</event>
<event>
 5   0  0.1227864E-02  0.5012160E+03  0.7818609E-02  0.1013462E+00
        1   -1    0    0  501    0  0.00000000000E+00  0.00000000000E+00  0.13866637620E+04  0.13866637620E+04  0.50400001928E-02 0. -1.
       -1   -1    0    0    0  501  0.00000000000E+00  0.00000000000E+00 -0.45291708916E+02  0.45291709196E+02  0.50400001928E-02 0.  1.
    10030    2    1    2    0    0  0.00000000000E+00  0.00000000000E+00  0.13413720531E+04  0.14319554712E+04  0.50121600805E+03 0.  0.
        5    1    3    3  502    0  0.52594537447E+02  0.14335374793E+03  0.10312177768E+03  0.18431677472E+03  0.46999998093E+01 0.  1.
       -5    1    3    3    0  502 -0.52594537447E+02 -0.14335374793E+03  0.12382502754E+04  0.12476386965E+04  0.46999998093E+01 0. -1.
</event>
<event>
 5   0  0.1180937E-02  0.4951533E+03  0.7818609E-02  0.1015052E+00
        1   -1    0    0  501    0  0.00000000000E+00  0.00000000000E+00  0.13048689163E+03  0.13048689173E+03  0.50400001928E-02 0.  1.
       -1   -1    0    0    0  501  0.00000000000E+00  0.00000000000E+00 -0.46973461381E+03  0.46973461384E+03  0.50400001928E-02 0. -1.
    10030    2    1    2    0    0  0.00000000000E+00  0.00000000000E+00 -0.33924772218E+03  0.60022150557E+03  0.49515334871E+03 0.  0.
        1    1    3    3  502    0  0.24562456841E+03 -0.24544491312E+02 -0.14661296711E+03  0.28710489862E+03  0.50400001928E-02 0. -1.
       -1    1    3    3    0  502 -0.24562456841E+03  0.24544491312E+02 -0.19263475507E+03  0.31311660695E+03  0.50400001928E-02 0.  1.
</event>
<event>
 5   0  0.1855407E-02  0.5002456E+03  0.7818609E-02  0.1013715E+00
       -2   -1    0    0    0  501  0.00000000000E+00  0.00000000000E+00  0.12480688637E+03  0.12480688640E+03  0.25500000920E-02 0. -1.
        2   -1    0    0  501    0  0.00000000000E+00  0.00000000000E+00 -0.50126579787E+03  0.50126579788E+03  0.25500000920E-02 0.  1.
    10030    2    1    2    0    0  0.00000000000E+00  0.00000000000E+00 -0.37645891150E+03  0.62607268427E+03  0.50024563361E+03 0.  0.
        1    1    3    3  502    0 -0.11119333961E+02  0.24951072037E+03 -0.17133683945E+03  0.30287877401E+03  0.50400001928E-02 0.  1.
       -1    1    3    3    0  502  0.11119333961E+02 -0.24951072037E+03 -0.20512207205E+03  0.32319391026E+03  0.50400001928E-02 0. -1.
</event>
<event>
 5   0  0.1225989E-02  0.4998948E+03  0.7818609E-02  0.1013806E+00
        1   -1    0    0  501    0  0.00000000000E+00  0.00000000000E+00  0.19973021297E+03  0.19973021303E+03  0.50400001928E-02 0. -1.
       -1   -1    0    0    0  501  0.00000000000E+00  0.00000000000E+00 -0.31279044554E+03  0.31279044558E+03  0.50400001928E-02 0.  1.
    10030    2    1    2    0    0  0.00000000000E+00  0.00000000000E+00 -0.11306023257E+03  0.51252065861E+03  0.49989479825E+03 0.  0.
        3    1    3    3  502    0  0.22463407852E+03  0.10421791997E+03 -0.21734033616E+02  0.24858443735E+03  0.10100000352E+00 0.  1.
       -3    1    3    3    0  502 -0.22463407852E+03 -0.10421791997E+03 -0.91326198954E+02  0.26393622126E+03  0.10100000352E+00 0. -1.
</event>
<event>
 5   0  0.1941387E-02  0.5005036E+03  0.7818609E-02  0.1013648E+00
        2   -1    0    0  501    0  0.00000000000E+00  0.00000000000E+00  0.13876649402E+04  0.13876649402E+04  0.25500000920E-02 0. -1.
       -2   -1    0    0    0  501  0.00000000000E+00  0.00000000000E+00 -0.45130460584E+02  0.45130460656E+02  0.25500000920E-02 0.  1.
    10030    2    1    2    0    0  0.00000000000E+00  0.00000000000E+00  0.13425344797E+04  0.14327954009E+04  0.50050357818E+03 0.  0.
        4    1    3    3  502    0  0.79433538195E+02  0.22835393914E+03  0.85610898102E+03  0.88959508137E+03  0.12699999809E+01 0. -1.
       -4    1    3    3    0  502 -0.79433538195E+02 -0.22835393914E+03  0.48642549863E+03  0.54320031953E+03  0.12699999809E+01 0.  1.
</event>
<event>
 5   0  0.1855407E-02  0.5037472E+03  0.7818609E-02  0.1012805E+00
        2   -1    0    0  501    0  0.00000000000E+00  0.00000000000E+00  0.78960824600E+03  0.78960824601E+03  0.25500000920E-02 0.  1.
       -2   -1    0    0    0  501  0.00000000000E+00  0.00000000000E+00 -0.80344033988E+02  0.80344034029E+02  0.25500000920E-02 0. -1.
    10030    2    1    2    0    0  0.00000000000E+00  0.00000000000E+00  0.70926421201E+03  0.86995228003E+03  0.50374720554E+03 0.  0.
        1    1    3    3  502    0 -0.12684229780E+02  0.19959482757E+03  0.90224541347E+02  0.21940704812E+03  0.50400001928E-02 0. -1.
       -1    1    3    3    0  502  0.12684229780E+02 -0.19959482757E+03  0.61903967067E+03  0.65054523191E+03  0.50400001928E-02 0.  1.
</event>
<event>
 5   0  0.1923706E-02  0.5006763E+03  0.7818609E-02  0.1013603E+00
       -2   -1    0    0    0  501  0.00000000000E+00  0.00000000000E+00  0.63850814618E+02  0.63850814669E+02  0.25500000920E-02 0. -1.
        2   -1    0    0  501    0  0.00000000000E+00  0.00000000000E+00 -0.98149394208E+03  0.98149394208E+03  0.25500000920E-02 0.  1.
    10030    2    1    2    0    0  0.00000000000E+00  0.00000000000E+00 -0.91764312746E+03  0.10453447567E+04  0.50067629372E+03 0.  0.
        3    1    3    3  502    0  0.14840894332E+03  0.85649436955E+02 -0.83986781036E+03  0.85716917209E+03  0.10100000352E+00 0.  1.
       -3    1    3    3    0  502 -0.14840894332E+03 -0.85649436955E+02 -0.77775317100E+02  0.18817558466E+03  0.10100000352E+00 0. -1.
</event>
<event>
 5   0  0.1982847E-02  0.5081237E+03  0.7818609E-02  0.1011680E+00
       -2   -1    0    0    0  501  0.00000000000E+00  0.00000000000E+00  0.61851562021E+02  0.61851562074E+02  0.25500000920E-02 0. -1.
        2   -1    0    0  501    0  0.00000000000E+00  0.00000000000E+00 -0.10435860316E+04  0.10435860316E+04  0.25500000920E-02 0.  1.
    10030    2    1    2    0    0  0.00000000000E+00  0.00000000000E+00 -0.98173446961E+03  0.11054375937E+04  0.50812371010E+03 0.  0.
        2    1    3    3  502    0 -0.11010428081E+03 -0.21802741904E+03 -0.64297569935E+03  0.68780568337E+03  0.25500000920E-02 0.  1.
       -2    1    3    3    0  502  0.11010428081E+03  0.21802741904E+03 -0.33875877026E+03  0.41763191034E+03  0.25500000920E-02 0. -1.
</event>
<event>
 5   0  0.1855407E-02  0.5031062E+03  0.7818609E-02  0.1012971E+00
        2   -1    0    0  501    0  0.00000000000E+00  0.00000000000E+00  0.95825422318E+03  0.95825422319E+03  0.25500000920E-02 0.  1.
       -2   -1    0    0    0  501  0.00000000000E+00  0.00000000000E+00 -0.66035660241E+02  0.66035660291E+02  0.25500000920E-02 0. -1.
    10030    2    1    2    0    0  0.00000000000E+00  0.00000000000E+00  0.89221856294E+03  0.10242898835E+04  0.50310615315E+03 0.  0.
        1    1    3    3  502    0 -0.13747097990E+03  0.74285950003E+00  0.17207815700E+02  0.13854577259E+03  0.50400001928E-02 0. -1.
       -1    1    3    3    0  502  0.13747097990E+03 -0.74285950003E+00  0.87501074724E+03  0.88574411089E+03  0.50400001928E-02 0.  1.
</event>
<event>
 5   0  0.1923706E-02  0.5013822E+03  0.7818609E-02  0.1013419E+00
       -2   -1    0    0    0  501  0.00000000000E+00  0.00000000000E+00  0.20409616232E+03  0.20409616234E+03  0.25500000920E-02 0.  1.
        2   -1    0    0  501    0  0.00000000000E+00  0.00000000000E+00 -0.30792358991E+03  0.30792358992E+03  0.25500000920E-02 0. -1.
    10030    2    1    2    0    0  0.00000000000E+00  0.00000000000E+00 -0.10382742759E+03  0.51201975226E+03  0.50138218156E+03 0.  0.
        3    1    3    3  502    0 -0.10415674978E+03  0.15936139747E+03  0.11464581707E+03  0.22223491422E+03  0.10100000352E+00 0.  1.
       -3    1    3    3    0  502  0.10415674978E+03 -0.15936139747E+03 -0.21847324466E+03  0.28978483804E+03  0.10100000352E+00 0. -1.
</event>
<event>
 5   0  0.8012875E-03  0.4999750E+03  0.7818609E-02  0.1013785E+00
       -3   -1    0    0    0  501  0.00000000000E+00  0.00000000000E+00  0.15005460129E+03  0.15005463529E+03  0.10100000352E+00 0. -1.
        3   -1    0    0  501    0  0.00000000000E+00  0.00000000000E+00 -0.41647327500E+03  0.41647328725E+03  0.10100000352E+00 0.  1.
    10030    2    1    2    0    0  0.00000000000E+00  0.00000000000E+00 -0.26641867371E+03  0.56652792254E+03  0.49997497669E+03 0.  0.
        4    1    3    3  502    0  0.17158519276E+02  0.74919159561E+02  0.13633057528E+03  0.15650857456E+03  0.12699999809E+01 0. -1.
       -4    1    3    3    0  502 -0.17158519276E+02 -0.74919159561E+02 -0.40274924899E+03  0.41001934798E+03  0.12699999809E+01 0.  1.
</event>
<event>
 5   0  0.1982847E-02  0.4998356E+03  0.7818609E-02  0.1013822E+00
        2   -1    0    0  501    0  0.00000000000E+00  0.00000000000E+00  0.65633131259E+03  0.65633131259E+03  0.25500000920E-02 0. -1.
       -2   -1    0    0    0  501  0.00000000000E+00  0.00000000000E+00 -0.95163686819E+02  0.95163686853E+02  0.25500000920E-02 0.  1.
    10030    2    1    2    0    0  0.00000000000E+00  0.00000000000E+00  0.56116762577E+03  0.75149499945E+03  0.49983560295E+03 0.  0.
        2    1    3    3  502    0  0.14875848067E+03 -0.71920118135E+02 -0.13237840468E+01  0.16523722757E+03  0.25500000920E-02 0.  1.
       -2    1    3    3    0  502 -0.14875848067E+03  0.71920118135E+02  0.56249140982E+03  0.58625777188E+03  0.25500000920E-02 0. -1.
</event>
<event>
 5   0  0.1225989E-02  0.5000490E+03  0.7818609E-02  0.1013766E+00
       -1   -1    0    0    0  501  0.00000000000E+00  0.00000000000E+00  0.40045127675E+03  0.40045127678E+03  0.50400001928E-02 0.  1.
        1   -1    0    0  501    0  0.00000000000E+00  0.00000000000E+00 -0.15610453836E+03  0.15610453844E+03  0.50400001928E-02 0. -1.
    10030    2    1    2    0    0  0.00000000000E+00  0.00000000000E+00  0.24434673840E+03  0.55655581522E+03  0.50004904449E+03 0.  0.
        3    1    3    3  502    0 -0.39871473419E+02  0.20028168893E+03  0.28273053081E+03  0.34876790645E+03  0.10100000352E+00 0.  1.
       -3    1    3    3    0  502  0.39871473419E+02 -0.20028168893E+03 -0.38383792416E+02  0.20778790878E+03  0.10100000352E+00 0. -1.
</event>
<event>
 5   0  0.1180937E-02  0.4991360E+03  0.7818609E-02  0.1014005E+00
        1   -1    0    0  501    0  0.00000000000E+00  0.00000000000E+00  0.21461809001E+04  0.21461809001E+04  0.50400001928E-02 0. -1.
       -1   -1    0    0    0  501  0.00000000000E+00  0.00000000000E+00 -0.29020934413E+02  0.29020934851E+02  0.50400001928E-02 0.  1.
    10030    2    1    2    0    0  0.00000000000E+00  0.00000000000E+00  0.21171599657E+04  0.21752018350E+04  0.49913595592E+03 0.  0.
        1    1    3    3  502    0 -0.13484488903E+03 -0.84738334160E+02  0.22121619516E+03  0.27258087680E+03  0.50400001928E-02 0.  1.
       -1    1    3    3    0  502  0.13484488903E+03  0.84738334160E+02  0.18959437705E+04  0.19026209582E+04  0.50400001928E-02 0. -1.
</event>
<event>
 5   0  0.1982847E-02  0.4963160E+03  0.7818609E-02  0.1014745E+00
       -2   -1    0    0    0  501  0.00000000000E+00  0.00000000000E+00  0.70209631293E+02  0.70209631340E+02  0.25500000920E-02 0. -1.
        2   -1    0    0  501    0  0.00000000000E+00  0.00000000000E+00 -0.87712187585E+03  0.87712187585E+03  0.25500000920E-02 0.  1.
    10030    2    1    2    0    0  0.00000000000E+00  0.00000000000E+00 -0.80691224455E+03  0.94733150719E+03  0.49631604256E+03 0.  0.
        2    1    3    3  502    0 -0.11077122345E+02 -0.32763986629E+02 -0.87249905680E+03  0.87318427928E+03  0.25500000920E-02 0.  1.
       -2    1    3    3    0  502  0.11077122345E+02  0.32763986629E+02  0.65586812247E+02  0.74147227909E+02  0.25500000920E-02 0. -1.
</event>
<event>
 5   0  0.1967813E-02  0.5006052E+03  0.7818609E-02  0.1013621E+00
        2   -1    0    0  501    0  0.00000000000E+00  0.00000000000E+00  0.43382723725E+03  0.43382723726E+03  0.25500000920E-02 0. -1.
       -2   -1    0    0    0  501  0.00000000000E+00  0.00000000000E+00 -0.14441551910E+03  0.14441551912E+03  0.25500000920E-02 0.  1.
    10030    2    1    2    0    0  0.00000000000E+00  0.00000000000E+00  0.28941171816E+03  0.57824275638E+03  0.50060517646E+03 0.  0.
        5    1    3    3  502    0  0.18274550463E+03 -0.21711765674E+02  0.34060125121E+03  0.38716743478E+03  0.46999998093E+01 0. -1.
       -5    1    3    3    0  502 -0.18274550463E+03  0.21711765674E+02 -0.51189533053E+02  0.19107532160E+03  0.46999998093E+01 0.  1.
</event>
<event>
 5   0  0.1967813E-02  0.5007039E+03  0.7818609E-02  0.1013595E+00
        2   -1    0    0  501    0  0.00000000000E+00  0.00000000000E+00  0.19365544777E+03  0.19365544778E+03  0.25500000920E-02 0.  1.
       -2   -1    0    0    0  501  0.00000000000E+00  0.00000000000E+00 -0.32364747586E+03  0.32364747587E+03  0.25500000920E-02 0. -1.
    10030    2    1    2    0    0  0.00000000000E+00  0.00000000000E+00 -0.12999202810E+03  0.51730292366E+03  0.50070389199E+03 0.  0.
        5    1    3    3  502    0 -0.17933743548E+03  0.53666814783E+02  0.10668118367E+03  0.21551103851E+03  0.46999998093E+01 0.  1.
       -5    1    3    3    0  502  0.17933743548E+03 -0.53666814783E+02 -0.23667321177E+03  0.30179188515E+03  0.46999998093E+01 0. -1.
</event>
<event>
 5   0  0.1217270E-02  0.4993077E+03  0.7818609E-02  0.1013960E+00
       -1   -1    0    0    0  501  0.00000000000E+00  0.00000000000E+00  0.22908526526E+03  0.22908526532E+03  0.50400001928E-02 0. -1.
        1   -1    0    0  501    0  0.00000000000E+00  0.00000000000E+00 -0.27206922909E+03  0.27206922914E+03  0.50400001928E-02 0.  1.
    10030    2    1    2    0    0  0.00000000000E+00  0.00000000000E+00 -0.42983963829E+02  0.50115449446E+03  0.49930772693E+03 0.  0.
        2    1    3    3  502    0  0.19891117674E+03 -0.24166177425E+02 -0.17096354324E+03  0.26339740600E+03  0.25500000920E-02 0.  1.
       -2    1    3    3    0  502 -0.19891117674E+03  0.24166177425E+02  0.12797957941E+03  0.23775708846E+03  0.25500000920E-02 0. -1.
</event>
<event>
 5   0  0.1227864E-02  0.4998683E+03  0.7818609E-02  0.1013813E+00
        1   -1    0    0  501    0  0.00000000000E+00  0.00000000000E+00  0.12574268277E+04  0.12574268278E+04  0.50400001928E-02 0.  1.
       -1   -1    0    0    0  501  0.00000000000E+00  0.00000000000E+00 -0.49678497465E+02  0.49678497720E+02  0.50400001928E-02 0. -1.
    10030    2    1    2    0    0  0.00000000000E+00  0.00000000000E+00  0.12077483303E+04  0.13071053255E+04  0.49986828524E+03 0.  0.
        5    1    3    3  502    0  0.39687509432E+02 -0.20547642768E+03  0.24677687173E+03  0.32359940537E+03  0.46999998093E+01 0. -1.
       -5    1    3    3    0  502 -0.39687509432E+02  0.20547642768E+03  0.96097145855E+03  0.98350592011E+03  0.46999998093E+01 0.  1.
</event>
<event>
 5   0  0.1855407E-02  0.4981276E+03  0.7818609E-02  0.1014269E+00
        2   -1    0    0  501    0  0.00000000000E+00  0.00000000000E+00  0.53599837091E+03  0.53599837091E+03  0.25500000920E-02 0.  1.
       -2   -1    0    0    0  501  0.00000000000E+00  0.00000000000E+00 -0.11573314939E+03  0.11573314941E+03  0.25500000920E-02 0. -1.
    10030    2    1    2    0    0  0.00000000000E+00  0.00000000000E+00  0.42026522152E+03  0.65173152033E+03  0.49812761233E+03 0.  0.
        1    1    3    3  502    0  0.19040116340E+03  0.14626306403E+03  0.29679415205E+03  0.38174894321E+03  0.50400001928E-02 0.  1.
       -1    1    3    3    0  502 -0.19040116340E+03 -0.14626306403E+03  0.12347106947E+03  0.26998257712E+03  0.50400001928E-02 0. -1.
</event>
<event>
 5   0  0.1941387E-02  0.4994668E+03  0.7818609E-02  0.1013918E+00
        2   -1    0    0  501    0  0.00000000000E+00  0.00000000000E+00  0.10211080782E+04  0.10211080782E+04  0.25500000920E-02 0. -1.
       -2   -1    0    0    0  501  0.00000000000E+00  0.00000000000E+00 -0.61077534071E+02  0.61077534124E+02  0.25500000920E-02 0.  1.
    10030    2    1    2    0    0  0.00000000000E+00  0.00000000000E+00  0.96003054416E+03  0.10821856124E+04  0.49946676954E+03 0.  0.
        4    1    3    3  502    0  0.90919043463E+02 -0.94412864223E+02  0.94058217798E+03  0.94967178953E+03  0.12699999809E+01 0. -1.
       -4    1    3    3    0  502 -0.90919043463E+02  0.94412864223E+02  0.19448366186E+02  0.13251382283E+03  0.12699999809E+01 0.  1.
</event>
<event>
 5   0  0.1982847E-02  0.4957446E+03  0.7818609E-02  0.1014896E+00
        2   -1    0    0  501    0  0.00000000000E+00  0.00000000000E+00  0.18899531062E+04  0.18899531062E+04  0.25500000920E-02 0.  1.
       -2   -1    0    0    0  501  0.00000000000E+00  0.00000000000E+00 -0.32509096860E+02  0.32509096960E+02  0.25500000920E-02 0. -1.
    10030    2    1    2    0    0  0.00000000000E+00  0.00000000000E+00  0.18574440093E+04  0.19224622031E+04  0.49574456603E+03 0.  0.
        2    1    3    3  502    0 -0.23074063554E+03 -0.13314673207E+02  0.58138971223E+03  0.62564568160E+03  0.25500000920E-02 0. -1.
       -2    1    3    3    0  502  0.23074063554E+03  0.13314673207E+02  0.12760542971E+04  0.12968165215E+04  0.25500000920E-02 0.  1.
</event>
<event>
 5   0  0.1982847E-02  0.4999305E+03  0.7818609E-02  0.1013797E+00
        2   -1    0    0  501    0  0.00000000000E+00  0.00000000000E+00  0.15399455714E+04  0.15399455714E+04  0.25500000920E-02 0.  1.
       -2   -1    0    0    0  501  0.00000000000E+00  0.00000000000E+00 -0.40574572498E+02  0.40574572578E+02  0.25500000920E-02 0. -1.
    10030    2    1    2    0    0  0.00000000000E+00  0.00000000000E+00  0.14993709989E+04  0.15805201440E+04  0.49993052835E+03 0.  0.
        2    1    3    3  502    0 -0.20948752638E+03 -0.76549273581E+02  0.11064962263E+04  0.11287509530E+04  0.25500000920E-02 0.  1.
       -2    1    3    3    0  502  0.20948752638E+03  0.76549273581E+02  0.39287477259E+03  0.45176919100E+03  0.25500000920E-02 0. -1.
</event>
<event>
 5   0  0.8012875E-03  0.4986502E+03  0.7818609E-02  0.1014132E+00
        4   -1    0    0  501    0  0.00000000000E+00  0.00000000000E+00  0.36325262144E+03  0.36325484152E+03  0.12699999809E+01 0. -1.
       -4   -1    0    0    0  501  0.00000000000E+00  0.00000000000E+00 -0.17112377244E+03  0.17112848505E+03  0.12699999809E+01 0.  1.
    10030    2    1    2    0    0  0.00000000000E+00  0.00000000000E+00  0.19212884900E+03  0.53438332656E+03  0.49865022320E+03 0.  0.
        2    1    3    3  502    0 -0.10812432427E+03 -0.17687877610E+03  0.24450395017E+03  0.32056068472E+03  0.25500000920E-02 0. -1.
       -2    1    3    3    0  502  0.10812432427E+03  0.17687877610E+03 -0.52375101170E+02  0.21382264184E+03  0.25500000920E-02 0.  1.
</event>
<event>
 5   0  0.1180937E-02  0.5022513E+03  0.7818609E-02  0.1013193E+00
       -1   -1    0    0    0  501  0.00000000000E+00  0.00000000000E+00  0.15027012191E+03  0.15027012200E+03  0.50400001928E-02 0. -1.
        1   -1    0    0  501    0  0.00000000000E+00  0.00000000000E+00 -0.41967152958E+03  0.41967152961E+03  0.50400001928E-02 0.  1.
    10030    2    1    2    0    0  0.00000000000E+00  0.00000000000E+00 -0.26940140766E+03  0.56994165160E+03  0.50225129943E+03 0.  0.
        1    1    3    3  502    0 -0.75229191476E+01 -0.82514161113E+02  0.13431230186E+03  0.15781310324E+03  0.50400001928E-02 0. -1.
       -1    1    3    3    0  502  0.75229191476E+01  0.82514161113E+02 -0.40371370952E+03  0.41212854837E+03  0.50400001928E-02 0.  1.
</event>
<event>
 5   0  0.1967813E-02  0.5004750E+03  0.7818609E-02  0.1013655E+00
       -2   -1    0    0    0  501  0.00000000000E+00  0.00000000000E+00  0.19760329865E+03  0.19760329867E+03  0.25500000920E-02 0. -1.
        2   -1    0    0  501    0  0.00000000000E+00  0.00000000000E+00 -0.31689151497E+03  0.31689151498E+03  0.25500000920E-02 0.  1.
    10030    2    1    2    0    0  0.00000000000E+00  0.00000000000E+00 -0.11928821631E+03  0.51449481365E+03  0.50047500908E+03 0.  0.
        5    1    3    3  502    0 -0.10384641549E+03 -0.21706060304E+03 -0.13010114669E+03  0.27358322641E+03  0.46999998093E+01 0. -1.
       -5    1    3    3    0  502  0.10384641549E+03  0.21706060304E+03  0.10812930374E+02  0.24091158724E+03  0.46999998093E+01 0.  1.
</event>
<event>
 5   0  0.1855407E-02  0.4985757E+03  0.7818609E-02  0.1014151E+00
       -2   -1    0    0    0  501  0.00000000000E+00  0.00000000000E+00  0.72330305348E+02  0.72330305392E+02  0.25500000920E-02 0.  1.
        2   -1    0    0  501    0  0.00000000000E+00  0.00000000000E+00 -0.85917563569E+03  0.85917563570E+03  0.25500000920E-02 0. -1.
    10030    2    1    2    0    0  0.00000000000E+00  0.00000000000E+00 -0.78684533035E+03  0.93150594109E+03  0.49857571581E+03 0.  0.
        1    1    3    3  502    0  0.14864191968E+03  0.94011940429E+02 -0.72349848645E+03  0.74456881828E+03  0.50400001928E-02 0. -1.
       -1    1    3    3    0  502 -0.14864191968E+03 -0.94011940429E+02 -0.63346843893E+02  0.18693712281E+03  0.50400001928E-02 0.  1.
</event>
<event>
 5   0  0.1209831E-02  0.5016553E+03  0.7818609E-02  0.1013348E+00
       -1   -1    0    0    0  501  0.00000000000E+00  0.00000000000E+00  0.17122099045E+03  0.17122099053E+03  0.50400001928E-02 0.  1.
        1   -1    0    0  501    0  0.00000000000E+00  0.00000000000E+00 -0.36744623801E+03  0.36744623804E+03  0.50400001928E-02 0. -1.
    10030    2    1    2    0    0  0.00000000000E+00  0.00000000000E+00 -0.19622524755E+03  0.53866722857E+03  0.50165529535E+03 0.  0.
        4    1    3    3  502    0  0.78806379616E+02  0.10109363420E+03  0.13339218777E+03  0.18500123513E+03  0.12699999809E+01 0.  1.
       -4    1    3    3    0  502 -0.78806379616E+02 -0.10109363420E+03 -0.32961743532E+03  0.35366599343E+03  0.12699999809E+01 0. -1.
</event>
<event>
 5   0  0.1225989E-02  0.4996380E+03  0.7818609E-02  0.1013873E+00
        1   -1    0    0  501    0  0.00000000000E+00  0.00000000000E+00  0.14436149343E+04  0.14436149343E+04  0.50400001928E-02 0.  1.
       -1   -1    0    0    0  501  0.00000000000E+00  0.00000000000E+00 -0.43231433470E+02  0.43231433764E+02  0.50400001928E-02 0. -1.
    10030    2    1    2    0    0  0.00000000000E+00  0.00000000000E+00  0.14003835008E+04  0.14868463681E+04  0.49963804185E+03 0.  0.
        3    1    3    3  502    0 -0.24728870730E+03 -0.30708068099E+02  0.64738888525E+03  0.69369090318E+03  0.10100000352E+00 0. -1.
       -3    1    3    3    0  502  0.24728870730E+03  0.30708068099E+02  0.75299461559E+03  0.79315546491E+03  0.10100000352E+00 0.  1.
</event>
<event>
 5   0  0.1967813E-02  0.5024241E+03  0.7818609E-02  0.1013148E+00
        2   -1    0    0  501    0  0.00000000000E+00  0.00000000000E+00  0.88171437580E+03  0.88171437581E+03  0.25500000920E-02 0.  1.
       -2   -1    0    0    0  501  0.00000000000E+00  0.00000000000E+00 -0.71573635396E+02  0.71573635441E+02  0.25500000920E-02 0. -1.
    10030    2    1    2    0    0  0.00000000000E+00  0.00000000000E+00  0.81014074041E+03  0.95328801125E+03  0.50242413668E+03 0.  0.
        5    1    3    3  502    0 -0.15214051575E+03  0.33321060802E+01  0.78420206912E+03  0.79884467494E+03  0.46999998093E+01 0.  1.
       -5    1    3    3    0  502  0.15214051575E+03 -0.33321060802E+01  0.25938671287E+02  0.15444333631E+03  0.46999998093E+01 0. -1.
</event>
<event>
 5   0  0.1967813E-02  0.5001726E+03  0.7818609E-02  0.1013734E+00
       -2   -1    0    0    0  501  0.00000000000E+00  0.00000000000E+00  0.99142478576E+02  0.99142478609E+02  0.25500000920E-02 0.  1.
        2   -1    0    0  501    0  0.00000000000E+00  0.00000000000E+00 -0.63084110076E+03  0.63084110077E+03  0.25500000920E-02 0. -1.
    10030    2    1    2    0    0  0.00000000000E+00  0.00000000000E+00 -0.53169862218E+03  0.72998357937E+03  0.50017257154E+03 0.  0.
        5    1    3    3  502    0 -0.13568241409E+03  0.13650109033E+03 -0.32888611110E+02  0.19531005067E+03  0.46999998093E+01 0.  1.
       -5    1    3    3    0  502  0.13568241409E+03 -0.13650109033E+03 -0.49881001107E+03  0.53467352871E+03  0.46999998093E+01 0. -1.
</event>
<event>
 5   0  0.1982847E-02  0.4991679E+03  0.7818609E-02  0.1013996E+00
        2   -1    0    0  501    0  0.00000000000E+00  0.00000000000E+00  0.84694453884E+03  0.84694453884E+03  0.25500000920E-02 0. -1.
       -2   -1    0    0    0  501  0.00000000000E+00  0.00000000000E+00 -0.73549258578E+02  0.73549258622E+02  0.25500000920E-02 0.  1.
    10030    2    1    2    0    0  0.00000000000E+00  0.00000000000E+00  0.77339528026E+03  0.92049379747E+03  0.49916787922E+03 0.  0.
        2    1    3    3  502    0 -0.10435924257E+03 -0.16245178129E+03  0.67833103050E+03  0.70527613011E+03  0.25500000920E-02 0. -1.
       -2    1    3    3    0  502  0.10435924257E+03  0.16245178129E+03  0.95064249757E+02  0.21521766735E+03  0.25500000920E-02 0.  1.
</event>
<event>
 5   0  0.1941387E-02  0.4994922E+03  0.7818609E-02  0.1013912E+00
        2   -1    0    0  501    0  0.00000000000E+00  0.00000000000E+00  0.28443971262E+04  0.28443971262E+04  0.25500000920E-02 0.  1.
       -2   -1    0    0    0  501  0.00000000000E+00  0.00000000000E+00 -0.21928412099E+02  0.21928412247E+02  0.25500000920E-02 0. -1.
    10030    2    1    2    0    0  0.00000000000E+00  0.00000000000E+00  0.28224687141E+04  0.28663255384E+04  0.49949219241E+03 0.  0.
        4    1    3    3  502    0 -0.15265733692E+03  0.19620769018E+03  0.12742565510E+04  0.12982808212E+04  0.12699999809E+01 0.  1.
       -4    1    3    3    0  502  0.15265733692E+03 -0.19620769018E+03  0.15482121631E+04  0.15680447172E+04  0.12699999809E+01 0. -1.
</event>
<event>
 5   0  0.1180937E-02  0.5002051E+03  0.7818609E-02  0.1013725E+00
        1   -1    0    0  501    0  0.00000000000E+00  0.00000000000E+00  0.79617707840E+02  0.79617708000E+02  0.50400001928E-02 0. -1.
       -1   -1    0    0    0  501  0.00000000000E+00  0.00000000000E+00 -0.78564537943E+03  0.78564537945E+03  0.50400001928E-02 0.  1.
    10030    2    1    2    0    0  0.00000000000E+00  0.00000000000E+00 -0.70602767159E+03  0.86526308745E+03  0.50020509538E+03 0.  0.
        1    1    3    3  502    0  0.23567984256E+02  0.17853965716E+03 -0.52805044594E+02  0.18767054063E+03  0.50400001928E-02 0. -1.
       -1    1    3    3    0  502 -0.23567984256E+02 -0.17853965716E+03 -0.65322262700E+03  0.67759254682E+03  0.50400001928E-02 0.  1.
</event>
<event>
 5   0  0.1180937E-02  0.4998258E+03  0.7818609E-02  0.1013824E+00
       -1   -1    0    0    0  501  0.00000000000E+00  0.00000000000E+00  0.99896519896E+02  0.99896520023E+02  0.50400001928E-02 0.  1.
        1   -1    0    0  501    0  0.00000000000E+00  0.00000000000E+00 -0.62521147556E+03  0.62521147558E+03  0.50400001928E-02 0. -1.
    10030    2    1    2    0    0  0.00000000000E+00  0.00000000000E+00 -0.52531495566E+03  0.72510799560E+03  0.49982577229E+03 0.  0.
        1    1    3    3  502    0  0.11934511055E+03  0.21957364323E+03 -0.26152403410E+03  0.36173285813E+03  0.50400001928E-02 0. -1.
       -1    1    3    3    0  502 -0.11934511055E+03 -0.21957364323E+03 -0.26379092156E+03  0.36337513747E+03  0.50400001928E-02 0.  1.
</event>
<event>
 5   0  0.1225989E-02  0.5045010E+03  0.7818609E-02  0.1012611E+00
        1   -1    0    0  501    0  0.00000000000E+00  0.00000000000E+00  0.84846454807E+03  0.84846454808E+03  0.50400001928E-02 0. -1.
       -1   -1    0    0    0  501  0.00000000000E+00  0.00000000000E+00 -0.74994663186E+02  0.74994663356E+02  0.50400001928E-02 0.  1.
    10030    2    1    2    0    0  0.00000000000E+00  0.00000000000E+00  0.77346988488E+03  0.92345921144E+03  0.50450099343E+03 0.  0.
        3    1    3    3  502    0 -0.33535440863E+02  0.24424441012E+03  0.48445965995E+03  0.54358176017E+03  0.10100000352E+00 0.  1.
       -3    1    3    3    0  502  0.33535440863E+02 -0.24424441012E+03  0.28901022493E+03  0.37987745127E+03  0.10100000352E+00 0. -1.
</event>
<event>
 5   0  0.1855407E-02  0.5001945E+03  0.7818609E-02  0.1013728E+00
        2   -1    0    0  501    0  0.00000000000E+00  0.00000000000E+00  0.18588914130E+04  0.18588914130E+04  0.25500000920E-02 0. -1.
       -2   -1    0    0    0  501  0.00000000000E+00  0.00000000000E+00 -0.33648353791E+02  0.33648353887E+02  0.25500000920E-02 0.  1.
    10030    2    1    2    0    0  0.00000000000E+00  0.00000000000E+00  0.18252430592E+04  0.18925397669E+04  0.50019450623E+03 0.  0.
        1    1    3    3  502    0  0.12572542347E+03  0.12545527286E+03  0.24641934237E+03  0.30375713969E+03  0.50400001928E-02 0.  1.
       -1    1    3    3    0  502 -0.12572542347E+03 -0.12545527286E+03  0.15788237168E+04  0.15887826272E+04  0.50400001928E-02 0. -1.
</event>
<event>
 5   0  0.1227864E-02  0.4994028E+03  0.7818609E-02  0.1013935E+00
        1   -1    0    0  501    0  0.00000000000E+00  0.00000000000E+00  0.26340787163E+03  0.26340787168E+03  0.50400001928E-02 0.  1.
       -1   -1    0    0    0  501  0.00000000000E+00  0.00000000000E+00 -0.23670810198E+03  0.23670810203E+03  0.50400001928E-02 0. -1.
    10030    2    1    2    0    0  0.00000000000E+00  0.00000000000E+00  0.26699769654E+02  0.50011597371E+03  0.49940275276E+03 0.  0.
        5    1    3    3  502    0 -0.88965799868E+02 -0.16953319433E+03  0.17380439488E+03  0.25862419686E+03  0.46999998093E+01 0.  1.
       -5    1    3    3    0  502  0.88965799868E+02  0.16953319433E+03 -0.14710462522E+03  0.24149177685E+03  0.46999998093E+01 0. -1.
</event>
<event>
 5   0  0.1941387E-02  0.5000323E+03  0.7818609E-02  0.1013770E+00
        2   -1    0    0  501    0  0.00000000000E+00  0.00000000000E+00  0.34495033837E+03  0.34495033838E+03  0.25500000920E-02 0.  1.
       -2   -1    0    0    0  501  0.00000000000E+00  0.00000000000E+00 -0.18120889386E+03  0.18120889388E+03  0.25500000920E-02 0. -1.
    10030    2    1    2    0    0  0.00000000000E+00  0.00000000000E+00  0.16374144450E+03  0.52615923226E+03  0.50003227600E+03 0.  0.
        4    1    3    3  502    0  0.17529246678E+03  0.16550433360E+03  0.12172939554E+02  0.24138957456E+03  0.12699999809E+01 0. -1.
       -4    1    3    3    0  502 -0.17529246678E+03 -0.16550433360E+03  0.15156850495E+03  0.28476965769E+03  0.12699999809E+01 0.  1.
</event>
<event>
 5   0  0.1209831E-02  0.5010348E+03  0.7818609E-02  0.1013509E+00
       -1   -1    0    0    0  501  0.00000000000E+00  0.00000000000E+00  0.84574667957E+03  0.84574667958E+03  0.50400001928E-02 0. -1.
        1   -1    0    0  501    0  0.00000000000E+00  0.00000000000E+00 -0.74205400914E+02  0.74205401086E+02  0.50400001928E-02 0.  1.
    10030    2    1    2    0    0  0.00000000000E+00  0.00000000000E+00  0.77154127865E+03  0.91995208067E+03  0.50103481522E+03 0.  0.
        4    1    3    3  502    0  0.87968051607E+02  0.29688711356E+01  0.81641501581E+03  0.82114693158E+03  0.12699999809E+01 0. -1.
       -4    1    3    3    0  502 -0.87968051607E+02 -0.29688711356E+01 -0.44873737160E+02  0.98805149087E+02  0.12699999809E+01 0.  1.
</event>
<event>
 5   0  0.1227864E-02  0.5009117E+03  0.7818609E-02  0.1013541E+00
       -1   -1    0    0    0  501  0.00000000000E+00  0.00000000000E+00  0.17747339149E+03  0.17747339157E+03  0.50400001928E-02 0.  1.
        1   -1    0    0  501    0  0.00000000000E+00  0.00000000000E+00 -0.35345092843E+03  0.35345092847E+03  0.50400001928E-02 0. -1.
    10030    2    1    2    0    0  0.00000000000E+00  0.00000000000E+00 -0.17597753694E+03  0.53092432003E+03  0.50091170888E+03 0.  0.
        5    1    3    3  502    0  0.99153075324E+02 -0.65678664580E+02  0.14558031773E+03  0.18804451132E+03  0.46999998093E+01 0.  1.
       -5    1    3    3    0  502 -0.99153075324E+02  0.65678664580E+02 -0.32155785467E+03  0.34287980872E+03  0.46999998093E+01 0. -1.
</event>
<event>
 5   0  0.1855407E-02  0.4998229E+03  0.7818609E-02  0.1013825E+00
        2   -1    0    0  501    0  0.00000000000E+00  0.00000000000E+00  0.22141567221E+03  0.22141567223E+03  0.25500000920E-02 0.  1.
       -2   -1    0    0    0  501  0.00000000000E+00  0.00000000000E+00 -0.28207453110E+03  0.28207453111E+03  0.25500000920E-02 0. -1.
    10030    2    1    2    0    0  0.00000000000E+00  0.00000000000E+00 -0.60658858888E+02  0.50349020334E+03  0.49982285632E+03 0.  0.
        1    1    3    3  502    0 -0.12715541823E+03 -0.20232361597E+03 -0.10402615929E+03  0.26062384351E+03  0.50400001928E-02 0. -1.
       -1    1    3    3    0  502  0.12715541823E+03  0.20232361597E+03  0.43367300407E+02  0.24286635983E+03  0.50400001928E-02 0.  1.
</event>
<event>
 5   0  0.1225989E-02  0.4995244E+03  0.7818609E-02  0.1013903E+00
        1   -1    0    0  501    0  0.00000000000E+00  0.00000000000E+00  0.33156815271E+03  0.33156815275E+03  0.50400001928E-02 0. -1.
       -1   -1    0    0    0  501  0.00000000000E+00  0.00000000000E+00 -0.18813976073E+03  0.18813976080E+03  0.50400001928E-02 0.  1.
    10030    2    1    2    0    0  0.00000000000E+00  0.00000000000E+00  0.14342839198E+03  0.51970791355E+03  0.49952438557E+03 0.  0.
        3    1    3    3  502    0  0.23471988952E+03 -0.61029475064E+02  0.13381794560E+03  0.27699327813E+03  0.10100000352E+00 0.  1.
       -3    1    3    3    0  502 -0.23471988952E+03  0.61029475064E+02  0.96104463772E+01  0.24271463541E+03  0.10100000352E+00 0. -1.
</event>
<event>
 5   0  0.1982847E-02  0.5008249E+03  0.7818609E-02  0.1013564E+00
        2   -1    0    0  501    0  0.00000000000E+00  0.00000000000E+00  0.18153730284E+03  0.18153730286E+03  0.25500000920E-02 0.  1.
       -2   -1    0    0    0  501  0.00000000000E+00  0.00000000000E+00 -0.34541883412E+03  0.34541883413E+03  0.25500000920E-02 0. -1.
    10030    2    1    2    0    0  0.00000000000E+00  0.00000000000E+00 -0.16388153127E+03  0.52695613699E+03  0.50082493350E+03 0.  0.
        2    1    3    3  502    0  0.12084742616E+03 -0.15759760652E+03  0.78547332302E+02  0.21356682656E+03  0.25500000920E-02 0.  1.
       -2    1    3    3    0  502 -0.12084742616E+03  0.15759760652E+03 -0.24242886357E+03  0.31338931043E+03  0.25500000920E-02 0. -1.
</event>
<event>
 5   0  0.1982847E-02  0.5017587E+03  0.7818609E-02  0.1013321E+00
       -2   -1    0    0    0  501  0.00000000000E+00  0.00000000000E+00  0.77933228593E+02  0.77933228634E+02  0.25500000920E-02 0. -1.
        2   -1    0    0  501    0  0.00000000000E+00  0.00000000000E+00 -0.80762002398E+03  0.80762002399E+03  0.25500000920E-02 0.  1.
    10030    2    1    2    0    0  0.00000000000E+00  0.00000000000E+00 -0.72968679539E+03  0.88555325262E+03  0.50175865101E+03 0.  0.
        2    1    3    3  502    0  0.20879091018E+03  0.97288545862E+02 -0.18940028698E+03  0.29821330293E+03  0.25500000920E-02 0. -1.
       -2    1    3    3    0  502 -0.20879091018E+03 -0.97288545862E+02 -0.54028650840E+03  0.58733994969E+03  0.25500000920E-02 0.  1.
</event>
<event>
 5   0  0.1941387E-02  0.4999449E+03  0.7818609E-02  0.1013793E+00
        2   -1    0    0  501    0  0.00000000000E+00  0.00000000000E+00  0.36162836250E+03  0.36162836251E+03  0.25500000920E-02 0.  1.
       -2   -1    0    0    0  501  0.00000000000E+00  0.00000000000E+00 -0.17279124965E+03  0.17279124967E+03  0.25500000920E-02 0. -1.
    10030    2    1    2    0    0  0.00000000000E+00  0.00000000000E+00  0.18883711285E+03  0.53441961218E+03  0.49994486365E+03 0.  0.
        4    1    3    3  502    0 -0.10800719738E+03 -0.33550041563E+02  0.33271075489E+03  0.35141032895E+03  0.12699999809E+01 0.  1.
       -4    1    3    3    0  502  0.10800719738E+03  0.33550041563E+02 -0.14387364204E+03  0.18300928323E+03  0.12699999809E+01 0. -1.
</event>
<event>
 5   0  0.1923706E-02  0.4951502E+03  0.7818609E-02  0.1015053E+00
        2   -1    0    0  501    0  0.00000000000E+00  0.00000000000E+00  0.41574437296E+03  0.41574437297E+03  0.25500000920E-02 0.  1.
       -2   -1    0    0    0  501  0.00000000000E+00  0.00000000000E+00 -0.14743057355E+03  0.14743057357E+03  0.25500000920E-02 0. -1.
    10030    2    1    2    0    0  0.00000000000E+00  0.00000000000E+00  0.26831379941E+03  0.56317494654E+03  0.49515020494E+03 0.  0.
        3    1    3    3  502    0  0.41374643781E+02  0.41562138336E+02  0.40773014164E+03  0.41192614762E+03  0.10100000352E+00 0.  1.
       -3    1    3    3    0  502 -0.41374643781E+02 -0.41562138336E+02 -0.13941634223E+03  0.15124879892E+03  0.10100000352E+00 0. -1.
</event>
<event>
 5   0  0.1855407E-02  0.5010482E+03  0.7818609E-02  0.1013506E+00
        2   -1    0    0  501    0  0.00000000000E+00  0.00000000000E+00  0.58716027032E+03  0.58716027032E+03  0.25500000920E-02 0.  1.
       -2   -1    0    0    0  501  0.00000000000E+00  0.00000000000E+00 -0.10689132035E+03  0.10689132038E+03  0.25500000920E-02 0. -1.
    10030    2    1    2    0    0  0.00000000000E+00  0.00000000000E+00  0.48026894996E+03  0.69405159070E+03  0.50104824744E+03 0.  0.
        1    1    3    3  502    0  0.24802635248E+03  0.34243649600E+02  0.22832875222E+03  0.33885648611E+03  0.50400001928E-02 0.  1.
       -1    1    3    3    0  502 -0.24802635248E+03 -0.34243649600E+02  0.25194019774E+03  0.35519510459E+03  0.50400001928E-02 0. -1.
</event>
<event>
 5   0  0.1967813E-02  0.4999177E+03  0.7818609E-02  0.1013800E+00
       -2   -1    0    0    0  501  0.00000000000E+00  0.00000000000E+00  0.76100909142E+02  0.76100909185E+02  0.25500000920E-02 0. -1.
        2   -1    0    0  501    0  0.00000000000E+00  0.00000000000E+00 -0.82100749083E+03  0.82100749083E+03  0.25500000920E-02 0.  1.
    10030    2    1    2    0    0  0.00000000000E+00  0.00000000000E+00 -0.74490658168E+03  0.89710840001E+03  0.49991765916E+03 0.  0.
        5    1    3    3  502    0 -0.23928880331E+03  0.55314234396E+02 -0.45543916568E+03  0.51746083866E+03  0.46999998093E+01 0. -1.
       -5    1    3    3    0  502  0.23928880331E+03 -0.55314234396E+02 -0.28946741600E+03  0.37964756135E+03  0.46999998093E+01 0.  1.
</event>
<event>
 5   0  0.1217270E-02  0.4997665E+03  0.7818609E-02  0.1013840E+00
        1   -1    0    0  501    0  0.00000000000E+00  0.00000000000E+00  0.12575345463E+04  0.12575345464E+04  0.50400001928E-02 0. -1.
       -1   -1    0    0    0  501  0.00000000000E+00  0.00000000000E+00 -0.49654008159E+02  0.49654008415E+02  0.50400001928E-02 0.  1.
    10030    2    1    2    0    0  0.00000000000E+00  0.00000000000E+00  0.12078805382E+04  0.13071885548E+04  0.49976646865E+03 0.  0.
        2    1    3    3  502    0 -0.18863161915E+03  0.99082824953E+02  0.94539701330E+03  0.96911031710E+03  0.25500000920E-02 0. -1.
       -2    1    3    3    0  502  0.18863161915E+03 -0.99082824953E+02  0.26248352489E+03  0.33807823767E+03  0.25500000920E-02 0.  1.
</event>
<event>
 5   0  0.1225989E-02  0.4988832E+03  0.7818609E-02  0.1014071E+00
        1   -1    0    0  501    0  0.00000000000E+00  0.00000000000E+00  0.13547959217E+04  0.13547959217E+04  0.50400001928E-02 0.  1.
       -1   -1    0    0    0  501  0.00000000000E+00  0.00000000000E+00 -0.45926556869E+02  0.45926557145E+02  0.50400001928E-02 0. -1.
    10030    2    1    2    0    0  0.00000000000E+00  0.00000000000E+00  0.13088693648E+04  0.14007224788E+04  0.49888320134E+03 0.  0.
        3    1    3    3  502    0 -0.38449652859E+02  0.13680537226E+03  0.12300303241E+04  0.12382118939E+04  0.10100000352E+00 0.  1.
       -3    1    3    3    0  502  0.38449652859E+02 -0.13680537226E+03  0.78839040693E+02  0.16251058496E+03  0.10100000352E+00 0. -1.
</event>
<event>
 5   0  0.1941387E-02  0.4999096E+03  0.7818609E-02  0.1013803E+00
       -2   -1    0    0    0  501  0.00000000000E+00  0.00000000000E+00  0.41803075629E+02  0.41803075707E+02  0.25500000920E-02 0. -1.
        2   -1    0    0  501    0  0.00000000000E+00  0.00000000000E+00 -0.14945645011E+04  0.14945645011E+04  0.25500000920E-02 0.  1.
    10030    2    1    2    0    0  0.00000000000E+00  0.00000000000E+00 -0.14527614255E+04  0.15363675769E+04  0.49990956356E+03 0.  0.
        4    1    3    3  502    0  0.60880989825E+02 -0.20306117359E+03 -0.11333504190E+04  0.11530069905E+04  0.12699999809E+01 0.  1.
       -4    1    3    3    0  502 -0.60880989825E+02  0.20306117359E+03 -0.31941100654E+03  0.38336058632E+03  0.12699999809E+01 0. -1.
</event>
<event>
 5   0  0.1982847E-02  0.4994896E+03  0.7818609E-02  0.1013912E+00
        2   -1    0    0  501    0  0.00000000000E+00  0.00000000000E+00  0.66349854506E+03  0.66349854506E+03  0.25500000920E-02 0. -1.
       -2   -1    0    0    0  501  0.00000000000E+00  0.00000000000E+00 -0.94005417593E+02  0.94005417628E+02  0.25500000920E-02 0.  1.
    10030    2    1    2    0    0  0.00000000000E+00  0.00000000000E+00  0.56949312746E+03  0.75750396269E+03  0.49948957072E+03 0.  0.
        2    1    3    3  502    0  0.44714049573E+01 -0.77121264602E+02  0.64492393128E+03  0.64953411001E+03  0.25500000920E-02 0. -1.
       -2    1    3    3    0  502 -0.44714049573E+01  0.77121264602E+02 -0.75430803821E+02  0.10796985268E+03  0.25500000920E-02 0.  1.
</event>
<event>
 5   0  0.1227864E-02  0.5004078E+03  0.7818609E-02  0.1013673E+00
       -1   -1    0    0    0  501  0.00000000000E+00  0.00000000000E+00  0.11983857887E+03  0.11983857897E+03  0.50400001928E-02 0. -1.
        1   -1    0    0  501    0  0.00000000000E+00  0.00000000000E+00 -0.52238594361E+03  0.52238594364E+03  0.50400001928E-02 0.  1.
    10030    2    1    2    0    0  0.00000000000E+00  0.00000000000E+00 -0.40254736475E+03  0.64222452261E+03  0.50040779029E+03 0.  0.
        5    1    3    3  502    0 -0.17449749812E+03 -0.71793970717E+02  0.95176703161E+01  0.18898790207E+03  0.46999998093E+01 0. -1.
       -5    1    3    3    0  502  0.17449749812E+03  0.71793970717E+02 -0.41206503506E+03  0.45323662054E+03  0.46999998093E+01 0.  1.
</event>
<event>
 5   0  0.1217270E-02  0.5002170E+03  0.7818609E-02  0.1013722E+00
       -1   -1    0    0    0  501  0.00000000000E+00  0.00000000000E+00  0.31225320916E+03  0.31225320920E+03  0.50400001928E-02 0.  1.
        1   -1    0    0  501    0  0.00000000000E+00  0.00000000000E+00 -0.20033183008E+03  0.20033183015E+03  0.50400001928E-02 0. -1.
    10030    2    1    2    0    0  0.00000000000E+00  0.00000000000E+00  0.11192137907E+03  0.51258503935E+03  0.50021698039E+03 0.  0.
        2    1    3    3  502    0  0.19403251378E+03  0.15295034769E+01 -0.10574896740E+03  0.22098370957E+03  0.25500000920E-02 0. -1.
       -2    1    3    3    0  502 -0.19403251378E+03 -0.15295034769E+01  0.21767034647E+03  0.29160132977E+03  0.25500000920E-02 0.  1.
</event>
<event>
 5   0  0.1967813E-02  0.4999280E+03  0.7818609E-02  0.1013798E+00
       -2   -1    0    0    0  501  0.00000000000E+00  0.00000000000E+00  0.76288515370E+02  0.76288515413E+02  0.25500000920E-02 0. -1.
        2   -1    0    0  501    0  0.00000000000E+00  0.00000000000E+00 -0.81902251361E+03  0.81902251361E+03  0.25500000920E-02 0.  1.
    10030    2    1    2    0    0  0.00000000000E+00  0.00000000000E+00 -0.74273399824E+03  0.89531102902E+03  0.49992804138E+03 0.  0.
        5    1    3    3  502    0 -0.13222532674E+03  0.20439465457E+03 -0.47266194977E+03  0.53168799179E+03  0.46999998093E+01 0. -1.
       -5    1    3    3    0  502  0.13222532674E+03 -0.20439465457E+03 -0.27007204847E+03  0.36362303724E+03  0.46999998093E+01 0.  1.
</event>
<event>
 5   0  0.8012875E-03  0.5000982E+03  0.7818609E-02  0.1013753E+00
       -4   -1    0    0    0  501  0.00000000000E+00  0.00000000000E+00  0.12516848508E+03  0.12517492783E+03  0.12699999809E+01 0. -1.
        4   -1    0    0  501    0  0.00000000000E+00  0.00000000000E+00 -0.49950294472E+03  0.49950455922E+03  0.12699999809E+01 0.  1.
    10030    2    1    2    0    0  0.00000000000E+00  0.00000000000E+00 -0.37433445964E+03  0.62467948705E+03  0.50009816423E+03 0.  0.
        3    1    3    3  502    0 -0.64705202031E+02 -0.17817275954E+03 -0.39086178860E+03  0.43440216781E+03  0.10100000352E+00 0.  1.
       -3    1    3    3    0  502  0.64705202031E+02  0.17817275954E+03  0.16527328958E+02  0.19027731924E+03  0.10100000352E+00 0. -1.
</event>
<event>
 5   0  0.1180937E-02  0.5006530E+03  0.7818609E-02  0.1013609E+00
       -1   -1    0    0    0  501  0.00000000000E+00  0.00000000000E+00  0.12198916004E+03  0.12198916015E+03  0.50400001928E-02 0.  1.
        1   -1    0    0  501    0  0.00000000000E+00  0.00000000000E+00 -0.51367971897E+03  0.51367971899E+03  0.50400001928E-02 0. -1.
    10030    2    1    2    0    0  0.00000000000E+00  0.00000000000E+00 -0.39169055893E+03  0.63566887914E+03  0.50065300354E+03 0.  0.
        1    1    3    3  502    0  0.17777632257E+03  0.49812537435E+02  0.18793091278E+02  0.18557718086E+03  0.50400001928E-02 0.  1.
       -1    1    3    3    0  502 -0.17777632257E+03 -0.49812537435E+02 -0.41048365020E+03  0.45009169828E+03  0.50400001928E-02 0. -1.
</event>
<event>
 5   0  0.1209831E-02  0.5009840E+03  0.7818609E-02  0.1013522E+00
       -1   -1    0    0    0  501  0.00000000000E+00  0.00000000000E+00  0.36569030088E+03  0.36569030091E+03  0.50400001928E-02 0.  1.
        1   -1    0    0  501    0  0.00000000000E+00  0.00000000000E+00 -0.17158301576E+03  0.17158301583E+03  0.50400001928E-02 0. -1.
    10030    2    1    2    0    0  0.00000000000E+00  0.00000000000E+00  0.19410728512E+03  0.53727331674E+03  0.50098401047E+03 0.  0.
        4    1    3    3  502    0  0.50219047718E+02  0.56105363294E+02  0.35326233625E+03  0.36120029853E+03  0.12699999809E+01 0.  1.
       -4    1    3    3    0  502 -0.50219047718E+02 -0.56105363294E+02 -0.15915505113E+03  0.17607301822E+03  0.12699999809E+01 0. -1.
</event>
<event>
 5   0  0.1855407E-02  0.5001476E+03  0.7818609E-02  0.1013740E+00
       -2   -1    0    0    0  501  0.00000000000E+00  0.00000000000E+00  0.24875975571E+02  0.24875975701E+02  0.25500000920E-02 0.  1.
        2   -1    0    0  501    0  0.00000000000E+00  0.00000000000E+00 -0.25139473879E+04  0.25139473879E+04  0.25500000920E-02 0. -1.
    10030    2    1    2    0    0  0.00000000000E+00  0.00000000000E+00 -0.24890714123E+04  0.25388233636E+04  0.50014755412E+03 0.  0.
        1    1    3    3  502    0 -0.22864402604E+02  0.20244802248E+03 -0.19806457286E+04  0.19910965534E+04  0.50400001928E-02 0. -1.
       -1    1    3    3    0  502  0.22864402604E+02 -0.20244802248E+03 -0.50842568374E+03  0.54772681022E+03  0.50400001928E-02 0.  1.
</event>
<event>
 5   0  0.1227864E-02  0.5011798E+03  0.7818609E-02  0.1013471E+00
        1   -1    0    0  501    0  0.00000000000E+00  0.00000000000E+00  0.21344885720E+03  0.21344885726E+03  0.50400001928E-02 0.  1.
       -1   -1    0    0    0  501  0.00000000000E+00  0.00000000000E+00 -0.29419362564E+03  0.29419362568E+03  0.50400001928E-02 0. -1.
    10030    2    1    2    0    0  0.00000000000E+00  0.00000000000E+00 -0.80744768438E+02  0.50764248294E+03  0.50117978097E+03 0.  0.
        5    1    3    3  502    0 -0.19353747245E+03  0.14934473487E+03 -0.95967311128E+02  0.26266407801E+03  0.46999998093E+01 0.  1.
       -5    1    3    3    0  502  0.19353747245E+03 -0.14934473487E+03  0.15222542690E+02  0.24497840493E+03  0.46999998093E+01 0. -1.
</event>
<event>
 5   0  0.1923706E-02  0.4997028E+03  0.7818609E-02  0.1013857E+00
       -2   -1    0    0    0  501  0.00000000000E+00  0.00000000000E+00  0.29109030621E+03  0.29109030622E+03  0.25500000920E-02 0. -1.
        2   -1    0    0  501    0  0.00000000000E+00  0.00000000000E+00 -0.21445480700E+03  0.21445480701E+03  0.25500000920E-02 0.  1.
    10030    2    1    2    0    0  0.00000000000E+00  0.00000000000E+00  0.76635499207E+02  0.50554511323E+03  0.49970277343E+03 0.  0.
        3    1    3    3  502    0  0.20620702789E+03  0.10085506867E+03 -0.61489729235E+02  0.23764275758E+03  0.10100000352E+00 0.  1.
       -3    1    3    3    0  502 -0.20620702789E+03 -0.10085506867E+03  0.13812522844E+03  0.26790235565E+03  0.10100000352E+00 0. -1.
</event>
<event>
 5   0  0.1967813E-02  0.4972677E+03  0.7818609E-02  0.1014495E+00
        2   -1    0    0  501    0  0.00000000000E+00  0.00000000000E+00  0.97398360171E+03  0.97398360171E+03  0.25500000920E-02 0.  1.
       -2   -1    0    0    0  501  0.00000000000E+00  0.00000000000E+00 -0.63470053814E+02  0.63470053865E+02  0.25500000920E-02 0. -1.
    10030    2    1    2    0    0  0.00000000000E+00  0.00000000000E+00  0.91051354789E+03  0.10374536556E+04  0.49726770111E+03 0.  0.
        5    1    3    3  502    0  0.10251327012E+03  0.21012914341E+03  0.27904740306E+03  0.36407797326E+03  0.46999998093E+01 0.  1.
       -5    1    3    3    0  502 -0.10251327012E+03 -0.21012914341E+03  0.63146614483E+03  0.67337568231E+03  0.46999998093E+01 0. -1.
</event>
<event>
 5   0  0.1941387E-02  0.4999875E+03  0.7818609E-02  0.1013782E+00
        2   -1    0    0  501    0  0.00000000000E+00  0.00000000000E+00  0.13434927267E+04  0.13434927268E+04  0.25500000920E-02 0. -1.
       -2   -1    0    0    0  501  0.00000000000E+00  0.00000000000E+00 -0.46518200459E+02  0.46518200529E+02  0.25500000920E-02 0.  1.
    10030    2    1    2    0    0  0.00000000000E+00  0.00000000000E+00  0.12969745263E+04  0.13900109273E+04  0.49998745596E+03 0.  0.
        4    1    3    3  502    0 -0.13163890051E+03 -0.12002132582E+03  0.16088953128E+03  0.24004368968E+03  0.12699999809E+01 0.  1.
       -4    1    3    3    0  502  0.13163890051E+03  0.12002132582E+03  0.11360849950E+04  0.11499672376E+04  0.12699999809E+01 0. -1.
</event>
<event>
 5   0  0.1855407E-02  0.4992091E+03  0.7818609E-02  0.1013986E+00
       -2   -1    0    0    0  501  0.00000000000E+00  0.00000000000E+00  0.20525534082E+03  0.20525534084E+03  0.25500000920E-02 0. -1.
        2   -1    0    0  501    0  0.00000000000E+00  0.00000000000E+00 -0.30353620671E+03  0.30353620672E+03  0.25500000920E-02 0.  1.
    10030    2    1    2    0    0  0.00000000000E+00  0.00000000000E+00 -0.98280865888E+02  0.50879154755E+03  0.49920908472E+03 0.  0.
        1    1    3    3  502    0  0.59170419892E+02  0.21562640199E+03 -0.16220472222E+03  0.27623586979E+03  0.50400001928E-02 0.  1.
       -1    1    3    3    0  502 -0.59170419892E+02 -0.21562640199E+03  0.63923856331E+02  0.23255567776E+03  0.50400001928E-02 0. -1.
</event>
<event>
 5   0  0.1217270E-02  0.4997260E+03  0.7818609E-02  0.1013850E+00
        1   -1    0    0  501    0  0.00000000000E+00  0.00000000000E+00  0.27836566586E+03  0.27836566590E+03  0.50400001928E-02 0. -1.
       -1   -1    0    0    0  501  0.00000000000E+00  0.00000000000E+00 -0.22427883777E+03  0.22427883782E+03  0.50400001928E-02 0.  1.
    10030    2    1    2    0    0  0.00000000000E+00  0.00000000000E+00  0.54086828091E+02  0.50264450373E+03  0.49972603710E+03 0.  0.
        2    1    3    3  502    0 -0.10103584425E+03  0.18107266599E+02 -0.20209264894E+03  0.22666617236E+03  0.25500000920E-02 0.  1.
       -2    1    3    3    0  502  0.10103584425E+03 -0.18107266599E+02  0.25617947703E+03  0.27597833137E+03  0.25500000920E-02 0. -1.
</event>
<event>
 5   0  0.1225989E-02  0.4999499E+03  0.7818609E-02  0.1013792E+00
        1   -1    0    0  501    0  0.00000000000E+00  0.00000000000E+00  0.12780783819E+04  0.12780783819E+04  0.50400001928E-02 0. -1.
       -1   -1    0    0    0  501  0.00000000000E+00  0.00000000000E+00 -0.48891740367E+02  0.48891740626E+02  0.50400001928E-02 0.  1.
    10030    2    1    2    0    0  0.00000000000E+00  0.00000000000E+00  0.12291866415E+04  0.13269701225E+04  0.49994990387E+03 0.  0.
        3    1    3    3  502    0 -0.88932696946E+02  0.17656524338E+03  0.10206361779E+04  0.10396069102E+04  0.10100000352E+00 0. -1.
       -3    1    3    3    0  502  0.88932696946E+02 -0.17656524338E+03  0.20855046360E+03  0.28736321237E+03  0.10100000352E+00 0.  1.
</event>
<event>
 5   0  0.8012875E-03  0.4995972E+03  0.7818609E-02  0.1013884E+00
       -3   -1    0    0    0  501  0.00000000000E+00  0.00000000000E+00  0.44015053226E+03  0.44015054385E+03  0.10100000352E+00 0.  1.
        3   -1    0    0  501    0  0.00000000000E+00  0.00000000000E+00 -0.14176816588E+03  0.14176820185E+03  0.10100000352E+00 0. -1.
    10030    2    1    2    0    0  0.00000000000E+00  0.00000000000E+00  0.29838236639E+03  0.58191874570E+03  0.49959722780E+03 0.  0.
        2    1    3    3  502    0 -0.79195821615E+02 -0.23509944785E+03  0.11512036780E+03  0.27348935561E+03  0.25500000920E-02 0. -1.
       -2    1    3    3    0  502  0.79195821615E+02  0.23509944785E+03  0.18326199859E+03  0.30842939010E+03  0.25500000920E-02 0.  1.
</event>
<event>
 5   0  0.1923706E-02  0.4997737E+03  0.7818609E-02  0.1013838E+00
       -2   -1    0    0    0  501  0.00000000000E+00  0.00000000000E+00  0.64595306392E+02  0.64595306442E+02  0.25500000920E-02 0.  1.
        2   -1    0    0  501    0  0.00000000000E+00  0.00000000000E+00 -0.96668692040E+03  0.96668692040E+03  0.25500000920E-02 0. -1.
    10030    2    1    2    0    0  0.00000000000E+00  0.00000000000E+00 -0.90209161401E+03  0.10312822268E+04  0.49977370013E+03 0.  0.
        3    1    3    3  502    0  0.13009929196E+03 -0.18161923527E+03 -0.68204756514E+03  0.71770485836E+03  0.10100000352E+00 0.  1.
       -3    1    3    3    0  502 -0.13009929196E+03  0.18161923527E+03 -0.22004404887E+03  0.31357736849E+03  0.10100000352E+00 0. -1.
</event>
<event>
 5   0  0.1923706E-02  0.5004848E+03  0.7818609E-02  0.1013652E+00
       -2   -1    0    0    0  501  0.00000000000E+00  0.00000000000E+00  0.57436865902E+02  0.57436865958E+02  0.25500000920E-02 0.  1.
        2   -1    0    0  501    0  0.00000000000E+00  0.00000000000E+00 -0.10902625712E+04  0.10902625712E+04  0.25500000920E-02 0. -1.
    10030    2    1    2    0    0  0.00000000000E+00  0.00000000000E+00 -0.10328257053E+04  0.11476994371E+04  0.50048482547E+03 0.  0.
        3    1    3    3  502    0 -0.27776924146E+02  0.69877287392E+02 -0.10637417816E+04  0.10663962589E+04  0.10100000352E+00 0. -1.
       -3    1    3    3    0  502  0.27776924146E+02 -0.69877287392E+02  0.30916076378E+02  0.81303178216E+02  0.10100000352E+00 0.  1.
</event>
<event>
 5   0  0.1217270E-02  0.5014669E+03  0.7818609E-02  0.1013397E+00
        1   -1    0    0  501    0  0.00000000000E+00  0.00000000000E+00  0.21372210204E+04  0.21372210204E+04  0.50400001928E-02 0.  1.
       -1   -1    0    0    0  501  0.00000000000E+00  0.00000000000E+00 -0.29415419593E+02  0.29415420025E+02  0.50400001928E-02 0. -1.
    10030    2    1    2    0    0  0.00000000000E+00  0.00000000000E+00  0.21078056008E+04  0.21666364404E+04  0.50146686252E+03 0.  0.
        2    1    3    3  502    0 -0.27692573873E+02 -0.22867588304E+03  0.14817884598E+04  0.14995854686E+04  0.25500000920E-02 0.  1.
       -2    1    3    3    0  502  0.27692573873E+02  0.22867588304E+03  0.62601714097E+03  0.66705097176E+03  0.25500000920E-02 0. -1.
</event>
<event>
 5   0  0.1180937E-02  0.4998113E+03  0.7818609E-02  0.1013828E+00
        1   -1    0    0  501    0  0.00000000000E+00  0.00000000000E+00  0.31371316451E+03  0.31371316455E+03  0.50400001928E-02 0.  1.
       -1   -1    0    0    0  501  0.00000000000E+00  0.00000000000E+00 -0.19907621633E+03  0.19907621639E+03  0.50400001928E-02 0. -1.
    10030    2    1    2    0    0  0.00000000000E+00  0.00000000000E+00  0.11463694818E+03  0.51278938094E+03  0.49981128370E+03 0.  0.
        1    1    3    3  502    0 -0.23223983587E+03  0.14100467986E+02  0.15089346433E+03  0.27731390547E+03  0.50400001928E-02 0.  1.
       -1    1    3    3    0  502  0.23223983587E+03 -0.14100467986E+02 -0.36256516152E+02  0.23547547548E+03  0.50400001928E-02 0. -1.
</event>
<event>
 5   0  0.1967813E-02  0.5010434E+03  0.7818609E-02  0.1013507E+00
       -2   -1    0    0    0  501  0.00000000000E+00  0.00000000000E+00  0.44016264878E+02  0.44016264952E+02  0.25500000920E-02 0.  1.
        2   -1    0    0  501    0  0.00000000000E+00  0.00000000000E+00 -0.14258621150E+04  0.14258621150E+04  0.25500000920E-02 0. -1.
    10030    2    1    2    0    0  0.00000000000E+00  0.00000000000E+00 -0.13818458501E+04  0.14698783799E+04  0.50104340965E+03 0.  0.
        5    1    3    3  502    0 -0.16275225575E+03  0.17678897967E+03 -0.89828742510E+03  0.92988441657E+03  0.46999998093E+01 0.  1.
       -5    1    3    3    0  502  0.16275225575E+03 -0.17678897967E+03 -0.48355842498E+03  0.53999396335E+03  0.46999998093E+01 0. -1.
</event>
<event>
 5   0  0.8012875E-03  0.4998876E+03  0.7818609E-02  0.1013808E+00
        3   -1    0    0  501    0  0.00000000000E+00  0.00000000000E+00  0.85550797863E+02  0.85550857483E+02  0.10100000352E+00 0. -1.
       -3   -1    0    0    0  501  0.00000000000E+00  0.00000000000E+00 -0.73023132851E+03  0.73023133549E+03  0.10100000352E+00 0.  1.
    10030    2    1    2    0    0  0.00000000000E+00  0.00000000000E+00 -0.64468053064E+03  0.81578219297E+03  0.49988758715E+03 0.  0.
        1    1    3    3  502    0 -0.10082257790E+03  0.16110278042E+03 -0.58725957742E+03  0.61724639276E+03  0.50400001928E-02 0.  1.
       -1    1    3    3    0  502  0.10082257790E+03 -0.16110278042E+03 -0.57420953221E+02  0.19853580022E+03  0.50400001928E-02 0. -1.
</event>
<event>
 5   0  0.1209831E-02  0.5005389E+03  0.7818609E-02  0.1013638E+00
       -1   -1    0    0    0  501  0.00000000000E+00  0.00000000000E+00  0.44184651210E+03  0.44184651213E+03  0.50400001928E-02 0.  1.
        1   -1    0    0  501    0  0.00000000000E+00  0.00000000000E+00 -0.14175689299E+03  0.14175689308E+03  0.50400001928E-02 0. -1.
    10030    2    1    2    0    0  0.00000000000E+00  0.00000000000E+00  0.30008961911E+03  0.58360340520E+03  0.50053886469E+03 0.  0.
        4    1    3    3  502    0 -0.18535236406E+03 -0.22773057752E+02 -0.44214762971E+02  0.19191318137E+03  0.12699999809E+01 0. -1.
       -4    1    3    3    0  502  0.18535236406E+03  0.22773057752E+02  0.34430438208E+03  0.39169022383E+03  0.12699999809E+01 0.  1.
</event>
<event>
 5   0  0.1209831E-02  0.4996808E+03  0.7818609E-02  0.1013862E+00
       -1   -1    0    0    0  501  0.00000000000E+00  0.00000000000E+00  0.26862754125E+03  0.26862754130E+03  0.50400001928E-02 0. -1.
        1   -1    0    0  501    0  0.00000000000E+00  0.00000000000E+00 -0.23236721883E+03  0.23236721888E+03  0.50400001928E-02 0.  1.
    10030    2    1    2    0    0  0.00000000000E+00  0.00000000000E+00  0.36260322426E+02  0.50099476018E+03  0.49968083688E+03 0.  0.
        4    1    3    3  502    0  0.37784910615E+02 -0.11191921977E+03 -0.20259642439E+03  0.23452192925E+03  0.12699999809E+01 0.  1.
       -4    1    3    3    0  502 -0.37784910615E+02  0.11191921977E+03  0.23885674681E+03  0.26647283093E+03  0.12699999809E+01 0. -1.
</event>
<event>
 5   0  0.1941387E-02  0.4997534E+03  0.7818609E-02  0.1013843E+00
       -2   -1    0    0    0  501  0.00000000000E+00  0.00000000000E+00  0.49013677955E+02  0.49013678021E+02  0.25500000920E-02 0.  1.
        2   -1    0    0  501    0  0.00000000000E+00  0.00000000000E+00 -0.12738966910E+04  0.12738966910E+04  0.25500000920E-02 0. -1.
    10030    2    1    2    0    0  0.00000000000E+00  0.00000000000E+00 -0.12248830131E+04  0.13229103690E+04  0.49975338801E+03 0.  0.
        4    1    3    3  502    0 -0.22676095700E+02 -0.14540270203E+03 -0.77875338169E+02  0.16650024705E+03  0.12699999809E+01 0.  1.
       -4    1    3    3    0  502  0.22676095700E+02  0.14540270203E+03 -0.11470076749E+04  0.11564101220E+04  0.12699999809E+01 0. -1.
</event>
<event>
 5   0  0.1180937E-02  0.5013046E+03  0.7818609E-02  0.1013439E+00
        1   -1    0    0  501    0  0.00000000000E+00  0.00000000000E+00  0.77008284440E+03  0.77008284442E+03  0.50400001928E-02 0.  1.
       -1   -1    0    0    0  501  0.00000000000E+00  0.00000000000E+00 -0.81584171232E+02  0.81584171388E+02  0.50400001928E-02 0. -1.
    10030    2    1    2    0    0  0.00000000000E+00  0.00000000000E+00  0.68849867317E+03  0.85166701581E+03  0.50130458093E+03 0.  0.
        1    1    3    3  502    0 -0.10623926682E+03 -0.13202913530E+03  0.65800884425E+03  0.67948076759E+03  0.50400001928E-02 0.  1.
       -1    1    3    3    0  502  0.10623926682E+03  0.13202913530E+03  0.30489828918E+02  0.17218624822E+03  0.50400001928E-02 0. -1.
</event>
<event>
 5   0  0.1180937E-02  0.5003766E+03  0.7818609E-02  0.1013681E+00
        1   -1    0    0  501    0  0.00000000000E+00  0.00000000000E+00  0.17138067488E+03  0.17138067495E+03  0.50400001928E-02 0.  1.
       -1   -1    0    0    0  501  0.00000000000E+00  0.00000000000E+00 -0.36523481174E+03  0.36523481178E+03  0.50400001928E-02 0. -1.
    10030    2    1    2    0    0  0.00000000000E+00  0.00000000000E+00 -0.19385413687E+03  0.53661548673E+03  0.50037661238E+03 0.  0.
        1    1    3    3  502    0 -0.93658103980E+02  0.56472094140E+02  0.14438781295E+03  0.18113193648E+03  0.50400001928E-02 0.  1.
       -1    1    3    3    0  502  0.93658103980E+02 -0.56472094140E+02 -0.33824194982E+03  0.35548355025E+03  0.50400001928E-02 0. -1.
</event>
<event>
 5   0  0.1180937E-02  0.5009847E+03  0.7818609E-02  0.1013522E+00
        1   -1    0    0  501    0  0.00000000000E+00  0.00000000000E+00  0.34021320898E+03  0.34021320902E+03  0.50400001928E-02 0. -1.
       -1   -1    0    0    0  501  0.00000000000E+00  0.00000000000E+00 -0.18443266589E+03  0.18443266596E+03  0.50400001928E-02 0.  1.
    10030    2    1    2    0    0  0.00000000000E+00  0.00000000000E+00  0.15578054309E+03  0.52464587497E+03  0.50098474680E+03 0.  0.
        1    1    3    3  502    0  0.24424022327E+03 -0.52764086247E+02  0.96301670898E+02  0.26778974458E+03  0.50400001928E-02 0. -1.
       -1    1    3    3    0  502 -0.24424022327E+03  0.52764086247E+02  0.59478872192E+02  0.25685613040E+03  0.50400001928E-02 0.  1.
</event>
<event>
 5   0  0.1225989E-02  0.4997833E+03  0.7818609E-02  0.1013835E+00
       -1   -1    0    0    0  501  0.00000000000E+00  0.00000000000E+00  0.68062336288E+03  0.68062336290E+03  0.50400001928E-02 0.  1.
        1   -1    0    0  501    0  0.00000000000E+00  0.00000000000E+00 -0.91748001234E+02  0.91748001372E+02  0.50400001928E-02 0. -1.
    10030    2    1    2    0    0  0.00000000000E+00  0.00000000000E+00  0.58887536165E+03  0.77237136427E+03  0.49978328583E+03 0.  0.
        3    1    3    3  502    0 -0.29024567637E+00  0.15353665312E+03  0.59913188353E+03  0.61849220865E+03  0.10100000352E+00 0.  1.
       -3    1    3    3    0  502  0.29024567637E+00 -0.15353665312E+03 -0.10256521884E+02  0.15387915562E+03  0.10100000352E+00 0. -1.
</event>
<event>
 5   0  0.1225989E-02  0.5000590E+03  0.7818609E-02  0.1013764E+00
       -1   -1    0    0    0  501  0.00000000000E+00  0.00000000000E+00  0.24495306043E+03  0.24495306048E+03  0.50400001928E-02 0.  1.
        1   -1    0    0  501    0  0.00000000000E+00  0.00000000000E+00 -0.25521111956E+03  0.25521111961E+03  0.50400001928E-02 0. -1.
    10030    2    1    2    0    0  0.00000000000E+00  0.00000000000E+00 -0.10258059131E+02  0.50016418008E+03  0.50005897578E+03 0.  0.
        3    1    3    3  502    0  0.22359836757E+03 -0.10026774315E+03  0.44529016849E+02  0.24906363411E+03  0.10100000352E+00 0.  1.
       -3    1    3    3    0  502 -0.22359836757E+03  0.10026774315E+03 -0.54787075981E+02  0.25110054597E+03  0.10100000352E+00 0. -1.
</event>
<event>
 5   0  0.8012875E-03  0.5009980E+03  0.7818609E-02  0.1013519E+00
       -4   -1    0    0    0  501  0.00000000000E+00  0.00000000000E+00  0.48903202993E+03  0.48903367900E+03  0.12699999809E+01 0. -1.
        4   -1    0    0  501    0  0.00000000000E+00  0.00000000000E+00 -0.12830918627E+03  0.12831547133E+03  0.12699999809E+01 0.  1.
    10030    2    1    2    0    0  0.00000000000E+00  0.00000000000E+00  0.36072284366E+03  0.61734915033E+03  0.50099800746E+03 0.  0.
        5    1    3    3  502    0 -0.15582230066E+03  0.76893967586E+01 -0.61069162882E+02  0.16760444165E+03  0.46999998093E+01 0.  1.
       -5    1    3    3    0  502  0.15582230066E+03 -0.76893967586E+01  0.42179200654E+03  0.44974470868E+03  0.46999998093E+01 0. -1.
</event>
<event>
 5   0  0.1217270E-02  0.4993977E+03  0.7818609E-02  0.1013936E+00
       -1   -1    0    0    0  501  0.00000000000E+00  0.00000000000E+00  0.50849483682E+02  0.50849483932E+02  0.50400001928E-02 0. -1.
        1   -1    0    0  501    0  0.00000000000E+00  0.00000000000E+00 -0.12261580976E+04  0.12261580976E+04  0.50400001928E-02 0.  1.
    10030    2    1    2    0    0  0.00000000000E+00  0.00000000000E+00 -0.11753086139E+04  0.12770075815E+04  0.49939766255E+03 0.  0.
        2    1    3    3  502    0 -0.87616651683E+02 -0.22407469607E+03 -0.41681889748E+03  0.48127345696E+03  0.25500000920E-02 0. -1.
       -2    1    3    3    0  502  0.87616651683E+02  0.22407469607E+03 -0.75848971641E+03  0.79573412455E+03  0.25500000920E-02 0.  1.
</event>
<event>
 5   0  0.8012875E-03  0.4998502E+03  0.7818609E-02  0.1013818E+00
        4   -1    0    0  501    0  0.00000000000E+00  0.00000000000E+00  0.16531428436E+03  0.16531916258E+03  0.12699999809E+01 0.  1.
       -4   -1    0    0    0  501  0.00000000000E+00  0.00000000000E+00 -0.37782975747E+03  0.37783189189E+03  0.12699999809E+01 0. -1.
    10030    2    1    2    0    0  0.00000000000E+00  0.00000000000E+00 -0.21251547311E+03  0.54315105447E+03  0.49985021923E+03 0.  0.
        3    1    3    3  502    0  0.13195237589E+03 -0.19563843590E+03 -0.16805622124E+02  0.23657613202E+03  0.10100000352E+00 0.  1.
       -3    1    3    3    0  502 -0.13195237589E+03  0.19563843590E+03 -0.19570985098E+03  0.30657492245E+03  0.10100000352E+00 0. -1.
</event>
<event>
 5   0  0.1923706E-02  0.4998382E+03  0.7818609E-02  0.1013821E+00
        2   -1    0    0  501    0  0.00000000000E+00  0.00000000000E+00  0.42751023288E+03  0.42751023288E+03  0.25500000920E-02 0. -1.
       -2   -1    0    0    0  501  0.00000000000E+00  0.00000000000E+00 -0.14610072786E+03  0.14610072788E+03  0.25500000920E-02 0.  1.
    10030    2    1    2    0    0  0.00000000000E+00  0.00000000000E+00  0.28140950502E+03  0.57361096077E+03  0.49983819862E+03 0.  0.
        3    1    3    3  502    0  0.20596704367E+03  0.14085527536E+03  0.12460101622E+03  0.27890510057E+03  0.10100000352E+00 0. -1.
       -3    1    3    3    0  502 -0.20596704367E+03 -0.14085527536E+03  0.15680848879E+03  0.29470586020E+03  0.10100000352E+00 0.  1.
</event>
<event>
 5   0  0.1180937E-02  0.5019552E+03  0.7818609E-02  0.1013270E+00
        1   -1    0    0  501    0  0.00000000000E+00  0.00000000000E+00  0.50337910901E+03  0.50337910904E+03  0.50400001928E-02 0.  1.
       -1   -1    0    0    0  501  0.00000000000E+00  0.00000000000E+00 -0.12513384628E+03  0.12513384639E+03  0.50400001928E-02 0. -1.
    10030    2    1    2    0    0  0.00000000000E+00  0.00000000000E+00  0.37824526273E+03  0.62851295542E+03  0.50195523342E+03 0.  0.
        1    1    3    3  502    0 -0.63254643409E+02  0.17127961436E+03  0.40473594225E+03  0.44401468352E+03  0.50400001928E-02 0.  1.
       -1    1    3    3    0  502  0.63254643409E+02 -0.17127961436E+03 -0.26490679515E+02  0.18449827191E+03  0.50400001928E-02 0. -1.
</event>
<event>
 5   0  0.1227864E-02  0.5008449E+03  0.7818609E-02  0.1013559E+00
        1   -1    0    0  501    0  0.00000000000E+00  0.00000000000E+00  0.74269661280E+03  0.74269661282E+03  0.50400001928E-02 0. -1.
       -1   -1    0    0    0  501  0.00000000000E+00  0.00000000000E+00 -0.84437435875E+02  0.84437436025E+02  0.50400001928E-02 0.  1.
    10030    2    1    2    0    0  0.00000000000E+00  0.00000000000E+00  0.65825917693E+03  0.82713404885E+03  0.50084487693E+03 0.  0.
        5    1    3    3  502    0 -0.11838333094E+03 -0.21991353255E+03  0.35833473650E+03  0.43680939576E+03  0.46999998093E+01 0. -1.
       -5    1    3    3    0  502  0.11838333094E+03  0.21991353255E+03  0.29992444043E+03  0.39032465309E+03  0.46999998093E+01 0.  1.
</event>
<event>
 5   0  0.1923706E-02  0.5005636E+03  0.7818609E-02  0.1013632E+00
       -2   -1    0    0    0  501  0.00000000000E+00  0.00000000000E+00  0.46239301475E+02  0.46239301545E+02  0.25500000920E-02 0. -1.
        2   -1    0    0  501    0  0.00000000000E+00  0.00000000000E+00 -0.13547131390E+04  0.13547131390E+04  0.25500000920E-02 0.  1.
    10030    2    1    2    0    0  0.00000000000E+00  0.00000000000E+00 -0.13084738375E+04  0.14009524406E+04  0.50056363950E+03 0.  0.
        3    1    3    3  502    0  0.14243832223E+03  0.17094341560E+03 -0.97494303325E+03  0.10000121276E+04  0.10100000352E+00 0.  1.
       -3    1    3    3    0  502 -0.14243832223E+03 -0.17094341560E+03 -0.33353080428E+03  0.40094031299E+03  0.10100000352E+00 0. -1.
</event>
<event>
 5   0  0.1209831E-02  0.4998572E+03  0.7818609E-02  0.1013816E+00
        1   -1    0    0  501    0  0.00000000000E+00  0.00000000000E+00  0.59817691797E+02  0.59817692009E+02  0.50400001928E-02 0.  1.
       -1   -1    0    0    0  501  0.00000000000E+00  0.00000000000E+00 -0.10442448428E+04  0.10442448428E+04  0.50400001928E-02 0. -1.
    10030    2    1    2    0    0  0.00000000000E+00  0.00000000000E+00 -0.98442715099E+03  0.11040625348E+04  0.49985724478E+03 0.  0.
        4    1    3    3  502    0  0.84975392130E+02 -0.17035003056E+03 -0.84988712584E+03  0.87094758152E+03  0.12699999809E+01 0. -1.
       -4    1    3    3    0  502 -0.84975392130E+02  0.17035003056E+03 -0.13454002515E+03  0.23311495329E+03  0.12699999809E+01 0.  1.
</event>
<event>
 5   0  0.1941387E-02  0.5004171E+03  0.7818609E-02  0.1013670E+00
       -2   -1    0    0    0  501  0.00000000000E+00  0.00000000000E+00  0.64300004081E+02  0.64300004131E+02  0.25500000920E-02 0. -1.
        2   -1    0    0  501    0  0.00000000000E+00  0.00000000000E+00 -0.97362834210E+03  0.97362834211E+03  0.25500000920E-02 0.  1.
    10030    2    1    2    0    0  0.00000000000E+00  0.00000000000E+00 -0.90932833802E+03  0.10379283462E+04  0.50041705166E+03 0.  0.
        4    1    3    3  502    0  0.29436492715E+02  0.20821875360E+03 -0.73586814668E+03  0.76532679207E+03  0.12699999809E+01 0. -1.
       -4    1    3    3    0  502 -0.29436492715E+02 -0.20821875360E+03 -0.17346019134E+03  0.27260155417E+03  0.12699999809E+01 0.  1.
</event>
<event>
 5   0  0.1855407E-02  0.5002482E+03  0.7818609E-02  0.1013714E+00
        2   -1    0    0  501    0  0.00000000000E+00  0.00000000000E+00  0.39373775899E+03  0.39373775900E+03  0.25500000920E-02 0. -1.
       -2   -1    0    0    0  501  0.00000000000E+00  0.00000000000E+00 -0.15889275003E+03  0.15889275005E+03  0.25500000920E-02 0.  1.
    10030    2    1    2    0    0  0.00000000000E+00  0.00000000000E+00  0.23484500896E+03  0.55263050905E+03  0.50024823968E+03 0.  0.
        1    1    3    3  502    0  0.21681894664E+03 -0.97892688133E+02  0.32075746650E+02  0.24004642793E+03  0.50400001928E-02 0. -1.
       -1    1    3    3    0  502 -0.21681894664E+03  0.97892688133E+02  0.20276926231E+03  0.31258408113E+03  0.50400001928E-02 0.  1.
</event>
<event>
 5   0  0.1180937E-02  0.4993603E+03  0.7818609E-02  0.1013946E+00
        1   -1    0    0  501    0  0.00000000000E+00  0.00000000000E+00  0.50199589222E+02  0.50199589475E+02  0.50400001928E-02 0.  1.
       -1   -1    0    0    0  501  0.00000000000E+00  0.00000000000E+00 -0.12418462029E+04  0.12418462029E+04  0.50400001928E-02 0. -1.
    10030    2    1    2    0    0  0.00000000000E+00  0.00000000000E+00 -0.11916466136E+04  0.12920457924E+04  0.49936026847E+03 0.  0.
        1    1    3    3  502    0  0.13782195487E+03  0.66003266929E+02 -0.11067212061E+04  0.11172211735E+04  0.50400001928E-02 0. -1.
       -1    1    3    3    0  502 -0.13782195487E+03 -0.66003266929E+02 -0.84925407594E+02  0.17482461889E+03  0.50400001928E-02 0.  1.
</event>
<event>
 5   0  0.1923706E-02  0.4964842E+03  0.7818609E-02  0.1014701E+00
        2   -1    0    0  501    0  0.00000000000E+00  0.00000000000E+00  0.37209989839E+03  0.37209989840E+03  0.25500000920E-02 0.  1.
       -2   -1    0    0    0  501  0.00000000000E+00  0.00000000000E+00 -0.16561180125E+03  0.16561180127E+03  0.25500000920E-02 0. -1.
    10030    2    1    2    0    0  0.00000000000E+00  0.00000000000E+00  0.20648809714E+03  0.53771169967E+03  0.49648417669E+03 0.  0.
        3    1    3    3  502    0  0.19778461166E+03  0.86474512006E+02 -0.29522260435E+02  0.21787190709E+03  0.10100000352E+00 0. -1.
       -3    1    3    3    0  502 -0.19778461166E+03 -0.86474512006E+02  0.23601035758E+03  0.31983979258E+03  0.10100000352E+00 0.  1.
</event>
<event>
 5   0  0.1209831E-02  0.5003713E+03  0.7818609E-02  0.1013682E+00
       -1   -1    0    0    0  501  0.00000000000E+00  0.00000000000E+00  0.74624597568E+03  0.74624597569E+03  0.50400001928E-02 0.  1.
        1   -1    0    0  501    0  0.00000000000E+00  0.00000000000E+00 -0.83876996714E+02  0.83876996866E+02  0.50400001928E-02 0. -1.
    10030    2    1    2    0    0  0.00000000000E+00  0.00000000000E+00  0.66236897896E+03  0.83012297256E+03  0.50037134738E+03 0.  0.
        4    1    3    3  502    0 -0.16155305581E+03 -0.13823799954E+03  0.11245798001E+03  0.24053595267E+03  0.12699999809E+01 0. -1.
       -4    1    3    3    0  502  0.16155305581E+03  0.13823799954E+03  0.54991099895E+03  0.58958701989E+03  0.12699999809E+01 0.  1.
</event>
<event>
 5   0  0.1982847E-02  0.5001305E+03  0.7818609E-02  0.1013745E+00
       -2   -1    0    0    0  501  0.00000000000E+00  0.00000000000E+00  0.39459135089E+03  0.39459135089E+03  0.25500000920E-02 0.  1.
        2   -1    0    0  501    0  0.00000000000E+00  0.00000000000E+00 -0.15847443526E+03  0.15847443528E+03  0.25500000920E-02 0. -1.
    10030    2    1    2    0    0  0.00000000000E+00  0.00000000000E+00  0.23611691562E+03  0.55306578618E+03  0.50013054895E+03 0.  0.
        2    1    3    3  502    0  0.10334753715E+03  0.68341104800E+01 -0.13363978507E+03  0.16907693710E+03  0.25500000920E-02 0. -1.
       -2    1    3    3    0  502 -0.10334753715E+03 -0.68341104800E+01  0.36975670069E+03  0.38398884907E+03  0.25500000920E-02 0.  1.
</event>
<event>
 5   0  0.1209831E-02  0.4999264E+03  0.7818609E-02  0.1013798E+00
        1   -1    0    0  501    0  0.00000000000E+00  0.00000000000E+00  0.61549886852E+03  0.61549886854E+03  0.50400001928E-02 0.  1.
       -1   -1    0    0    0  501  0.00000000000E+00  0.00000000000E+00 -0.10151375446E+03  0.10151375458E+03  0.50400001928E-02 0. -1.
    10030    2    1    2    0    0  0.00000000000E+00  0.00000000000E+00  0.51398511406E+03  0.71701262313E+03  0.49992639883E+03 0.  0.
        4    1    3    3  502    0 -0.10762411059E+03 -0.19828835495E+03  0.10266201070E+03  0.24787561846E+03  0.12699999809E+01 0. -1.
       -4    1    3    3    0  502  0.10762411059E+03  0.19828835495E+03  0.41132310336E+03  0.46913700467E+03  0.12699999809E+01 0.  1.
</event>
<event>
 5   0  0.1209831E-02  0.4999466E+03  0.7818609E-02  0.1013793E+00
       -1   -1    0    0    0  501  0.00000000000E+00  0.00000000000E+00  0.22651273353E+03  0.22651273358E+03  0.50400001928E-02 0. -1.
        1   -1    0    0  501    0  0.00000000000E+00  0.00000000000E+00 -0.27586378219E+03  0.27586378224E+03  0.50400001928E-02 0.  1.
    10030    2    1    2    0    0  0.00000000000E+00  0.00000000000E+00 -0.49351048664E+02  0.50237651582E+03  0.49994663480E+03 0.  0.
        4    1    3    3  502    0 -0.22733121053E+03 -0.49946091751E+02 -0.11628304927E+03  0.26018733983E+03  0.12699999809E+01 0.  1.
       -4    1    3    3    0  502  0.22733121053E+03  0.49946091751E+02  0.66932000602E+02  0.24218917599E+03  0.12699999809E+01 0. -1.
</event>
<event>
 5   0  0.8012875E-03  0.4992633E+03  0.7818609E-02  0.1013971E+00
        4   -1    0    0  501    0  0.00000000000E+00  0.00000000000E+00  0.49438065137E+03  0.49438228260E+03  0.12699999809E+01 0.  1.
       -4   -1    0    0    0  501  0.00000000000E+00  0.00000000000E+00 -0.12604349849E+03  0.12604989652E+03  0.12699999809E+01 0. -1.
    10030    2    1    2    0    0  0.00000000000E+00  0.00000000000E+00  0.36833715288E+03  0.62043217911E+03  0.49926328795E+03 0.  0.
        3    1    3    3  502    0  0.12408746364E+03  0.87266042145E+02  0.43053238374E+03  0.45647694837E+03  0.10100000352E+00 0.  1.
       -3    1    3    3    0  502 -0.12408746364E+03 -0.87266042145E+02 -0.62195230869E+02  0.16395523074E+03  0.10100000352E+00 0. -1.
</event>
<event>
 5   0  0.1982847E-02  0.4984315E+03  0.7818609E-02  0.1014189E+00
       -2   -1    0    0    0  501  0.00000000000E+00  0.00000000000E+00  0.77235659351E+02  0.77235659393E+02  0.25500000920E-02 0.  1.
        2   -1    0    0  501    0  0.00000000000E+00  0.00000000000E+00 -0.80414259009E+03  0.80414259010E+03  0.25500000920E-02 0. -1.
    10030    2    1    2    0    0  0.00000000000E+00  0.00000000000E+00 -0.72690693074E+03  0.88137824949E+03  0.49843147244E+03 0.  0.
        2    1    3    3  502    0 -0.10369818227E+03  0.22050297235E+03 -0.27099959485E+03  0.36443882098E+03  0.25500000920E-02 0.  1.
       -2    1    3    3    0  502  0.10369818227E+03 -0.22050297235E+03 -0.45590733589E+03  0.51693942851E+03  0.25500000920E-02 0. -1.
</event>
<event>
 5   0  0.1855407E-02  0.4997634E+03  0.7818609E-02  0.1013841E+00
       -2   -1    0    0    0  501  0.00000000000E+00  0.00000000000E+00  0.22108849625E+03  0.22108849626E+03  0.25500000920E-02 0. -1.
        2   -1    0    0  501    0  0.00000000000E+00  0.00000000000E+00 -0.28242477509E+03  0.28242477511E+03  0.25500000920E-02 0.  1.
    10030    2    1    2    0    0  0.00000000000E+00  0.00000000000E+00 -0.61336278849E+02  0.50351327137E+03  0.49976341937E+03 0.  0.
        1    1    3    3  502    0  0.12578903980E+03  0.17067007712E+03 -0.16390910609E+03  0.26798759830E+03  0.50400001928E-02 0. -1.
       -1    1    3    3    0  502 -0.12578903980E+03 -0.17067007712E+03  0.10257282724E+03  0.23552567306E+03  0.50400001928E-02 0.  1.
</event>
<event>
 5   0  0.1967813E-02  0.4998868E+03  0.7818609E-02  0.1013808E+00
        2   -1    0    0  501    0  0.00000000000E+00  0.00000000000E+00  0.42763628225E+03  0.42763628225E+03  0.25500000920E-02 0. -1.
       -2   -1    0    0    0  501  0.00000000000E+00  0.00000000000E+00 -0.14608605742E+03  0.14608605744E+03  0.25500000920E-02 0.  1.
    10030    2    1    2    0    0  0.00000000000E+00  0.00000000000E+00  0.28155022483E+03  0.57372233970E+03  0.49988678115E+03 0.  0.
        5    1    3    3  502    0 -0.13110277894E+03 -0.19410699731E+03  0.40824979120E+02  0.23781134112E+03  0.46999998093E+01 0.  1.
       -5    1    3    3    0  502  0.13110277894E+03  0.19410699731E+03  0.24072524570E+03  0.33591099858E+03  0.46999998093E+01 0. -1.
</event>
<event>
 5   0  0.1855407E-02  0.4996364E+03  0.7818609E-02  0.1013874E+00
        2   -1    0    0  501    0  0.00000000000E+00  0.00000000000E+00  0.50417444879E+03  0.50417444880E+03  0.25500000920E-02 0.  1.
       -2   -1    0    0    0  501  0.00000000000E+00  0.00000000000E+00 -0.12378482357E+03  0.12378482360E+03  0.25500000920E-02 0. -1.
    10030    2    1    2    0    0  0.00000000000E+00  0.00000000000E+00  0.38038962522E+03  0.62795927240E+03  0.49963644865E+03 0.  0.
        1    1    3    3  502    0  0.15868879433E+03 -0.75100769708E+02 -0.33178236316E+02  0.17867023940E+03  0.50400001928E-02 0. -1.
       -1    1    3    3    0  502 -0.15868879433E+03  0.75100769708E+02  0.41356786153E+03  0.44928903300E+03  0.50400001928E-02 0.  1.
</event>
<event>
 5   0  0.1180937E-02  0.5001154E+03  0.7818609E-02  0.1013749E+00
        1   -1    0    0  501    0  0.00000000000E+00  0.00000000000E+00  0.41377500528E+03  0.41377500532E+03  0.50400001928E-02 0.  1.
       -1   -1    0    0    0  501  0.00000000000E+00  0.00000000000E+00 -0.15111802217E+03  0.15111802225E+03  0.50400001928E-02 0. -1.
    10030    2    1    2    0    0  0.00000000000E+00  0.00000000000E+00  0.26265698312E+03  0.56489302756E+03  0.50011542849E+03 0.  0.
        1    1    3    3  502    0  0.58832861673E+02 -0.13107510503E+03  0.36250032884E+03  0.38993393954E+03  0.50400001928E-02 0.  1.
       -1    1    3    3    0  502 -0.58832861673E+02  0.13107510503E+03 -0.99843345724E+02  0.17495908802E+03  0.50400001928E-02 0. -1.
</event>
<event>
 5   0  0.1967813E-02  0.4989454E+03  0.7818609E-02  0.1014055E+00
        2   -1    0    0  501    0  0.00000000000E+00  0.00000000000E+00  0.16369294402E+04  0.16369294402E+04  0.25500000920E-02 0.  1.
       -2   -1    0    0    0  501  0.00000000000E+00  0.00000000000E+00 -0.38020352924E+02  0.38020353009E+02  0.25500000920E-02 0. -1.
    10030    2    1    2    0    0  0.00000000000E+00  0.00000000000E+00  0.15989090873E+04  0.16749497932E+04  0.49894542828E+03 0.  0.
        5    1    3    3  502    0 -0.19178979611E+03 -0.21788984372E+02  0.13297772611E+04  0.13437216006E+04  0.46999998093E+01 0.  1.
       -5    1    3    3    0  502  0.19178979611E+03  0.21788984372E+02  0.26913182617E+03  0.33122819262E+03  0.46999998093E+01 0. -1.
</event>
<event>
 5   0  0.1227864E-02  0.4999884E+03  0.7818609E-02  0.1013782E+00
        1   -1    0    0  501    0  0.00000000000E+00  0.00000000000E+00  0.94123517459E+03  0.94123517460E+03  0.50400001928E-02 0.  1.
       -1   -1    0    0    0  501  0.00000000000E+00  0.00000000000E+00 -0.66399031852E+02  0.66399032043E+02  0.50400001928E-02 0. -1.
    10030    2    1    2    0    0  0.00000000000E+00  0.00000000000E+00  0.87483614274E+03  0.10076342066E+04  0.49998841763E+03 0.  0.
        5    1    3    3  502    0 -0.22975251569E+03 -0.58374253309E+02  0.27769570365E+03  0.36514485583E+03  0.46999998093E+01 0. -1.
       -5    1    3    3    0  502  0.22975251569E+03  0.58374253309E+02  0.59714043909E+03  0.64248935082E+03  0.46999998093E+01 0.  1.
</event>
<event>
 5   0  0.1941387E-02  0.5001002E+03  0.7818609E-02  0.1013753E+00
        2   -1    0    0  501    0  0.00000000000E+00  0.00000000000E+00  0.77246044706E+03  0.77246044706E+03  0.25500000920E-02 0. -1.
       -2   -1    0    0    0  501  0.00000000000E+00  0.00000000000E+00 -0.80942711719E+02  0.80942711760E+02  0.25500000920E-02 0.  1.
    10030    2    1    2    0    0  0.00000000000E+00  0.00000000000E+00  0.69151773534E+03  0.85340315882E+03  0.50010016317E+03 0.  0.
        4    1    3    3  502    0  0.16720986118E+03 -0.59567776984E+02  0.45227399882E+02  0.18317911543E+03  0.12699999809E+01 0.  1.
       -4    1    3    3    0  502 -0.16720986118E+03  0.59567776984E+02  0.64629033546E+03  0.67022404339E+03  0.12699999809E+01 0. -1.
</event>
<event>
 5   0  0.1941387E-02  0.4997024E+03  0.7818609E-02  0.1013857E+00
       -2   -1    0    0    0  501  0.00000000000E+00  0.00000000000E+00  0.56836951330E+02  0.56836951387E+02  0.25500000920E-02 0.  1.
        2   -1    0    0  501    0  0.00000000000E+00  0.00000000000E+00 -0.10983281794E+04  0.10983281794E+04  0.25500000920E-02 0. -1.
    10030    2    1    2    0    0  0.00000000000E+00  0.00000000000E+00 -0.10414912280E+04  0.11551651307E+04  0.49970241268E+03 0.  0.
        4    1    3    3  502    0  0.79357316316E+02 -0.18462349547E+03 -0.17754799291E+03  0.26815726994E+03  0.12699999809E+01 0.  1.
       -4    1    3    3    0  502 -0.79357316316E+02  0.18462349547E+03 -0.86394323511E+03  0.88700786080E+03  0.12699999809E+01 0. -1.
</event>
<event>
 5   0  0.8012875E-03  0.5000980E+03  0.7818609E-02  0.1013753E+00
        4   -1    0    0  501    0  0.00000000000E+00  0.00000000000E+00  0.49488799653E+02  0.49505092576E+02  0.12699999809E+01 0. -1.
       -4   -1    0    0    0  501  0.00000000000E+00  0.00000000000E+00 -0.12631823678E+04  0.12631830062E+04  0.12699999809E+01 0.  1.
    10030    2    1    2    0    0  0.00000000000E+00  0.00000000000E+00 -0.12136935681E+04  0.13126880988E+04  0.50009795778E+03 0.  0.
        4    1    3    3  502    0  0.27370253187E+02  0.24754208325E+03 -0.54834914553E+03  0.60225792817E+03  0.12699999809E+01 0. -1.
       -4    1    3    3    0  502 -0.27370253187E+02 -0.24754208325E+03 -0.66534442262E+03  0.71043017063E+03  0.12699999809E+01 0.  1.
</event>
<event>
 5   0  0.8012875E-03  0.5004527E+03  0.7818609E-02  0.1013661E+00
       -3   -1    0    0    0  501  0.00000000000E+00  0.00000000000E+00  0.24305025345E+03  0.24305027444E+03  0.10100000352E+00 0. -1.
        3   -1    0    0  501    0  0.00000000000E+00  0.00000000000E+00 -0.25761430719E+03  0.25761432699E+03  0.10100000352E+00 0.  1.
    10030    2    1    2    0    0  0.00000000000E+00  0.00000000000E+00 -0.14564053735E+02  0.50066460142E+03  0.50045272649E+03 0.  0.
        4    1    3    3  502    0  0.92037776167E+02  0.80456606252E+02  0.21113906264E+03  0.24397855316E+03  0.12699999809E+01 0. -1.
       -4    1    3    3    0  502 -0.92037776167E+02 -0.80456606252E+02 -0.22570311637E+03  0.25668604826E+03  0.12699999809E+01 0.  1.
</event>
<event>
 5   0  0.1180937E-02  0.4974777E+03  0.7818609E-02  0.1014439E+00
       -1   -1    0    0    0  501  0.00000000000E+00  0.00000000000E+00  0.33343708108E+03  0.33343708112E+03  0.50400001928E-02 0. -1.
        1   -1    0    0  501    0  0.00000000000E+00  0.00000000000E+00 -0.18555528177E+03  0.18555528184E+03  0.50400001928E-02 0.  1.
    10030    2    1    2    0    0  0.00000000000E+00  0.00000000000E+00  0.14788179931E+03  0.51899236296E+03  0.49747768417E+03 0.  0.
        1    1    3    3  502    0  0.17242289131E+03 -0.98219122101E+02 -0.82526622330E+02  0.21491229097E+03  0.50400001928E-02 0.  1.
       -1    1    3    3    0  502 -0.17242289131E+03  0.98219122101E+02  0.23040842164E+03  0.30408007199E+03  0.50400001928E-02 0. -1.
</event>
<event>
 5   0  0.1227864E-02  0.5000633E+03  0.7818609E-02  0.1013762E+00
       -1   -1    0    0    0  501  0.00000000000E+00  0.00000000000E+00  0.97252119999E+02  0.97252120130E+02  0.50400001928E-02 0. -1.
        1   -1    0    0  501    0  0.00000000000E+00  0.00000000000E+00 -0.64282230728E+03  0.64282230730E+03  0.50400001928E-02 0.  1.
    10030    2    1    2    0    0  0.00000000000E+00  0.00000000000E+00 -0.54557018728E+03  0.74007442743E+03  0.50006332487E+03 0.  0.
        5    1    3    3  502    0 -0.17036811710E+03  0.13022129439E+03 -0.82618048069E+02  0.22984932609E+03  0.46999998093E+01 0. -1.
       -5    1    3    3    0  502  0.17036811710E+03 -0.13022129439E+03 -0.46295213921E+03  0.51022510134E+03  0.46999998093E+01 0.  1.
</event>
<event>
 5   0  0.1941387E-02  0.4998531E+03  0.7818609E-02  0.1013817E+00
        2   -1    0    0  501    0  0.00000000000E+00  0.00000000000E+00  0.41741239394E+03  0.41741239395E+03  0.25500000920E-02 0.  1.
       -2   -1    0    0    0  501  0.00000000000E+00  0.00000000000E+00 -0.14964406144E+03  0.14964406146E+03  0.25500000920E-02 0. -1.
    10030    2    1    2    0    0  0.00000000000E+00  0.00000000000E+00  0.26776833250E+03  0.56705645540E+03  0.49985312215E+03 0.  0.
        4    1    3    3  502    0  0.49239371959E+02 -0.15465479741E+03  0.34948580363E+03  0.38533694600E+03  0.12699999809E+01 0.  1.
       -4    1    3    3    0  502 -0.49239371959E+02  0.15465479741E+03 -0.81717471125E+02  0.18171950941E+03  0.12699999809E+01 0. -1.
</event>
<event>
 5   0  0.1967813E-02  0.4995261E+03  0.7818609E-02  0.1013903E+00
       -2   -1    0    0    0  501  0.00000000000E+00  0.00000000000E+00  0.23253644094E+03  0.23253644096E+03  0.25500000920E-02 0.  1.
        2   -1    0    0  501    0  0.00000000000E+00  0.00000000000E+00 -0.26826586005E+03  0.26826586006E+03  0.25500000920E-02 0. -1.
    10030    2    1    2    0    0  0.00000000000E+00  0.00000000000E+00 -0.35729419107E+02  0.50080230102E+03  0.49952612876E+03 0.  0.
        5    1    3    3  502    0  0.21867087575E+03 -0.19239296434E+02 -0.13721672130E+03  0.25891624327E+03  0.46999998093E+01 0. -1.
       -5    1    3    3    0  502 -0.21867087575E+03  0.19239296434E+02  0.10148730219E+03  0.24188605775E+03  0.46999998093E+01 0.  1.
</event>
<event>
 5   0  0.1855407E-02  0.5058546E+03  0.7818609E-02  0.1012262E+00
        2   -1    0    0  501    0  0.00000000000E+00  0.00000000000E+00  0.18822590592E+04  0.18822590592E+04  0.25500000920E-02 0.  1.
       -2   -1    0    0    0  501  0.00000000000E+00  0.00000000000E+00 -0.33986940597E+02  0.33986940692E+02  0.25500000920E-02 0. -1.
    10030    2    1    2    0    0  0.00000000000E+00  0.00000000000E+00  0.18482721186E+04  0.19162459999E+04  0.50585463100E+03 0.  0.
        1    1    3    3  502    0 -0.36172675122E+02  0.21551477470E+03  0.44173000551E+03  0.49282905590E+03  0.50400001928E-02 0. -1.
       -1    1    3    3    0  502  0.36172675122E+02 -0.21551477470E+03  0.14065421131E+04  0.14234169440E+04  0.50400001928E-02 0.  1.
</event>
<event>
 5   0  0.1855407E-02  0.5000683E+03  0.7818609E-02  0.1013761E+00
       -2   -1    0    0    0  501  0.00000000000E+00  0.00000000000E+00  0.64682694009E+02  0.64682694059E+02  0.25500000920E-02 0.  1.
        2   -1    0    0  501    0  0.00000000000E+00  0.00000000000E+00 -0.96651926297E+03  0.96651926298E+03  0.25500000920E-02 0. -1.
    10030    2    1    2    0    0  0.00000000000E+00  0.00000000000E+00 -0.90183656896E+03  0.10312019570E+04  0.50006827441E+03 0.  0.
        1    1    3    3  502    0  0.56977372727E+02  0.17776830283E+03 -0.79393223197E+03  0.81558345954E+03  0.50400001928E-02 0. -1.
       -1    1    3    3    0  502 -0.56977372727E+02 -0.17776830283E+03 -0.10790433699E+03  0.21561849749E+03  0.50400001928E-02 0.  1.
</event>
<event>
 5   0  0.8012875E-03  0.5002110E+03  0.7818609E-02  0.1013724E+00
       -3   -1    0    0    0  501  0.00000000000E+00  0.00000000000E+00  0.15969062728E+04  0.15969062760E+04  0.10100000352E+00 0.  1.
        3   -1    0    0  501    0  0.00000000000E+00  0.00000000000E+00 -0.39171141933E+02  0.39171272143E+02  0.10100000352E+00 0. -1.
    10030    2    1    2    0    0  0.00000000000E+00  0.00000000000E+00  0.15577351309E+04  0.16360775481E+04  0.50021096107E+03 0.  0.
        5    1    3    3  502    0  0.14392734031E+03 -0.10234158262E+03  0.19982228332E+03  0.26672066611E+03  0.46999998093E+01 0. -1.
       -5    1    3    3    0  502 -0.14392734031E+03  0.10234158262E+03  0.13579128475E+04  0.13693568820E+04  0.46999998093E+01 0.  1.
</event>
<event>
 5   0  0.1227864E-02  0.4941224E+03  0.7818609E-02  0.1015325E+00
       -1   -1    0    0    0  501  0.00000000000E+00  0.00000000000E+00  0.42259024646E+03  0.42259024649E+03  0.50400001928E-02 0.  1.
        1   -1    0    0  501    0  0.00000000000E+00  0.00000000000E+00 -0.14444069538E+03  0.14444069546E+03  0.50400001928E-02 0. -1.
    10030    2    1    2    0    0  0.00000000000E+00  0.00000000000E+00  0.27814955109E+03  0.56703094196E+03  0.49412236983E+03 0.  0.
        5    1    3    3  502    0 -0.40194333884E+02 -0.88025967655E+02  0.39988219918E+03  0.41145111335E+03  0.46999998093E+01 0.  1.
       -5    1    3    3    0  502  0.40194333884E+02  0.88025967655E+02 -0.12173264810E+03  0.15557982860E+03  0.46999998093E+01 0. -1.
</event>
<event>
 5   0  0.1227864E-02  0.5005445E+03  0.7818609E-02  0.1013637E+00
        1   -1    0    0  501    0  0.00000000000E+00  0.00000000000E+00  0.33981145040E+03  0.33981145043E+03  0.50400001928E-02 0.  1.
       -1   -1    0    0    0  501  0.00000000000E+00  0.00000000000E+00 -0.18432634285E+03  0.18432634291E+03  0.50400001928E-02 0. -1.
    10030    2    1    2    0    0  0.00000000000E+00  0.00000000000E+00  0.15548510755E+03  0.52413779335E+03  0.50054451125E+03 0.  0.
        5    1    3    3  502    0  0.60661874823E+02  0.15382636261E+03 -0.11891741353E+03  0.20372985577E+03  0.46999998093E+01 0. -1.
       -5    1    3    3    0  502 -0.60661874823E+02 -0.15382636261E+03  0.27440252108E+03  0.32040793758E+03  0.46999998093E+01 0.  1.
</event>
<event>
 5   0  0.1941387E-02  0.5003047E+03  0.7818609E-02  0.1013699E+00
        2   -1    0    0  501    0  0.00000000000E+00  0.00000000000E+00  0.59739854227E+03  0.59739854228E+03  0.25500000920E-02 0.  1.
       -2   -1    0    0    0  501  0.00000000000E+00  0.00000000000E+00 -0.10474784554E+03  0.10474784557E+03  0.25500000920E-02 0. -1.
    10030    2    1    2    0    0  0.00000000000E+00  0.00000000000E+00  0.49265069673E+03  0.70214638785E+03  0.50030474811E+03 0.  0.
        4    1    3    3  502    0  0.51084639599E+02  0.20356262340E+03  0.55296870322E+02  0.21704086900E+03  0.12699999809E+01 0. -1.
       -4    1    3    3    0  502 -0.51084639599E+02 -0.20356262340E+03  0.43735382641E+03  0.48510551885E+03  0.12699999809E+01 0.  1.
</event>
<event>
 5   0  0.1209831E-02  0.4997957E+03  0.7818609E-02  0.1013832E+00
        1   -1    0    0  501    0  0.00000000000E+00  0.00000000000E+00  0.14091311489E+03  0.14091311498E+03  0.50400001928E-02 0.  1.
       -1   -1    0    0    0  501  0.00000000000E+00  0.00000000000E+00 -0.44317332389E+03  0.44317332392E+03  0.50400001928E-02 0. -1.
    10030    2    1    2    0    0  0.00000000000E+00  0.00000000000E+00 -0.30226020900E+03  0.58408643890E+03  0.49979569242E+03 0.  0.
        4    1    3    3  502    0  0.15150456869E+03  0.70291861745E+02 -0.36836313629E+03  0.40445963116E+03  0.12699999809E+01 0. -1.
       -4    1    3    3    0  502 -0.15150456869E+03 -0.70291861745E+02  0.66102927295E+02  0.17962680773E+03  0.12699999809E+01 0.  1.
</event>
<event>
 5   0  0.1941387E-02  0.4973841E+03  0.7818609E-02  0.1014464E+00
       -2   -1    0    0    0  501  0.00000000000E+00  0.00000000000E+00  0.32503858199E+03  0.32503858200E+03  0.25500000920E-02 0.  1.
        2   -1    0    0  501    0  0.00000000000E+00  0.00000000000E+00 -0.19027811120E+03  0.19027811122E+03  0.25500000920E-02 0. -1.
    10030    2    1    2    0    0  0.00000000000E+00  0.00000000000E+00  0.13476047079E+03  0.51531669322E+03  0.49738406671E+03 0.  0.
        4    1    3    3  502    0  0.11244367974E+03 -0.15545297085E+03 -0.96555141323E+02  0.21478760550E+03  0.12699999809E+01 0. -1.
       -4    1    3    3    0  502 -0.11244367974E+03  0.15545297085E+03  0.23131561211E+03  0.30052908772E+03  0.12699999809E+01 0.  1.
</event>
<event>
 5   0  0.1180937E-02  0.4997850E+03  0.7818609E-02  0.1013835E+00
       -1   -1    0    0    0  501  0.00000000000E+00  0.00000000000E+00  0.10818457465E+03  0.10818457477E+03  0.50400001928E-02 0.  1.
        1   -1    0    0  501    0  0.00000000000E+00  0.00000000000E+00 -0.57721975636E+03  0.57721975638E+03  0.50400001928E-02 0. -1.
    10030    2    1    2    0    0  0.00000000000E+00  0.00000000000E+00 -0.46903518170E+03  0.68540433115E+03  0.49978504927E+03 0.  0.
        1    1    3    3  502    0  0.19460471217E+03  0.13991278554E+03 -0.13754807617E+03  0.27634408776E+03  0.50400001928E-02 0.  1.
       -1    1    3    3    0  502 -0.19460471217E+03 -0.13991278554E+03 -0.33148710553E+03  0.40906024338E+03  0.50400001928E-02 0. -1.
</event>
<event>
 5   0  0.1209831E-02  0.4990955E+03  0.7818609E-02  0.1014015E+00
       -1   -1    0    0    0  501  0.00000000000E+00  0.00000000000E+00  0.93970086348E+02  0.93970086483E+02  0.50400001928E-02 0. -1.
        1   -1    0    0  501    0  0.00000000000E+00  0.00000000000E+00 -0.66270120770E+03  0.66270120772E+03  0.50400001928E-02 0.  1.
    10030    2    1    2    0    0  0.00000000000E+00  0.00000000000E+00 -0.56873112136E+03  0.75667129421E+03  0.49909554103E+03 0.  0.
        4    1    3    3  502    0  0.23699232451E+03  0.77515439111E+02 -0.26932100851E+03  0.36702782415E+03  0.12699999809E+01 0.  1.
       -4    1    3    3    0  502 -0.23699232451E+03 -0.77515439111E+02 -0.29941011285E+03  0.38964347005E+03  0.12699999809E+01 0. -1.
</event>
<event>
 5   0  0.1217270E-02  0.4981969E+03  0.7818609E-02  0.1014251E+00
        1   -1    0    0  501    0  0.00000000000E+00  0.00000000000E+00  0.41851606989E+03  0.41851606992E+03  0.50400001928E-02 0.  1.
       -1   -1    0    0    0  501  0.00000000000E+00  0.00000000000E+00 -0.14826203007E+03  0.14826203016E+03  0.50400001928E-02 0. -1.
    10030    2    1    2    0    0  0.00000000000E+00  0.00000000000E+00  0.27025403982E+03  0.56677810008E+03  0.49819691758E+03 0.  0.
        2    1    3    3  502    0 -0.12018470540E+03  0.18538545451E+03  0.42324079567E+01  0.22097521001E+03  0.25500000920E-02 0. -1.
       -2    1    3    3    0  502  0.12018470540E+03 -0.18538545451E+03  0.26602163186E+03  0.34580289007E+03  0.25500000920E-02 0.  1.
</event>
<event>
 5   0  0.1855407E-02  0.4983735E+03  0.7818609E-02  0.1014204E+00
        2   -1    0    0  501    0  0.00000000000E+00  0.00000000000E+00  0.22783068780E+04  0.22783068780E+04  0.25500000920E-02 0. -1.
       -2   -1    0    0    0  501  0.00000000000E+00  0.00000000000E+00 -0.27254470047E+02  0.27254470166E+02  0.25500000920E-02 0.  1.
    10030    2    1    2    0    0  0.00000000000E+00  0.00000000000E+00  0.22510524080E+04  0.23055613482E+04  0.49837354145E+03 0.  0.
        1    1    3    3  502    0  0.19065644747E+03 -0.75613525984E+02  0.17802031625E+04  0.17919795161E+04  0.50400001928E-02 0. -1.
       -1    1    3    3    0  502 -0.19065644747E+03  0.75613525984E+02  0.47084924541E+03  0.51358183204E+03  0.50400001928E-02 0.  1.
</event>
<event>
 5   0  0.1180937E-02  0.5001423E+03  0.7818609E-02  0.1013742E+00
       -1   -1    0    0    0  501  0.00000000000E+00  0.00000000000E+00  0.27516527681E+03  0.27516527686E+03  0.50400001928E-02 0.  1.
        1   -1    0    0  501    0  0.00000000000E+00  0.00000000000E+00 -0.22726549563E+03  0.22726549569E+03  0.50400001928E-02 0. -1.
    10030    2    1    2    0    0  0.00000000000E+00  0.00000000000E+00  0.47899781181E+02  0.50243077255E+03  0.50014227192E+03 0.  0.
        1    1    3    3  502    0  0.64462765439E+02 -0.58253420466E+02  0.25951521067E+03  0.27367326087E+03  0.50400001928E-02 0.  1.
       -1    1    3    3    0  502 -0.64462765439E+02  0.58253420466E+02 -0.21161542949E+03  0.22875751167E+03  0.50400001928E-02 0. -1.
</event>
<event>
 5   0  0.1855407E-02  0.5024910E+03  0.7818609E-02  0.1013131E+00
       -2   -1    0    0    0  501  0.00000000000E+00  0.00000000000E+00  0.70357574452E+02  0.70357574498E+02  0.25500000920E-02 0.  1.
        2   -1    0    0  501    0  0.00000000000E+00  0.00000000000E+00 -0.89719271846E+03  0.89719271847E+03  0.25500000920E-02 0. -1.
    10030    2    1    2    0    0  0.00000000000E+00  0.00000000000E+00 -0.82683514401E+03  0.96755029297E+03  0.50249100892E+03 0.  0.
        1    1    3    3  502    0 -0.12104537350E+03  0.53995019722E+02 -0.82439894578E+03  0.83498566839E+03  0.50400001928E-02 0. -1.
       -1    1    3    3    0  502  0.12104537350E+03 -0.53995019722E+02 -0.24361982364E+01  0.13256462457E+03  0.50400001928E-02 0.  1.
</event>
<event>
 5   0  0.1982847E-02  0.4999061E+03  0.7818609E-02  0.1013803E+00
       -2   -1    0    0    0  501  0.00000000000E+00  0.00000000000E+00  0.30836809546E+02  0.30836809651E+02  0.25500000920E-02 0.  1.
        2   -1    0    0  501    0  0.00000000000E+00  0.00000000000E+00 -0.20260371712E+04  0.20260371712E+04  0.25500000920E-02 0. -1.
    10030    2    1    2    0    0  0.00000000000E+00  0.00000000000E+00 -0.19952003616E+04  0.20568739808E+04  0.49990608114E+03 0.  0.
        2    1    3    3  502    0  0.13217957827E+03 -0.16464750545E+03 -0.15480283530E+04  0.15623610414E+04  0.25500000920E-02 0. -1.
       -2    1    3    3    0  502 -0.13217957827E+03  0.16464750545E+03 -0.44717200865E+03  0.49451293945E+03  0.25500000920E-02 0.  1.
</event>
<event>
 5   0  0.1941387E-02  0.4995738E+03  0.7818609E-02  0.1013890E+00
       -2   -1    0    0    0  501  0.00000000000E+00  0.00000000000E+00  0.15680179699E+03  0.15680179701E+03  0.25500000920E-02 0. -1.
        2   -1    0    0  501    0  0.00000000000E+00  0.00000000000E+00 -0.39791321902E+03  0.39791321903E+03  0.25500000920E-02 0.  1.
    10030    2    1    2    0    0  0.00000000000E+00  0.00000000000E+00 -0.24111142203E+03  0.55471501604E+03  0.49957384958E+03 0.  0.
        4    1    3    3  502    0 -0.21430372968E+03 -0.49045666327E+01 -0.26293416283E+03  0.33924346746E+03  0.12699999809E+01 0.  1.
       -4    1    3    3    0  502  0.21430372968E+03  0.49045666327E+01  0.21822740794E+02  0.21547154858E+03  0.12699999809E+01 0. -1.
</event>
<event>
 5   0  0.1217270E-02  0.5005679E+03  0.7818609E-02  0.1013631E+00
       -1   -1    0    0    0  501  0.00000000000E+00  0.00000000000E+00  0.50412526698E+02  0.50412526950E+02  0.50400001928E-02 0. -1.
        1   -1    0    0  501    0  0.00000000000E+00  0.00000000000E+00 -0.12425891379E+04  0.12425891379E+04  0.50400001928E-02 0.  1.
    10030    2    1    2    0    0  0.00000000000E+00  0.00000000000E+00 -0.11921766112E+04  0.12930016648E+04  0.50056791051E+03 0.  0.
        2    1    3    3  502    0  0.91290206895E+02  0.14920718838E+03 -0.10584892718E+04  0.10728449215E+04  0.25500000920E-02 0.  1.
       -2    1    3    3    0  502 -0.91290206895E+02 -0.14920718838E+03 -0.13368733934E+03  0.22015674336E+03  0.25500000920E-02 0. -1.
</event>
<event>
 5   0  0.1180937E-02  0.5000323E+03  0.7818609E-02  0.1013770E+00
       -1   -1    0    0    0  501  0.00000000000E+00  0.00000000000E+00  0.10876358594E+03  0.10876358606E+03  0.50400001928E-02 0.  1.
        1   -1    0    0  501    0  0.00000000000E+00  0.00000000000E+00 -0.57471514930E+03  0.57471514932E+03  0.50400001928E-02 0. -1.
    10030    2    1    2    0    0  0.00000000000E+00  0.00000000000E+00 -0.46595156336E+03  0.68347873537E+03  0.50003232127E+03 0.  0.
        1    1    3    3  502    0 -0.15569291588E+03  0.97169626424E+02 -0.46504528239E+03  0.49994933249E+03  0.50400001928E-02 0. -1.
       -1    1    3    3    0  502  0.15569291588E+03 -0.97169626424E+02 -0.90628096369E+00  0.18352940289E+03  0.50400001928E-02 0.  1.
</event>
<event>
 5   0  0.1941387E-02  0.4991023E+03  0.7818609E-02  0.1014013E+00
        2   -1    0    0  501    0  0.00000000000E+00  0.00000000000E+00  0.12681536087E+03  0.12681536089E+03  0.25500000920E-02 0.  1.
       -2   -1    0    0    0  501  0.00000000000E+00  0.00000000000E+00 -0.49107446419E+03  0.49107446420E+03  0.25500000920E-02 0. -1.
    10030    2    1    2    0    0  0.00000000000E+00  0.00000000000E+00 -0.36425910333E+03  0.61788982509E+03  0.49910233579E+03 0.  0.
        4    1    3    3  502    0  0.22284875975E+03  0.10833829318E+03 -0.21875887797E+03  0.33053867411E+03  0.12699999809E+01 0.  1.
       -4    1    3    3    0  502 -0.22284875975E+03 -0.10833829318E+03 -0.14550022535E+03  0.28735115098E+03  0.12699999809E+01 0. -1.
</event>
<event>
 5   0  0.1923706E-02  0.5003440E+03  0.7818609E-02  0.1013689E+00
        2   -1    0    0  501    0  0.00000000000E+00  0.00000000000E+00  0.69287119854E+03  0.69287119854E+03  0.25500000920E-02 0. -1.
       -2   -1    0    0    0  501  0.00000000000E+00  0.00000000000E+00 -0.90328508692E+02  0.90328508728E+02  0.25500000920E-02 0.  1.
    10030    2    1    2    0    0  0.00000000000E+00  0.00000000000E+00  0.60254268985E+03  0.78319970727E+03  0.50034397007E+03 0.  0.
        3    1    3    3  502    0 -0.16016014047E+03  0.19205201105E+03  0.31242434771E+03  0.40018024537E+03  0.10100000352E+00 0. -1.
       -3    1    3    3    0  502  0.16016014047E+03 -0.19205201105E+03  0.29011834214E+03  0.38301946190E+03  0.10100000352E+00 0.  1.
</event>
<event>
 5   0  0.8012875E-03  0.4993949E+03  0.7818609E-02  0.1013937E+00
       -4   -1    0    0    0  501  0.00000000000E+00  0.00000000000E+00  0.15137304996E+03  0.15137837743E+03  0.12699999809E+01 0.  1.
        4   -1    0    0  501    0  0.00000000000E+00  0.00000000000E+00 -0.41187497956E+03  0.41187693755E+03  0.12699999809E+01 0. -1.
    10030    2    1    2    0    0  0.00000000000E+00  0.00000000000E+00 -0.26050192960E+03  0.56325531498E+03  0.49939492842E+03 0.  0.
        4    1    3    3  502    0 -0.18685302125E+03 -0.69915014670E+02 -0.29960157719E+03  0.35995121722E+03  0.12699999809E+01 0. -1.
       -4    1    3    3    0  502  0.18685302125E+03  0.69915014670E+02  0.39099647584E+02  0.20330409776E+03  0.12699999809E+01 0.  1.
</event>
<event>
 5   0  0.1227864E-02  0.5017582E+03  0.7818609E-02  0.1013321E+00
        1   -1    0    0  501    0  0.00000000000E+00  0.00000000000E+00  0.51789471609E+03  0.51789471611E+03  0.50400001928E-02 0.  1.
       -1   -1    0    0    0  501  0.00000000000E+00  0.00000000000E+00 -0.12153110541E+03  0.12153110551E+03  0.50400001928E-02 0. -1.
    10030    2    1    2    0    0  0.00000000000E+00  0.00000000000E+00  0.39636361068E+03  0.63942582163E+03  0.50175817830E+03 0.  0.
        5    1    3    3  502    0 -0.16207873821E+03 -0.11068542256E+03 -0.87081724446E+00  0.19632531286E+03  0.46999998093E+01 0. -1.
       -5    1    3    3    0  502  0.16207873821E+03  0.11068542256E+03  0.39723442792E+03  0.44310050877E+03  0.46999998093E+01 0.  1.
</event>
<event>
 5   0  0.1180937E-02  0.4992527E+03  0.7818609E-02  0.1013974E+00
       -1   -1    0    0    0  501  0.00000000000E+00  0.00000000000E+00  0.88076397649E+03  0.88076397650E+03  0.50400001928E-02 0.  1.
        1   -1    0    0  501    0  0.00000000000E+00  0.00000000000E+00 -0.70749170821E+02  0.70749171001E+02  0.50400001928E-02 0. -1.
    10030    2    1    2    0    0  0.00000000000E+00  0.00000000000E+00  0.81001480567E+03  0.95151314750E+03  0.49925272605E+03 0.  0.
        1    1    3    3  502    0  0.18390459192E+03 -0.40696185591E+02  0.92791368208E+02  0.20996979900E+03  0.50400001928E-02 0. -1.
       -1    1    3    3    0  502 -0.18390459192E+03  0.40696185591E+02  0.71722343746E+03  0.74154334851E+03  0.50400001928E-02 0.  1.
</event>
<event>
 5   0  0.1982847E-02  0.4998212E+03  0.7818609E-02  0.1013826E+00
       -2   -1    0    0    0  501  0.00000000000E+00  0.00000000000E+00  0.10799758727E+03  0.10799758730E+03  0.25500000920E-02 0. -1.
        2   -1    0    0  501    0  0.00000000000E+00  0.00000000000E+00 -0.57830280669E+03  0.57830280670E+03  0.25500000920E-02 0.  1.
    10030    2    1    2    0    0  0.00000000000E+00  0.00000000000E+00 -0.47030521942E+03  0.68630039400E+03  0.49982119941E+03 0.  0.
        2    1    3    3  502    0 -0.19713921352E+03  0.96395006901E+02 -0.39934729878E+03  0.45566888407E+03  0.25500000920E-02 0.  1.
       -2    1    3    3    0  502  0.19713921352E+03 -0.96395006901E+02 -0.70957920642E+02  0.23063150992E+03  0.25500000920E-02 0. -1.
</event>
<event>
 5   0  0.1941387E-02  0.4990595E+03  0.7818609E-02  0.1014025E+00
       -2   -1    0    0    0  501  0.00000000000E+00  0.00000000000E+00  0.12516221971E+03  0.12516221974E+03  0.25500000920E-02 0. -1.
        2   -1    0    0  501    0  0.00000000000E+00  0.00000000000E+00 -0.49747522790E+03  0.49747522790E+03  0.25500000920E-02 0.  1.
    10030    2    1    2    0    0  0.00000000000E+00  0.00000000000E+00 -0.37231300818E+03  0.62263744764E+03  0.49905953066E+03 0.  0.
        4    1    3    3  502    0  0.19393669522E+03  0.51221200727E+02 -0.98475354462E+00  0.20059320974E+03  0.12699999809E+01 0. -1.
       -4    1    3    3    0  502 -0.19393669522E+03 -0.51221200727E+02 -0.37132825464E+03  0.42204423790E+03  0.12699999809E+01 0.  1.
</event>
<event>
 5   0  0.1180937E-02  0.4994918E+03  0.7818609E-02  0.1013912E+00
        1   -1    0    0  501    0  0.00000000000E+00  0.00000000000E+00  0.10275741011E+03  0.10275741024E+03  0.50400001928E-02 0. -1.
       -1   -1    0    0    0  501  0.00000000000E+00  0.00000000000E+00 -0.60699291274E+03  0.60699291276E+03  0.50400001928E-02 0.  1.
    10030    2    1    2    0    0  0.00000000000E+00  0.00000000000E+00 -0.50423550262E+03  0.70975032300E+03  0.49949182064E+03 0.  0.
        1    1    3    3  502    0 -0.84154412170E+02 -0.19818282237E+03 -0.72298748562E+02  0.22712442678E+03  0.50400001928E-02 0. -1.
       -1    1    3    3    0  502  0.84154412170E+02  0.19818282237E+03 -0.43193675406E+03  0.48262589622E+03  0.50400001928E-02 0.  1.
</event>
<event>
 5   0  0.1180937E-02  0.4999664E+03  0.7818609E-02  0.1013788E+00
        1   -1    0    0  501    0  0.00000000000E+00  0.00000000000E+00  0.19311699980E+04  0.19311699980E+04  0.50400001928E-02 0.  1.
       -1   -1    0    0    0  501  0.00000000000E+00  0.00000000000E+00 -0.32359456816E+02  0.32359457209E+02  0.50400001928E-02 0. -1.
    10030    2    1    2    0    0  0.00000000000E+00  0.00000000000E+00  0.18988105411E+04  0.19635294552E+04  0.49996644906E+03 0.  0.
        1    1    3    3  502    0 -0.13724480491E+03  0.16663262023E+03  0.14444511720E+04  0.14604936682E+04  0.50400001928E-02 0.  1.
       -1    1    3    3    0  502  0.13724480491E+03 -0.16663262023E+03  0.45435936914E+03  0.50303578695E+03  0.50400001928E-02 0. -1.
</event>
<event>
 5   0  0.1923706E-02  0.4947457E+03  0.7818609E-02  0.1015160E+00
       -2   -1    0    0    0  501  0.00000000000E+00  0.00000000000E+00  0.60255572110E+03  0.60255572111E+03  0.25500000920E-02 0.  1.
        2   -1    0    0  501    0  0.00000000000E+00  0.00000000000E+00 -0.10155630396E+03  0.10155630400E+03  0.25500000920E-02 0. -1.
    10030    2    1    2    0    0  0.00000000000E+00  0.00000000000E+00  0.50099941714E+03  0.70411202510E+03  0.49474572047E+03 0.  0.
        3    1    3    3  502    0 -0.20270830038E+03 -0.10712729217E+03  0.38268245258E+03  0.44610848623E+03  0.10100000352E+00 0.  1.
       -3    1    3    3    0  502  0.20270830038E+03  0.10712729217E+03  0.11831696456E+03  0.25800353888E+03  0.10100000352E+00 0. -1.
</event>
<event>
 5   0  0.1209831E-02  0.4997150E+03  0.7818609E-02  0.1013853E+00
        1   -1    0    0  501    0  0.00000000000E+00  0.00000000000E+00  0.88309329974E+02  0.88309330118E+02  0.50400001928E-02 0.  1.
       -1   -1    0    0    0  501  0.00000000000E+00  0.00000000000E+00 -0.70693295251E+03  0.70693295253E+03  0.50400001928E-02 0. -1.
    10030    2    1    2    0    0  0.00000000000E+00  0.00000000000E+00 -0.61862362253E+03  0.79524228264E+03  0.49971502054E+03 0.  0.
        4    1    3    3  502    0  0.97809770893E+02  0.15022242957E+03 -0.32329051139E+02  0.18215463232E+03  0.12699999809E+01 0.  1.
       -4    1    3    3    0  502 -0.97809770893E+02 -0.15022242957E+03 -0.58629457139E+03  0.61308765032E+03  0.12699999809E+01 0. -1.
</event>
<event>
 5   0  0.1180937E-02  0.5002164E+03  0.7818609E-02  0.1013722E+00
        1   -1    0    0  501    0  0.00000000000E+00  0.00000000000E+00  0.48863240086E+03  0.48863240088E+03  0.50400001928E-02 0. -1.
       -1   -1    0    0    0  501  0.00000000000E+00  0.00000000000E+00 -0.12801877202E+03  0.12801877212E+03  0.50400001928E-02 0.  1.
    10030    2    1    2    0    0  0.00000000000E+00  0.00000000000E+00  0.36061362884E+03  0.61665117300E+03  0.50021643302E+03 0.  0.
        1    1    3    3  502    0 -0.18587497660E+03  0.72612302760E+02 -0.55596620304E+01  0.19963206983E+03  0.50400001928E-02 0.  1.
       -1    1    3    3    0  502  0.18587497660E+03 -0.72612302760E+02  0.36617329087E+03  0.41701910317E+03  0.50400001928E-02 0. -1.
</event>
<event>
 5   0  0.1227864E-02  0.4988130E+03  0.7818609E-02  0.1014089E+00
       -1   -1    0    0    0  501  0.00000000000E+00  0.00000000000E+00  0.29027826489E+02  0.29027826927E+02  0.50400001928E-02 0. -1.
        1   -1    0    0  501    0  0.00000000000E+00  0.00000000000E+00 -0.21428955305E+04  0.21428955305E+04  0.50400001928E-02 0.  1.
    10030    2    1    2    0    0  0.00000000000E+00  0.00000000000E+00 -0.21138677040E+04  0.21719233574E+04  0.49881299151E+03 0.  0.
        5    1    3    3  502    0 -0.12096054673E+02  0.24903874665E+03 -0.10737402419E+04  0.11023188327E+04  0.46999998093E+01 0.  1.
       -5    1    3    3    0  502  0.12096054673E+02 -0.24903874665E+03 -0.10401274621E+04  0.10696045247E+04  0.46999998093E+01 0. -1.
</event>
<event>
 5   0  0.1180937E-02  0.4949224E+03  0.7818609E-02  0.1015113E+00
       -1   -1    0    0    0  501  0.00000000000E+00  0.00000000000E+00  0.28506741639E+03  0.28506741644E+03  0.50400001928E-02 0.  1.
        1   -1    0    0  501    0  0.00000000000E+00  0.00000000000E+00 -0.21481601529E+03  0.21481601535E+03  0.50400001928E-02 0. -1.
    10030    2    1    2    0    0  0.00000000000E+00  0.00000000000E+00  0.70251401102E+02  0.49988343179E+03  0.49492240404E+03 0.  0.
        1    1    3    3  502    0  0.23407044430E+02  0.10556583508E+03 -0.18969256574E+03  0.21834675356E+03  0.50400001928E-02 0. -1.
       -1    1    3    3    0  502 -0.23407044430E+02 -0.10556583508E+03  0.25994396685E+03  0.28153667823E+03  0.50400001928E-02 0.  1.
</event>
<event>
 5   0  0.1180937E-02  0.4991053E+03  0.7818609E-02  0.1014013E+00
       -1   -1    0    0    0  501  0.00000000000E+00  0.00000000000E+00  0.36766720207E+02  0.36766720553E+02  0.50400001928E-02 0. -1.
        1   -1    0    0  501    0  0.00000000000E+00  0.00000000000E+00 -0.16938287543E+04  0.16938287543E+04  0.50400001928E-02 0.  1.
    10030    2    1    2    0    0  0.00000000000E+00  0.00000000000E+00 -0.16570620341E+04  0.17305954748E+04  0.49910531230E+03 0.  0.
        1    1    3    3  502    0  0.39565477684E+01 -0.10128026471E+03 -0.37819016548E+02  0.10818329043E+03  0.50400001928E-02 0. -1.
       -1    1    3    3    0  502 -0.39565477684E+01  0.10128026471E+03 -0.16192430175E+04  0.16224121844E+04  0.50400001928E-02 0.  1.
</event>
<event>
 5   0  0.1967813E-02  0.5002804E+03  0.7818609E-02  0.1013706E+00
        2   -1    0    0  501    0  0.00000000000E+00  0.00000000000E+00  0.11894525032E+04  0.11894525032E+04  0.25500000920E-02 0. -1.
       -2   -1    0    0    0  501  0.00000000000E+00  0.00000000000E+00 -0.52604136212E+02  0.52604136274E+02  0.25500000920E-02 0.  1.
    10030    2    1    2    0    0  0.00000000000E+00  0.00000000000E+00  0.11368483669E+04  0.12420566394E+04  0.50028040751E+03 0.  0.
        5    1    3    3  502    0 -0.91981964997E+02 -0.11243766496E+03  0.10738583690E+04  0.10836497576E+04  0.46999998093E+01 0. -1.
       -5    1    3    3    0  502  0.91981964997E+02  0.11243766496E+03  0.62989997944E+02  0.15840688187E+03  0.46999998093E+01 0.  1.
</event>
<event>
 5   0  0.8012875E-03  0.4996912E+03  0.7818609E-02  0.1013860E+00
       -3   -1    0    0    0  501  0.00000000000E+00  0.00000000000E+00  0.13486827865E+03  0.13486831647E+03  0.10100000352E+00 0.  1.
        3   -1    0    0  501    0  0.00000000000E+00  0.00000000000E+00 -0.46284273480E+03  0.46284274582E+03  0.10100000352E+00 0. -1.
    10030    2    1    2    0    0  0.00000000000E+00  0.00000000000E+00 -0.32797445615E+03  0.59771106229E+03  0.49969117472E+03 0.  0.
        5    1    3    3  502    0 -0.75658075633E+02  0.20972742058E+03 -0.29873990538E+03  0.37279666900E+03  0.46999998093E+01 0. -1.
       -5    1    3    3    0  502  0.75658075633E+02 -0.20972742058E+03 -0.29234550774E+02  0.22491439329E+03  0.46999998093E+01 0.  1.
</event>
<event>
 5   0  0.1209831E-02  0.4997093E+03  0.7818609E-02  0.1013855E+00
       -1   -1    0    0    0  501  0.00000000000E+00  0.00000000000E+00  0.96660079545E+02  0.96660079676E+02  0.50400001928E-02 0. -1.
        1   -1    0    0  501    0  0.00000000000E+00  0.00000000000E+00 -0.64584409282E+03  0.64584409284E+03  0.50400001928E-02 0.  1.
    10030    2    1    2    0    0  0.00000000000E+00  0.00000000000E+00 -0.54918401327E+03  0.74250417251E+03  0.49970928125E+03 0.  0.
        4    1    3    3  502    0  0.10793585972E+03  0.21925484276E+03 -0.35184154306E+03  0.42838874893E+03  0.12699999809E+01 0.  1.
       -4    1    3    3    0  502 -0.10793585972E+03 -0.21925484276E+03 -0.19734247022E+03  0.31411542359E+03  0.12699999809E+01 0. -1.
</event>
<event>
 5   0  0.1209831E-02  0.4996311E+03  0.7818609E-02  0.1013875E+00
       -1   -1    0    0    0  501  0.00000000000E+00  0.00000000000E+00  0.16520525658E+03  0.16520525665E+03  0.50400001928E-02 0.  1.
        1   -1    0    0  501    0  0.00000000000E+00  0.00000000000E+00 -0.37775928391E+03  0.37775928394E+03  0.50400001928E-02 0. -1.
    10030    2    1    2    0    0  0.00000000000E+00  0.00000000000E+00 -0.21255402733E+03  0.54296454059E+03  0.49963114175E+03 0.  0.
        4    1    3    3  502    0 -0.89574007628E+02 -0.25217592636E+02  0.14566359845E+03  0.17285521871E+03  0.12699999809E+01 0.  1.
       -4    1    3    3    0  502  0.89574007628E+02  0.25217592636E+02 -0.35821762579E+03  0.37010932188E+03  0.12699999809E+01 0. -1.
</event>
<event>
 5   0  0.1180937E-02  0.4984290E+03  0.7818609E-02  0.1014190E+00
        1   -1    0    0  501    0  0.00000000000E+00  0.00000000000E+00  0.14680879069E+04  0.14680879069E+04  0.50400001928E-02 0. -1.
       -1   -1    0    0    0  501  0.00000000000E+00  0.00000000000E+00 -0.42305284393E+02  0.42305284693E+02  0.50400001928E-02 0.  1.
    10030    2    1    2    0    0  0.00000000000E+00  0.00000000000E+00  0.14257826225E+04  0.15103931916E+04  0.49842903867E+03 0.  0.
        1    1    3    3  502    0  0.11707879579E+03  0.12022374770E+03  0.15456852430E+03  0.22815043867E+03  0.50400001928E-02 0.  1.
       -1    1    3    3    0  502 -0.11707879579E+03 -0.12022374770E+03  0.12712140982E+04  0.12822427529E+04  0.50400001928E-02 0. -1.
</event>
<event>
 5   0  0.1967813E-02  0.4990421E+03  0.7818609E-02  0.1014029E+00
        2   -1    0    0  501    0  0.00000000000E+00  0.00000000000E+00  0.84244168542E+02  0.84244168580E+02  0.25500000920E-02 0. -1.
       -2   -1    0    0    0  501  0.00000000000E+00  0.00000000000E+00 -0.73905114708E+03  0.73905114708E+03  0.25500000920E-02 0.  1.
    10030    2    1    2    0    0  0.00000000000E+00  0.00000000000E+00 -0.65480697854E+03  0.82329531566E+03  0.49904208004E+03 0.  0.
        5    1    3    3  502    0 -0.12253605189E+03 -0.18996300074E+02  0.29731338255E+02  0.12760088520E+03  0.46999998093E+01 0. -1.
       -5    1    3    3    0  502  0.12253605189E+03  0.18996300074E+02 -0.68453831679E+03  0.69569443047E+03  0.46999998093E+01 0.  1.
</event>
<event>
 5   0  0.8012875E-03  0.4977262E+03  0.7818609E-02  0.1014374E+00
        3   -1    0    0  501    0  0.00000000000E+00  0.00000000000E+00  0.57331444678E+03  0.57331445568E+03  0.10100000352E+00 0. -1.
       -3   -1    0    0    0  501  0.00000000000E+00  0.00000000000E+00 -0.10802594156E+03  0.10802598877E+03  0.10100000352E+00 0.  1.
    10030    2    1    2    0    0  0.00000000000E+00  0.00000000000E+00  0.46528850522E+03  0.68134044445E+03  0.49772623816E+03 0.  0.
        1    1    3    3  502    0 -0.17419661627E+03 -0.16586498123E+03  0.32005293683E+03  0.40036175581E+03  0.50400001928E-02 0. -1.
       -1    1    3    3    0  502  0.17419661627E+03  0.16586498123E+03  0.14523556839E+03  0.28097868864E+03  0.50400001928E-02 0.  1.
</event>
<event>
 5   0  0.1941387E-02  0.4997671E+03  0.7818609E-02  0.1013840E+00
       -2   -1    0    0    0  501  0.00000000000E+00  0.00000000000E+00  0.12335028964E+03  0.12335028967E+03  0.25500000920E-02 0.  1.
        2   -1    0    0  501    0  0.00000000000E+00  0.00000000000E+00 -0.50621520936E+03  0.50621520936E+03  0.25500000920E-02 0. -1.
    10030    2    1    2    0    0  0.00000000000E+00  0.00000000000E+00 -0.38286491972E+03  0.62956549903E+03  0.49976711659E+03 0.  0.
        4    1    3    3  502    0 -0.24435620850E+03  0.38618942068E+02 -0.23577023802E+03  0.34174639333E+03  0.12699999809E+01 0.  1.
       -4    1    3    3    0  502  0.24435620850E+03 -0.38618942068E+02 -0.14709468170E+03  0.28781910570E+03  0.12699999809E+01 0. -1.
</event>
<event>
 5   0  0.1227864E-02  0.4999944E+03  0.7818609E-02  0.1013780E+00
       -1   -1    0    0    0  501  0.00000000000E+00  0.00000000000E+00  0.90370320789E+02  0.90370320930E+02  0.50400001928E-02 0. -1.
        1   -1    0    0  501    0  0.00000000000E+00  0.00000000000E+00 -0.69158335175E+03  0.69158335177E+03  0.50400001928E-02 0.  1.
    10030    2    1    2    0    0  0.00000000000E+00  0.00000000000E+00 -0.60121303096E+03  0.78195367270E+03  0.49999443762E+03 0.  0.
        5    1    3    3  502    0  0.17664774108E+02 -0.19385008108E+03 -0.55381214455E+02  0.20243287058E+03  0.46999998093E+01 0. -1.
       -5    1    3    3    0  502 -0.17664774108E+02  0.19385008108E+03 -0.54583181651E+03  0.57952080212E+03  0.46999998093E+01 0.  1.
</event>
<event>
 5   0  0.1941387E-02  0.5003542E+03  0.7818609E-02  0.1013687E+00
        2   -1    0    0  501    0  0.00000000000E+00  0.00000000000E+00  0.33318940906E+03  0.33318940907E+03  0.25500000920E-02 0. -1.
       -2   -1    0    0    0  501  0.00000000000E+00  0.00000000000E+00 -0.18784685107E+03  0.18784685109E+03  0.25500000920E-02 0.  1.
    10030    2    1    2    0    0  0.00000000000E+00  0.00000000000E+00  0.14534255799E+03  0.52103626016E+03  0.50035419979E+03 0.  0.
        4    1    3    3  502    0 -0.10856478869E+03  0.18151772135E+03 -0.66462793041E+02  0.22170681602E+03  0.12699999809E+01 0.  1.
       -4    1    3    3    0  502  0.10856478869E+03 -0.18151772135E+03  0.21180535103E+03  0.29932944415E+03  0.12699999809E+01 0. -1.
</event>
<event>
 5   0  0.1225989E-02  0.4942003E+03  0.7818609E-02  0.1015304E+00
       -1   -1    0    0    0  501  0.00000000000E+00  0.00000000000E+00  0.44274395138E+02  0.44274395425E+02  0.50400001928E-02 0. -1.
        1   -1    0    0  501    0  0.00000000000E+00  0.00000000000E+00 -0.13790925148E+04  0.13790925148E+04  0.50400001928E-02 0.  1.
    10030    2    1    2    0    0  0.00000000000E+00  0.00000000000E+00 -0.13348181196E+04  0.14233669102E+04  0.49420031219E+03 0.  0.
        3    1    3    3  502    0  0.27305824246E+01 -0.18524916929E+03 -0.11383255757E+04  0.11533038790E+04  0.10100000352E+00 0.  1.
       -3    1    3    3    0  502 -0.27305824246E+01  0.18524916929E+03 -0.19649254391E+03  0.27006303119E+03  0.10100000352E+00 0. -1.
</event>
<event>
 5   0  0.1982847E-02  0.4999074E+03  0.7818609E-02  0.1013803E+00
       -2   -1    0    0    0  501  0.00000000000E+00  0.00000000000E+00  0.11624333022E+03  0.11624333025E+03  0.25500000920E-02 0. -1.
        2   -1    0    0  501    0  0.00000000000E+00  0.00000000000E+00 -0.53746601929E+03  0.53746601930E+03  0.25500000920E-02 0.  1.
    10030    2    1    2    0    0  0.00000000000E+00  0.00000000000E+00 -0.42122268907E+03  0.65370934955E+03  0.49990735131E+03 0.  0.
        2    1    3    3  502    0  0.15780466527E+03 -0.43494806378E+02 -0.45762684496E+03  0.48602102814E+03  0.25500000920E-02 0.  1.
       -2    1    3    3    0  502 -0.15780466527E+03  0.43494806378E+02  0.36404155892E+02  0.16768832140E+03  0.25500000920E-02 0. -1.
</event>
<event>
 5   0  0.1855407E-02  0.5000738E+03  0.7818609E-02  0.1013760E+00
        2   -1    0    0  501    0  0.00000000000E+00  0.00000000000E+00  0.58259550322E+02  0.58259550378E+02  0.25500000920E-02 0. -1.
       -2   -1    0    0    0  501  0.00000000000E+00  0.00000000000E+00 -0.10731021574E+04  0.10731021574E+04  0.25500000920E-02 0.  1.
    10030    2    1    2    0    0  0.00000000000E+00  0.00000000000E+00 -0.10148426070E+04  0.11313617077E+04  0.50007379123E+03 0.  0.
        1    1    3    3  502    0  0.15904452963E+03 -0.19200666686E+03 -0.46469108243E+03  0.52735142423E+03  0.50400001928E-02 0. -1.
       -1    1    3    3    0  502 -0.15904452963E+03  0.19200666686E+03 -0.55015152460E+03  0.60401028350E+03  0.50400001928E-02 0.  1.
</event>
<event>
 5   0  0.8012875E-03  0.4998718E+03  0.7818609E-02  0.1013812E+00
        3   -1    0    0  501    0  0.00000000000E+00  0.00000000000E+00  0.99089163537E+03  0.99089164052E+03  0.10100000352E+00 0. -1.
       -3   -1    0    0    0  501  0.00000000000E+00  0.00000000000E+00 -0.63042131083E+02  0.63042211989E+02  0.10100000352E+00 0.  1.
    10030    2    1    2    0    0  0.00000000000E+00  0.00000000000E+00  0.92784950429E+03  0.10539338525E+04  0.49987184643E+03 0.  0.
        4    1    3    3  502    0 -0.18232299949E+03 -0.13696670295E+03  0.24823966328E+03  0.33708470328E+03  0.12699999809E+01 0.  1.
       -4    1    3    3    0  502  0.18232299949E+03  0.13696670295E+03  0.67960984100E+03  0.71684914923E+03  0.12699999809E+01 0. -1.
</event>
<event>
 5   0  0.1217270E-02  0.4997649E+03  0.7818609E-02  0.1013840E+00
        1   -1    0    0  501    0  0.00000000000E+00  0.00000000000E+00  0.61989363494E+02  0.61989363699E+02  0.50400001928E-02 0.  1.
       -1   -1    0    0    0  501  0.00000000000E+00  0.00000000000E+00 -0.10072896414E+04  0.10072896415E+04  0.50400001928E-02 0. -1.
    10030    2    1    2    0    0  0.00000000000E+00  0.00000000000E+00 -0.94530027794E+03  0.10692790052E+04  0.49976492011E+03 0.  0.
        2    1    3    3  502    0  0.20713715122E+03  0.12009086554E+03 -0.31965069400E+03  0.39937974609E+03  0.25500000920E-02 0.  1.
       -2    1    3    3    0  502 -0.20713715122E+03 -0.12009086554E+03 -0.62564958394E+03  0.66989925906E+03  0.25500000920E-02 0. -1.
</event>
<event>
 5   0  0.1855407E-02  0.4990841E+03  0.7818609E-02  0.1014018E+00
        2   -1    0    0  501    0  0.00000000000E+00  0.00000000000E+00  0.11731498974E+04  0.11731498974E+04  0.25500000920E-02 0. -1.
       -2   -1    0    0    0  501  0.00000000000E+00  0.00000000000E+00 -0.53080367924E+02  0.53080367985E+02  0.25500000920E-02 0.  1.
    10030    2    1    2    0    0  0.00000000000E+00  0.00000000000E+00  0.11200695295E+04  0.12262302654E+04  0.49908407397E+03 0.  0.
        1    1    3    3  502    0 -0.13489959360E+03 -0.13230411710E+03  0.15955045808E+03  0.24730270612E+03  0.50400001928E-02 0.  1.
       -1    1    3    3    0  502  0.13489959360E+03  0.13230411710E+03  0.96051907141E+03  0.97892755929E+03  0.50400001928E-02 0. -1.
</event>
<event>
 5   0  0.8012875E-03  0.4997497E+03  0.7818609E-02  0.1013844E+00
        4   -1    0    0  501    0  0.00000000000E+00  0.00000000000E+00  0.29655191677E+03  0.29655463618E+03  0.12699999809E+01 0.  1.
       -4   -1    0    0    0  501  0.00000000000E+00  0.00000000000E+00 -0.21053909413E+03  0.21054292450E+03  0.12699999809E+01 0. -1.
    10030    2    1    2    0    0  0.00000000000E+00  0.00000000000E+00  0.86012822634E+02  0.50709756068E+03  0.49974966772E+03 0.  0.
        2    1    3    3  502    0  0.14460247387E+03  0.13600076775E+02 -0.16331194736E+03  0.21855349389E+03  0.25500000920E-02 0. -1.
       -2    1    3    3    0  502 -0.14460247387E+03 -0.13600076775E+02  0.24932476999E+03  0.28854406678E+03  0.25500000920E-02 0.  1.
</event>
<event>
 5   0  0.1941387E-02  0.4999547E+03  0.7818609E-02  0.1013791E+00
        2   -1    0    0  501    0  0.00000000000E+00  0.00000000000E+00  0.53612377058E+03  0.53612377059E+03  0.25500000920E-02 0. -1.
       -2   -1    0    0    0  501  0.00000000000E+00  0.00000000000E+00 -0.11655641274E+03  0.11655641277E+03  0.25500000920E-02 0.  1.
    10030    2    1    2    0    0  0.00000000000E+00  0.00000000000E+00  0.41956735784E+03  0.65268018336E+03  0.49995465193E+03 0.  0.
        4    1    3    3  502    0  0.24748690916E+03 -0.33009294654E+02  0.19391972897E+03  0.31614214829E+03  0.12699999809E+01 0.  1.
       -4    1    3    3    0  502 -0.24748690916E+03  0.33009294654E+02  0.22564762886E+03  0.33653803507E+03  0.12699999809E+01 0. -1.
</event>
<event>
 5   0  0.1923706E-02  0.4983313E+03  0.7818609E-02  0.1014215E+00
        2   -1    0    0  501    0  0.00000000000E+00  0.00000000000E+00  0.29227921512E+03  0.29227921513E+03  0.25500000920E-02 0.  1.
       -2   -1    0    0    0  501  0.00000000000E+00  0.00000000000E+00 -0.21241171390E+03  0.21241171391E+03  0.25500000920E-02 0. -1.
    10030    2    1    2    0    0  0.00000000000E+00  0.00000000000E+00  0.79867501224E+02  0.50469092904E+03  0.49833133165E+03 0.  0.
        3    1    3    3  502    0 -0.65824932007E+02 -0.17260270254E+03 -0.12940929992E+03  0.22554687252E+03  0.10100000352E+00 0. -1.
       -3    1    3    3    0  502  0.65824932007E+02  0.17260270254E+03  0.20927680114E+03  0.27914405653E+03  0.10100000352E+00 0.  1.
</event>
<event>
 5   0  0.1217270E-02  0.4994704E+03  0.7818609E-02  0.1013917E+00
       -1   -1    0    0    0  501  0.00000000000E+00  0.00000000000E+00  0.12491329687E+03  0.12491329698E+03  0.50400001928E-02 0. -1.
        1   -1    0    0  501    0  0.00000000000E+00  0.00000000000E+00 -0.49928770982E+03  0.49928770984E+03  0.50400001928E-02 0.  1.
    10030    2    1    2    0    0  0.00000000000E+00  0.00000000000E+00 -0.37437441294E+03  0.62420100682E+03  0.49947041539E+03 0.  0.
        2    1    3    3  502    0  0.11430898834E+03 -0.53664921500E+02 -0.45644786404E+03  0.47359383569E+03  0.25500000920E-02 0.  1.
       -2    1    3    3    0  502 -0.11430898834E+03  0.53664921500E+02  0.82073451093E+02  0.15060717113E+03  0.25500000920E-02 0. -1.
</event>
<event>
 5   0  0.1209831E-02  0.4999473E+03  0.7818609E-02  0.1013793E+00
        1   -1    0    0  501    0  0.00000000000E+00  0.00000000000E+00  0.79144161914E+03  0.79144161916E+03  0.50400001928E-02 0. -1.
       -1   -1    0    0    0  501  0.00000000000E+00  0.00000000000E+00 -0.78953184855E+02  0.78953185016E+02  0.50400001928E-02 0.  1.
    10030    2    1    2    0    0  0.00000000000E+00  0.00000000000E+00  0.71248843429E+03  0.87039480417E+03  0.49994734337E+03 0.  0.
        4    1    3    3  502    0 -0.66813451802E+02 -0.21395388675E+03  0.16359377402E+03  0.27749745728E+03  0.12699999809E+01 0.  1.
       -4    1    3    3    0  502  0.66813451802E+02  0.21395388675E+03  0.54889466026E+03  0.59289734690E+03  0.12699999809E+01 0. -1.
</event>
<event>
 5   0  0.1225989E-02  0.5001515E+03  0.7818609E-02  0.1013739E+00
        1   -1    0    0  501    0  0.00000000000E+00  0.00000000000E+00  0.85817436900E+02  0.85817437048E+02  0.50400001928E-02 0.  1.
       -1   -1    0    0    0  501  0.00000000000E+00  0.00000000000E+00 -0.72873169162E+03  0.72873169163E+03  0.50400001928E-02 0. -1.
    10030    2    1    2    0    0  0.00000000000E+00  0.00000000000E+00 -0.64291425472E+03  0.81454912868E+03  0.50015152116E+03 0.  0.
        3    1    3    3  502    0 -0.12851711341E+03 -0.20318380721E+03 -0.20936027653E+03  0.31879780981E+03  0.10100000352E+00 0.  1.
       -3    1    3    3    0  502  0.12851711341E+03  0.20318380721E+03 -0.43355397819E+03  0.49575131887E+03  0.10100000352E+00 0. -1.
</event>
<event>
 5   0  0.1180937E-02  0.5020154E+03  0.7818609E-02  0.1013254E+00
       -1   -1    0    0    0  501  0.00000000000E+00  0.00000000000E+00  0.12498728560E+03  0.12498728571E+03  0.50400001928E-02 0. -1.
        1   -1    0    0  501    0  0.00000000000E+00  0.00000000000E+00 -0.50409025148E+03  0.50409025151E+03  0.50400001928E-02 0.  1.
    10030    2    1    2    0    0  0.00000000000E+00  0.00000000000E+00 -0.37910296588E+03  0.62907753721E+03  0.50201542714E+03 0.  0.
        1    1    3    3  502    0 -0.22810706455E+03  0.87998876662E+02 -0.11835315024E+03  0.27163229445E+03  0.50400001928E-02 0. -1.
       -1    1    3    3    0  502  0.22810706455E+03 -0.87998876662E+02 -0.26074981563E+03  0.35744524276E+03  0.50400001928E-02 0.  1.
</event>
<event>
 5   0  0.1855407E-02  0.4994299E+03  0.7818609E-02  0.1013928E+00
        2   -1    0    0  501    0  0.00000000000E+00  0.00000000000E+00  0.52037223000E+03  0.52037223001E+03  0.25500000920E-02 0.  1.
       -2   -1    0    0    0  501  0.00000000000E+00  0.00000000000E+00 -0.11983258651E+03  0.11983258654E+03  0.25500000920E-02 0. -1.
    10030    2    1    2    0    0  0.00000000000E+00  0.00000000000E+00  0.40053964349E+03  0.64020481655E+03  0.49942987609E+03 0.  0.
        1    1    3    3  502    0 -0.69154063871E+02  0.19459041035E+03  0.20305694295E+02  0.20750911690E+03  0.50400001928E-02 0.  1.
       -1    1    3    3    0  502  0.69154063871E+02 -0.19459041035E+03  0.38023394919E+03  0.43269569965E+03  0.50400001928E-02 0. -1.
</event>
<event>
 5   0  0.1923706E-02  0.4942093E+03  0.7818609E-02  0.1015302E+00
        2   -1    0    0  501    0  0.00000000000E+00  0.00000000000E+00  0.64873878203E+02  0.64873878253E+02  0.25500000920E-02 0. -1.
       -2   -1    0    0    0  501  0.00000000000E+00  0.00000000000E+00 -0.94122196946E+03  0.94122196947E+03  0.25500000920E-02 0.  1.
    10030    2    1    2    0    0  0.00000000000E+00  0.00000000000E+00 -0.87634809126E+03  0.10060958477E+04  0.49420934607E+03 0.  0.
        3    1    3    3  502    0 -0.22837712194E+03  0.83842669880E+02 -0.52632555383E+03  0.57983127022E+03  0.10100000352E+00 0. -1.
       -3    1    3    3    0  502  0.22837712194E+03 -0.83842669880E+02 -0.35002253743E+03  0.42626457750E+03  0.10100000352E+00 0.  1.
</event>
<event>
 5   0  0.1982847E-02  0.4955236E+03  0.7818609E-02  0.1014954E+00
        2   -1    0    0  501    0  0.00000000000E+00  0.00000000000E+00  0.15526199080E+03  0.15526199082E+03  0.25500000920E-02 0. -1.
       -2   -1    0    0    0  501  0.00000000000E+00  0.00000000000E+00 -0.39536986726E+03  0.39536986727E+03  0.25500000920E-02 0.  1.
    10030    2    1    2    0    0  0.00000000000E+00  0.00000000000E+00 -0.24010787647E+03  0.55063185809E+03  0.49552361276E+03 0.  0.
        2    1    3    3  502    0  0.57822125956E+00  0.24842426947E+02  0.15387379038E+03  0.15586732785E+03  0.25500000920E-02 0. -1.
       -2    1    3    3    0  502 -0.57822125956E+00 -0.24842426947E+02 -0.39398166685E+03  0.39476453024E+03  0.25500000920E-02 0.  1.
</event>
<event>
 5   0  0.1180937E-02  0.5013802E+03  0.7818609E-02  0.1013419E+00
        1   -1    0    0  501    0  0.00000000000E+00  0.00000000000E+00  0.21734036618E+03  0.21734036623E+03  0.50400001928E-02 0.  1.
       -1   -1    0    0    0  501  0.00000000000E+00  0.00000000000E+00 -0.28915716676E+03  0.28915716680E+03  0.50400001928E-02 0. -1.
    10030    2    1    2    0    0  0.00000000000E+00  0.00000000000E+00 -0.71816800581E+02  0.50649753303E+03  0.50138019319E+03 0.  0.
        1    1    3    3  502    0  0.11751071735E+03 -0.98392922046E+02 -0.23631562215E+03  0.28166471042E+03  0.50400001928E-02 0. -1.
       -1    1    3    3    0  502 -0.11751071735E+03  0.98392922046E+02  0.16449882157E+03  0.22483282261E+03  0.50400001928E-02 0.  1.
</event>
<event>
 5   0  0.1982847E-02  0.4995190E+03  0.7818609E-02  0.1013905E+00
        2   -1    0    0  501    0  0.00000000000E+00  0.00000000000E+00  0.54657370303E+03  0.54657370304E+03  0.25500000920E-02 0. -1.
       -2   -1    0    0    0  501  0.00000000000E+00  0.00000000000E+00 -0.11412880728E+03  0.11412880730E+03  0.25500000920E-02 0.  1.
    10030    2    1    2    0    0  0.00000000000E+00  0.00000000000E+00  0.43244489576E+03  0.66070251034E+03  0.49951898793E+03 0.  0.
        2    1    3    3  502    0  0.10729680376E+03  0.16660927937E+03  0.41728921330E+03  0.46195404924E+03  0.25500000920E-02 0. -1.
       -2    1    3    3    0  502 -0.10729680376E+03 -0.16660927937E+03  0.15155682458E+02  0.19874846110E+03  0.25500000920E-02 0.  1.
</event>
<event>
 5   0  0.1180937E-02  0.4994563E+03  0.7818609E-02  0.1013921E+00
       -1   -1    0    0    0  501  0.00000000000E+00  0.00000000000E+00  0.50046039686E+02  0.50046039940E+02  0.50400001928E-02 0. -1.
        1   -1    0    0  501    0  0.00000000000E+00  0.00000000000E+00 -0.12461356530E+04  0.12461356531E+04  0.50400001928E-02 0.  1.
    10030    2    1    2    0    0  0.00000000000E+00  0.00000000000E+00 -0.11960896134E+04  0.12961816930E+04  0.49945632249E+03 0.  0.
        1    1    3    3  502    0  0.57365903511E+02  0.18716288745E+02 -0.12269316592E+04  0.12284146054E+04  0.50400001928E-02 0.  1.
       -1    1    3    3    0  502 -0.57365903511E+02 -0.18716288745E+02  0.30842045822E+02  0.67767087630E+02  0.50400001928E-02 0. -1.
</event>
<event>
 5   0  0.1227864E-02  0.4998814E+03  0.7818609E-02  0.1013810E+00
        1   -1    0    0  501    0  0.00000000000E+00  0.00000000000E+00  0.30894258193E+03  0.30894258198E+03  0.50400001928E-02 0. -1.
       -1   -1    0    0    0  501  0.00000000000E+00  0.00000000000E+00 -0.20220697524E+03  0.20220697530E+03  0.50400001928E-02 0.  1.
    10030    2    1    2    0    0  0.00000000000E+00  0.00000000000E+00  0.10673560670E+03  0.51114955728E+03  0.49988136609E+03 0.  0.
        5    1    3    3  502    0  0.15318782102E+03  0.76761629923E+02 -0.13263756498E+03  0.21673409971E+03  0.46999998093E+01 0.  1.
       -5    1    3    3    0  502 -0.15318782102E+03 -0.76761629923E+02  0.23937317168E+03  0.29441545756E+03  0.46999998093E+01 0. -1.
</event>
<event>
 5   0  0.1941387E-02  0.5002085E+03  0.7818609E-02  0.1013725E+00
       -2   -1    0    0    0  501  0.00000000000E+00  0.00000000000E+00  0.73057834503E+02  0.73057834548E+02  0.25500000920E-02 0.  1.
        2   -1    0    0  501    0  0.00000000000E+00  0.00000000000E+00 -0.85620016008E+03  0.85620016009E+03  0.25500000920E-02 0. -1.
    10030    2    1    2    0    0  0.00000000000E+00  0.00000000000E+00 -0.78314232558E+03  0.92925799464E+03  0.50020847502E+03 0.  0.
        4    1    3    3  502    0  0.37189420410E+02 -0.24654599410E+03 -0.35523645152E+03  0.43400752250E+03  0.12699999809E+01 0.  1.
       -4    1    3    3    0  502 -0.37189420410E+02  0.24654599410E+03 -0.42790587406E+03  0.49525047214E+03  0.12699999809E+01 0. -1.
</event>
<event>
 5   0  0.1180937E-02  0.5010667E+03  0.7818609E-02  0.1013501E+00
        1   -1    0    0  501    0  0.00000000000E+00  0.00000000000E+00  0.11501502888E+04  0.11501502888E+04  0.50400001928E-02 0.  1.
       -1   -1    0    0    0  501  0.00000000000E+00  0.00000000000E+00 -0.54572832123E+02  0.54572832356E+02  0.50400001928E-02 0. -1.
    10030    2    1    2    0    0  0.00000000000E+00  0.00000000000E+00  0.10955774567E+04  0.12047231212E+04  0.50106669725E+03 0.  0.
        1    1    3    3  502    0 -0.15060602193E+03 -0.60768971299E+02  0.10064522206E+04  0.10194709972E+04  0.50400001928E-02 0.  1.
       -1    1    3    3    0  502  0.15060602193E+03  0.60768971299E+02  0.89125236095E+02  0.18525212400E+03  0.50400001928E-02 0. -1.
</event>
<event>
 5   0  0.1227864E-02  0.4997971E+03  0.7818609E-02  0.1013832E+00
       -1   -1    0    0    0  501  0.00000000000E+00  0.00000000000E+00  0.61303881128E+02  0.61303881335E+02  0.50400001928E-02 0.  1.
        1   -1    0    0  501    0  0.00000000000E+00  0.00000000000E+00 -0.10186840550E+04  0.10186840550E+04  0.50400001928E-02 0. -1.
    10030    2    1    2    0    0  0.00000000000E+00  0.00000000000E+00 -0.95738017386E+03  0.10799879363E+04  0.49979710416E+03 0.  0.
        5    1    3    3  502    0  0.21589688344E+03 -0.12035212056E+03 -0.39985303617E+03  0.47010704923E+03  0.46999998093E+01 0.  1.
       -5    1    3    3    0  502 -0.21589688344E+03  0.12035212056E+03 -0.55752713769E+03  0.60988088711E+03  0.46999998093E+01 0. -1.
</event>
<event>
 5   0  0.1180937E-02  0.4988864E+03  0.7818609E-02  0.1014070E+00
       -1   -1    0    0    0  501  0.00000000000E+00  0.00000000000E+00  0.14163048151E+03  0.14163048160E+03  0.50400001928E-02 0.  1.
        1   -1    0    0  501    0  0.00000000000E+00  0.00000000000E+00 -0.43932571027E+03  0.43932571030E+03  0.50400001928E-02 0. -1.
    10030    2    1    2    0    0  0.00000000000E+00  0.00000000000E+00 -0.29769522876E+03  0.58095619190E+03  0.49888640759E+03 0.  0.
        1    1    3    3  502    0 -0.19317525070E+03  0.83088650233E+02 -0.30508903847E+03  0.37053977209E+03  0.50400001928E-02 0. -1.
       -1    1    3    3    0  502  0.19317525070E+03 -0.83088650233E+02  0.73938097055E+01  0.21041641982E+03  0.50400001928E-02 0.  1.
</event>
<event>
 5   0  0.8012875E-03  0.4996563E+03  0.7818609E-02  0.1013869E+00
        4   -1    0    0  501    0  0.00000000000E+00  0.00000000000E+00  0.68194536637E+02  0.68206361339E+02  0.12699999809E+01 0. -1.
       -4   -1    0    0    0  501  0.00000000000E+00  0.00000000000E+00 -0.91514443405E+03  0.91514531528E+03  0.12699999809E+01 0.  1.
    10030    2    1    2    0    0  0.00000000000E+00  0.00000000000E+00 -0.84694989741E+03  0.98335167661E+03  0.49965627303E+03 0.  0.
        5    1    3    3  502    0 -0.48271729811E+02  0.21145742527E+03 -0.17966140445E+03  0.28168193561E+03  0.46999998093E+01 0. -1.
       -5    1    3    3    0  502  0.48271729811E+02 -0.21145742527E+03 -0.66728849296E+03  0.70166974100E+03  0.46999998093E+01 0.  1.
</event>
<event>
 5   0  0.1217270E-02  0.4996137E+03  0.7818609E-02  0.1013880E+00
        1   -1    0    0  501    0  0.00000000000E+00  0.00000000000E+00  0.36254818111E+03  0.36254818115E+03  0.50400001928E-02 0.  1.
       -1   -1    0    0    0  501  0.00000000000E+00  0.00000000000E+00 -0.17212462527E+03  0.17212462534E+03  0.50400001928E-02 0. -1.
    10030    2    1    2    0    0  0.00000000000E+00  0.00000000000E+00  0.19042355584E+03  0.53467280649E+03  0.49961373017E+03 0.  0.
        2    1    3    3  502    0 -0.15361243421E+03  0.18774692617E+03  0.15904450141E+03  0.29007040811E+03  0.25500000920E-02 0.  1.
       -2    1    3    3    0  502  0.15361243421E+03 -0.18774692617E+03  0.31379054439E+02  0.24460239838E+03  0.25500000920E-02 0. -1.
</event>
<event>
 5   0  0.8012875E-03  0.5000265E+03  0.7818609E-02  0.1013772E+00
        3   -1    0    0  501    0  0.00000000000E+00  0.00000000000E+00  0.32088064492E+03  0.32088066082E+03  0.10100000352E+00 0.  1.
       -3   -1    0    0    0  501  0.00000000000E+00  0.00000000000E+00 -0.19479710797E+03  0.19479713415E+03  0.10100000352E+00 0. -1.
    10030    2    1    2    0    0  0.00000000000E+00  0.00000000000E+00  0.12608353695E+03  0.51567779497E+03  0.50002652923E+03 0.  0.
        4    1    3    3  502    0  0.10489378375E+03 -0.20240298441E+03  0.16889637888E+03  0.28372041461E+03  0.12699999809E+01 0.  1.
       -4    1    3    3    0  502 -0.10489378375E+03  0.20240298441E+03 -0.42812841928E+02  0.23195738036E+03  0.12699999809E+01 0. -1.
</event>
<event>
 5   0  0.8012875E-03  0.5067678E+03  0.7818609E-02  0.1012027E+00
        3   -1    0    0  501    0  0.00000000000E+00  0.00000000000E+00  0.62321420384E+02  0.62321502226E+02  0.10100000352E+00 0.  1.
       -3   -1    0    0    0  501  0.00000000000E+00  0.00000000000E+00 -0.10301973820E+04  0.10301973870E+04  0.10100000352E+00 0. -1.
    10030    2    1    2    0    0  0.00000000000E+00  0.00000000000E+00 -0.96787596164E+03  0.10925188892E+04  0.50676784245E+03 0.  0.
        1    1    3    3  502    0 -0.87413601479E+02 -0.16052070994E+03 -0.86226090499E+03  0.88142039025E+03  0.50400001928E-02 0. -1.
       -1    1    3    3    0  502  0.87413601479E+02  0.16052070994E+03 -0.10561505665E+03  0.21109849895E+03  0.50400001928E-02 0.  1.
</event>
<event>
 5   0  0.1227864E-02  0.5002364E+03  0.7818609E-02  0.1013717E+00
       -1   -1    0    0    0  501  0.00000000000E+00  0.00000000000E+00  0.22178421549E+03  0.22178421554E+03  0.50400001928E-02 0. -1.
        1   -1    0    0  501    0  0.00000000000E+00  0.00000000000E+00 -0.28207200150E+03  0.28207200155E+03  0.50400001928E-02 0.  1.
    10030    2    1    2    0    0  0.00000000000E+00  0.00000000000E+00 -0.60287786016E+02  0.50385621709E+03  0.50023641446E+03 0.  0.
        5    1    3    3  502    0 -0.19304848439E+03  0.12096646529E+03  0.73735439557E+02  0.23949865990E+03  0.46999998093E+01 0. -1.
       -5    1    3    3    0  502  0.19304848439E+03 -0.12096646529E+03 -0.13402322557E+03  0.26435755719E+03  0.46999998093E+01 0.  1.
</event>
<event>
 5   0  0.1855407E-02  0.4999602E+03  0.7818609E-02  0.1013789E+00
        2   -1    0    0  501    0  0.00000000000E+00  0.00000000000E+00  0.99851102220E+03  0.99851102220E+03  0.25500000920E-02 0.  1.
       -2   -1    0    0    0  501  0.00000000000E+00  0.00000000000E+00 -0.62583239355E+02  0.62583239407E+02  0.25500000920E-02 0. -1.
    10030    2    1    2    0    0  0.00000000000E+00  0.00000000000E+00  0.93592778284E+03  0.10610942616E+04  0.49996021574E+03 0.  0.
        1    1    3    3  502    0  0.74075574527E+02 -0.99107613318E+02  0.92896290237E+03  0.93716678546E+03  0.50400001928E-02 0.  1.
       -1    1    3    3    0  502 -0.74075574527E+02  0.99107613318E+02  0.69648804708E+01  0.12392747615E+03  0.50400001928E-02 0. -1.
</event>
<event>
 5   0  0.8012875E-03  0.5038796E+03  0.7818609E-02  0.1012771E+00
       -4   -1    0    0    0  501  0.00000000000E+00  0.00000000000E+00  0.10776591911E+03  0.10777340220E+03  0.12699999809E+01 0. -1.
        4   -1    0    0  501    0  0.00000000000E+00  0.00000000000E+00 -0.58896712845E+03  0.58896849771E+03  0.12699999809E+01 0.  1.
    10030    2    1    2    0    0  0.00000000000E+00  0.00000000000E+00 -0.48120120933E+03  0.69674189991E+03  0.50387961978E+03 0.  0.
        5    1    3    3  502    0  0.71681227641E+02  0.29413534873E+02 -0.57202420946E+03  0.57726695786E+03  0.46999998093E+01 0.  1.
       -5    1    3    3    0  502 -0.71681227641E+02 -0.29413534873E+02  0.90823000122E+02  0.11947494206E+03  0.46999998093E+01 0. -1.
</event>
<event>
 5   0  0.1923706E-02  0.4957375E+03  0.7818609E-02  0.1014898E+00
        2   -1    0    0  501    0  0.00000000000E+00  0.00000000000E+00  0.10104261084E+04  0.10104261084E+04  0.25500000920E-02 0. -1.
       -2   -1    0    0    0  501  0.00000000000E+00  0.00000000000E+00 -0.60804953304E+02  0.60804953357E+02  0.25500000920E-02 0.  1.
    10030    2    1    2    0    0  0.00000000000E+00  0.00000000000E+00  0.94962115513E+03  0.10712310618E+04  0.49573748041E+03 0.  0.
        3    1    3    3  502    0 -0.17226164686E+03 -0.10872640083E+03  0.16964821482E+03  0.26509626970E+03  0.10100000352E+00 0.  1.
       -3    1    3    3    0  502  0.17226164686E+03  0.10872640083E+03  0.77997294031E+03  0.80613479210E+03  0.10100000352E+00 0. -1.
</event>
<event>
 5   0  0.1209831E-02  0.5002702E+03  0.7818609E-02  0.1013708E+00
       -1   -1    0    0    0  501  0.00000000000E+00  0.00000000000E+00  0.15059365687E+03  0.15059365696E+03  0.50400001928E-02 0.  1.
        1   -1    0    0  501    0  0.00000000000E+00  0.00000000000E+00 -0.41547279981E+03  0.41547279984E+03  0.50400001928E-02 0. -1.
    10030    2    1    2    0    0  0.00000000000E+00  0.00000000000E+00 -0.26487914294E+03  0.56606645680E+03  0.50027020014E+03 0.  0.
        4    1    3    3  502    0  0.11914802230E+03 -0.16785792683E+03  0.28353648488E+02  0.20779335191E+03  0.12699999809E+01 0. -1.
       -4    1    3    3    0  502 -0.11914802230E+03  0.16785792683E+03 -0.29323279143E+03  0.35827310488E+03  0.12699999809E+01 0.  1.
</event>
<event>
 5   0  0.1855407E-02  0.5000555E+03  0.7818609E-02  0.1013764E+00
       -2   -1    0    0    0  501  0.00000000000E+00  0.00000000000E+00  0.31933699155E+03  0.31933699156E+03  0.25500000920E-02 0. -1.
        2   -1    0    0  501    0  0.00000000000E+00  0.00000000000E+00 -0.19576145303E+03  0.19576145305E+03  0.25500000920E-02 0.  1.
    10030    2    1    2    0    0  0.00000000000E+00  0.00000000000E+00  0.12357553851E+03  0.51509844461E+03  0.50005549084E+03 0.  0.
        1    1    3    3  502    0 -0.77184938299E+02  0.12462522923E+03  0.27042694669E+03  0.30760314690E+03  0.50400001928E-02 0. -1.
       -1    1    3    3    0  502  0.77184938299E+02 -0.12462522923E+03 -0.14685140818E+03  0.20749529771E+03  0.50400001928E-02 0.  1.
</event>
<event>
 5   0  0.1180937E-02  0.4981693E+03  0.7818609E-02  0.1014258E+00
       -1   -1    0    0    0  501  0.00000000000E+00  0.00000000000E+00  0.12786531818E+03  0.12786531828E+03  0.50400001928E-02 0.  1.
        1   -1    0    0  501    0  0.00000000000E+00  0.00000000000E+00 -0.48522282850E+03  0.48522282852E+03  0.50400001928E-02 0. -1.
    10030    2    1    2    0    0  0.00000000000E+00  0.00000000000E+00 -0.35735751032E+03  0.61308814680E+03  0.49816933423E+03 0.  0.
        1    1    3    3  502    0 -0.14481210586E+03 -0.44733913351E+02 -0.42194171408E+03  0.44833746120E+03  0.50400001928E-02 0. -1.
       -1    1    3    3    0  502  0.14481210586E+03  0.44733913351E+02  0.64584203760E+02  0.16475068561E+03  0.50400001928E-02 0.  1.
</event>
<event>
 5   0  0.1941387E-02  0.4949547E+03  0.7818609E-02  0.1015104E+00
        2   -1    0    0  501    0  0.00000000000E+00  0.00000000000E+00  0.47637949629E+03  0.47637949630E+03  0.25500000920E-02 0.  1.
       -2   -1    0    0    0  501  0.00000000000E+00  0.00000000000E+00 -0.12856356990E+03  0.12856356993E+03  0.25500000920E-02 0. -1.
    10030    2    1    2    0    0  0.00000000000E+00  0.00000000000E+00  0.34781592639E+03  0.60494306623E+03  0.49495474008E+03 0.  0.
        4    1    3    3  502    0  0.78119917446E+01 -0.14859026328E+03  0.41559644572E+03  0.44143188846E+03  0.12699999809E+01 0.  1.
       -4    1    3    3    0  502 -0.78119917446E+01  0.14859026328E+03 -0.67780519324E+02  0.16351117777E+03  0.12699999809E+01 0. -1.
</event>
<event>
 5   0  0.1227864E-02  0.4990663E+03  0.7818609E-02  0.1014023E+00
        1   -1    0    0  501    0  0.00000000000E+00  0.00000000000E+00  0.14883801162E+04  0.14883801162E+04  0.50400001928E-02 0.  1.
       -1   -1    0    0    0  501  0.00000000000E+00  0.00000000000E+00 -0.41835274376E+02  0.41835274680E+02  0.50400001928E-02 0. -1.
    10030    2    1    2    0    0  0.00000000000E+00  0.00000000000E+00  0.14465448418E+04  0.15302153909E+04  0.49906629129E+03 0.  0.
        5    1    3    3  502    0  0.93307402983E+02  0.11661339237E+03  0.11050314993E+03  0.18584399607E+03  0.46999998093E+01 0.  1.
       -5    1    3    3    0  502 -0.93307402983E+02 -0.11661339237E+03  0.13360416919E+04  0.13443713948E+04  0.46999998093E+01 0. -1.
</event>
<event>
 5   0  0.1941387E-02  0.4950282E+03  0.7818609E-02  0.1015085E+00
       -2   -1    0    0    0  501  0.00000000000E+00  0.00000000000E+00  0.20649340948E+03  0.20649340950E+03  0.25500000920E-02 0. -1.
        2   -1    0    0  501    0  0.00000000000E+00  0.00000000000E+00 -0.29668370532E+03  0.29668370533E+03  0.25500000920E-02 0.  1.
    10030    2    1    2    0    0  0.00000000000E+00  0.00000000000E+00 -0.90190295843E+02  0.50317711483E+03  0.49502820063E+03 0.  0.
        4    1    3    3  502    0  0.81958992705E+02 -0.17492432517E+03  0.11219655177E+03  0.22339533377E+03  0.12699999809E+01 0. -1.
       -4    1    3    3    0  502 -0.81958992705E+02  0.17492432517E+03 -0.20238684761E+03  0.27978178105E+03  0.12699999809E+01 0.  1.
</event>
<event>
 5   0  0.1967813E-02  0.5001336E+03  0.7818609E-02  0.1013744E+00
        2   -1    0    0  501    0  0.00000000000E+00  0.00000000000E+00  0.89960614289E+03  0.89960614289E+03  0.25500000920E-02 0.  1.
       -2   -1    0    0    0  501  0.00000000000E+00  0.00000000000E+00 -0.69511982747E+02  0.69511982793E+02  0.25500000920E-02 0. -1.
    10030    2    1    2    0    0  0.00000000000E+00  0.00000000000E+00  0.83009416014E+03  0.96911812569E+03  0.50013360898E+03 0.  0.
        5    1    3    3  502    0  0.11382608078E+03  0.58163874440E+02  0.83141721105E+03  0.84119919270E+03  0.46999998093E+01 0.  1.
       -5    1    3    3    0  502 -0.11382608078E+03 -0.58163874440E+02 -0.13230509101E+01  0.12791893299E+03  0.46999998093E+01 0. -1.
</event>
<event>
 5   0  0.1982847E-02  0.5000612E+03  0.7818609E-02  0.1013763E+00
       -2   -1    0    0    0  501  0.00000000000E+00  0.00000000000E+00  0.17974274720E+03  0.17974274722E+03  0.25500000920E-02 0. -1.
        2   -1    0    0  501    0  0.00000000000E+00  0.00000000000E+00 -0.34780424039E+03  0.34780424040E+03  0.25500000920E-02 0.  1.
    10030    2    1    2    0    0  0.00000000000E+00  0.00000000000E+00 -0.16806149319E+03  0.52754698762E+03  0.50006115491E+03 0.  0.
        2    1    3    3  502    0 -0.17391629308E+03  0.17608622289E+03 -0.12150880883E+03  0.27571294043E+03  0.25500000920E-02 0.  1.
       -2    1    3    3    0  502  0.17391629308E+03 -0.17608622289E+03 -0.46552684364E+02  0.25183404718E+03  0.25500000920E-02 0. -1.
</event>
<event>
 5   0  0.1923706E-02  0.5003173E+03  0.7818609E-02  0.1013696E+00
        2   -1    0    0  501    0  0.00000000000E+00  0.00000000000E+00  0.20027558162E+04  0.20027558162E+04  0.25500000920E-02 0. -1.
       -2   -1    0    0    0  501  0.00000000000E+00  0.00000000000E+00 -0.31246615276E+02  0.31246615380E+02  0.25500000920E-02 0.  1.
    10030    2    1    2    0    0  0.00000000000E+00  0.00000000000E+00  0.19715092009E+04  0.20340024316E+04  0.50031726169E+03 0.  0.
        3    1    3    3  502    0  0.68421584309E+02 -0.23986210214E+03  0.10633168143E+04  0.10921803876E+04  0.10100000352E+00 0.  1.
       -3    1    3    3    0  502 -0.68421584309E+02  0.23986210214E+03  0.90819238659E+03  0.94182204396E+03  0.10100000352E+00 0. -1.
</event>
<event>
 5   0  0.1923706E-02  0.4987417E+03  0.7818609E-02  0.1014108E+00
       -2   -1    0    0    0  501  0.00000000000E+00  0.00000000000E+00  0.17559405152E+03  0.17559405153E+03  0.25500000920E-02 0. -1.
        2   -1    0    0  501    0  0.00000000000E+00  0.00000000000E+00 -0.35414531978E+03  0.35414531979E+03  0.25500000920E-02 0.  1.
    10030    2    1    2    0    0  0.00000000000E+00  0.00000000000E+00 -0.17855126827E+03  0.52973937132E+03  0.49874166272E+03 0.  0.
        3    1    3    3  502    0  0.62111479504E+02 -0.74560651557E+02 -0.33326713380E+03  0.34710822421E+03  0.10100000352E+00 0.  1.
       -3    1    3    3    0  502 -0.62111479504E+02  0.74560651557E+02  0.15471586553E+03  0.18263114711E+03  0.10100000352E+00 0. -1.
</event>
<event>
 5   0  0.1982847E-02  0.5011929E+03  0.7818609E-02  0.1013468E+00
        2   -1    0    0  501    0  0.00000000000E+00  0.00000000000E+00  0.11451419489E+04  0.11451419489E+04  0.25500000920E-02 0.  1.
       -2   -1    0    0    0  501  0.00000000000E+00  0.00000000000E+00 -0.54839114653E+02  0.54839114712E+02  0.25500000920E-02 0. -1.
    10030    2    1    2    0    0  0.00000000000E+00  0.00000000000E+00  0.10903028343E+04  0.11999810636E+04  0.50119285976E+03 0.  0.
        2    1    3    3  502    0 -0.11249913401E+03  0.13908766223E+03  0.96532108276E+03  0.98175670396E+03  0.25500000920E-02 0.  1.
       -2    1    3    3    0  502  0.11249913401E+03 -0.13908766223E+03  0.12498175150E+03  0.21822435967E+03  0.25500000920E-02 0. -1.
</event>
<event>
 5   0  0.1227864E-02  0.5001464E+03  0.7818609E-02  0.1013741E+00
       -1   -1    0    0    0  501  0.00000000000E+00  0.00000000000E+00  0.14455860393E+03  0.14455860402E+03  0.50400001928E-02 0. -1.
        1   -1    0    0  501    0  0.00000000000E+00  0.00000000000E+00 -0.43260378866E+03  0.43260378869E+03  0.50400001928E-02 0.  1.
    10030    2    1    2    0    0  0.00000000000E+00  0.00000000000E+00 -0.28804518473E+03  0.57716239270E+03  0.50014637768E+03 0.  0.
        5    1    3    3  502    0  0.10251334207E+03  0.43124399113E+02 -0.40243789378E+03  0.41754885636E+03  0.46999998093E+01 0.  1.
       -5    1    3    3    0  502 -0.10251334207E+03 -0.43124399113E+02  0.11439270905E+03  0.15961353634E+03  0.46999998093E+01 0. -1.
</event>
<event>
 5   0  0.1967813E-02  0.5000208E+03  0.7818609E-02  0.1013773E+00
       -2   -1    0    0    0  501  0.00000000000E+00  0.00000000000E+00  0.67659020801E+02  0.67659020849E+02  0.25500000920E-02 0.  1.
        2   -1    0    0  501    0  0.00000000000E+00  0.00000000000E+00 -0.92382667607E+03  0.92382667607E+03  0.25500000920E-02 0. -1.
    10030    2    1    2    0    0  0.00000000000E+00  0.00000000000E+00 -0.85616765527E+03  0.99148569692E+03  0.50002083284E+03 0.  0.
        5    1    3    3  502    0 -0.23847042133E+03  0.19328032537E+02 -0.57164009477E+03  0.61970654558E+03  0.46999998093E+01 0.  1.
       -5    1    3    3    0  502  0.23847042133E+03 -0.19328032537E+02 -0.28452756050E+03  0.37177915134E+03  0.46999998093E+01 0. -1.
</event>
<event>
 5   0  0.1923706E-02  0.4995619E+03  0.7818609E-02  0.1013893E+00
       -2   -1    0    0    0  501  0.00000000000E+00  0.00000000000E+00  0.52656053838E+02  0.52656053900E+02  0.25500000920E-02 0.  1.
        2   -1    0    0  501    0  0.00000000000E+00  0.00000000000E+00 -0.11848691039E+04  0.11848691039E+04  0.25500000920E-02 0. -1.
    10030    2    1    2    0    0  0.00000000000E+00  0.00000000000E+00 -0.11322130501E+04  0.12375251578E+04  0.49956193356E+03 0.  0.
        3    1    3    3  502    0 -0.29874158108E+02 -0.15240496751E+03 -0.81489836961E+02  0.17538626849E+03  0.10100000352E+00 0.  1.
       -3    1    3    3    0  502  0.29874158108E+02  0.15240496751E+03 -0.10507232131E+04  0.10621388893E+04  0.10100000352E+00 0. -1.
</event>
<event>
 5   0  0.1209831E-02  0.5000088E+03  0.7818609E-02  0.1013777E+00
        1   -1    0    0  501    0  0.00000000000E+00  0.00000000000E+00  0.64066007916E+03  0.64066007918E+03  0.50400001928E-02 0.  1.
       -1   -1    0    0    0  501  0.00000000000E+00  0.00000000000E+00 -0.97559059588E+02  0.97559059718E+02  0.50400001928E-02 0. -1.
    10030    2    1    2    0    0  0.00000000000E+00  0.00000000000E+00  0.54310101958E+03  0.73821913890E+03  0.50000877950E+03 0.  0.
        4    1    3    3  502    0 -0.76206360357E+02 -0.23453246185E+03  0.33220387562E+03  0.41373169192E+03  0.12699999809E+01 0. -1.
       -4    1    3    3    0  502  0.76206360357E+02  0.23453246185E+03  0.21089714395E+03  0.32448744698E+03  0.12699999809E+01 0.  1.
</event>
<event>
 5   0  0.1855407E-02  0.4995121E+03  0.7818609E-02  0.1013906E+00
        2   -1    0    0  501    0  0.00000000000E+00  0.00000000000E+00  0.49603889939E+03  0.49603889939E+03  0.25500000920E-02 0.  1.
       -2   -1    0    0    0  501  0.00000000000E+00  0.00000000000E+00 -0.12575242881E+03  0.12575242884E+03  0.25500000920E-02 0. -1.
    10030    2    1    2    0    0  0.00000000000E+00  0.00000000000E+00  0.37028647057E+03  0.62179132823E+03  0.49951214757E+03 0.  0.
        1    1    3    3  502    0  0.16369645058E+03  0.16391491546E+03  0.30134003048E+03  0.38009267480E+03  0.50400001928E-02 0.  1.
       -1    1    3    3    0  502 -0.16369645058E+03 -0.16391491546E+03  0.68946440092E+02  0.24169865343E+03  0.50400001928E-02 0. -1.
</event>
<event>
 5   0  0.1982847E-02  0.5000349E+03  0.7818609E-02  0.1013770E+00
       -2   -1    0    0    0  501  0.00000000000E+00  0.00000000000E+00  0.34150333901E+02  0.34150333997E+02  0.25500000920E-02 0. -1.
        2   -1    0    0  501    0  0.00000000000E+00  0.00000000000E+00 -0.18303987402E+04  0.18303987402E+04  0.25500000920E-02 0.  1.
    10030    2    1    2    0    0  0.00000000000E+00  0.00000000000E+00 -0.17962484063E+04  0.18645490742E+04  0.50003491174E+03 0.  0.
        2    1    3    3  502    0 -0.10579150939E+03 -0.20336153493E+03 -0.12702796044E+04  0.12907974398E+04  0.25500000920E-02 0.  1.
       -2    1    3    3    0  502  0.10579150939E+03  0.20336153493E+03 -0.52596880191E+03  0.57375163437E+03  0.25500000920E-02 0. -1.
</event>
<event>
 5   0  0.1217270E-02  0.5010226E+03  0.7818609E-02  0.1013512E+00
        1   -1    0    0  501    0  0.00000000000E+00  0.00000000000E+00  0.29472245563E+03  0.29472245567E+03  0.50400001928E-02 0. -1.
       -1   -1    0    0    0  501  0.00000000000E+00  0.00000000000E+00 -0.21293222273E+03  0.21293222279E+03  0.50400001928E-02 0.  1.
    10030    2    1    2    0    0  0.00000000000E+00  0.00000000000E+00  0.81790232903E+02  0.50765467846E+03  0.50102258469E+03 0.  0.
        2    1    3    3  502    0 -0.20891268579E+03 -0.26248887030E+02 -0.96630662650E+02  0.23167002250E+03  0.25500000920E-02 0.  1.
       -2    1    3    3    0  502  0.20891268579E+03  0.26248887030E+02  0.17842089555E+03  0.27598465597E+03  0.25500000920E-02 0. -1.
</event>
<event>
 5   0  0.1967813E-02  0.5001317E+03  0.7818609E-02  0.1013745E+00
        2   -1    0    0  501    0  0.00000000000E+00  0.00000000000E+00  0.46969112116E+03  0.46969112117E+03  0.25500000920E-02 0. -1.
       -2   -1    0    0    0  501  0.00000000000E+00  0.00000000000E+00 -0.13313628283E+03  0.13313628285E+03  0.25500000920E-02 0.  1.
    10030    2    1    2    0    0  0.00000000000E+00  0.00000000000E+00  0.33655483833E+03  0.60282740402E+03  0.50013170249E+03 0.  0.
        5    1    3    3  502    0 -0.29653940641E+02 -0.84538554521E+02  0.44962679119E+03  0.45848932894E+03  0.46999998093E+01 0. -1.
       -5    1    3    3    0  502  0.29653940641E+02  0.84538554521E+02 -0.11307195286E+03  0.14433807508E+03  0.46999998093E+01 0.  1.
</event>
<event>
 5   0  0.1225989E-02  0.5000734E+03  0.7818609E-02  0.1013760E+00
       -1   -1    0    0    0  501  0.00000000000E+00  0.00000000000E+00  0.29997660617E+03  0.29997660621E+03  0.50400001928E-02 0. -1.
        1   -1    0    0  501    0  0.00000000000E+00  0.00000000000E+00 -0.20841073120E+03  0.20841073126E+03  0.50400001928E-02 0.  1.
    10030    2    1    2    0    0  0.00000000000E+00  0.00000000000E+00  0.91565874968E+02  0.50838733748E+03  0.50007337006E+03 0.  0.
        3    1    3    3  502    0 -0.22351795165E+03  0.10681682360E+03  0.80231771277E+02  0.26039826389E+03  0.10100000352E+00 0. -1.
       -3    1    3    3    0  502  0.22351795165E+03 -0.10681682360E+03  0.11334103691E+02  0.24798907359E+03  0.10100000352E+00 0.  1.
</event>
<event>
 5   0  0.1225989E-02  0.5007392E+03  0.7818609E-02  0.1013586E+00
       -1   -1    0    0    0  501  0.00000000000E+00  0.00000000000E+00  0.98693832236E+02  0.98693832365E+02  0.50400001928E-02 0.  1.
        1   -1    0    0  501    0  0.00000000000E+00  0.00000000000E+00 -0.63514540274E+03  0.63514540276E+03  0.50400001928E-02 0. -1.
    10030    2    1    2    0    0  0.00000000000E+00  0.00000000000E+00 -0.53645157050E+03  0.73383923512E+03  0.50073918911E+03 0.  0.
        3    1    3    3  502    0  0.21667967597E+03 -0.65006060957E+02 -0.42544627871E+03  0.48185103114E+03  0.10100000352E+00 0. -1.
       -3    1    3    3    0  502 -0.21667967597E+03  0.65006060957E+02 -0.11100529180E+03  0.25198820399E+03  0.10100000352E+00 0.  1.
</event>
<event>
 5   0  0.1217270E-02  0.4994831E+03  0.7818609E-02  0.1013914E+00
       -1   -1    0    0    0  501  0.00000000000E+00  0.00000000000E+00  0.15638013635E+03  0.15638013643E+03  0.50400001928E-02 0.  1.
        1   -1    0    0  501    0  0.00000000000E+00  0.00000000000E+00 -0.39884125980E+03  0.39884125983E+03  0.50400001928E-02 0. -1.
    10030    2    1    2    0    0  0.00000000000E+00  0.00000000000E+00 -0.24246112345E+03  0.55522139626E+03  0.49948313533E+03 0.  0.
        2    1    3    3  502    0 -0.65412716726E+02 -0.97425720053E+02 -0.36628616880E+03  0.38462468966E+03  0.25500000920E-02 0. -1.
       -2    1    3    3    0  502  0.65412716726E+02  0.97425720053E+02  0.12382504536E+03  0.17059670660E+03  0.25500000920E-02 0.  1.
</event>
<event>
 5   0  0.1941387E-02  0.4990079E+03  0.7818609E-02  0.1014038E+00
       -2   -1    0    0    0  501  0.00000000000E+00  0.00000000000E+00  0.23889438594E+03  0.23889438596E+03  0.25500000920E-02 0. -1.
        2   -1    0    0  501    0  0.00000000000E+00  0.00000000000E+00 -0.26058468049E+03  0.26058468050E+03  0.25500000920E-02 0.  1.
    10030    2    1    2    0    0  0.00000000000E+00  0.00000000000E+00 -0.21690294548E+02  0.49947906646E+03  0.49900788466E+03 0.  0.
        4    1    3    3  502    0  0.16317709139E+03 -0.14524153441E+03  0.10980388077E+03  0.24450024868E+03  0.12699999809E+01 0. -1.
       -4    1    3    3    0  502 -0.16317709139E+03  0.14524153441E+03 -0.13149417531E+03  0.25497881778E+03  0.12699999809E+01 0.  1.
</event>
<event>
 5   0  0.1982847E-02  0.5000064E+03  0.7818609E-02  0.1013777E+00
        2   -1    0    0  501    0  0.00000000000E+00  0.00000000000E+00  0.67851217535E+03  0.67851217536E+03  0.25500000920E-02 0. -1.
       -2   -1    0    0    0  501  0.00000000000E+00  0.00000000000E+00 -0.92115655732E+02  0.92115655767E+02  0.25500000920E-02 0.  1.
    10030    2    1    2    0    0  0.00000000000E+00  0.00000000000E+00  0.58639651962E+03  0.77062783112E+03  0.50000637584E+03 0.  0.
        2    1    3    3  502    0  0.18364144139E+03 -0.10356806641E+03  0.86126616801E+02  0.22774616902E+03  0.25500000920E-02 0. -1.
       -2    1    3    3    0  502 -0.18364144139E+03  0.10356806641E+03  0.50026990282E+03  0.54288166210E+03  0.25500000920E-02 0.  1.
</event>
<event>
 5   0  0.1941387E-02  0.4999059E+03  0.7818609E-02  0.1013803E+00
        2   -1    0    0  501    0  0.00000000000E+00  0.00000000000E+00  0.65240665493E+03  0.65240665494E+03  0.25500000920E-02 0. -1.
       -2   -1    0    0    0  501  0.00000000000E+00  0.00000000000E+00 -0.95763084214E+02  0.95763084248E+02  0.25500000920E-02 0.  1.
    10030    2    1    2    0    0  0.00000000000E+00  0.00000000000E+00  0.55664357072E+03  0.74816973918E+03  0.49990588495E+03 0.  0.
        4    1    3    3  502    0  0.12025139470E+03 -0.82294134936E+01  0.60603309407E+03  0.61790439809E+03  0.12699999809E+01 0. -1.
       -4    1    3    3    0  502 -0.12025139470E+03  0.82294134936E+01 -0.49389523348E+02  0.13026534110E+03  0.12699999809E+01 0.  1.
</event>
<event>
 5   0  0.1855407E-02  0.5001269E+03  0.7818609E-02  0.1013746E+00
       -2   -1    0    0    0  501  0.00000000000E+00  0.00000000000E+00  0.60969904583E+02  0.60969904636E+02  0.25500000920E-02 0. -1.
        2   -1    0    0  501    0  0.00000000000E+00  0.00000000000E+00 -0.10256164332E+04  0.10256164332E+04  0.25500000920E-02 0.  1.
    10030    2    1    2    0    0  0.00000000000E+00  0.00000000000E+00 -0.96464652863E+03  0.10865863379E+04  0.50012692830E+03 0.  0.
        1    1    3    3  502    0 -0.15000474585E+03 -0.19994638961E+03 -0.49795309257E+03  0.55716897340E+03  0.50400001928E-02 0.  1.
       -1    1    3    3    0  502  0.15000474585E+03  0.19994638961E+03 -0.46669343606E+03  0.52941736445E+03  0.50400001928E-02 0. -1.
</event>
<event>
 5   0  0.1923706E-02  0.4999600E+03  0.7818609E-02  0.1013789E+00
        2   -1    0    0  501    0  0.00000000000E+00  0.00000000000E+00  0.41534923065E+03  0.41534923065E+03  0.25500000920E-02 0.  1.
       -2   -1    0    0    0  501  0.00000000000E+00  0.00000000000E+00 -0.15045171406E+03  0.15045171408E+03  0.25500000920E-02 0. -1.
    10030    2    1    2    0    0  0.00000000000E+00  0.00000000000E+00  0.26489751658E+03  0.56580094474E+03  0.49996001318E+03 0.  0.
        3    1    3    3  502    0  0.21021661404E+02  0.13850662197E+03  0.36675008086E+03  0.39259600939E+03  0.10100000352E+00 0.  1.
       -3    1    3    3    0  502 -0.21021661404E+02 -0.13850662197E+03 -0.10185256428E+03  0.17320493535E+03  0.10100000352E+00 0. -1.
</event>
<event>
 5   0  0.1180937E-02  0.4997132E+03  0.7818609E-02  0.1013854E+00
        1   -1    0    0  501    0  0.00000000000E+00  0.00000000000E+00  0.10258248104E+04  0.10258248104E+04  0.50400001928E-02 0. -1.
       -1   -1    0    0    0  501  0.00000000000E+00  0.00000000000E+00 -0.60856701694E+02  0.60856701902E+02  0.50400001928E-02 0.  1.
    10030    2    1    2    0    0  0.00000000000E+00  0.00000000000E+00  0.96496810873E+03  0.10866815123E+04  0.49971317612E+03 0.  0.
        1    1    3    3  502    0 -0.20496390081E+03  0.72532100638E+00  0.79321441859E+03  0.81926786866E+03  0.50400001928E-02 0. -1.
       -1    1    3    3    0  502  0.20496390081E+03 -0.72532100638E+00  0.17175369014E+03  0.26741364368E+03  0.50400001928E-02 0.  1.
</event>
<event>
 5   0  0.1982847E-02  0.4997146E+03  0.7818609E-02  0.1013853E+00
        2   -1    0    0  501    0  0.00000000000E+00  0.00000000000E+00  0.24458230590E+03  0.24458230591E+03  0.25500000920E-02 0.  1.
       -2   -1    0    0    0  501  0.00000000000E+00  0.00000000000E+00 -0.25524603356E+03  0.25524603357E+03  0.25500000920E-02 0. -1.
    10030    2    1    2    0    0  0.00000000000E+00  0.00000000000E+00 -0.10663727660E+02  0.49982833948E+03  0.49971457240E+03 0.  0.
        2    1    3    3  502    0  0.63541123030E+02 -0.21330010054E+03 -0.11891059442E+03  0.25233734697E+03  0.25500000920E-02 0. -1.
       -2    1    3    3    0  502 -0.63541123030E+02  0.21330010054E+03  0.10824686676E+03  0.24749099251E+03  0.25500000920E-02 0.  1.
</event>
<event>
 5   0  0.1217270E-02  0.4984139E+03  0.7818609E-02  0.1014194E+00
        1   -1    0    0  501    0  0.00000000000E+00  0.00000000000E+00  0.63984007956E+03  0.63984007958E+03  0.50400001928E-02 0.  1.
       -1   -1    0    0    0  501  0.00000000000E+00  0.00000000000E+00 -0.97061901683E+02  0.97061901814E+02  0.50400001928E-02 0. -1.
    10030    2    1    2    0    0  0.00000000000E+00  0.00000000000E+00  0.54277817788E+03  0.73690198140E+03  0.49841386398E+03 0.  0.
        2    1    3    3  502    0 -0.21550387607E+03  0.23570723702E+02  0.45310916411E+03  0.50230012366E+03  0.25500000920E-02 0.  1.
       -2    1    3    3    0  502  0.21550387607E+03 -0.23570723702E+02  0.89669013766E+02  0.23460185774E+03  0.25500000920E-02 0. -1.
</event>
<event>
 5   0  0.1941387E-02  0.5055118E+03  0.7818609E-02  0.1012350E+00
       -2   -1    0    0    0  501  0.00000000000E+00  0.00000000000E+00  0.14774705637E+03  0.14774705639E+03  0.25500000920E-02 0.  1.
        2   -1    0    0  501    0  0.00000000000E+00  0.00000000000E+00 -0.43239807092E+03  0.43239807093E+03  0.25500000920E-02 0. -1.
    10030    2    1    2    0    0  0.00000000000E+00  0.00000000000E+00 -0.28465101456E+03  0.58014512732E+03  0.50551178885E+03 0.  0.
        4    1    3    3  502    0 -0.15941069190E+03 -0.16487188536E+02 -0.36663049785E+03  0.40012889289E+03  0.12699999809E+01 0. -1.
       -4    1    3    3    0  502  0.15941069190E+03  0.16487188536E+02  0.81979483291E+02  0.18001623443E+03  0.12699999809E+01 0.  1.
</event>
<event>
 5   0  0.1941387E-02  0.5011903E+03  0.7818609E-02  0.1013469E+00
       -2   -1    0    0    0  501  0.00000000000E+00  0.00000000000E+00  0.10762175536E+03  0.10762175539E+03  0.25500000920E-02 0.  1.
        2   -1    0    0  501    0  0.00000000000E+00  0.00000000000E+00 -0.58350597687E+03  0.58350597688E+03  0.25500000920E-02 0. -1.
    10030    2    1    2    0    0  0.00000000000E+00  0.00000000000E+00 -0.47588422151E+03  0.69112773227E+03  0.50119033313E+03 0.  0.
        4    1    3    3  502    0  0.45286622279E+02  0.22158434534E+03 -0.38675506959E+03  0.44803079918E+03  0.12699999809E+01 0. -1.
       -4    1    3    3    0  502 -0.45286622279E+02 -0.22158434534E+03 -0.89129151920E+02  0.24309693309E+03  0.12699999809E+01 0.  1.
</event>
<event>
 5   0  0.1209831E-02  0.4997604E+03  0.7818609E-02  0.1013841E+00
       -1   -1    0    0    0  501  0.00000000000E+00  0.00000000000E+00  0.18238692895E+03  0.18238692902E+03  0.50400001928E-02 0. -1.
        1   -1    0    0  501    0  0.00000000000E+00  0.00000000000E+00 -0.34234973347E+03  0.34234973351E+03  0.50400001928E-02 0.  1.
    10030    2    1    2    0    0  0.00000000000E+00  0.00000000000E+00 -0.15996280451E+03  0.52473666253E+03  0.49976040877E+03 0.  0.
        4    1    3    3  502    0 -0.76745893624E+02 -0.82969189191E+02 -0.31397469221E+03  0.33369977344E+03  0.12699999809E+01 0.  1.
       -4    1    3    3    0  502  0.76745893624E+02  0.82969189191E+02  0.15401188769E+03  0.19103688909E+03  0.12699999809E+01 0. -1.
</event>
<event>
 5   0  0.1225989E-02  0.4998184E+03  0.7818609E-02  0.1013826E+00
       -1   -1    0    0    0  501  0.00000000000E+00  0.00000000000E+00  0.11861147733E+03  0.11861147743E+03  0.50400001928E-02 0. -1.
        1   -1    0    0  501    0  0.00000000000E+00  0.00000000000E+00 -0.52654776974E+03  0.52654776976E+03  0.50400001928E-02 0.  1.
    10030    2    1    2    0    0  0.00000000000E+00  0.00000000000E+00 -0.40793629241E+03  0.64515924719E+03  0.49981840260E+03 0.  0.
        3    1    3    3  502    0  0.29453399052E+01  0.21245895835E+03 -0.34156676789E+02  0.21520727864E+03  0.10100000352E+00 0. -1.
       -3    1    3    3    0  502 -0.29453399052E+01 -0.21245895835E+03 -0.37377961562E+03  0.42995196855E+03  0.10100000352E+00 0.  1.
</event>
<event>
 5   0  0.1923706E-02  0.4995375E+03  0.7818609E-02  0.1013900E+00
       -2   -1    0    0    0  501  0.00000000000E+00  0.00000000000E+00  0.86392847903E+02  0.86392847941E+02  0.25500000920E-02 0. -1.
        2   -1    0    0  501    0  0.00000000000E+00  0.00000000000E+00 -0.72210177427E+03  0.72210177427E+03  0.25500000920E-02 0.  1.
    10030    2    1    2    0    0  0.00000000000E+00  0.00000000000E+00 -0.63570892637E+03  0.80849462222E+03  0.49953750118E+03 0.  0.
        3    1    3    3  502    0  0.15912258430E+03  0.31524669634E+02 -0.10467231548E+02  0.16255268305E+03  0.10100000352E+00 0. -1.
       -3    1    3    3    0  502 -0.15912258430E+03 -0.31524669634E+02 -0.62524169482E+03  0.64594193916E+03  0.10100000352E+00 0.  1.
</event>
<event>
 5   0  0.1227864E-02  0.5005090E+03  0.7818609E-02  0.1013646E+00
        1   -1    0    0  501    0  0.00000000000E+00  0.00000000000E+00  0.44494237356E+02  0.44494237642E+02  0.50400001928E-02 0.  1.
       -1   -1    0    0    0  501  0.00000000000E+00  0.00000000000E+00 -0.14075374485E+04  0.14075374485E+04  0.50400001928E-02 0. -1.
    10030    2    1    2    0    0  0.00000000000E+00  0.00000000000E+00 -0.13630432112E+04  0.14520316862E+04  0.50050896310E+03 0.  0.
        5    1    3    3  502    0  0.21647406113E+03  0.12371214612E+03 -0.62070189978E+03  0.66892350282E+03  0.46999998093E+01 0.  1.
       -5    1    3    3    0  502 -0.21647406113E+03 -0.12371214612E+03 -0.74234131137E+03  0.78310818334E+03  0.46999998093E+01 0. -1.
</event>
<event>
 5   0  0.1209831E-02  0.5019171E+03  0.7818609E-02  0.1013280E+00
       -1   -1    0    0    0  501  0.00000000000E+00  0.00000000000E+00  0.10874235630E+03  0.10874235642E+03  0.50400001928E-02 0. -1.
        1   -1    0    0  501    0  0.00000000000E+00  0.00000000000E+00 -0.57916883691E+03  0.57916883693E+03  0.50400001928E-02 0.  1.
    10030    2    1    2    0    0  0.00000000000E+00  0.00000000000E+00 -0.47042648061E+03  0.68791119336E+03  0.50191706116E+03 0.  0.
        4    1    3    3  502    0 -0.24616264548E+02  0.30482203034E+02  0.10452012410E+03  0.11162972016E+03  0.12699999809E+01 0. -1.
       -4    1    3    3    0  502  0.24616264548E+02 -0.30482203034E+02 -0.57494660471E+03  0.57628147319E+03  0.12699999809E+01 0.  1.
</event>
<event>
 5   0  0.8012875E-03  0.4997435E+03  0.7818609E-02  0.1013846E+00
       -3   -1    0    0    0  501  0.00000000000E+00  0.00000000000E+00  0.11472589665E+03  0.11472594111E+03  0.10100000352E+00 0.  1.
        3   -1    0    0  501    0  0.00000000000E+00  0.00000000000E+00 -0.54421785791E+03  0.54421786728E+03  0.10100000352E+00 0. -1.
    10030    2    1    2    0    0  0.00000000000E+00  0.00000000000E+00 -0.42949196125E+03  0.65894380839E+03  0.49974353206E+03 0.  0.
        3    1    3    3  502    0 -0.12493054241E+03  0.49497067890E+02  0.63024747444E+02  0.14842415284E+03  0.10100000352E+00 0.  1.
       -3    1    3    3    0  502  0.12493054241E+03 -0.49497067890E+02 -0.49251670870E+03  0.51051965555E+03  0.10100000352E+00 0. -1.
</event>
<event>
 5   0  0.1941387E-02  0.5000922E+03  0.7818609E-02  0.1013755E+00
       -2   -1    0    0    0  501  0.00000000000E+00  0.00000000000E+00  0.24892537565E+03  0.24892537566E+03  0.25500000920E-02 0.  1.
        2   -1    0    0  501    0  0.00000000000E+00  0.00000000000E+00 -0.25117184045E+03  0.25117184046E+03  0.25500000920E-02 0. -1.
    10030    2    1    2    0    0  0.00000000000E+00  0.00000000000E+00 -0.22464647968E+01  0.50009721613E+03  0.50009217048E+03 0.  0.
        4    1    3    3  502    0  0.20971488730E+03  0.28379072944E+02  0.13205365747E+03  0.24945036999E+03  0.12699999809E+01 0.  1.
       -4    1    3    3    0  502 -0.20971488730E+03 -0.28379072944E+02 -0.13430012227E+03  0.25064684614E+03  0.12699999809E+01 0. -1.
</event>
<event>
 5   0  0.1855407E-02  0.4994015E+03  0.7818609E-02  0.1013935E+00
       -2   -1    0    0    0  501  0.00000000000E+00  0.00000000000E+00  0.90859758754E+02  0.90859758790E+02  0.25500000920E-02 0.  1.
        2   -1    0    0  501    0  0.00000000000E+00  0.00000000000E+00 -0.68622754477E+03  0.68622754478E+03  0.25500000920E-02 0. -1.
    10030    2    1    2    0    0  0.00000000000E+00  0.00000000000E+00 -0.59536778602E+03  0.77708730357E+03  0.49940151856E+03 0.  0.
        1    1    3    3  502    0 -0.14703346369E+03  0.20074499625E+03 -0.33006577688E+03  0.41335312997E+03  0.50400001928E-02 0.  1.
       -1    1    3    3    0  502  0.14703346369E+03 -0.20074499625E+03 -0.26530200914E+03  0.36373417360E+03  0.50400001928E-02 0. -1.
</event>
<event>
 5   0  0.1217270E-02  0.5003345E+03  0.7818609E-02  0.1013692E+00
       -1   -1    0    0    0  501  0.00000000000E+00  0.00000000000E+00  0.18277383417E+03  0.18277383424E+03  0.50400001928E-02 0. -1.
        1   -1    0    0  501    0  0.00000000000E+00  0.00000000000E+00 -0.34241031302E+03  0.34241031306E+03  0.50400001928E-02 0.  1.
    10030    2    1    2    0    0  0.00000000000E+00  0.00000000000E+00 -0.15963647885E+03  0.52518414730E+03  0.50033447132E+03 0.  0.
        2    1    3    3  502    0  0.20133709317E+03 -0.13479789890E+03 -0.14464006898E+02  0.24272681379E+03  0.25500000920E-02 0. -1.
       -2    1    3    3    0  502 -0.20133709317E+03  0.13479789890E+03 -0.14517247195E+03  0.28245733351E+03  0.25500000920E-02 0.  1.
</event>
<event>
 5   0  0.1982847E-02  0.5000973E+03  0.7818609E-02  0.1013754E+00
       -2   -1    0    0    0  501  0.00000000000E+00  0.00000000000E+00  0.63767313487E+02  0.63767313538E+02  0.25500000920E-02 0.  1.
        2   -1    0    0  501    0  0.00000000000E+00  0.00000000000E+00 -0.98050731473E+03  0.98050731473E+03  0.25500000920E-02 0. -1.
    10030    2    1    2    0    0  0.00000000000E+00  0.00000000000E+00 -0.91674000124E+03  0.10442746283E+04  0.50009725991E+03 0.  0.
        2    1    3    3  502    0  0.17429621816E+03  0.95415755794E+02 -0.77533456894E+03  0.80039179900E+03  0.25500000920E-02 0. -1.
       -2    1    3    3    0  502 -0.17429621816E+03 -0.95415755794E+02 -0.14140543231E+03  0.24388282927E+03  0.25500000920E-02 0.  1.
</event>
<event>
 5   0  0.8012875E-03  0.4972751E+03  0.7818609E-02  0.1014493E+00
       -3   -1    0    0    0  501  0.00000000000E+00  0.00000000000E+00  0.33476108449E+03  0.33476109972E+03  0.10100000352E+00 0.  1.
        3   -1    0    0  501    0  0.00000000000E+00  0.00000000000E+00 -0.18467084050E+03  0.18467086812E+03  0.10100000352E+00 0. -1.
    10030    2    1    2    0    0  0.00000000000E+00  0.00000000000E+00  0.15009024398E+03  0.51943196784E+03  0.49727506259E+03 0.  0.
        2    1    3    3  502    0  0.17924949809E+03 -0.30936521535E+02 -0.10201622856E+03  0.20855397821E+03  0.25500000920E-02 0. -1.
       -2    1    3    3    0  502 -0.17924949809E+03  0.30936521535E+02  0.25210647254E+03  0.31087798963E+03  0.25500000920E-02 0.  1.
</event>
<event>
 5   0  0.1855407E-02  0.4997080E+03  0.7818609E-02  0.1013855E+00
        2   -1    0    0  501    0  0.00000000000E+00  0.00000000000E+00  0.61407195364E+03  0.61407195364E+03  0.25500000920E-02 0.  1.
       -2   -1    0    0    0  501  0.00000000000E+00  0.00000000000E+00 -0.10166074727E+03  0.10166074730E+03  0.25500000920E-02 0. -1.
    10030    2    1    2    0    0  0.00000000000E+00  0.00000000000E+00  0.51241120637E+03  0.71573270094E+03  0.49970796950E+03 0.  0.
        1    1    3    3  502    0  0.23599534070E+03 -0.65244449216E+02  0.18492969461E+03  0.30683811849E+03  0.50400001928E-02 0. -1.
       -1    1    3    3    0  502 -0.23599534070E+03  0.65244449216E+02  0.32748151176E+03  0.40889458245E+03  0.50400001928E-02 0.  1.
</event>
<event>
 5   0  0.1923706E-02  0.4990896E+03  0.7818609E-02  0.1014017E+00
       -2   -1    0    0    0  501  0.00000000000E+00  0.00000000000E+00  0.49159692745E+02  0.49159692811E+02  0.25500000920E-02 0.  1.
        2   -1    0    0  501    0  0.00000000000E+00  0.00000000000E+00 -0.12667409814E+04  0.12667409814E+04  0.25500000920E-02 0. -1.
    10030    2    1    2    0    0  0.00000000000E+00  0.00000000000E+00 -0.12175812886E+04  0.13159006742E+04  0.49908956101E+03 0.  0.
        3    1    3    3  502    0 -0.96423710348E+02 -0.28877532059E+02 -0.12108438857E+04  0.12150203165E+04  0.10100000352E+00 0. -1.
       -3    1    3    3    0  502  0.96423710348E+02  0.28877532059E+02 -0.67374029692E+01  0.10088035773E+03  0.10100000352E+00 0.  1.
</event>
<event>
 5   0  0.1982847E-02  0.5010644E+03  0.7818609E-02  0.1013501E+00
        2   -1    0    0  501    0  0.00000000000E+00  0.00000000000E+00  0.10400363967E+03  0.10400363970E+03  0.25500000920E-02 0. -1.
       -2   -1    0    0    0  501  0.00000000000E+00  0.00000000000E+00 -0.60350186314E+03  0.60350186314E+03  0.25500000920E-02 0.  1.
    10030    2    1    2    0    0  0.00000000000E+00  0.00000000000E+00 -0.49949822346E+03  0.70750550285E+03  0.50106442831E+03 0.  0.
        2    1    3    3  502    0  0.66944581859E+02 -0.14024106782E+03 -0.52722608999E+03  0.54965123862E+03  0.25500000920E-02 0.  1.
       -2    1    3    3    0  502 -0.66944581859E+02  0.14024106782E+03  0.27727866530E+02  0.15785426422E+03  0.25500000920E-02 0. -1.
</event>
<event>
 5   0  0.1227864E-02  0.4999634E+03  0.7818609E-02  0.1013788E+00
        1   -1    0    0  501    0  0.00000000000E+00  0.00000000000E+00  0.22259965863E+03  0.22259965869E+03  0.50400001928E-02 0.  1.
       -1   -1    0    0    0  501  0.00000000000E+00  0.00000000000E+00 -0.28073196093E+03  0.28073196097E+03  0.50400001928E-02 0. -1.
    10030    2    1    2    0    0  0.00000000000E+00  0.00000000000E+00 -0.58132302297E+02  0.50333161966E+03  0.49996335343E+03 0.  0.
        5    1    3    3  502    0 -0.87003618752E+01 -0.21963777356E+03  0.90698751918E+02  0.23783355833E+03  0.46999998093E+01 0. -1.
       -5    1    3    3    0  502  0.87003618752E+01  0.21963777356E+03 -0.14883105422E+03  0.26549806133E+03  0.46999998093E+01 0.  1.
</event>
<event>
 5   0  0.1941387E-02  0.4994275E+03  0.7818609E-02  0.1013928E+00
        2   -1    0    0  501    0  0.00000000000E+00  0.00000000000E+00  0.16172009241E+04  0.16172009241E+04  0.25500000920E-02 0. -1.
       -2   -1    0    0    0  501  0.00000000000E+00  0.00000000000E+00 -0.38558574635E+02  0.38558574720E+02  0.25500000920E-02 0.  1.
    10030    2    1    2    0    0  0.00000000000E+00  0.00000000000E+00  0.15786423494E+04  0.16557594988E+04  0.49942752268E+03 0.  0.
        4    1    3    3  502    0  0.50919337340E+02 -0.68854034728E+02  0.11657601200E+02  0.86435927595E+02  0.12699999809E+01 0.  1.
       -4    1    3    3    0  502 -0.50919337340E+02  0.68854034728E+02  0.15669847482E+04  0.15693235712E+04  0.12699999809E+01 0. -1.
</event>
<event>
 5   0  0.1180937E-02  0.5003176E+03  0.7818609E-02  0.1013696E+00
        1   -1    0    0  501    0  0.00000000000E+00  0.00000000000E+00  0.62709925782E+03  0.62709925784E+03  0.50400001928E-02 0.  1.
       -1   -1    0    0    0  501  0.00000000000E+00  0.00000000000E+00 -0.99791897504E+02  0.99791897631E+02  0.50400001928E-02 0. -1.
    10030    2    1    2    0    0  0.00000000000E+00  0.00000000000E+00  0.52730736032E+03  0.72689115547E+03  0.50031759879E+03 0.  0.
        1    1    3    3  502    0  0.19998874567E+03  0.61775513891E+02  0.64618762008E+02  0.21906003045E+03  0.50400001928E-02 0. -1.
       -1    1    3    3    0  502 -0.19998874567E+03 -0.61775513891E+02  0.46268859831E+03  0.50783112502E+03  0.50400001928E-02 0.  1.
</event>
<event>
 5   0  0.1180937E-02  0.4990024E+03  0.7818609E-02  0.1014040E+00
        1   -1    0    0  501    0  0.00000000000E+00  0.00000000000E+00  0.69011529592E+03  0.69011529594E+03  0.50400001928E-02 0. -1.
       -1   -1    0    0    0  501  0.00000000000E+00  0.00000000000E+00 -0.90203550417E+02  0.90203550558E+02  0.50400001928E-02 0.  1.
    10030    2    1    2    0    0  0.00000000000E+00  0.00000000000E+00  0.59991174550E+03  0.78031884650E+03  0.49900240461E+03 0.  0.
        1    1    3    3  502    0  0.16687768489E+02 -0.11649567682E+03  0.64398656442E+03  0.65465137250E+03  0.50400001928E-02 0. -1.
       -1    1    3    3    0  502 -0.16687768489E+02  0.11649567682E+03 -0.44074818914E+02  0.12566747400E+03  0.50400001928E-02 0.  1.
</event>
<event>
 5   0  0.1923706E-02  0.4997863E+03  0.7818609E-02  0.1013835E+00
        2   -1    0    0  501    0  0.00000000000E+00  0.00000000000E+00  0.56460268892E+03  0.56460268892E+03  0.25500000920E-02 0.  1.
       -2   -1    0    0    0  501  0.00000000000E+00  0.00000000000E+00 -0.11060272899E+03  0.11060272902E+03  0.25500000920E-02 0. -1.
    10030    2    1    2    0    0  0.00000000000E+00  0.00000000000E+00  0.45399995993E+03  0.67520541794E+03  0.49978634715E+03 0.  0.
        3    1    3    3  502    0  0.10559286188E+03 -0.21678863965E+03  0.13841572661E+03  0.27803972798E+03  0.10100000352E+00 0. -1.
       -3    1    3    3    0  502 -0.10559286188E+03  0.21678863965E+03  0.31558423332E+03  0.39716568996E+03  0.10100000352E+00 0.  1.
</event>
<event>
 5   0  0.1227864E-02  0.4982906E+03  0.7818609E-02  0.1014226E+00
        1   -1    0    0  501    0  0.00000000000E+00  0.00000000000E+00  0.98928976805E+02  0.98928976934E+02  0.50400001928E-02 0.  1.
       -1   -1    0    0    0  501  0.00000000000E+00  0.00000000000E+00 -0.62745410595E+03  0.62745410597E+03  0.50400001928E-02 0. -1.
    10030    2    1    2    0    0  0.00000000000E+00  0.00000000000E+00 -0.52852512914E+03  0.72638308290E+03  0.49829064911E+03 0.  0.
        5    1    3    3  502    0  0.13138949878E+03 -0.24164452926E+02 -0.57075140138E+03  0.58619653134E+03  0.46999998093E+01 0. -1.
       -5    1    3    3    0  502 -0.13138949878E+03  0.24164452926E+02  0.42226272240E+02  0.14018655156E+03  0.46999998093E+01 0.  1.
</event>
<event>
 5   0  0.1180937E-02  0.4996657E+03  0.7818609E-02  0.1013866E+00
       -1   -1    0    0    0  501  0.00000000000E+00  0.00000000000E+00  0.30846187940E+03  0.30846187944E+03  0.50400001928E-02 0. -1.
        1   -1    0    0  501    0  0.00000000000E+00  0.00000000000E+00 -0.20234734154E+03  0.20234734160E+03  0.50400001928E-02 0.  1.
    10030    2    1    2    0    0  0.00000000000E+00  0.00000000000E+00  0.10611453786E+03  0.51080922104E+03  0.49966565337E+03 0.  0.
        1    1    3    3  502    0  0.31345216230E+01  0.11270035866E+03 -0.17486163166E+03  0.20805717079E+03  0.50400001928E-02 0.  1.
       -1    1    3    3    0  502 -0.31345216230E+01 -0.11270035866E+03  0.28097616952E+03  0.30275205025E+03  0.50400001928E-02 0. -1.
</event>
<event>
 5   0  0.1209831E-02  0.4993419E+03  0.7818609E-02  0.1013951E+00
        1   -1    0    0  501    0  0.00000000000E+00  0.00000000000E+00  0.29951705776E+03  0.29951705780E+03  0.50400001928E-02 0. -1.
       -1   -1    0    0    0  501  0.00000000000E+00  0.00000000000E+00 -0.20812030109E+03  0.20812030115E+03  0.50400001928E-02 0.  1.
    10030    2    1    2    0    0  0.00000000000E+00  0.00000000000E+00  0.91396756665E+02  0.50763735895E+03  0.49934188796E+03 0.  0.
        4    1    3    3  502    0 -0.82952858552E+01 -0.24250722080E+03  0.10545760366E+03  0.26457793365E+03  0.12699999809E+01 0. -1.
       -4    1    3    3    0  502  0.82952858552E+01  0.24250722080E+03 -0.14060846998E+02  0.24305942529E+03  0.12699999809E+01 0.  1.
</event>
<event>
 5   0  0.1227864E-02  0.5014211E+03  0.7818609E-02  0.1013409E+00
       -1   -1    0    0    0  501  0.00000000000E+00  0.00000000000E+00  0.99630381125E+02  0.99630381252E+02  0.50400001928E-02 0. -1.
        1   -1    0    0  501    0  0.00000000000E+00  0.00000000000E+00 -0.63088971642E+03  0.63088971644E+03  0.50400001928E-02 0.  1.
    10030    2    1    2    0    0  0.00000000000E+00  0.00000000000E+00 -0.53125933529E+03  0.73052009769E+03  0.50142111223E+03 0.  0.
        5    1    3    3  502    0 -0.52335599314E+02  0.10500333125E+03  0.57095667754E+02  0.13056308745E+03  0.46999998093E+01 0. -1.
       -5    1    3    3    0  502  0.52335599314E+02 -0.10500333125E+03 -0.58835500305E+03  0.59995701024E+03  0.46999998093E+01 0.  1.
</event>
<event>
 5   0  0.1209831E-02  0.4997611E+03  0.7818609E-02  0.1013841E+00
        1   -1    0    0  501    0  0.00000000000E+00  0.00000000000E+00  0.62503970550E+03  0.62503970552E+03  0.50400001928E-02 0. -1.
       -1   -1    0    0    0  501  0.00000000000E+00  0.00000000000E+00 -0.99898116614E+02  0.99898116741E+02  0.50400001928E-02 0.  1.
    10030    2    1    2    0    0  0.00000000000E+00  0.00000000000E+00  0.52514158889E+03  0.72493782226E+03  0.49976110069E+03 0.  0.
        4    1    3    3  502    0  0.26490642793E+02 -0.24481587292E+03  0.20099230252E+03  0.31786173781E+03  0.12699999809E+01 0.  1.
       -4    1    3    3    0  502 -0.26490642793E+02  0.24481587292E+03  0.32414928636E+03  0.40707608446E+03  0.12699999809E+01 0. -1.
</event>
<event>
 5   0  0.1855407E-02  0.4980529E+03  0.7818609E-02  0.1014288E+00
       -2   -1    0    0    0  501  0.00000000000E+00  0.00000000000E+00  0.20267060536E+03  0.20267060538E+03  0.25500000920E-02 0.  1.
        2   -1    0    0  501    0  0.00000000000E+00  0.00000000000E+00 -0.30598502767E+03  0.30598502768E+03  0.25500000920E-02 0. -1.
    10030    2    1    2    0    0  0.00000000000E+00  0.00000000000E+00 -0.10331442231E+03  0.50865563306E+03  0.49805289196E+03 0.  0.
        1    1    3    3  502    0 -0.54961439215E+02 -0.10230345646E+03  0.17332178026E+03  0.20863172468E+03  0.50400001928E-02 0.  1.
       -1    1    3    3    0  502  0.54961439215E+02  0.10230345646E+03 -0.27663620257E+03  0.30002390838E+03  0.50400001928E-02 0. -1.
</event>
<event>
 5   0  0.1209831E-02  0.5002623E+03  0.7818609E-02  0.1013710E+00
        1   -1    0    0  501    0  0.00000000000E+00  0.00000000000E+00  0.60108291544E+03  0.60108291546E+03  0.50400001928E-02 0. -1.
       -1   -1    0    0    0  501  0.00000000000E+00  0.00000000000E+00 -0.10408813927E+03  0.10408813939E+03  0.50400001928E-02 0.  1.
    10030    2    1    2    0    0  0.00000000000E+00  0.00000000000E+00  0.49699477618E+03  0.70517105485E+03  0.50026234023E+03 0.  0.
        4    1    3    3  502    0 -0.99913067889E+02  0.10295830607E+03 -0.40319660951E+02  0.14903127821E+03  0.12699999809E+01 0.  1.
       -4    1    3    3    0  502  0.99913067889E+02 -0.10295830607E+03  0.53731443713E+03  0.55613977665E+03  0.12699999809E+01 0. -1.
</event>
<event>
 5   0  0.1923706E-02  0.4991902E+03  0.7818609E-02  0.1013991E+00
        2   -1    0    0  501    0  0.00000000000E+00  0.00000000000E+00  0.18319756792E+03  0.18319756794E+03  0.25500000920E-02 0.  1.
       -2   -1    0    0    0  501  0.00000000000E+00  0.00000000000E+00 -0.34005748234E+03  0.34005748235E+03  0.25500000920E-02 0. -1.
    10030    2    1    2    0    0  0.00000000000E+00  0.00000000000E+00 -0.15685991441E+03  0.52325505029E+03  0.49919015906E+03 0.  0.
        3    1    3    3  502    0  0.74747167445E+02 -0.12610721092E+03 -0.29017709355E+03  0.32510448091E+03  0.10100000352E+00 0. -1.
       -3    1    3    3    0  502 -0.74747167445E+02  0.12610721092E+03  0.13331717914E+03  0.19815056937E+03  0.10100000352E+00 0.  1.
</event>
<event>
 5   0  0.1941387E-02  0.4995263E+03  0.7818609E-02  0.1013903E+00
       -2   -1    0    0    0  501  0.00000000000E+00  0.00000000000E+00  0.71422165840E+02  0.71422165885E+02  0.25500000920E-02 0. -1.
        2   -1    0    0  501    0  0.00000000000E+00  0.00000000000E+00 -0.87342104631E+03  0.87342104631E+03  0.25500000920E-02 0.  1.
    10030    2    1    2    0    0  0.00000000000E+00  0.00000000000E+00 -0.80199888047E+03  0.94484321220E+03  0.49952626694E+03 0.  0.
        4    1    3    3  502    0  0.63828623350E+02 -0.80979244626E+01 -0.85747062747E+03  0.85988206134E+03  0.12699999809E+01 0.  1.
       -4    1    3    3    0  502 -0.63828623350E+02  0.80979244626E+01  0.55471747003E+02  0.84961150857E+02  0.12699999809E+01 0. -1.
</event>
<event>
 5   0  0.1209831E-02  0.5005163E+03  0.7818609E-02  0.1013644E+00
        1   -1    0    0  501    0  0.00000000000E+00  0.00000000000E+00  0.73919203315E+02  0.73919203487E+02  0.50400001928E-02 0. -1.
       -1   -1    0    0    0  501  0.00000000000E+00  0.00000000000E+00 -0.84726466711E+03  0.84726466712E+03  0.50400001928E-02 0.  1.
    10030    2    1    2    0    0  0.00000000000E+00  0.00000000000E+00 -0.77334546379E+03  0.92118387061E+03  0.50051625059E+03 0.  0.
        4    1    3    3  502    0  0.12114646337E+03  0.12270381125E+03 -0.52868424910E+02  0.18035901456E+03  0.12699999809E+01 0. -1.
       -4    1    3    3    0  502 -0.12114646337E+03 -0.12270381125E+03 -0.72047703888E+03  0.74082485605E+03  0.12699999809E+01 0.  1.
</event>
<event>
 5   0  0.1180937E-02  0.4992907E+03  0.7818609E-02  0.1013964E+00
       -1   -1    0    0    0  501  0.00000000000E+00  0.00000000000E+00  0.50856124634E+02  0.50856124884E+02  0.50400001928E-02 0. -1.
        1   -1    0    0  501    0  0.00000000000E+00  0.00000000000E+00 -0.12254728495E+04  0.12254728495E+04  0.50400001928E-02 0.  1.
    10030    2    1    2    0    0  0.00000000000E+00  0.00000000000E+00 -0.11746167249E+04  0.12763289744E+04  0.49929069744E+03 0.  0.
        1    1    3    3  502    0  0.12497960676E+03  0.39367041580E+02 -0.44116689386E+02  0.13826043678E+03  0.50400001928E-02 0. -1.
       -1    1    3    3    0  502 -0.12497960676E+03 -0.39367041580E+02 -0.11305000355E+04  0.11380685376E+04  0.50400001928E-02 0.  1.
</event>
<event>
 5   0  0.1982847E-02  0.4997585E+03  0.7818609E-02  0.1013842E+00
        2   -1    0    0  501    0  0.00000000000E+00  0.00000000000E+00  0.22963340354E+03  0.22963340355E+03  0.25500000920E-02 0. -1.
       -2   -1    0    0    0  501  0.00000000000E+00  0.00000000000E+00 -0.27191010992E+03  0.27191010993E+03  0.25500000920E-02 0.  1.
    10030    2    1    2    0    0  0.00000000000E+00  0.00000000000E+00 -0.42276706377E+02  0.50154351348E+03  0.49975851770E+03 0.  0.
        2    1    3    3  502    0  0.22760864113E+03  0.77644180042E+02  0.46966627655E+02  0.24503097015E+03  0.25500000920E-02 0.  1.
       -2    1    3    3    0  502 -0.22760864113E+03 -0.77644180042E+02 -0.89243334031E+02  0.25651254333E+03  0.25500000920E-02 0. -1.
</event>
<event>
 5   0  0.1923706E-02  0.5000365E+03  0.7818609E-02  0.1013769E+00
        2   -1    0    0  501    0  0.00000000000E+00  0.00000000000E+00  0.59101021856E+03  0.59101021857E+03  0.25500000920E-02 0. -1.
       -2   -1    0    0    0  501  0.00000000000E+00  0.00000000000E+00 -0.10576655274E+03  0.10576655277E+03  0.25500000920E-02 0.  1.
    10030    2    1    2    0    0  0.00000000000E+00  0.00000000000E+00  0.48524366583E+03  0.69677677134E+03  0.50003645252E+03 0.  0.
        3    1    3    3  502    0  0.10980032118E+03  0.80755694313E+02 -0.49443537664E+02  0.14499057319E+03  0.10100000352E+00 0.  1.
       -3    1    3    3    0  502 -0.10980032118E+03 -0.80755694313E+02  0.53468720349E+03  0.55178619815E+03  0.10100000352E+00 0. -1.
</event>
<event>
 5   0  0.1209831E-02  0.4921220E+03  0.7818609E-02  0.1015856E+00
       -1   -1    0    0    0  501  0.00000000000E+00  0.00000000000E+00  0.21445958661E+03  0.21445958667E+03  0.50400001928E-02 0. -1.
        1   -1    0    0  501    0  0.00000000000E+00  0.00000000000E+00 -0.28231895804E+03  0.28231895808E+03  0.50400001928E-02 0.  1.
    10030    2    1    2    0    0  0.00000000000E+00  0.00000000000E+00 -0.67859371426E+02  0.49677854475E+03  0.49212196480E+03 0.  0.
        4    1    3    3  502    0 -0.19368479390E+03 -0.13701222475E+02  0.11863900801E+03  0.22754856626E+03  0.12699999809E+01 0. -1.
       -4    1    3    3    0  502  0.19368479390E+03  0.13701222475E+02 -0.18649837944E+03  0.26922997849E+03  0.12699999809E+01 0.  1.
</event>
<event>
 5   0  0.1217270E-02  0.4999071E+03  0.7818609E-02  0.1013803E+00
        1   -1    0    0  501    0  0.00000000000E+00  0.00000000000E+00  0.39974191036E+03  0.39974191039E+03  0.50400001928E-02 0.  1.
       -1   -1    0    0    0  501  0.00000000000E+00  0.00000000000E+00 -0.15629281105E+03  0.15629281113E+03  0.50400001928E-02 0. -1.
    10030    2    1    2    0    0  0.00000000000E+00  0.00000000000E+00  0.24344909931E+03  0.55603472152E+03  0.49990713896E+03 0.  0.
        2    1    3    3  502    0  0.10197516047E+03  0.11489753464E+02 -0.13178128306E+03  0.16702471182E+03  0.25500000920E-02 0. -1.
       -2    1    3    3    0  502 -0.10197516047E+03 -0.11489753464E+02  0.37523038237E+03  0.38901000970E+03  0.25500000920E-02 0.  1.
</event>
<event>
 5   0  0.1209831E-02  0.5001946E+03  0.7818609E-02  0.1013728E+00
       -1   -1    0    0    0  501  0.00000000000E+00  0.00000000000E+00  0.46518342566E+02  0.46518342839E+02  0.50400001928E-02 0.  1.
        1   -1    0    0  501    0  0.00000000000E+00  0.00000000000E+00 -0.13446021850E+04  0.13446021850E+04  0.50400001928E-02 0. -1.
    10030    2    1    2    0    0  0.00000000000E+00  0.00000000000E+00 -0.12980838425E+04  0.13911205279E+04  0.50019462314E+03 0.  0.
        4    1    3    3  502    0  0.40231613634E+02 -0.31053587449E+02  0.31996417029E+02  0.60069057190E+02  0.12699999809E+01 0.  1.
       -4    1    3    3    0  502 -0.40231613634E+02  0.31053587449E+02 -0.13300802595E+04  0.13310514707E+04  0.12699999809E+01 0. -1.
</event>
<event>
 5   0  0.1982847E-02  0.5004468E+03  0.7818609E-02  0.1013662E+00
       -2   -1    0    0    0  501  0.00000000000E+00  0.00000000000E+00  0.33292543770E+02  0.33292543868E+02  0.25500000920E-02 0. -1.
        2   -1    0    0  501    0  0.00000000000E+00  0.00000000000E+00 -0.18806534521E+04  0.18806534521E+04  0.25500000920E-02 0.  1.
    10030    2    1    2    0    0  0.00000000000E+00  0.00000000000E+00 -0.18473609083E+04  0.19139459960E+04  0.50044675028E+03 0.  0.
        2    1    3    3  502    0 -0.14568923922E+03 -0.20322742447E+03 -0.88842116549E+03  0.92294035981E+03  0.25500000920E-02 0.  1.
       -2    1    3    3    0  502  0.14568923922E+03  0.20322742447E+03 -0.95893974285E+03  0.99100563616E+03  0.25500000920E-02 0. -1.
</event>
<event>
 5   0  0.8012875E-03  0.4994235E+03  0.7818609E-02  0.1013929E+00
       -3   -1    0    0    0  501  0.00000000000E+00  0.00000000000E+00  0.32399681153E+03  0.32399682728E+03  0.10100000352E+00 0. -1.
        3   -1    0    0  501    0  0.00000000000E+00  0.00000000000E+00 -0.19245852699E+03  0.19245855349E+03  0.10100000352E+00 0.  1.
    10030    2    1    2    0    0  0.00000000000E+00  0.00000000000E+00  0.13153828455E+03  0.51645538076E+03  0.49942350768E+03 0.  0.
        4    1    3    3  502    0  0.24575411623E+03 -0.43726007510E+02  0.58657269778E+02  0.25641633640E+03  0.12699999809E+01 0. -1.
       -4    1    3    3    0  502 -0.24575411623E+03  0.43726007510E+02  0.72881014771E+02  0.26003904436E+03  0.12699999809E+01 0.  1.
</event>
<event>
 5   0  0.1225989E-02  0.4976435E+03  0.7818609E-02  0.1014396E+00
       -1   -1    0    0    0  501  0.00000000000E+00  0.00000000000E+00  0.14472900691E+03  0.14472900700E+03  0.50400001928E-02 0. -1.
        1   -1    0    0  501    0  0.00000000000E+00  0.00000000000E+00 -0.42778058037E+03  0.42778058040E+03  0.50400001928E-02 0.  1.
    10030    2    1    2    0    0  0.00000000000E+00  0.00000000000E+00 -0.28305157346E+03  0.57250958740E+03  0.49764348125E+03 0.  0.
        3    1    3    3  502    0  0.22021621440E+03  0.40781796357E+02 -0.26625140612E+03  0.34791975722E+03  0.10100000352E+00 0. -1.
       -3    1    3    3    0  502 -0.22021621440E+03 -0.40781796357E+02 -0.16800167338E+02  0.22458983019E+03  0.10100000352E+00 0.  1.
</event>
<event>
 5   0  0.1180937E-02  0.4982240E+03  0.7818609E-02  0.1014244E+00
       -1   -1    0    0    0  501  0.00000000000E+00  0.00000000000E+00  0.55851545253E+02  0.55851545480E+02  0.50400001928E-02 0.  1.
        1   -1    0    0  501    0  0.00000000000E+00  0.00000000000E+00 -0.11111025485E+04  0.11111025485E+04  0.50400001928E-02 0. -1.
    10030    2    1    2    0    0  0.00000000000E+00  0.00000000000E+00 -0.10552510032E+04  0.11669540940E+04  0.49822402353E+03 0.  0.
        1    1    3    3  502    0  0.26454366956E+02  0.24595057220E+03 -0.45872749493E+03  0.52117409004E+03  0.50400001928E-02 0. -1.
       -1    1    3    3    0  502 -0.26454366956E+02 -0.24595057220E+03 -0.59652350829E+03  0.64578000392E+03  0.50400001928E-02 0.  1.
</event>
<event>
 5   0  0.1923706E-02  0.5001003E+03  0.7818609E-02  0.1013753E+00
        2   -1    0    0  501    0  0.00000000000E+00  0.00000000000E+00  0.80154999152E+03  0.80154999152E+03  0.25500000920E-02 0. -1.
       -2   -1    0    0    0  501  0.00000000000E+00  0.00000000000E+00 -0.78005209277E+02  0.78005209318E+02  0.25500000920E-02 0.  1.
    10030    2    1    2    0    0  0.00000000000E+00  0.00000000000E+00  0.72354478224E+03  0.87955520084E+03  0.50010028936E+03 0.  0.
        3    1    3    3  502    0  0.19313089396E+03  0.12708917691E+03  0.19423871523E+03  0.30196007978E+03  0.10100000352E+00 0.  1.
       -3    1    3    3    0  502 -0.19313089396E+03 -0.12708917691E+03  0.52930606701E+03  0.57759512106E+03  0.10100000352E+00 0. -1.
</event>
<event>
 5   0  0.1923706E-02  0.5011755E+03  0.7818609E-02  0.1013473E+00
        2   -1    0    0  501    0  0.00000000000E+00  0.00000000000E+00  0.97361010328E+03  0.97361010328E+03  0.25500000920E-02 0. -1.
       -2   -1    0    0    0  501  0.00000000000E+00  0.00000000000E+00 -0.64496270977E+02  0.64496271027E+02  0.25500000920E-02 0.  1.
    10030    2    1    2    0    0  0.00000000000E+00  0.00000000000E+00  0.90911383230E+03  0.10381063743E+04  0.50117550249E+03 0.  0.
        3    1    3    3  502    0  0.71004428963E+02  0.83633065630E+01  0.95203571442E+03  0.95471649486E+03  0.10100000352E+00 0. -1.
       -3    1    3    3    0  502 -0.71004428963E+02 -0.83633065630E+01 -0.42921882117E+02  0.83389879448E+02  0.10100000352E+00 0.  1.
</event>
<event>
 5   0  0.1209831E-02  0.4999208E+03  0.7818609E-02  0.1013800E+00
        1   -1    0    0  501    0  0.00000000000E+00  0.00000000000E+00  0.83840202294E+03  0.83840202295E+03  0.50400001928E-02 0. -1.
       -1   -1    0    0    0  501  0.00000000000E+00  0.00000000000E+00 -0.74522970104E+02  0.74522970275E+02  0.50400001928E-02 0.  1.
    10030    2    1    2    0    0  0.00000000000E+00  0.00000000000E+00  0.76387905284E+03  0.91292499323E+03  0.49992082963E+03 0.  0.
        4    1    3    3  502    0 -0.99056090017E+02 -0.22520589428E+03  0.46255467166E+03  0.52391625377E+03  0.12699999809E+01 0.  1.
       -4    1    3    3    0  502  0.99056090017E+02  0.22520589428E+03  0.30132438118E+03  0.38900873946E+03  0.12699999809E+01 0. -1.
</event>
<event>
 5   0  0.8012875E-03  0.4999352E+03  0.7818609E-02  0.1013796E+00
       -3   -1    0    0    0  501  0.00000000000E+00  0.00000000000E+00  0.87527088034E+02  0.87527146307E+02  0.10100000352E+00 0.  1.
        3   -1    0    0  501    0  0.00000000000E+00  0.00000000000E+00 -0.71387933943E+03  0.71387934657E+03  0.10100000352E+00 0. -1.
    10030    2    1    2    0    0  0.00000000000E+00  0.00000000000E+00 -0.62635225139E+03  0.80140649288E+03  0.49993521981E+03 0.  0.
        1    1    3    3  502    0  0.17215032260E+03  0.16796551116E+03 -0.42231887411E+03  0.48600553286E+03  0.50400001928E-02 0. -1.
       -1    1    3    3    0  502 -0.17215032260E+03 -0.16796551116E+03 -0.20403337728E+03  0.31540096002E+03  0.50400001928E-02 0.  1.
</event>
<event>
 5   0  0.1855407E-02  0.5013529E+03  0.7818609E-02  0.1013426E+00
        2   -1    0    0  501    0  0.00000000000E+00  0.00000000000E+00  0.57804750556E+03  0.57804750557E+03  0.25500000920E-02 0. -1.
       -2   -1    0    0    0  501  0.00000000000E+00  0.00000000000E+00 -0.10870850679E+03  0.10870850682E+03  0.25500000920E-02 0.  1.
    10030    2    1    2    0    0  0.00000000000E+00  0.00000000000E+00  0.46933899878E+03  0.68675601238E+03  0.50135289445E+03 0.  0.
        1    1    3    3  502    0 -0.10452163705E+03  0.14553873340E+03  0.47480539353E+03  0.50749035190E+03  0.50400001928E-02 0. -1.
       -1    1    3    3    0  502  0.10452163705E+03 -0.14553873340E+03 -0.54663947467E+01  0.17926566048E+03  0.50400001928E-02 0.  1.
</event>
<event>
 5   0  0.1217270E-02  0.5003969E+03  0.7818609E-02  0.1013675E+00
        1   -1    0    0  501    0  0.00000000000E+00  0.00000000000E+00  0.27568332718E+03  0.27568332722E+03  0.50400001928E-02 0. -1.
       -1   -1    0    0    0  501  0.00000000000E+00  0.00000000000E+00 -0.22706943951E+03  0.22706943956E+03  0.50400001928E-02 0.  1.
    10030    2    1    2    0    0  0.00000000000E+00  0.00000000000E+00  0.48613887668E+02  0.50275276679E+03  0.50039687693E+03 0.  0.
        2    1    3    3  502    0  0.12653096703E+03 -0.19670011460E+03 -0.64983500529E+02  0.24274240678E+03  0.25500000920E-02 0.  1.
       -2    1    3    3    0  502 -0.12653096703E+03  0.19670011460E+03  0.11359738820E+03  0.26001036001E+03  0.25500000920E-02 0. -1.
</event>
<event>
 5   0  0.1180937E-02  0.5015409E+03  0.7818609E-02  0.1013377E+00
       -1   -1    0    0    0  501  0.00000000000E+00  0.00000000000E+00  0.55300254796E+02  0.55300255026E+02  0.50400001928E-02 0.  1.
        1   -1    0    0  501    0  0.00000000000E+00  0.00000000000E+00 -0.11371705455E+04  0.11371705455E+04  0.50400001928E-02 0. -1.
    10030    2    1    2    0    0  0.00000000000E+00  0.00000000000E+00 -0.10818702907E+04  0.11924708005E+04  0.50154090982E+03 0.  0.
        1    1    3    3  502    0  0.14961572491E+03  0.12315239653E+03 -0.16249511272E+03  0.25289531351E+03  0.50400001928E-02 0.  1.
       -1    1    3    3    0  502 -0.14961572491E+03 -0.12315239653E+03 -0.91937517797E+03  0.93957548701E+03  0.50400001928E-02 0. -1.
</event>
<event>
 5   0  0.1967813E-02  0.5001315E+03  0.7818609E-02  0.1013745E+00
        2   -1    0    0  501    0  0.00000000000E+00  0.00000000000E+00  0.12932694300E+04  0.12932694300E+04  0.25500000920E-02 0. -1.
       -2   -1    0    0    0  501  0.00000000000E+00  0.00000000000E+00 -0.48352549772E+02  0.48352549840E+02  0.25500000920E-02 0.  1.
    10030    2    1    2    0    0  0.00000000000E+00  0.00000000000E+00  0.12449168803E+04  0.13416219799E+04  0.50013148084E+03 0.  0.
        5    1    3    3  502    0  0.12145221769E+03  0.95524129072E+02  0.95182411310E+02  0.18154140530E+03  0.46999998093E+01 0.  1.
       -5    1    3    3    0  502 -0.12145221769E+03 -0.95524129072E+02  0.11497344690E+04  0.11600805746E+04  0.46999998093E+01 0. -1.
</event>
<event>
 5   0  0.1855407E-02  0.5004723E+03  0.7818609E-02  0.1013656E+00
        2   -1    0    0  501    0  0.00000000000E+00  0.00000000000E+00  0.60322811128E+03  0.60322811128E+03  0.25500000920E-02 0. -1.
       -2   -1    0    0    0  501  0.00000000000E+00  0.00000000000E+00 -0.10380506487E+03  0.10380506490E+03  0.25500000920E-02 0.  1.
    10030    2    1    2    0    0  0.00000000000E+00  0.00000000000E+00  0.49942304640E+03  0.70703317619E+03  0.50047230987E+03 0.  0.
        1    1    3    3  502    0  0.39995701157E+02 -0.11975784185E+03 -0.55505709183E+02  0.13792200902E+03  0.50400001928E-02 0.  1.
       -1    1    3    3    0  502 -0.39995701157E+02  0.11975784185E+03  0.55492875559E+03  0.56911116717E+03  0.50400001928E-02 0. -1.
</event>
<event>
 5   0  0.1217270E-02  0.5007855E+03  0.7818609E-02  0.1013574E+00
        1   -1    0    0  501    0  0.00000000000E+00  0.00000000000E+00  0.70722247078E+03  0.70722247080E+03  0.50400001928E-02 0.  1.
       -1   -1    0    0    0  501  0.00000000000E+00  0.00000000000E+00 -0.88651792028E+02  0.88651792172E+02  0.50400001928E-02 0. -1.
    10030    2    1    2    0    0  0.00000000000E+00  0.00000000000E+00  0.61857067875E+03  0.79587426297E+03  0.50078554077E+03 0.  0.
        2    1    3    3  502    0 -0.18726287773E+03  0.11812100081E+03  0.12342724227E+03  0.25348420138E+03  0.25500000920E-02 0.  1.
       -2    1    3    3    0  502  0.18726287773E+03 -0.11812100081E+03  0.49514343649E+03  0.54239006159E+03  0.25500000920E-02 0. -1.
</event>
<event>
 5   0  0.1217270E-02  0.4995640E+03  0.7818609E-02  0.1013893E+00
        1   -1    0    0  501    0  0.00000000000E+00  0.00000000000E+00  0.33203110345E+03  0.33203110349E+03  0.50400001928E-02 0. -1.
       -1   -1    0    0    0  501  0.00000000000E+00  0.00000000000E+00 -0.18790726171E+03  0.18790726178E+03  0.50400001928E-02 0.  1.
    10030    2    1    2    0    0  0.00000000000E+00  0.00000000000E+00  0.14412384174E+03  0.51993836526E+03  0.49956403185E+03 0.  0.
        2    1    3    3  502    0  0.33767127671E+02  0.21346727337E+03  0.20239935826E+03  0.29609794991E+03  0.25500000920E-02 0.  1.
       -2    1    3    3    0  502 -0.33767127671E+02 -0.21346727337E+03 -0.58275516523E+02  0.22384041535E+03  0.25500000920E-02 0. -1.
</event>
<event>
 5   0  0.1982847E-02  0.4993537E+03  0.7818609E-02  0.1013948E+00
        2   -1    0    0  501    0  0.00000000000E+00  0.00000000000E+00  0.14110057296E+04  0.14110057296E+04  0.25500000920E-02 0.  1.
       -2   -1    0    0    0  501  0.00000000000E+00  0.00000000000E+00 -0.44180211914E+02  0.44180211988E+02  0.25500000920E-02 0. -1.
    10030    2    1    2    0    0  0.00000000000E+00  0.00000000000E+00  0.13668255177E+04  0.14551859416E+04  0.49935371112E+03 0.  0.
        2    1    3    3  502    0 -0.19940080000E+03  0.13546333622E+03  0.49393687010E+03  0.54962225770E+03  0.25500000920E-02 0. -1.
       -2    1    3    3    0  502  0.19940080000E+03 -0.13546333622E+03  0.87288864762E+03  0.90556368393E+03  0.25500000920E-02 0.  1.
</event>
<event>
 5   0  0.1227864E-02  0.5016383E+03  0.7818609E-02  0.1013352E+00
       -1   -1    0    0    0  501  0.00000000000E+00  0.00000000000E+00  0.21240109421E+03  0.21240109427E+03  0.50400001928E-02 0. -1.
        1   -1    0    0  501    0  0.00000000000E+00  0.00000000000E+00 -0.29618602815E+03  0.29618602819E+03  0.50400001928E-02 0.  1.
    10030    2    1    2    0    0  0.00000000000E+00  0.00000000000E+00 -0.83784933933E+02  0.50858712246E+03  0.50163826208E+03 0.  0.
        5    1    3    3  502    0 -0.16672179347E+03  0.13402046607E+03  0.90804129818E+02  0.23243304785E+03  0.46999998093E+01 0. -1.
       -5    1    3    3    0  502  0.16672179347E+03 -0.13402046607E+03 -0.17458906375E+03  0.27615407461E+03  0.46999998093E+01 0.  1.
</event>
<event>
 5   0  0.1180937E-02  0.5001777E+03  0.7818609E-02  0.1013733E+00
        1   -1    0    0  501    0  0.00000000000E+00  0.00000000000E+00  0.17417074977E+03  0.17417074984E+03  0.50400001928E-02 0. -1.
       -1   -1    0    0    0  501  0.00000000000E+00  0.00000000000E+00 -0.35909835130E+03  0.35909835134E+03  0.50400001928E-02 0.  1.
    10030    2    1    2    0    0  0.00000000000E+00  0.00000000000E+00 -0.18492760153E+03  0.53326910118E+03  0.50017768489E+03 0.  0.
        1    1    3    3  502    0  0.10138106654E+01  0.18701250833E+03  0.84562710134E+02  0.20524511701E+03  0.50400001928E-02 0. -1.
       -1    1    3    3    0  502 -0.10138106654E+01 -0.18701250833E+03 -0.26949031167E+03  0.32802398417E+03  0.50400001928E-02 0.  1.
</event>
<event>
 5   0  0.1967813E-02  0.4994898E+03  0.7818609E-02  0.1013912E+00
       -2   -1    0    0    0  501  0.00000000000E+00  0.00000000000E+00  0.15603956257E+03  0.15603956259E+03  0.25500000920E-02 0.  1.
        2   -1    0    0  501    0  0.00000000000E+00  0.00000000000E+00 -0.39972250734E+03  0.39972250735E+03  0.25500000920E-02 0. -1.
    10030    2    1    2    0    0  0.00000000000E+00  0.00000000000E+00 -0.24368294477E+03  0.55576206994E+03  0.49948984055E+03 0.  0.
        5    1    3    3  502    0 -0.32093681375E+02 -0.22853417765E+03 -0.22793901940E+03  0.32440123505E+03  0.46999998093E+01 0. -1.
       -5    1    3    3    0  502  0.32093681375E+02  0.22853417765E+03 -0.15743925369E+02  0.23136083489E+03  0.46999998093E+01 0.  1.
</event>
<event>
 5   0  0.1180937E-02  0.4995429E+03  0.7818609E-02  0.1013898E+00
        1   -1    0    0  501    0  0.00000000000E+00  0.00000000000E+00  0.15116727351E+03  0.15116727359E+03  0.50400001928E-02 0.  1.
       -1   -1    0    0    0  501  0.00000000000E+00  0.00000000000E+00 -0.41269368293E+03  0.41269368296E+03  0.50400001928E-02 0. -1.
    10030    2    1    2    0    0  0.00000000000E+00  0.00000000000E+00 -0.26152640942E+03  0.56386095655E+03  0.49954290656E+03 0.  0.
        1    1    3    3  502    0 -0.58160811988E+02 -0.16452369143E+03 -0.33247581668E+03  0.37548754146E+03  0.50400001928E-02 0. -1.
       -1    1    3    3    0  502  0.58160811988E+02  0.16452369143E+03  0.70949407257E+02  0.18837341508E+03  0.50400001928E-02 0.  1.
</event>
<event>
 5   0  0.1982847E-02  0.4997937E+03  0.7818609E-02  0.1013833E+00
        2   -1    0    0  501    0  0.00000000000E+00  0.00000000000E+00  0.16415851983E+04  0.16415851983E+04  0.25500000920E-02 0.  1.
       -2   -1    0    0    0  501  0.00000000000E+00  0.00000000000E+00 -0.38041544261E+02  0.38041544347E+02  0.25500000920E-02 0. -1.
    10030    2    1    2    0    0  0.00000000000E+00  0.00000000000E+00  0.16035436540E+04  0.16796267426E+04  0.49979370165E+03 0.  0.
        2    1    3    3  502    0  0.14247814339E+03 -0.25586638609E+02  0.14863346112E+04  0.14933670928E+04  0.25500000920E-02 0.  1.
       -2    1    3    3    0  502 -0.14247814339E+03  0.25586638609E+02  0.11720904277E+03  0.18625964977E+03  0.25500000920E-02 0. -1.
</event>
<event>
 5   0  0.1982847E-02  0.5014491E+03  0.7818609E-02  0.1013401E+00
        2   -1    0    0  501    0  0.00000000000E+00  0.00000000000E+00  0.13212743015E+04  0.13212743015E+04  0.25500000920E-02 0. -1.
       -2   -1    0    0    0  501  0.00000000000E+00  0.00000000000E+00 -0.47577410654E+02  0.47577410723E+02  0.25500000920E-02 0.  1.
    10030    2    1    2    0    0  0.00000000000E+00  0.00000000000E+00  0.12736968909E+04  0.13688517122E+04  0.50144914031E+03 0.  0.
        2    1    3    3  502    0  0.67591458713E+02 -0.23438132406E+03  0.47862410999E+03  0.53720038071E+03  0.25500000920E-02 0.  1.
       -2    1    3    3    0  502 -0.67591458713E+02  0.23438132406E+03  0.79507278086E+03  0.83165133153E+03  0.25500000920E-02 0. -1.
</event>
<event>
 5   0  0.1180937E-02  0.5002699E+03  0.7818609E-02  0.1013708E+00
       -1   -1    0    0    0  501  0.00000000000E+00  0.00000000000E+00  0.92042347610E+02  0.92042347748E+02  0.50400001928E-02 0.  1.
        1   -1    0    0  501    0  0.00000000000E+00  0.00000000000E+00 -0.67976853770E+03  0.67976853772E+03  0.50400001928E-02 0. -1.
    10030    2    1    2    0    0  0.00000000000E+00  0.00000000000E+00 -0.58772619009E+03  0.77181088547E+03  0.50026989556E+03 0.  0.
        1    1    3    3  502    0 -0.69996491938E+02 -0.14471020595E+03  0.18012124520E+01  0.16076006028E+03  0.50400001928E-02 0.  1.
       -1    1    3    3    0  502  0.69996491938E+02  0.14471020595E+03 -0.58952740254E+03  0.61105082519E+03  0.50400001928E-02 0. -1.
</event>
<event>
 5   0  0.1923706E-02  0.5125042E+03  0.7818609E-02  0.1010566E+00
        2   -1    0    0  501    0  0.00000000000E+00  0.00000000000E+00  0.96179769525E+03  0.96179769525E+03  0.25500000920E-02 0. -1.
       -2   -1    0    0    0  501  0.00000000000E+00  0.00000000000E+00 -0.68273335236E+02  0.68273335284E+02  0.25500000920E-02 0.  1.
    10030    2    1    2    0    0  0.00000000000E+00  0.00000000000E+00  0.89352436001E+03  0.10300710305E+04  0.51250419121E+03 0.  0.
        3    1    3    3  502    0  0.24975792689E+03 -0.54808077988E+01  0.33207462736E+03  0.41555099523E+03  0.10100000352E+00 0. -1.
       -3    1    3    3    0  502 -0.24975792689E+03  0.54808077988E+01  0.56144973265E+03  0.61452003531E+03  0.10100000352E+00 0.  1.
</event>
<event>
 5   0  0.1982847E-02  0.4995916E+03  0.7818609E-02  0.1013886E+00
        2   -1    0    0  501    0  0.00000000000E+00  0.00000000000E+00  0.12218124240E+04  0.12218124240E+04  0.25500000920E-02 0.  1.
       -2   -1    0    0    0  501  0.00000000000E+00  0.00000000000E+00 -0.51069976096E+02  0.51069976160E+02  0.25500000920E-02 0. -1.
    10030    2    1    2    0    0  0.00000000000E+00  0.00000000000E+00  0.11707424479E+04  0.12728824002E+04  0.49959155850E+03 0.  0.
        2    1    3    3  502    0  0.20376344897E+03 -0.63185881471E+02  0.25428911313E+03  0.33192612404E+03  0.25500000920E-02 0. -1.
       -2    1    3    3    0  502 -0.20376344897E+03  0.63185881471E+02  0.91645333478E+03  0.94095627613E+03  0.25500000920E-02 0.  1.
</event>
<event>
 5   0  0.1225989E-02  0.5002285E+03  0.7818609E-02  0.1013719E+00
        1   -1    0    0  501    0  0.00000000000E+00  0.00000000000E+00  0.65128823238E+03  0.65128823239E+03  0.50400001928E-02 0. -1.
       -1   -1    0    0    0  501  0.00000000000E+00  0.00000000000E+00 -0.96051398553E+02  0.96051398685E+02  0.50400001928E-02 0.  1.
    10030    2    1    2    0    0  0.00000000000E+00  0.00000000000E+00  0.55523683382E+03  0.74733963108E+03  0.50022853032E+03 0.  0.
        3    1    3    3  502    0 -0.24244443999E+03  0.57674684504E+02  0.24587460618E+03  0.35008571505E+03  0.10100000352E+00 0.  1.
       -3    1    3    3    0  502  0.24244443999E+03 -0.57674684504E+02  0.30936222764E+03  0.39725391603E+03  0.10100000352E+00 0. -1.
</event>
<event>
 5   0  0.1225989E-02  0.5059438E+03  0.7818609E-02  0.1012239E+00
        1   -1    0    0  501    0  0.00000000000E+00  0.00000000000E+00  0.50749770710E+03  0.50749770713E+03  0.50400001928E-02 0.  1.
       -1   -1    0    0    0  501  0.00000000000E+00  0.00000000000E+00 -0.12609865700E+03  0.12609865711E+03  0.50400001928E-02 0. -1.
    10030    2    1    2    0    0  0.00000000000E+00  0.00000000000E+00  0.38139905010E+03  0.63359636423E+03  0.50594378873E+03 0.  0.
        3    1    3    3  502    0 -0.74811199750E+02 -0.17118232784E+03  0.40430731276E+03  0.44538131789E+03  0.10100000352E+00 0.  1.
       -3    1    3    3    0  502  0.74811199750E+02  0.17118232784E+03 -0.22908262658E+02  0.18821504635E+03  0.10100000352E+00 0. -1.
</event>
<event>
 5   0  0.1209831E-02  0.4982522E+03  0.7818609E-02  0.1014236E+00
       -1   -1    0    0    0  501  0.00000000000E+00  0.00000000000E+00  0.11288815811E+04  0.11288815811E+04  0.50400001928E-02 0. -1.
        1   -1    0    0  501    0  0.00000000000E+00  0.00000000000E+00 -0.54978133521E+02  0.54978133752E+02  0.50400001928E-02 0.  1.
    10030    2    1    2    0    0  0.00000000000E+00  0.00000000000E+00  0.10739034475E+04  0.11838597148E+04  0.49825215478E+03 0.  0.
        4    1    3    3  502    0  0.10868937711E+03  0.13737460802E+03  0.11607302610E+03  0.21014215168E+03  0.12699999809E+01 0.  1.
       -4    1    3    3    0  502 -0.10868937711E+03 -0.13737460802E+03  0.95783042144E+03  0.97371756314E+03  0.12699999809E+01 0. -1.
</event>
<event>
 5   0  0.1923706E-02  0.5014932E+03  0.7818609E-02  0.1013390E+00
       -2   -1    0    0    0  501  0.00000000000E+00  0.00000000000E+00  0.54416590518E+02  0.54416590578E+02  0.25500000920E-02 0. -1.
        2   -1    0    0  501    0  0.00000000000E+00  0.00000000000E+00 -0.11554169142E+04  0.11554169142E+04  0.25500000920E-02 0.  1.
    10030    2    1    2    0    0  0.00000000000E+00  0.00000000000E+00 -0.11010003237E+04  0.12098335048E+04  0.50149316700E+03 0.  0.
        3    1    3    3  502    0 -0.13045837714E+02  0.21148495574E+03 -0.22703436951E+03  0.31054902274E+03  0.10100000352E+00 0. -1.
       -3    1    3    3    0  502  0.13045837714E+02 -0.21148495574E+03 -0.87396595417E+03  0.89928448204E+03  0.10100000352E+00 0.  1.
</event>
<event>
 5   0  0.1982847E-02  0.4991595E+03  0.7818609E-02  0.1013999E+00
        2   -1    0    0  501    0  0.00000000000E+00  0.00000000000E+00  0.15826681990E+04  0.15826681990E+04  0.25500000920E-02 0.  1.
       -2   -1    0    0    0  501  0.00000000000E+00  0.00000000000E+00 -0.39357626462E+02  0.39357626544E+02  0.25500000920E-02 0. -1.
    10030    2    1    2    0    0  0.00000000000E+00  0.00000000000E+00  0.15433105725E+04  0.16220258255E+04  0.49915954907E+03 0.  0.
        2    1    3    3  502    0 -0.49448069721E+02 -0.85197544441E+02  0.26486225210E+02  0.10200614349E+03  0.25500000920E-02 0. -1.
       -2    1    3    3    0  502  0.49448069721E+02  0.85197544441E+02  0.15168243473E+04  0.15200196821E+04  0.25500000920E-02 0.  1.
</event>
<event>
 5   0  0.1941387E-02  0.5003995E+03  0.7818609E-02  0.1013675E+00
       -2   -1    0    0    0  501  0.00000000000E+00  0.00000000000E+00  0.13473743195E+03  0.13473743198E+03  0.25500000920E-02 0.  1.
        2   -1    0    0  501    0  0.00000000000E+00  0.00000000000E+00 -0.46460665790E+03  0.46460665791E+03  0.25500000920E-02 0. -1.
    10030    2    1    2    0    0  0.00000000000E+00  0.00000000000E+00 -0.32986922594E+03  0.59934408988E+03  0.50039947228E+03 0.  0.
        4    1    3    3  502    0  0.33107368650E+02 -0.33002749053E+02  0.12945646378E+03  0.13764399085E+03  0.12699999809E+01 0.  1.
       -4    1    3    3    0  502 -0.33107368650E+02  0.33002749053E+02 -0.45932568972E+03  0.46170009903E+03  0.12699999809E+01 0. -1.
</event>
<event>
 5   0  0.1217270E-02  0.4999238E+03  0.7818609E-02  0.1013799E+00
        1   -1    0    0  501    0  0.00000000000E+00  0.00000000000E+00  0.12456069849E+04  0.12456069849E+04  0.50400001928E-02 0. -1.
       -1   -1    0    0    0  501  0.00000000000E+00  0.00000000000E+00 -0.50161041368E+02  0.50161041621E+02  0.50400001928E-02 0.  1.
    10030    2    1    2    0    0  0.00000000000E+00  0.00000000000E+00  0.11954459435E+04  0.12957680265E+04  0.49992376887E+03 0.  0.
        2    1    3    3  502    0 -0.10056181284E+02 -0.24832495636E+03  0.66700723421E+03  0.71180408908E+03  0.25500000920E-02 0. -1.
       -2    1    3    3    0  502  0.10056181284E+02  0.24832495636E+03  0.52843870934E+03  0.58396393747E+03  0.25500000920E-02 0.  1.
</event>
<event>
 5   0  0.1227864E-02  0.5000566E+03  0.7818609E-02  0.1013764E+00
        1   -1    0    0  501    0  0.00000000000E+00  0.00000000000E+00  0.41029413774E+03  0.41029413777E+03  0.50400001928E-02 0.  1.
       -1   -1    0    0    0  501  0.00000000000E+00  0.00000000000E+00 -0.15236425961E+03  0.15236425970E+03  0.50400001928E-02 0. -1.
    10030    2    1    2    0    0  0.00000000000E+00  0.00000000000E+00  0.25792987812E+03  0.56265839746E+03  0.50005664700E+03 0.  0.
        5    1    3    3  502    0 -0.11708204804E+03  0.14292592942E+03 -0.60508540626E+02  0.19447210792E+03  0.46999998093E+01 0. -1.
       -5    1    3    3    0  502  0.11708204804E+03 -0.14292592942E+03  0.31843841875E+03  0.36818628954E+03  0.46999998093E+01 0.  1.
</event>
<event>
 5   0  0.1855407E-02  0.5004055E+03  0.7818609E-02  0.1013673E+00
        2   -1    0    0  501    0  0.00000000000E+00  0.00000000000E+00  0.80380545266E+03  0.80380545266E+03  0.25500000920E-02 0.  1.
       -2   -1    0    0    0  501  0.00000000000E+00  0.00000000000E+00 -0.77881289179E+02  0.77881289220E+02  0.25500000920E-02 0. -1.
    10030    2    1    2    0    0  0.00000000000E+00  0.00000000000E+00  0.72592416348E+03  0.88168674188E+03  0.50040545529E+03 0.  0.
        1    1    3    3  502    0  0.21174897764E+03  0.62046663056E+01  0.12838326249E+03  0.24770625654E+03  0.50400001928E-02 0. -1.
       -1    1    3    3    0  502 -0.21174897764E+03 -0.62046663056E+01  0.59754090099E+03  0.63398048534E+03  0.50400001928E-02 0.  1.
</event>
<event>
 5   0  0.1982847E-02  0.5005769E+03  0.7818609E-02  0.1013628E+00
        2   -1    0    0  501    0  0.00000000000E+00  0.00000000000E+00  0.47499072085E+03  0.47499072086E+03  0.25500000920E-02 0. -1.
       -2   -1    0    0    0  501  0.00000000000E+00  0.00000000000E+00 -0.13188533619E+03  0.13188533621E+03  0.25500000920E-02 0.  1.
    10030    2    1    2    0    0  0.00000000000E+00  0.00000000000E+00  0.34310538466E+03  0.60687605707E+03  0.50057691084E+03 0.  0.
        2    1    3    3  502    0 -0.23226146551E+03  0.49711628969E+02  0.75879071131E+02  0.24934768468E+03  0.25500000920E-02 0.  1.
       -2    1    3    3    0  502  0.23226146551E+03 -0.49711628969E+02  0.26722631353E+03  0.35752837239E+03  0.25500000920E-02 0. -1.
</event>
<event>
 5   0  0.1180937E-02  0.4995578E+03  0.7818609E-02  0.1013894E+00
        1   -1    0    0  501    0  0.00000000000E+00  0.00000000000E+00  0.41037217822E+02  0.41037218132E+02  0.50400001928E-02 0.  1.
       -1   -1    0    0    0  501  0.00000000000E+00  0.00000000000E+00 -0.15203150385E+04  0.15203150385E+04  0.50400001928E-02 0. -1.
    10030    2    1    2    0    0  0.00000000000E+00  0.00000000000E+00 -0.14792778207E+04  0.15613522566E+04  0.49955780302E+03 0.  0.
        1    1    3    3  502    0 -0.14151788655E+02 -0.24936953086E+03 -0.74593932400E+03  0.78664535284E+03  0.50400001928E-02 0.  1.
       -1    1    3    3    0  502  0.14151788655E+02  0.24936953086E+03 -0.73333849666E+03  0.77470690377E+03  0.50400001928E-02 0. -1.
</event>
<event>
 5   0  0.1225989E-02  0.4997056E+03  0.7818609E-02  0.1013856E+00
       -1   -1    0    0    0  501  0.00000000000E+00  0.00000000000E+00  0.16288063233E+03  0.16288063241E+03  0.50400001928E-02 0.  1.
        1   -1    0    0  501    0  0.00000000000E+00  0.00000000000E+00 -0.38326478492E+03  0.38326478495E+03  0.50400001928E-02 0. -1.
    10030    2    1    2    0    0  0.00000000000E+00  0.00000000000E+00 -0.22038415259E+03  0.54614541736E+03  0.49970555549E+03 0.  0.
        3    1    3    3  502    0 -0.13969518486E+03  0.10045999326E+03 -0.30818958930E+03  0.35296995350E+03  0.10100000352E+00 0. -1.
       -3    1    3    3    0  502  0.13969518486E+03 -0.10045999326E+03  0.87805436714E+02  0.19317546386E+03  0.10100000352E+00 0.  1.
</event>
<event>
 5   0  0.1217270E-02  0.4997374E+03  0.7818609E-02  0.1013847E+00
       -1   -1    0    0    0  501  0.00000000000E+00  0.00000000000E+00  0.82363036978E+02  0.82363037133E+02  0.50400001928E-02 0. -1.
        1   -1    0    0  501    0  0.00000000000E+00  0.00000000000E+00 -0.75803855430E+03  0.75803855432E+03  0.50400001928E-02 0.  1.
    10030    2    1    2    0    0  0.00000000000E+00  0.00000000000E+00 -0.67567551732E+03  0.84040159145E+03  0.49973736122E+03 0.  0.
        2    1    3    3  502    0  0.39969895906E+02 -0.11221570634E+03  0.31538095628E+02  0.12322584473E+03  0.25500000920E-02 0. -1.
       -2    1    3    3    0  502 -0.39969895906E+02  0.11221570634E+03 -0.70721361295E+03  0.71717574672E+03  0.25500000920E-02 0.  1.
</event>
<event>
 5   0  0.1227864E-02  0.4971439E+03  0.7818609E-02  0.1014527E+00
        1   -1    0    0  501    0  0.00000000000E+00  0.00000000000E+00  0.13814182703E+04  0.13814182703E+04  0.50400001928E-02 0. -1.
       -1   -1    0    0    0  501  0.00000000000E+00  0.00000000000E+00 -0.44727962395E+02  0.44727962679E+02  0.50400001928E-02 0.  1.
    10030    2    1    2    0    0  0.00000000000E+00  0.00000000000E+00  0.13366903079E+04  0.14261462330E+04  0.49714394155E+03 0.  0.
        5    1    3    3  502    0 -0.18793028841E+02  0.20907430427E+03  0.10500054921E+04  0.10707935684E+04  0.46999998093E+01 0. -1.
       -5    1    3    3    0  502  0.18793028841E+02 -0.20907430427E+03  0.28668481582E+03  0.35535266463E+03  0.46999998093E+01 0.  1.
</event>
<event>
 5   0  0.1180937E-02  0.4992884E+03  0.7818609E-02  0.1013965E+00
        1   -1    0    0  501    0  0.00000000000E+00  0.00000000000E+00  0.19974256373E+03  0.19974256379E+03  0.50400001928E-02 0. -1.
       -1   -1    0    0    0  501  0.00000000000E+00  0.00000000000E+00 -0.31201275147E+03  0.31201275151E+03  0.50400001928E-02 0.  1.
    10030    2    1    2    0    0  0.00000000000E+00  0.00000000000E+00 -0.11227018774E+03  0.51175531531E+03  0.49928840132E+03 0.  0.
        1    1    3    3  502    0  0.11292985070E+03  0.92190227036E+02 -0.26385276074E+03  0.30144728978E+03  0.50400001928E-02 0.  1.
       -1    1    3    3    0  502 -0.11292985070E+03 -0.92190227036E+02  0.15158257300E+03  0.21030802553E+03  0.50400001928E-02 0. -1.
</event>
<event>
 5   0  0.1923706E-02  0.5088685E+03  0.7818609E-02  0.1011490E+00
       -2   -1    0    0    0  501  0.00000000000E+00  0.00000000000E+00  0.13914396703E+03  0.13914396706E+03  0.25500000920E-02 0. -1.
        2   -1    0    0  501    0  0.00000000000E+00  0.00000000000E+00 -0.46525037877E+03  0.46525037878E+03  0.25500000920E-02 0.  1.
    10030    2    1    2    0    0  0.00000000000E+00  0.00000000000E+00 -0.32610641173E+03  0.60439434584E+03  0.50886848350E+03 0.  0.
        3    1    3    3  502    0 -0.16904491626E+03  0.16680775063E+03 -0.27149271392E+03  0.36070668596E+03  0.10100000352E+00 0. -1.
       -3    1    3    3    0  502  0.16904491626E+03 -0.16680775063E+03 -0.54613697818E+02  0.24368765988E+03  0.10100000352E+00 0.  1.
</event>
<event>
 5   0  0.8012875E-03  0.4983538E+03  0.7818609E-02  0.1014210E+00
       -3   -1    0    0    0  501  0.00000000000E+00  0.00000000000E+00  0.17833816222E+03  0.17833819082E+03  0.10100000352E+00 0.  1.
        3   -1    0    0  501    0  0.00000000000E+00  0.00000000000E+00 -0.34815379072E+03  0.34815380537E+03  0.10100000352E+00 0. -1.
    10030    2    1    2    0    0  0.00000000000E+00  0.00000000000E+00 -0.16981562850E+03  0.52649199619E+03  0.49835376428E+03 0.  0.
        5    1    3    3  502    0  0.20185591914E+03 -0.44761525893E+02  0.61927617844E+02  0.21588544681E+03  0.46999998093E+01 0.  1.
       -5    1    3    3    0  502 -0.20185591914E+03  0.44761525893E+02 -0.23174324635E+03  0.31060654938E+03  0.46999998093E+01 0. -1.
</event>
<event>
 5   0  0.1217270E-02  0.5009920E+03  0.7818609E-02  0.1013520E+00
        1   -1    0    0  501    0  0.00000000000E+00  0.00000000000E+00  0.70911104757E+02  0.70911104937E+02  0.50400001928E-02 0. -1.
       -1   -1    0    0    0  501  0.00000000000E+00  0.00000000000E+00 -0.88488595390E+03  0.88488595392E+03  0.50400001928E-02 0.  1.
    10030    2    1    2    0    0  0.00000000000E+00  0.00000000000E+00 -0.81397484914E+03  0.95579705885E+03  0.50099197865E+03 0.  0.
        2    1    3    3  502    0  0.17066122019E+03 -0.11300294014E+03 -0.68248803402E+03  0.71252005806E+03  0.25500000920E-02 0.  1.
       -2    1    3    3    0  502 -0.17066122019E+03  0.11300294014E+03 -0.13148681512E+03  0.24327700079E+03  0.25500000920E-02 0. -1.
</event>
<event>
 5   0  0.8012875E-03  0.5007406E+03  0.7818609E-02  0.1013586E+00
        3   -1    0    0  501    0  0.00000000000E+00  0.00000000000E+00  0.13946335574E+03  0.13946339231E+03  0.10100000352E+00 0. -1.
       -3   -1    0    0    0  501  0.00000000000E+00  0.00000000000E+00 -0.44947482958E+03  0.44947484092E+03  0.10100000352E+00 0.  1.
    10030    2    1    2    0    0  0.00000000000E+00  0.00000000000E+00 -0.31001147384E+03  0.58893823323E+03  0.50074058019E+03 0.  0.
        1    1    3    3  502    0 -0.22716124153E+03 -0.16601765259E+02 -0.27727527019E+03  0.35883063379E+03  0.50400001928E-02 0.  1.
       -1    1    3    3    0  502  0.22716124153E+03  0.16601765259E+02 -0.32736203647E+02  0.23010759944E+03  0.50400001928E-02 0. -1.
</event>
<event>
 5   0  0.1855407E-02  0.5006748E+03  0.7818609E-02  0.1013603E+00
        2   -1    0    0  501    0  0.00000000000E+00  0.00000000000E+00  0.10890885065E+04  0.10890885065E+04  0.25500000920E-02 0.  1.
       -2   -1    0    0    0  501  0.00000000000E+00  0.00000000000E+00 -0.57542449769E+02  0.57542449825E+02  0.25500000920E-02 0. -1.
    10030    2    1    2    0    0  0.00000000000E+00  0.00000000000E+00  0.10315460568E+04  0.11466309564E+04  0.50067482747E+03 0.  0.
        1    1    3    3  502    0 -0.17667115503E+03 -0.16038862314E+03  0.68915596096E+03  0.72929633621E+03  0.50400001928E-02 0.  1.
       -1    1    3    3    0  502  0.17667115503E+03  0.16038862314E+03  0.34239009581E+03  0.41733462016E+03  0.50400001928E-02 0. -1.
</event>
<event>
 5   0  0.1217270E-02  0.5002224E+03  0.7818609E-02  0.1013721E+00
       -1   -1    0    0    0  501  0.00000000000E+00  0.00000000000E+00  0.11978103466E+03  0.11978103477E+03  0.50400001928E-02 0. -1.
        1   -1    0    0  501    0  0.00000000000E+00  0.00000000000E+00 -0.52224968928E+03  0.52224968930E+03  0.50400001928E-02 0.  1.
    10030    2    1    2    0    0  0.00000000000E+00  0.00000000000E+00 -0.40246865461E+03  0.64203072407E+03  0.50022238325E+03 0.  0.
        2    1    3    3  502    0  0.76485986906E+02 -0.15636701255E+03 -0.43174459061E+03  0.46551491956E+03  0.25500000920E-02 0.  1.
       -2    1    3    3    0  502 -0.76485986906E+02  0.15636701255E+03  0.29275935994E+02  0.17651580451E+03  0.25500000920E-02 0. -1.
</event>
<event>
 5   0  0.1225989E-02  0.5005448E+03  0.7818609E-02  0.1013637E+00
        1   -1    0    0  501    0  0.00000000000E+00  0.00000000000E+00  0.17751594469E+04  0.17751594469E+04  0.50400001928E-02 0.  1.
       -1   -1    0    0    0  501  0.00000000000E+00  0.00000000000E+00 -0.35284869561E+02  0.35284869920E+02  0.50400001928E-02 0. -1.
    10030    2    1    2    0    0  0.00000000000E+00  0.00000000000E+00  0.17398745773E+04  0.18104443168E+04  0.50054478267E+03 0.  0.
        3    1    3    3  502    0 -0.13950173447E+03  0.12766354692E+03  0.27696140905E+03  0.33536002659E+03  0.10100000352E+00 0. -1.
       -3    1    3    3    0  502  0.13950173447E+03 -0.12766354692E+03  0.14629131683E+04  0.14750842902E+04  0.10100000352E+00 0.  1.
</event>
<event>
 5   0  0.1941387E-02  0.4995973E+03  0.7818609E-02  0.1013884E+00
       -2   -1    0    0    0  501  0.00000000000E+00  0.00000000000E+00  0.66462150712E+03  0.66462150712E+03  0.25500000920E-02 0. -1.
        2   -1    0    0  501    0  0.00000000000E+00  0.00000000000E+00 -0.93887069421E+02  0.93887069456E+02  0.25500000920E-02 0.  1.
    10030    2    1    2    0    0  0.00000000000E+00  0.00000000000E+00  0.57073443770E+03  0.75850857658E+03  0.49959730020E+03 0.  0.
        4    1    3    3  502    0  0.42814898577E+02 -0.19971681034E+01  0.65899199807E+03  0.66038562268E+03  0.12699999809E+01 0. -1.
       -4    1    3    3    0  502 -0.42814898577E+02  0.19971681034E+01 -0.88257560369E+02  0.98122953904E+02  0.12699999809E+01 0.  1.
</event>
<event>
 5   0  0.1209831E-02  0.4969113E+03  0.7818609E-02  0.1014588E+00
        1   -1    0    0  501    0  0.00000000000E+00  0.00000000000E+00  0.10224315452E+04  0.10224315452E+04  0.50400001928E-02 0.  1.
       -1   -1    0    0    0  501  0.00000000000E+00  0.00000000000E+00 -0.60375888537E+02  0.60375888747E+02  0.50400001928E-02 0. -1.
    10030    2    1    2    0    0  0.00000000000E+00  0.00000000000E+00  0.96205565665E+03  0.10828074339E+04  0.49691131253E+03 0.  0.
        4    1    3    3  502    0 -0.19909164827E+03 -0.10162933813E+03  0.24469508935E+03  0.33142617040E+03  0.12699999809E+01 0. -1.
       -4    1    3    3    0  502  0.19909164827E+03  0.10162933813E+03  0.71736056730E+03  0.75138126354E+03  0.12699999809E+01 0.  1.
</event>
<event>
 5   0  0.1982847E-02  0.5001591E+03  0.7818609E-02  0.1013737E+00
        2   -1    0    0  501    0  0.00000000000E+00  0.00000000000E+00  0.24926702430E+04  0.24926702430E+04  0.25500000920E-02 0. -1.
       -2   -1    0    0    0  501  0.00000000000E+00  0.00000000000E+00 -0.25089470732E+02  0.25089470861E+02  0.25500000920E-02 0.  1.
    10030    2    1    2    0    0  0.00000000000E+00  0.00000000000E+00  0.24675807723E+04  0.25177597139E+04  0.50015908377E+03 0.  0.
        2    1    3    3  502    0  0.18157295065E+03 -0.50422067693E+01  0.20990623883E+04  0.21069069914E+04  0.25500000920E-02 0. -1.
       -2    1    3    3    0  502 -0.18157295065E+03  0.50422067693E+01  0.36851838391E+03  0.41085272245E+03  0.25500000920E-02 0.  1.
</event>
<event>
 5   0  0.1225989E-02  0.5018505E+03  0.7818609E-02  0.1013297E+00
        1   -1    0    0  501    0  0.00000000000E+00  0.00000000000E+00  0.61014407722E+03  0.61014407725E+03  0.50400001928E-02 0.  1.
       -1   -1    0    0    0  501  0.00000000000E+00  0.00000000000E+00 -0.10319444243E+03  0.10319444255E+03  0.50400001928E-02 0. -1.
    10030    2    1    2    0    0  0.00000000000E+00  0.00000000000E+00  0.50694963479E+03  0.71333851980E+03  0.50185048731E+03 0.  0.
        3    1    3    3  502    0 -0.20226050421E+03 -0.14272347505E+03  0.31180774177E+03  0.39812482958E+03  0.10100000352E+00 0.  1.
       -3    1    3    3    0  502  0.20226050421E+03  0.14272347505E+03  0.19514189302E+03  0.31521369022E+03  0.10100000352E+00 0. -1.
</event>
<event>
 5   0  0.1923706E-02  0.5003489E+03  0.7818609E-02  0.1013688E+00
       -2   -1    0    0    0  501  0.00000000000E+00  0.00000000000E+00  0.24898781540E+03  0.24898781542E+03  0.25500000920E-02 0.  1.
        2   -1    0    0  501    0  0.00000000000E+00  0.00000000000E+00 -0.25136677001E+03  0.25136677002E+03  0.25500000920E-02 0. -1.
    10030    2    1    2    0    0  0.00000000000E+00  0.00000000000E+00 -0.23789546057E+01  0.50035458544E+03  0.50034892999E+03 0.  0.
        3    1    3    3  502    0 -0.14647414920E+03  0.18460814703E+03 -0.85169045218E+02  0.25057657672E+03  0.10100000352E+00 0. -1.
       -3    1    3    3    0  502  0.14647414920E+03 -0.18460814703E+03  0.82790090613E+02  0.24977800872E+03  0.10100000352E+00 0.  1.
</event>
<event>
 5   0  0.1217270E-02  0.5000343E+03  0.7818609E-02  0.1013770E+00
       -1   -1    0    0    0  501  0.00000000000E+00  0.00000000000E+00  0.56334920445E+02  0.56334920671E+02  0.50400001928E-02 0. -1.
        1   -1    0    0  501    0  0.00000000000E+00  0.00000000000E+00 -0.11095885887E+04  0.11095885887E+04  0.50400001928E-02 0.  1.
    10030    2    1    2    0    0  0.00000000000E+00  0.00000000000E+00 -0.10532536682E+04  0.11659235093E+04  0.50003433885E+03 0.  0.
        2    1    3    3  502    0  0.14859932905E+03  0.13150419785E+03 -0.17198446153E+03  0.26259049805E+03  0.25500000920E-02 0. -1.
       -2    1    3    3    0  502 -0.14859932905E+03 -0.13150419785E+03 -0.88126920669E+03  0.90333301130E+03  0.25500000920E-02 0.  1.
</event>
<event>
 5   0  0.1982847E-02  0.5006076E+03  0.7818609E-02  0.1013620E+00
       -2   -1    0    0    0  501  0.00000000000E+00  0.00000000000E+00  0.91981910649E+02  0.91981910684E+02  0.25500000920E-02 0.  1.
        2   -1    0    0  501    0  0.00000000000E+00  0.00000000000E+00 -0.68113372678E+03  0.68113372679E+03  0.25500000920E-02 0. -1.
    10030    2    1    2    0    0  0.00000000000E+00  0.00000000000E+00 -0.58915181613E+03  0.77311563747E+03  0.50060755732E+03 0.  0.
        2    1    3    3  502    0 -0.72790073544E+02  0.22579575346E+03 -0.41783306721E+03  0.48048578454E+03  0.25500000920E-02 0. -1.
       -2    1    3    3    0  502  0.72790073544E+02 -0.22579575346E+03 -0.17131874892E+03  0.29262985293E+03  0.25500000920E-02 0.  1.
</event>
<event>
 5   0  0.1855407E-02  0.4896852E+03  0.7818609E-02  0.1016507E+00
       -2   -1    0    0    0  501  0.00000000000E+00  0.00000000000E+00  0.38388182775E+03  0.38388182775E+03  0.25500000920E-02 0. -1.
        2   -1    0    0  501    0  0.00000000000E+00  0.00000000000E+00 -0.15616235987E+03  0.15616235989E+03  0.25500000920E-02 0.  1.
    10030    2    1    2    0    0  0.00000000000E+00  0.00000000000E+00  0.22771946788E+03  0.54004418764E+03  0.48968517290E+03 0.  0.
        1    1    3    3  502    0 -0.11705571587E+03 -0.14393276625E+03  0.29006992917E+03  0.34432433207E+03  0.50400001928E-02 0. -1.
       -1    1    3    3    0  502  0.11705571587E+03  0.14393276625E+03 -0.62350461292E+02  0.19571985558E+03  0.50400001928E-02 0.  1.
</event>
<event>
 5   0  0.1180937E-02  0.5004811E+03  0.7818609E-02  0.1013653E+00
       -1   -1    0    0    0  501  0.00000000000E+00  0.00000000000E+00  0.70621298616E+02  0.70621298796E+02  0.50400001928E-02 0. -1.
        1   -1    0    0  501    0  0.00000000000E+00  0.00000000000E+00 -0.88670613853E+03  0.88670613854E+03  0.50400001928E-02 0.  1.
    10030    2    1    2    0    0  0.00000000000E+00  0.00000000000E+00 -0.81608483991E+03  0.95732743734E+03  0.50048112487E+03 0.  0.
        1    1    3    3  502    0  0.93984433450E+02  0.22923888793E+03 -0.34077231304E+03  0.42131853844E+03  0.50400001928E-02 0. -1.
       -1    1    3    3    0  502 -0.93984433450E+02 -0.22923888793E+03 -0.47531252687E+03  0.53600889890E+03  0.50400001928E-02 0.  1.
</event>
<event>
 5   0  0.1217270E-02  0.5000803E+03  0.7818609E-02  0.1013758E+00
       -1   -1    0    0    0  501  0.00000000000E+00  0.00000000000E+00  0.71395701592E+03  0.71395701594E+03  0.50400001928E-02 0.  1.
        1   -1    0    0  501    0  0.00000000000E+00  0.00000000000E+00 -0.87568395982E+02  0.87568396127E+02  0.50400001928E-02 0. -1.
    10030    2    1    2    0    0  0.00000000000E+00  0.00000000000E+00  0.62638861994E+03  0.80152541206E+03  0.50008027655E+03 0.  0.
        2    1    3    3  502    0  0.18695153966E+03  0.12134986195E+03  0.49483687857E+03  0.54271558258E+03  0.25500000920E-02 0.  1.
       -2    1    3    3    0  502 -0.18695153966E+03 -0.12134986195E+03  0.13155174137E+03  0.25880982948E+03  0.25500000920E-02 0. -1.
</event>
<event>
 5   0  0.1982847E-02  0.5007269E+03  0.7818609E-02  0.1013589E+00
       -2   -1    0    0    0  501  0.00000000000E+00  0.00000000000E+00  0.13313778598E+03  0.13313778601E+03  0.25500000920E-02 0.  1.
        2   -1    0    0  501    0  0.00000000000E+00  0.00000000000E+00 -0.47080449741E+03  0.47080449742E+03  0.25500000920E-02 0. -1.
    10030    2    1    2    0    0  0.00000000000E+00  0.00000000000E+00 -0.33766671143E+03  0.60394228343E+03  0.50072694526E+03 0.  0.
        2    1    3    3  502    0  0.37775925071E+02 -0.11903230291E+03  0.92889171721E+02  0.15564095823E+03  0.25500000920E-02 0.  1.
       -2    1    3    3    0  502 -0.37775925071E+02  0.11903230291E+03 -0.43055588315E+03  0.44830132520E+03  0.25500000920E-02 0. -1.
</event>
<event>
 5   0  0.1941387E-02  0.5001142E+03  0.7818609E-02  0.1013749E+00
       -2   -1    0    0    0  501  0.00000000000E+00  0.00000000000E+00  0.37017864563E+03  0.37017864564E+03  0.25500000920E-02 0.  1.
        2   -1    0    0  501    0  0.00000000000E+00  0.00000000000E+00 -0.16891451905E+03  0.16891451907E+03  0.25500000920E-02 0. -1.
    10030    2    1    2    0    0  0.00000000000E+00  0.00000000000E+00  0.20126412659E+03  0.53909316471E+03  0.50011417855E+03 0.  0.
        4    1    3    3  502    0  0.24693285041E+03  0.28893923283E+02  0.12948068246E+03  0.28031687684E+03  0.12699999809E+01 0.  1.
       -4    1    3    3    0  502 -0.24693285041E+03 -0.28893923283E+02  0.71783444126E+02  0.25877628787E+03  0.12699999809E+01 0. -1.
</event>
<event>
 5   0  0.1923706E-02  0.4951540E+03  0.7818609E-02  0.1015052E+00
        2   -1    0    0  501    0  0.00000000000E+00  0.00000000000E+00  0.22663125736E+03  0.22663125738E+03  0.25500000920E-02 0. -1.
       -2   -1    0    0    0  501  0.00000000000E+00  0.00000000000E+00 -0.27045858648E+03  0.27045858650E+03  0.25500000920E-02 0.  1.
    10030    2    1    2    0    0  0.00000000000E+00  0.00000000000E+00 -0.43827329122E+02  0.49708984387E+03  0.49515399433E+03 0.  0.
        3    1    3    3  502    0  0.13235023692E+03  0.89752389981E+02  0.16782865448E+03  0.23181575483E+03  0.10100000352E+00 0. -1.
       -3    1    3    3    0  502 -0.13235023692E+03 -0.89752389981E+02 -0.21165598360E+03  0.26527408904E+03  0.10100000352E+00 0.  1.
</event>
<event>
 5   0  0.1967813E-02  0.5007460E+03  0.7818609E-02  0.1013584E+00
       -2   -1    0    0    0  501  0.00000000000E+00  0.00000000000E+00  0.20527639532E+03  0.20527639533E+03  0.25500000920E-02 0.  1.
        2   -1    0    0  501    0  0.00000000000E+00  0.00000000000E+00 -0.30537676390E+03  0.30537676391E+03  0.25500000920E-02 0. -1.
    10030    2    1    2    0    0  0.00000000000E+00  0.00000000000E+00 -0.10010036859E+03  0.51065315925E+03  0.50074600873E+03 0.  0.
        5    1    3    3  502    0 -0.12358242334E+03 -0.37880574033E+02 -0.26866739707E+03  0.29818084025E+03  0.46999998093E+01 0. -1.
       -5    1    3    3    0  502  0.12358242334E+03  0.37880574033E+02  0.16856702848E+03  0.21247231899E+03  0.46999998093E+01 0.  1.
</event>
<event>
 5   0  0.1209831E-02  0.5010310E+03  0.7818609E-02  0.1013510E+00
       -1   -1    0    0    0  501  0.00000000000E+00  0.00000000000E+00  0.39533108880E+03  0.39533108883E+03  0.50400001928E-02 0. -1.
        1   -1    0    0  501    0  0.00000000000E+00  0.00000000000E+00 -0.15874796326E+03  0.15874796334E+03  0.50400001928E-02 0.  1.
    10030    2    1    2    0    0  0.00000000000E+00  0.00000000000E+00  0.23658312554E+03  0.55407905217E+03  0.50103095789E+03 0.  0.
        4    1    3    3  502    0 -0.20955407081E+02  0.18317025420E+03 -0.69271067034E+02  0.19695320443E+03  0.12699999809E+01 0.  1.
       -4    1    3    3    0  502  0.20955407081E+02 -0.18317025420E+03  0.30585419257E+03  0.35712584774E+03  0.12699999809E+01 0. -1.
</event>
<event>
 5   0  0.1225989E-02  0.5014779E+03  0.7818609E-02  0.1013394E+00
       -1   -1    0    0    0  501  0.00000000000E+00  0.00000000000E+00  0.18762604368E+03  0.18762604375E+03  0.50400001928E-02 0. -1.
        1   -1    0    0  501    0  0.00000000000E+00  0.00000000000E+00 -0.33508154455E+03  0.33508154459E+03  0.50400001928E-02 0.  1.
    10030    2    1    2    0    0  0.00000000000E+00  0.00000000000E+00 -0.14745550087E+03  0.52270758834E+03  0.50147791394E+03 0.  0.
        3    1    3    3  502    0 -0.22371814505E+03  0.24473675659E+02 -0.18895752750E+03  0.29386004598E+03  0.10100000352E+00 0. -1.
       -3    1    3    3    0  502  0.22371814505E+03 -0.24473675659E+02  0.41502026629E+02  0.22884754235E+03  0.10100000352E+00 0.  1.
</event>
<event>
 5   0  0.1209831E-02  0.4994544E+03  0.7818609E-02  0.1013921E+00
        1   -1    0    0  501    0  0.00000000000E+00  0.00000000000E+00  0.26945013044E+03  0.26945013049E+03  0.50400001928E-02 0.  1.
       -1   -1    0    0    0  501  0.00000000000E+00  0.00000000000E+00 -0.23144796331E+03  0.23144796336E+03  0.50400001928E-02 0. -1.
    10030    2    1    2    0    0  0.00000000000E+00  0.00000000000E+00  0.38002167132E+02  0.50089809385E+03  0.49945443808E+03 0.  0.
        4    1    3    3  502    0 -0.74841335493E+02 -0.84570403302E+02 -0.20437279876E+03  0.23350210360E+03  0.12699999809E+01 0. -1.
       -4    1    3    3    0  502  0.74841335493E+02  0.84570403302E+02  0.24237496589E+03  0.26739599025E+03  0.12699999809E+01 0.  1.
</event>
<event>
 5   0  0.1941387E-02  0.5004975E+03  0.7818609E-02  0.1013649E+00
        2   -1    0    0  501    0  0.00000000000E+00  0.00000000000E+00  0.12910933720E+04  0.12910933720E+04  0.25500000920E-02 0.  1.
       -2   -1    0    0    0  501  0.00000000000E+00  0.00000000000E+00 -0.48504967509E+02  0.48504967576E+02  0.25500000920E-02 0. -1.
    10030    2    1    2    0    0  0.00000000000E+00  0.00000000000E+00  0.12425884045E+04  0.13395983396E+04  0.50049752090E+03 0.  0.
        4    1    3    3  502    0 -0.94345131284E+02  0.26795133713E+02  0.50875781783E+01  0.98216492196E+02  0.12699999809E+01 0. -1.
       -4    1    3    3    0  502  0.94345131284E+02 -0.26795133713E+02  0.12375008263E+04  0.12413818474E+04  0.12699999809E+01 0.  1.
</event>
<event>
 5   0  0.1941387E-02  0.5001152E+03  0.7818609E-02  0.1013749E+00
        2   -1    0    0  501    0  0.00000000000E+00  0.00000000000E+00  0.23486401581E+04  0.23486401581E+04  0.25500000920E-02 0. -1.
       -2   -1    0    0    0  501  0.00000000000E+00  0.00000000000E+00 -0.26623404365E+02  0.26623404487E+02  0.25500000920E-02 0.  1.
    10030    2    1    2    0    0  0.00000000000E+00  0.00000000000E+00  0.23220167537E+04  0.23752635626E+04  0.50011517387E+03 0.  0.
        4    1    3    3  502    0 -0.16141280441E+03 -0.19094792020E+03  0.11774487084E+04  0.12037035663E+04  0.12699999809E+01 0. -1.
       -4    1    3    3    0  502  0.16141280441E+03  0.19094792020E+03  0.11445680453E+04  0.11715599963E+04  0.12699999809E+01 0.  1.
</event>
<event>
 5   0  0.1227864E-02  0.5027054E+03  0.7818609E-02  0.1013075E+00
       -1   -1    0    0    0  501  0.00000000000E+00  0.00000000000E+00  0.22704992437E+03  0.22704992442E+03  0.50400001928E-02 0.  1.
        1   -1    0    0  501    0  0.00000000000E+00  0.00000000000E+00 -0.27825673123E+03  0.27825673128E+03  0.50400001928E-02 0. -1.
    10030    2    1    2    0    0  0.00000000000E+00  0.00000000000E+00 -0.51206806864E+02  0.50530665570E+03  0.50270536025E+03 0.  0.
        5    1    3    3  502    0 -0.44837261885E+01 -0.54980619902E+02  0.22084504704E+03  0.22767871479E+03  0.46999998093E+01 0.  1.
       -5    1    3    3    0  502  0.44837261885E+01  0.54980619902E+02 -0.27205185391E+03  0.27762794092E+03  0.46999998093E+01 0. -1.
</event>
<event>
 5   0  0.1982847E-02  0.4999969E+03  0.7818609E-02  0.1013780E+00
       -2   -1    0    0    0  501  0.00000000000E+00  0.00000000000E+00  0.63707928562E+02  0.63707928613E+02  0.25500000920E-02 0.  1.
        2   -1    0    0  501    0  0.00000000000E+00  0.00000000000E+00 -0.98102751957E+03  0.98102751957E+03  0.25500000920E-02 0. -1.
    10030    2    1    2    0    0  0.00000000000E+00  0.00000000000E+00 -0.91731959101E+03  0.10447354482E+04  0.49999692464E+03 0.  0.
        2    1    3    3  502    0  0.63494832514E+02  0.86889017296E+02  0.12832275121E+02  0.10837879116E+03  0.25500000920E-02 0.  1.
       -2    1    3    3    0  502 -0.63494832514E+02 -0.86889017296E+02 -0.93015186613E+03  0.93635665702E+03  0.25500000920E-02 0. -1.
</event>
<event>
 5   0  0.1217270E-02  0.4991539E+03  0.7818609E-02  0.1014000E+00
       -1   -1    0    0    0  501  0.00000000000E+00  0.00000000000E+00  0.15447549306E+03  0.15447549315E+03  0.50400001928E-02 0.  1.
        1   -1    0    0  501    0  0.00000000000E+00  0.00000000000E+00 -0.40322681405E+03  0.40322681408E+03  0.50400001928E-02 0. -1.
    10030    2    1    2    0    0  0.00000000000E+00  0.00000000000E+00 -0.24875132098E+03  0.55770230723E+03  0.49915392796E+03 0.  0.
        2    1    3    3  502    0  0.13835713408E+03 -0.29572868979E+02 -0.35409169698E+03  0.38131113412E+03  0.25500000920E-02 0. -1.
       -2    1    3    3    0  502 -0.13835713408E+03  0.29572868979E+02  0.10534037599E+03  0.17639117311E+03  0.25500000920E-02 0.  1.
</event>
<event>
 5   0  0.1225989E-02  0.4977886E+03  0.7818609E-02  0.1014358E+00
       -1   -1    0    0    0  501  0.00000000000E+00  0.00000000000E+00  0.67380751657E+02  0.67380751846E+02  0.50400001928E-02 0.  1.
        1   -1    0    0  501    0  0.00000000000E+00  0.00000000000E+00 -0.91937779438E+03  0.91937779439E+03  0.50400001928E-02 0. -1.
    10030    2    1    2    0    0  0.00000000000E+00  0.00000000000E+00 -0.85199704272E+03  0.98675854624E+03  0.49778857738E+03 0.  0.
        3    1    3    3  502    0 -0.23402156760E+03 -0.83819590802E+02 -0.45079996832E+03  0.51479358926E+03  0.10100000352E+00 0.  1.
       -3    1    3    3    0  502  0.23402156760E+03  0.83819590802E+02 -0.40119707440E+03  0.47196495697E+03  0.10100000352E+00 0. -1.
</event>
<event>
 5   0  0.1923706E-02  0.5010334E+03  0.7818609E-02  0.1013510E+00
       -2   -1    0    0    0  501  0.00000000000E+00  0.00000000000E+00  0.68566375695E+02  0.68566375742E+02  0.25500000920E-02 0.  1.
        2   -1    0    0  501    0  0.00000000000E+00  0.00000000000E+00 -0.91529714515E+03  0.91529714515E+03  0.25500000920E-02 0. -1.
    10030    2    1    2    0    0  0.00000000000E+00  0.00000000000E+00 -0.84673076945E+03  0.98386352089E+03  0.50103336396E+03 0.  0.
        3    1    3    3  502    0 -0.47576716230E+02 -0.21011605027E+03 -0.17230514787E+03  0.27586477248E+03  0.10100000352E+00 0.  1.
       -3    1    3    3    0  502  0.47576716230E+02  0.21011605027E+03 -0.67442562158E+03  0.70799874842E+03  0.10100000352E+00 0. -1.
</event>
<event>
 5   0  0.1855407E-02  0.5001779E+03  0.7818609E-02  0.1013732E+00
        2   -1    0    0  501    0  0.00000000000E+00  0.00000000000E+00  0.91424109739E+03  0.91424109739E+03  0.25500000920E-02 0.  1.
       -2   -1    0    0    0  501  0.00000000000E+00  0.00000000000E+00 -0.68411359875E+02  0.68411359923E+02  0.25500000920E-02 0. -1.
    10030    2    1    2    0    0  0.00000000000E+00  0.00000000000E+00  0.84582973751E+03  0.98265245731E+03  0.50017787537E+03 0.  0.
        1    1    3    3  502    0  0.70853037045E+02  0.12075203081E+03  0.83003542153E+03  0.84176006488E+03  0.50400001928E-02 0.  1.
       -1    1    3    3    0  502 -0.70853037045E+02 -0.12075203081E+03  0.15794315980E+02  0.14089239243E+03  0.50400001928E-02 0. -1.
</event>
<event>
 5   0  0.1209831E-02  0.4993441E+03  0.7818609E-02  0.1013950E+00
       -1   -1    0    0    0  501  0.00000000000E+00  0.00000000000E+00  0.15895800946E+03  0.15895800954E+03  0.50400001928E-02 0. -1.
        1   -1    0    0  501    0  0.00000000000E+00  0.00000000000E+00 -0.39215470375E+03  0.39215470378E+03  0.50400001928E-02 0.  1.
    10030    2    1    2    0    0  0.00000000000E+00  0.00000000000E+00 -0.23319669429E+03  0.55111271332E+03  0.49934409435E+03 0.  0.
        4    1    3    3  502    0 -0.10954794410E+03  0.19159332001E+03 -0.24542952384E+03  0.33006971446E+03  0.12699999809E+01 0.  1.
       -4    1    3    3    0  502  0.10954794410E+03 -0.19159332001E+03  0.12232829546E+02  0.22104299887E+03  0.12699999809E+01 0. -1.
</event>
<event>
 5   0  0.1217270E-02  0.5002328E+03  0.7818609E-02  0.1013718E+00
        1   -1    0    0  501    0  0.00000000000E+00  0.00000000000E+00  0.17098875658E+03  0.17098875666E+03  0.50400001928E-02 0.  1.
       -1   -1    0    0    0  501  0.00000000000E+00  0.00000000000E+00 -0.36586156246E+03  0.36586156250E+03  0.50400001928E-02 0. -1.
    10030    2    1    2    0    0  0.00000000000E+00  0.00000000000E+00 -0.19487280588E+03  0.53685031915E+03  0.50023280051E+03 0.  0.
        2    1    3    3  502    0 -0.23358193414E+03  0.64548771512E+02 -0.16386355263E+03  0.29253773730E+03  0.25500000920E-02 0. -1.
       -2    1    3    3    0  502  0.23358193414E+03 -0.64548771512E+02 -0.31009253254E+02  0.24431258185E+03  0.25500000920E-02 0.  1.
</event>
<event>
 5   0  0.1225989E-02  0.4995821E+03  0.7818609E-02  0.1013888E+00
       -1   -1    0    0    0  501  0.00000000000E+00  0.00000000000E+00  0.70483040575E+02  0.70483040755E+02  0.50400001928E-02 0. -1.
        1   -1    0    0  501    0  0.00000000000E+00  0.00000000000E+00 -0.88525634955E+03  0.88525634956E+03  0.50400001928E-02 0.  1.
    10030    2    1    2    0    0  0.00000000000E+00  0.00000000000E+00 -0.81477330897E+03  0.95573939032E+03  0.49958206252E+03 0.  0.
        3    1    3    3  502    0 -0.23618316678E+03 -0.76406836280E+02 -0.35412688953E+03  0.43246544023E+03  0.10100000352E+00 0.  1.
       -3    1    3    3    0  502  0.23618316678E+03  0.76406836280E+02 -0.46064641944E+03  0.52327395009E+03  0.10100000352E+00 0. -1.
</event>
<event>
 5   0  0.1941387E-02  0.5036048E+03  0.7818609E-02  0.1012842E+00
        2   -1    0    0  501    0  0.00000000000E+00  0.00000000000E+00  0.17169539690E+03  0.17169539692E+03  0.25500000920E-02 0. -1.
       -2   -1    0    0    0  501  0.00000000000E+00  0.00000000000E+00 -0.36928453511E+03  0.36928453512E+03  0.25500000920E-02 0.  1.
    10030    2    1    2    0    0  0.00000000000E+00  0.00000000000E+00 -0.19758913821E+03  0.54097993204E+03  0.50360482457E+03 0.  0.
        4    1    3    3  502    0 -0.19106817569E+03 -0.91308657062E+02  0.47545407550E+02  0.21704031260E+03  0.12699999809E+01 0. -1.
       -4    1    3    3    0  502  0.19106817569E+03  0.91308657062E+02 -0.24513454576E+03  0.32393961944E+03  0.12699999809E+01 0.  1.
</event>
<event>
 5   0  0.1227864E-02  0.4999852E+03  0.7818609E-02  0.1013783E+00
        1   -1    0    0  501    0  0.00000000000E+00  0.00000000000E+00  0.45762980694E+03  0.45762980697E+03  0.50400001928E-02 0. -1.
       -1   -1    0    0    0  501  0.00000000000E+00  0.00000000000E+00 -0.13656517428E+03  0.13656517437E+03  0.50400001928E-02 0.  1.
    10030    2    1    2    0    0  0.00000000000E+00  0.00000000000E+00  0.32106463267E+03  0.59419498134E+03  0.49998517728E+03 0.  0.
        5    1    3    3  502    0 -0.16022752948E+03 -0.62105781576E+01 -0.67331819018E+02  0.17397441287E+03  0.46999998093E+01 0.  1.
       -5    1    3    3    0  502  0.16022752948E+03  0.62105781576E+01  0.38839645169E+03  0.42022056847E+03  0.46999998093E+01 0. -1.
</event>
<event>
 5   0  0.1923706E-02  0.5045770E+03  0.7818609E-02  0.1012591E+00
        2   -1    0    0  501    0  0.00000000000E+00  0.00000000000E+00  0.46876164402E+03  0.46876164403E+03  0.25500000920E-02 0. -1.
       -2   -1    0    0    0  501  0.00000000000E+00  0.00000000000E+00 -0.13578221439E+03  0.13578221442E+03  0.25500000920E-02 0.  1.
    10030    2    1    2    0    0  0.00000000000E+00  0.00000000000E+00  0.33297942963E+03  0.60454385844E+03  0.50457702705E+03 0.  0.
        3    1    3    3  502    0 -0.21415222684E+03  0.76989598629E+02  0.29697433697E+03  0.37414214088E+03  0.10100000352E+00 0. -1.
       -3    1    3    3    0  502  0.21415222684E+03 -0.76989598629E+02  0.36005092658E+02  0.23040171757E+03  0.10100000352E+00 0.  1.
</event>
<event>
 5   0  0.1923706E-02  0.4999769E+03  0.7818609E-02  0.1013785E+00
       -2   -1    0    0    0  501  0.00000000000E+00  0.00000000000E+00  0.11984492349E+03  0.11984492352E+03  0.25500000920E-02 0.  1.
        2   -1    0    0  501    0  0.00000000000E+00  0.00000000000E+00 -0.52145908728E+03  0.52145908728E+03  0.25500000920E-02 0. -1.
    10030    2    1    2    0    0  0.00000000000E+00  0.00000000000E+00 -0.40161416378E+03  0.64130401080E+03  0.49997689719E+03 0.  0.
        3    1    3    3  502    0 -0.87954045530E+02 -0.22934968557E+03 -0.14123520414E+03  0.28334534668E+03  0.10100000352E+00 0.  1.
       -3    1    3    3    0  502  0.87954045530E+02  0.22934968557E+03 -0.26037895964E+03  0.35795866412E+03  0.10100000352E+00 0. -1.
</event>
<event>
 5   0  0.1227864E-02  0.4998201E+03  0.7818609E-02  0.1013826E+00
        1   -1    0    0  501    0  0.00000000000E+00  0.00000000000E+00  0.14617891137E+03  0.14617891146E+03  0.50400001928E-02 0.  1.
       -1   -1    0    0    0  501  0.00000000000E+00  0.00000000000E+00 -0.42725063102E+03  0.42725063105E+03  0.50400001928E-02 0. -1.
    10030    2    1    2    0    0  0.00000000000E+00  0.00000000000E+00 -0.28107171965E+03  0.57342954251E+03  0.49982009627E+03 0.  0.
        5    1    3    3  502    0 -0.21394015047E+03  0.89621961747E+02 -0.33954004669E+02  0.23447270298E+03  0.46999998093E+01 0.  1.
       -5    1    3    3    0  502  0.21394015047E+03 -0.89621961747E+02 -0.24711771498E+03  0.33895683953E+03  0.46999998093E+01 0. -1.
</event>
<event>
 5   0  0.8012875E-03  0.4994726E+03  0.7818609E-02  0.1013917E+00
       -3   -1    0    0    0  501  0.00000000000E+00  0.00000000000E+00  0.19574609339E+03  0.19574611944E+03  0.10100000352E+00 0. -1.
        3   -1    0    0  501    0  0.00000000000E+00  0.00000000000E+00 -0.31861792551E+03  0.31861794152E+03  0.10100000352E+00 0.  1.
    10030    2    1    2    0    0  0.00000000000E+00  0.00000000000E+00 -0.12287183212E+03  0.51436406096E+03  0.49947262196E+03 0.  0.
        4    1    3    3  502    0 -0.12110190701E+03  0.21437909667E+03 -0.10442425843E+03  0.26745113128E+03  0.12699999809E+01 0.  1.
       -4    1    3    3    0  502  0.12110190701E+03 -0.21437909667E+03 -0.18447573696E+02  0.24691292969E+03  0.12699999809E+01 0. -1.
</event>
<event>
 5   0  0.8012875E-03  0.4996021E+03  0.7818609E-02  0.1013883E+00
        3   -1    0    0  501    0  0.00000000000E+00  0.00000000000E+00  0.13765079085E+03  0.13765082791E+03  0.10100000352E+00 0.  1.
       -3   -1    0    0    0  501  0.00000000000E+00  0.00000000000E+00 -0.45332495678E+03  0.45332496803E+03  0.10100000352E+00 0. -1.
    10030    2    1    2    0    0  0.00000000000E+00  0.00000000000E+00 -0.31567416593E+03  0.59097579594E+03  0.49960205399E+03 0.  0.
        2    1    3    3  502    0 -0.15892789218E+03  0.12416797362E+03  0.16513457321E+02  0.20235724565E+03  0.25500000920E-02 0.  1.
       -2    1    3    3    0  502  0.15892789218E+03 -0.12416797362E+03 -0.33218762325E+03  0.38861855029E+03  0.25500000920E-02 0. -1.
</event>
<event>
 5   0  0.1227864E-02  0.4995344E+03  0.7818609E-02  0.1013901E+00
        1   -1    0    0  501    0  0.00000000000E+00  0.00000000000E+00  0.46914361072E+03  0.46914361075E+03  0.50400001928E-02 0. -1.
       -1   -1    0    0    0  501  0.00000000000E+00  0.00000000000E+00 -0.13297344434E+03  0.13297344443E+03  0.50400001928E-02 0.  1.
    10030    2    1    2    0    0  0.00000000000E+00  0.00000000000E+00  0.33617016638E+03  0.60211705518E+03  0.49953435055E+03 0.  0.
        5    1    3    3  502    0  0.18351652439E+03 -0.45846030044E+02  0.36460398205E+03  0.41077770986E+03  0.46999998093E+01 0. -1.
       -5    1    3    3    0  502 -0.18351652439E+03  0.45846030044E+02 -0.28433815674E+02  0.19133934532E+03  0.46999998093E+01 0.  1.
</event>
<event>
 5   0  0.1923706E-02  0.4999265E+03  0.7818609E-02  0.1013798E+00
       -2   -1    0    0    0  501  0.00000000000E+00  0.00000000000E+00  0.10546808127E+04  0.10546808127E+04  0.25500000920E-02 0.  1.
        2   -1    0    0  501    0  0.00000000000E+00  0.00000000000E+00 -0.59242212312E+02  0.59242212367E+02  0.25500000920E-02 0. -1.
    10030    2    1    2    0    0  0.00000000000E+00  0.00000000000E+00  0.99543860037E+03  0.11139230251E+04  0.49992649323E+03 0.  0.
        3    1    3    3  502    0  0.20428411735E+03 -0.13903755013E+03  0.58162929866E+03  0.63194627320E+03  0.10100000352E+00 0.  1.
       -3    1    3    3    0  502 -0.20428411735E+03  0.13903755013E+03  0.41380930171E+03  0.48197675185E+03  0.10100000352E+00 0. -1.
</event>
<event>
 5   0  0.1227864E-02  0.4995619E+03  0.7818609E-02  0.1013893E+00
        1   -1    0    0  501    0  0.00000000000E+00  0.00000000000E+00  0.53336077910E+02  0.53336078148E+02  0.50400001928E-02 0. -1.
       -1   -1    0    0    0  501  0.00000000000E+00  0.00000000000E+00 -0.11697619539E+04  0.11697619539E+04  0.50400001928E-02 0.  1.
    10030    2    1    2    0    0  0.00000000000E+00  0.00000000000E+00 -0.11164258759E+04  0.12230980320E+04  0.49956186748E+03 0.  0.
        5    1    3    3  502    0  0.96916161321E+02  0.15554347792E+03 -0.97357974199E+03  0.99068971927E+03  0.46999998093E+01 0.  1.
       -5    1    3    3    0  502 -0.96916161321E+02 -0.15554347792E+03 -0.14284613395E+03  0.23240831275E+03  0.46999998093E+01 0. -1.
</event>
<event>
 5   0  0.1982847E-02  0.5000959E+03  0.7818609E-02  0.1013754E+00
        2   -1    0    0  501    0  0.00000000000E+00  0.00000000000E+00  0.51228828833E+02  0.51228828896E+02  0.25500000920E-02 0.  1.
       -2   -1    0    0    0  501  0.00000000000E+00  0.00000000000E+00 -0.12204842143E+04  0.12204842143E+04  0.25500000920E-02 0. -1.
    10030    2    1    2    0    0  0.00000000000E+00  0.00000000000E+00 -0.11692553855E+04  0.12717130432E+04  0.50009589860E+03 0.  0.
        2    1    3    3  502    0 -0.14637029722E+03  0.20187169024E+03 -0.53722158446E+03  0.59226976459E+03  0.25500000920E-02 0.  1.
       -2    1    3    3    0  502  0.14637029722E+03 -0.20187169024E+03 -0.63203380101E+03  0.67944327861E+03  0.25500000920E-02 0. -1.
</event>
<event>
 5   0  0.1855407E-02  0.4995395E+03  0.7818609E-02  0.1013899E+00
        2   -1    0    0  501    0  0.00000000000E+00  0.00000000000E+00  0.24780076955E+04  0.24780076955E+04  0.25500000920E-02 0.  1.
       -2   -1    0    0    0  501  0.00000000000E+00  0.00000000000E+00 -0.25175432527E+02  0.25175432656E+02  0.25500000920E-02 0. -1.
    10030    2    1    2    0    0  0.00000000000E+00  0.00000000000E+00  0.24528322630E+04  0.25031831282E+04  0.49953945071E+03 0.  0.
        1    1    3    3  502    0  0.19598832215E+03 -0.60042818651E+02  0.51126012677E+03  0.55082073285E+03  0.50400001928E-02 0. -1.
       -1    1    3    3    0  502 -0.19598832215E+03  0.60042818651E+02  0.19415721362E+04  0.19523623953E+04  0.50400001928E-02 0.  1.
</event>
<event>
 5   0  0.1180937E-02  0.5012475E+03  0.7818609E-02  0.1013454E+00
        1   -1    0    0  501    0  0.00000000000E+00  0.00000000000E+00  0.17853632470E+03  0.17853632477E+03  0.50400001928E-02 0. -1.
       -1   -1    0    0    0  501  0.00000000000E+00  0.00000000000E+00 -0.35181786548E+03  0.35181786552E+03  0.50400001928E-02 0.  1.
    10030    2    1    2    0    0  0.00000000000E+00  0.00000000000E+00 -0.17328154078E+03  0.53035419029E+03  0.50124751848E+03 0.  0.
        1    1    3    3  502    0 -0.10557272352E+03  0.47082532139E+02 -0.32192699161E+03  0.34205168138E+03  0.50400001928E-02 0.  1.
       -1    1    3    3    0  502  0.10557272352E+03 -0.47082532139E+02  0.14864545083E+03  0.18830250891E+03  0.50400001928E-02 0. -1.
</event>
<event>
 5   0  0.1941387E-02  0.4999335E+03  0.7818609E-02  0.1013796E+00
        2   -1    0    0  501    0  0.00000000000E+00  0.00000000000E+00  0.30875082209E+03  0.30875082210E+03  0.25500000920E-02 0.  1.
       -2   -1    0    0    0  501  0.00000000000E+00  0.00000000000E+00 -0.20237479652E+03  0.20237479654E+03  0.25500000920E-02 0. -1.
    10030    2    1    2    0    0  0.00000000000E+00  0.00000000000E+00  0.10637602556E+03  0.51112561864E+03  0.49993353479E+03 0.  0.
        4    1    3    3  502    0 -0.96401896113E+02 -0.74995143940E+02 -0.16978657130E+03  0.20915709379E+03  0.12699999809E+01 0. -1.
       -4    1    3    3    0  502  0.96401896113E+02  0.74995143940E+02  0.27616259687E+03  0.30196852484E+03  0.12699999809E+01 0.  1.
</event>
<event>
 5   0  0.1941387E-02  0.4999993E+03  0.7818609E-02  0.1013779E+00
        2   -1    0    0  501    0  0.00000000000E+00  0.00000000000E+00  0.31088933074E+03  0.31088933075E+03  0.25500000920E-02 0.  1.
       -2   -1    0    0    0  501  0.00000000000E+00  0.00000000000E+00 -0.20103561725E+03  0.20103561727E+03  0.25500000920E-02 0. -1.
    10030    2    1    2    0    0  0.00000000000E+00  0.00000000000E+00  0.10985371349E+03  0.51192494802E+03  0.49999931404E+03 0.  0.
        4    1    3    3  502    0 -0.16550907508E+03  0.17235910276E+03  0.13014545239E+03  0.27210359408E+03  0.12699999809E+01 0.  1.
       -4    1    3    3    0  502  0.16550907508E+03 -0.17235910276E+03 -0.20291738898E+02  0.23982135394E+03  0.12699999809E+01 0. -1.
</event>
<event>
 5   0  0.1923706E-02  0.5005107E+03  0.7818609E-02  0.1013646E+00
        2   -1    0    0  501    0  0.00000000000E+00  0.00000000000E+00  0.42687896228E+03  0.42687896229E+03  0.25500000920E-02 0. -1.
       -2   -1    0    0    0  501  0.00000000000E+00  0.00000000000E+00 -0.14671076850E+03  0.14671076852E+03  0.25500000920E-02 0.  1.
    10030    2    1    2    0    0  0.00000000000E+00  0.00000000000E+00  0.28016819378E+03  0.57358973081E+03  0.50051070167E+03 0.  0.
        3    1    3    3  502    0 -0.16696830246E+03 -0.56900728614E+02  0.34351802684E+03  0.38616156193E+03  0.10100000352E+00 0. -1.
       -3    1    3    3    0  502  0.16696830246E+03  0.56900728614E+02 -0.63349833064E+02  0.18742816889E+03  0.10100000352E+00 0.  1.
</event>
<event>
 5   0  0.8012875E-03  0.5024731E+03  0.7818609E-02  0.1013135E+00
        3   -1    0    0  501    0  0.00000000000E+00  0.00000000000E+00  0.23850428778E+03  0.23850430917E+03  0.10100000352E+00 0. -1.
       -3   -1    0    0    0  501  0.00000000000E+00  0.00000000000E+00 -0.26464850063E+03  0.26464851990E+03  0.10100000352E+00 0.  1.
    10030    2    1    2    0    0  0.00000000000E+00  0.00000000000E+00 -0.26144212847E+02  0.50315282907E+03  0.50247313315E+03 0.  0.
        1    1    3    3  502    0  0.14661567448E+03 -0.78164183628E+02 -0.20177865488E+03  0.26138175376E+03  0.50400001928E-02 0.  1.
       -1    1    3    3    0  502 -0.14661567448E+03  0.78164183628E+02  0.17563444203E+03  0.24177107532E+03  0.50400001928E-02 0. -1.
</event>
<event>
 5   0  0.1209831E-02  0.4995108E+03  0.7818609E-02  0.1013907E+00
       -1   -1    0    0    0  501  0.00000000000E+00  0.00000000000E+00  0.13380966887E+03  0.13380966897E+03  0.50400001928E-02 0. -1.
        1   -1    0    0  501    0  0.00000000000E+00  0.00000000000E+00 -0.46616777030E+03  0.46616777033E+03  0.50400001928E-02 0.  1.
    10030    2    1    2    0    0  0.00000000000E+00  0.00000000000E+00 -0.33235810143E+03  0.59997743929E+03  0.49951078074E+03 0.  0.
        4    1    3    3  502    0 -0.13400178655E+03 -0.16823120739E+03 -0.13687911666E+02  0.21551610095E+03  0.12699999809E+01 0. -1.
       -4    1    3    3    0  502  0.13400178655E+03  0.16823120739E+03 -0.31867018976E+03  0.38446133835E+03  0.12699999809E+01 0.  1.
</event>
<event>
 5   0  0.8012875E-03  0.4993402E+03  0.7818609E-02  0.1013951E+00
       -4   -1    0    0    0  501  0.00000000000E+00  0.00000000000E+00  0.13272670707E+03  0.13273278295E+03  0.12699999809E+01 0. -1.
        4   -1    0    0  501    0  0.00000000000E+00  0.00000000000E+00 -0.46963276185E+03  0.46963447904E+03  0.12699999809E+01 0.  1.
    10030    2    1    2    0    0  0.00000000000E+00  0.00000000000E+00 -0.33690605478E+03  0.60236726198E+03  0.49934019322E+03 0.  0.
        5    1    3    3  502    0 -0.11885016771E+03 -0.48813658956E+02  0.89725996379E+02  0.15678322643E+03  0.46999998093E+01 0. -1.
       -5    1    3    3    0  502  0.11885016771E+03  0.48813658956E+02 -0.42663205116E+03  0.44558403555E+03  0.46999998093E+01 0.  1.
</event>
<event>
 5   0  0.1923706E-02  0.5017095E+03  0.7818609E-02  0.1013334E+00
        2   -1    0    0  501    0  0.00000000000E+00  0.00000000000E+00  0.18743467382E+04  0.18743467382E+04  0.25500000920E-02 0.  1.
       -2   -1    0    0    0  501  0.00000000000E+00  0.00000000000E+00 -0.33573358847E+02  0.33573358944E+02  0.25500000920E-02 0. -1.
    10030    2    1    2    0    0  0.00000000000E+00  0.00000000000E+00  0.18407733794E+04  0.19079200972E+04  0.50170954044E+03 0.  0.
        3    1    3    3  502    0  0.18507918824E+03  0.11324882391E+03  0.13991291564E+04  0.14158538091E+04  0.10100000352E+00 0.  1.
       -3    1    3    3    0  502 -0.18507918824E+03 -0.11324882391E+03  0.44164422294E+03  0.49206628811E+03  0.10100000352E+00 0. -1.
</event>
<event>
 5   0  0.1941387E-02  0.4997588E+03  0.7818609E-02  0.1013842E+00
        2   -1    0    0  501    0  0.00000000000E+00  0.00000000000E+00  0.32078474638E+03  0.32078474639E+03  0.25500000920E-02 0. -1.
       -2   -1    0    0    0  501  0.00000000000E+00  0.00000000000E+00 -0.19464677378E+03  0.19464677380E+03  0.25500000920E-02 0.  1.
    10030    2    1    2    0    0  0.00000000000E+00  0.00000000000E+00  0.12613797260E+03  0.51543152019E+03  0.49975880570E+03 0.  0.
        4    1    3    3  502    0 -0.47879974079E+02 -0.87420595091E+02 -0.17325272072E+03  0.19988239167E+03  0.12699999809E+01 0.  1.
       -4    1    3    3    0  502  0.47879974079E+02  0.87420595091E+02  0.29939069332E+03  0.31554912852E+03  0.12699999809E+01 0. -1.
</event>
<event>
 5   0  0.1941387E-02  0.5001235E+03  0.7818609E-02  0.1013747E+00
       -2   -1    0    0    0  501  0.00000000000E+00  0.00000000000E+00  0.72661635876E+02  0.72661635921E+02  0.25500000920E-02 0.  1.
        2   -1    0    0  501    0  0.00000000000E+00  0.00000000000E+00 -0.86057619713E+03  0.86057619713E+03  0.25500000920E-02 0. -1.
    10030    2    1    2    0    0  0.00000000000E+00  0.00000000000E+00 -0.78791456125E+03  0.93323783305E+03  0.50012348196E+03 0.  0.
        4    1    3    3  502    0  0.66490563454E+02  0.23111540819E+03 -0.52180223770E+03  0.57455592861E+03  0.12699999809E+01 0. -1.
       -4    1    3    3    0  502 -0.66490563454E+02 -0.23111540819E+03 -0.26611232355E+03  0.35868190445E+03  0.12699999809E+01 0.  1.
</event>
<event>
 5   0  0.1225989E-02  0.5015351E+03  0.7818609E-02  0.1013379E+00
       -1   -1    0    0    0  501  0.00000000000E+00  0.00000000000E+00  0.16812898719E+03  0.16812898727E+03  0.50400001928E-02 0.  1.
        1   -1    0    0  501    0  0.00000000000E+00  0.00000000000E+00 -0.37402455076E+03  0.37402455079E+03  0.50400001928E-02 0. -1.
    10030    2    1    2    0    0  0.00000000000E+00  0.00000000000E+00 -0.20589556356E+03  0.54215353806E+03  0.50153511914E+03 0.  0.
        3    1    3    3  502    0  0.32837735800E+02  0.24860745543E+03 -0.10360969831E+03  0.27132814740E+03  0.10100000352E+00 0. -1.
       -3    1    3    3    0  502 -0.32837735800E+02 -0.24860745543E+03 -0.10228586526E+03  0.27082539065E+03  0.10100000352E+00 0.  1.
</event>
<event>
 5   0  0.1180937E-02  0.4998880E+03  0.7818609E-02  0.1013808E+00
        1   -1    0    0  501    0  0.00000000000E+00  0.00000000000E+00  0.12743494080E+04  0.12743494081E+04  0.50400001928E-02 0.  1.
       -1   -1    0    0    0  501  0.00000000000E+00  0.00000000000E+00 -0.49022668814E+02  0.49022669073E+02  0.50400001928E-02 0. -1.
    10030    2    1    2    0    0  0.00000000000E+00  0.00000000000E+00  0.12253267392E+04  0.13233720771E+04  0.49988802411E+03 0.  0.
        1    1    3    3  502    0 -0.23562036596E+03 -0.56086002680E+02  0.44926856608E+03  0.51039674866E+03  0.50400001928E-02 0. -1.
       -1    1    3    3    0  502  0.23562036596E+03  0.56086002680E+02  0.77605817316E+03  0.81297532847E+03  0.50400001928E-02 0.  1.
</event>
<event>
 5   0  0.1217270E-02  0.4974559E+03  0.7818609E-02  0.1014445E+00
        1   -1    0    0  501    0  0.00000000000E+00  0.00000000000E+00  0.15201955949E+03  0.15201955957E+03  0.50400001928E-02 0.  1.
       -1   -1    0    0    0  501  0.00000000000E+00  0.00000000000E+00 -0.40695813435E+03  0.40695813438E+03  0.50400001928E-02 0. -1.
    10030    2    1    2    0    0  0.00000000000E+00  0.00000000000E+00 -0.25493857486E+03  0.55897769395E+03  0.49745591300E+03 0.  0.
        2    1    3    3  502    0  0.12355491518E+03 -0.16884306875E+03  0.23671172048E+02  0.21055669859E+03  0.25500000920E-02 0.  1.
       -2    1    3    3    0  502 -0.12355491518E+03  0.16884306875E+03 -0.27860974691E+03  0.34842099536E+03  0.25500000920E-02 0. -1.
</event>
<event>
 5   0  0.1855407E-02  0.4984881E+03  0.7818609E-02  0.1014174E+00
        2   -1    0    0  501    0  0.00000000000E+00  0.00000000000E+00  0.26070395275E+04  0.26070395275E+04  0.25500000920E-02 0. -1.
       -2   -1    0    0    0  501  0.00000000000E+00  0.00000000000E+00 -0.23828792592E+02  0.23828792728E+02  0.25500000920E-02 0.  1.
    10030    2    1    2    0    0  0.00000000000E+00  0.00000000000E+00  0.25832107349E+04  0.26308683202E+04  0.49848813169E+03 0.  0.
        1    1    3    3  502    0 -0.14349395230E+03  0.12373291538E+03  0.43697304868E+03  0.47628331273E+03  0.50400001928E-02 0.  1.
       -1    1    3    3    0  502  0.14349395230E+03 -0.12373291538E+03  0.21462376862E+04  0.21545850075E+04  0.50400001928E-02 0. -1.
</event>
<event>
 5   0  0.1941387E-02  0.4992045E+03  0.7818609E-02  0.1013987E+00
       -2   -1    0    0    0  501  0.00000000000E+00  0.00000000000E+00  0.10916481096E+03  0.10916481099E+03  0.25500000920E-02 0.  1.
        2   -1    0    0  501    0  0.00000000000E+00  0.00000000000E+00 -0.57070843015E+03  0.57070843015E+03  0.25500000920E-02 0. -1.
    10030    2    1    2    0    0  0.00000000000E+00  0.00000000000E+00 -0.46154361919E+03  0.67987324114E+03  0.49920447875E+03 0.  0.
        4    1    3    3  502    0  0.23741170622E+03  0.11214243983E+02 -0.12696588926E+03  0.26946618981E+03  0.12699999809E+01 0. -1.
       -4    1    3    3    0  502 -0.23741170622E+03 -0.11214243983E+02 -0.33457772993E+03  0.41040705133E+03  0.12699999809E+01 0.  1.
</event>
<event>
 5   0  0.1227864E-02  0.4992002E+03  0.7818609E-02  0.1013988E+00
       -1   -1    0    0    0  501  0.00000000000E+00  0.00000000000E+00  0.15159938743E+03  0.15159938751E+03  0.50400001928E-02 0.  1.
        1   -1    0    0  501    0  0.00000000000E+00  0.00000000000E+00 -0.41095288682E+03  0.41095288685E+03  0.50400001928E-02 0. -1.
    10030    2    1    2    0    0  0.00000000000E+00  0.00000000000E+00 -0.25935349939E+03  0.56255227436E+03  0.49920018403E+03 0.  0.
        5    1    3    3  502    0  0.11243987124E+03  0.16022583705E+03 -0.30412210006E+03  0.36170068461E+03  0.46999998093E+01 0. -1.
       -5    1    3    3    0  502 -0.11243987124E+03 -0.16022583705E+03  0.44768600664E+02  0.20085158975E+03  0.46999998093E+01 0.  1.
</event>
<event>
 5   0  0.1855407E-02  0.4878285E+03  0.7818609E-02  0.1017006E+00
        2   -1    0    0  501    0  0.00000000000E+00  0.00000000000E+00  0.50576039126E+03  0.50576039126E+03  0.25500000920E-02 0.  1.
       -2   -1    0    0    0  501  0.00000000000E+00  0.00000000000E+00 -0.11763311242E+03  0.11763311244E+03  0.25500000920E-02 0. -1.
    10030    2    1    2    0    0  0.00000000000E+00  0.00000000000E+00  0.38812727884E+03  0.62339350371E+03  0.48782853123E+03 0.  0.
        1    1    3    3  502    0  0.22720180668E+02 -0.49365938416E+02 -0.10979856846E+03  0.12251093072E+03  0.50400001928E-02 0. -1.
       -1    1    3    3    0  502 -0.22720180668E+02  0.49365938416E+02  0.49792584730E+03  0.50088257298E+03  0.50400001928E-02 0.  1.
</event>
<event>
 5   0  0.1180937E-02  0.4996947E+03  0.7818609E-02  0.1013859E+00
        1   -1    0    0  501    0  0.00000000000E+00  0.00000000000E+00  0.36465558317E+03  0.36465558320E+03  0.50400001928E-02 0. -1.
       -1   -1    0    0    0  501  0.00000000000E+00  0.00000000000E+00 -0.17118539487E+03  0.17118539494E+03  0.50400001928E-02 0.  1.
    10030    2    1    2    0    0  0.00000000000E+00  0.00000000000E+00  0.19347018830E+03  0.53584097814E+03  0.49969474692E+03 0.  0.
        1    1    3    3  502    0 -0.18408818379E+03  0.32007894768E+02  0.27459674411E+03  0.33213903210E+03  0.50400001928E-02 0. -1.
       -1    1    3    3    0  502  0.18408818379E+03 -0.32007894768E+02 -0.81126555809E+02  0.20370194605E+03  0.50400001928E-02 0.  1.
</event>
<event>
 5   0  0.1227864E-02  0.5007218E+03  0.7818609E-02  0.1013591E+00
        1   -1    0    0  501    0  0.00000000000E+00  0.00000000000E+00  0.46910046565E+03  0.46910046568E+03  0.50400001928E-02 0. -1.
       -1   -1    0    0    0  501  0.00000000000E+00  0.00000000000E+00 -0.13361866618E+03  0.13361866627E+03  0.50400001928E-02 0.  1.
    10030    2    1    2    0    0  0.00000000000E+00  0.00000000000E+00  0.33548179947E+03  0.60271913195E+03  0.50072179326E+03 0.  0.
        5    1    3    3  502    0  0.22506649101E+03  0.99717797151E+02  0.22237252175E+03  0.33176828189E+03  0.46999998093E+01 0.  1.
       -5    1    3    3    0  502 -0.22506649101E+03 -0.99717797151E+02  0.11310927772E+03  0.27095085006E+03  0.46999998093E+01 0. -1.
</event>
<event>
 5   0  0.1227864E-02  0.5000112E+03  0.7818609E-02  0.1013776E+00
        1   -1    0    0  501    0  0.00000000000E+00  0.00000000000E+00  0.38725216789E+03  0.38725216793E+03  0.50400001928E-02 0.  1.
       -1   -1    0    0    0  501  0.00000000000E+00  0.00000000000E+00 -0.16140076376E+03  0.16140076384E+03  0.50400001928E-02 0. -1.
    10030    2    1    2    0    0  0.00000000000E+00  0.00000000000E+00  0.22585140413E+03  0.54865293177E+03  0.50001118267E+03 0.  0.
        5    1    3    3  502    0 -0.43118060967E+02  0.23160705325E+03  0.20459770487E+03  0.31206298264E+03  0.46999998093E+01 0. -1.
       -5    1    3    3    0  502  0.43118060967E+02 -0.23160705325E+03  0.21253699260E+02  0.23658994913E+03  0.46999998093E+01 0.  1.
</event>
<event>
 5   0  0.1967813E-02  0.5002505E+03  0.7818609E-02  0.1013714E+00
       -2   -1    0    0    0  501  0.00000000000E+00  0.00000000000E+00  0.26473838552E+03  0.26473838553E+03  0.25500000920E-02 0.  1.
        2   -1    0    0  501    0  0.00000000000E+00  0.00000000000E+00 -0.23631869024E+03  0.23631869025E+03  0.25500000920E-02 0. -1.
    10030    2    1    2    0    0  0.00000000000E+00  0.00000000000E+00  0.28419695280E+02  0.50105707579E+03  0.50025045139E+03 0.  0.
        5    1    3    3  502    0  0.22082365626E+03 -0.26752028019E+02  0.12868227676E+03  0.25702135420E+03  0.46999998093E+01 0. -1.
       -5    1    3    3    0  502 -0.22082365626E+03  0.26752028019E+02 -0.10026258148E+03  0.24403572158E+03  0.46999998093E+01 0.  1.
</event>
<event>
 5   0  0.1967813E-02  0.4997308E+03  0.7818609E-02  0.1013849E+00
       -2   -1    0    0    0  501  0.00000000000E+00  0.00000000000E+00  0.13285291302E+03  0.13285291305E+03  0.25500000920E-02 0.  1.
        2   -1    0    0  501    0  0.00000000000E+00  0.00000000000E+00 -0.46993867542E+03  0.46993867543E+03  0.25500000920E-02 0. -1.
    10030    2    1    2    0    0  0.00000000000E+00  0.00000000000E+00 -0.33708576240E+03  0.60279158847E+03  0.49973081546E+03 0.  0.
        5    1    3    3  502    0 -0.26484459423E+02 -0.21481739603E+03 -0.18064742533E+02  0.21724724428E+03  0.46999998093E+01 0.  1.
       -5    1    3    3    0  502  0.26484459423E+02  0.21481739603E+03 -0.31902101986E+03  0.38554434419E+03  0.46999998093E+01 0. -1.
</event>
<event>
 5   0  0.1941387E-02  0.4986122E+03  0.7818609E-02  0.1014142E+00
        2   -1    0    0  501    0  0.00000000000E+00  0.00000000000E+00  0.10861303281E+04  0.10861303281E+04  0.25500000920E-02 0.  1.
       -2   -1    0    0    0  501  0.00000000000E+00  0.00000000000E+00 -0.57224749509E+02  0.57224749565E+02  0.25500000920E-02 0. -1.
    10030    2    1    2    0    0  0.00000000000E+00  0.00000000000E+00  0.10289055786E+04  0.11433550777E+04  0.49861221803E+03 0.  0.
        4    1    3    3  502    0 -0.11670004908E+03  0.37075056306E+02  0.16488700607E+02  0.12355950552E+03  0.12699999809E+01 0. -1.
       -4    1    3    3    0  502  0.11670004908E+03 -0.37075056306E+02  0.10124168780E+04  0.10197955721E+04  0.12699999809E+01 0.  1.
</event>
<event>
 5   0  0.1180937E-02  0.4999145E+03  0.7818609E-02  0.1013801E+00
       -1   -1    0    0    0  501  0.00000000000E+00  0.00000000000E+00  0.30646454527E+03  0.30646454531E+03  0.50400001928E-02 0.  1.
        1   -1    0    0  501    0  0.00000000000E+00  0.00000000000E+00 -0.20386902991E+03  0.20386902997E+03  0.50400001928E-02 0. -1.
    10030    2    1    2    0    0  0.00000000000E+00  0.00000000000E+00  0.10259551536E+03  0.51033357528E+03  0.49991451098E+03 0.  0.
        1    1    3    3  502    0  0.10265936874E+03  0.12261585883E+03 -0.14481290528E+03  0.21574144800E+03  0.50400001928E-02 0. -1.
       -1    1    3    3    0  502 -0.10265936874E+03 -0.12261585883E+03  0.24740842064E+03  0.29459212728E+03  0.50400001928E-02 0.  1.
</event>
<event>
 5   0  0.1967813E-02  0.4984364E+03  0.7818609E-02  0.1014188E+00
       -2   -1    0    0    0  501  0.00000000000E+00  0.00000000000E+00  0.96082726384E+02  0.96082726418E+02  0.25500000920E-02 0. -1.
        2   -1    0    0  501    0  0.00000000000E+00  0.00000000000E+00 -0.64641910201E+03  0.64641910201E+03  0.25500000920E-02 0.  1.
    10030    2    1    2    0    0  0.00000000000E+00  0.00000000000E+00 -0.55033637563E+03  0.74250182843E+03  0.49843639403E+03 0.  0.
        5    1    3    3  502    0  0.21780805207E+03  0.24148719457E+02 -0.45183050919E+03  0.50219160410E+03  0.46999998093E+01 0.  1.
       -5    1    3    3    0  502 -0.21780805207E+03 -0.24148719457E+02 -0.98505866435E+02  0.24031022433E+03  0.46999998093E+01 0. -1.
</event>
<event>
 5   0  0.1225989E-02  0.5000814E+03  0.7818609E-02  0.1013758E+00
       -1   -1    0    0    0  501  0.00000000000E+00  0.00000000000E+00  0.58315893639E+03  0.58315893641E+03  0.50400001928E-02 0. -1.
        1   -1    0    0  501    0  0.00000000000E+00  0.00000000000E+00 -0.10720978043E+03  0.10720978054E+03  0.50400001928E-02 0.  1.
    10030    2    1    2    0    0  0.00000000000E+00  0.00000000000E+00  0.47594915597E+03  0.69036871696E+03  0.50008135967E+03 0.  0.
        3    1    3    3  502    0 -0.10417397869E+03  0.23752380278E+02 -0.74106631680E+02  0.13003152104E+03  0.10100000352E+00 0.  1.
       -3    1    3    3    0  502  0.10417397869E+03 -0.23752380278E+02  0.55005578765E+03  0.56033719592E+03  0.10100000352E+00 0. -1.
</event>
<event>
 5   0  0.1923706E-02  0.5002252E+03  0.7818609E-02  0.1013720E+00
       -2   -1    0    0    0  501  0.00000000000E+00  0.00000000000E+00  0.37141648628E+02  0.37141648716E+02  0.25500000920E-02 0. -1.
        2   -1    0    0  501    0  0.00000000000E+00  0.00000000000E+00 -0.16842629223E+04  0.16842629223E+04  0.25500000920E-02 0.  1.
    10030    2    1    2    0    0  0.00000000000E+00  0.00000000000E+00 -0.16471212737E+04  0.17214045711E+04  0.50022515625E+03 0.  0.
        3    1    3    3  502    0 -0.17742701572E+03 -0.94152043188E+02 -0.13364276746E+04  0.13514377133E+04  0.10100000352E+00 0.  1.
       -3    1    3    3    0  502  0.17742701572E+03  0.94152043188E+02 -0.31069359906E+03  0.36996685776E+03  0.10100000352E+00 0. -1.
</event>
<event>
 5   0  0.1967813E-02  0.4998479E+03  0.7818609E-02  0.1013819E+00
       -2   -1    0    0    0  501  0.00000000000E+00  0.00000000000E+00  0.84478671608E+02  0.84478671646E+02  0.25500000920E-02 0.  1.
        2   -1    0    0  501    0  0.00000000000E+00  0.00000000000E+00 -0.73938165813E+03  0.73938165813E+03  0.25500000920E-02 0. -1.
    10030    2    1    2    0    0  0.00000000000E+00  0.00000000000E+00 -0.65490298652E+03  0.82386032978E+03  0.49984789810E+03 0.  0.
        5    1    3    3  502    0  0.14078882709E+02  0.24930564949E+03 -0.34294552625E+03  0.42424668034E+03  0.46999998093E+01 0.  1.
       -5    1    3    3    0  502 -0.14078882709E+02 -0.24930564949E+03 -0.31195746027E+03  0.39961364945E+03  0.46999998093E+01 0. -1.
</event>
<event>
 5   0  0.1209831E-02  0.5025821E+03  0.7818609E-02  0.1013107E+00
        1   -1    0    0  501    0  0.00000000000E+00  0.00000000000E+00  0.50870748380E+03  0.50870748383E+03  0.50400001928E-02 0. -1.
       -1   -1    0    0    0  501  0.00000000000E+00  0.00000000000E+00 -0.12413262662E+03  0.12413262672E+03  0.50400001928E-02 0.  1.
    10030    2    1    2    0    0  0.00000000000E+00  0.00000000000E+00  0.38457485718E+03  0.63284011055E+03  0.50258211742E+03 0.  0.
        4    1    3    3  502    0 -0.80028649615E+02 -0.16230799910E+02  0.49153106767E+03  0.49826943214E+03  0.12699999809E+01 0. -1.
       -4    1    3    3    0  502  0.80028649615E+02  0.16230799910E+02 -0.10695621049E+03  0.13457067841E+03  0.12699999809E+01 0.  1.
</event>
<event>
 5   0  0.1923706E-02  0.4994824E+03  0.7818609E-02  0.1013914E+00
        2   -1    0    0  501    0  0.00000000000E+00  0.00000000000E+00  0.16180315688E+03  0.16180315690E+03  0.25500000920E-02 0. -1.
       -2   -1    0    0    0  501  0.00000000000E+00  0.00000000000E+00 -0.38547254745E+03  0.38547254746E+03  0.25500000920E-02 0.  1.
    10030    2    1    2    0    0  0.00000000000E+00  0.00000000000E+00 -0.22366939057E+03  0.54727570435E+03  0.49948243242E+03 0.  0.
        3    1    3    3  502    0  0.25269166957E+02  0.23679320959E+03 -0.19427446049E+03  0.30733065435E+03  0.10100000352E+00 0.  1.
       -3    1    3    3    0  502 -0.25269166957E+02 -0.23679320959E+03 -0.29394930080E+02  0.23994505000E+03  0.10100000352E+00 0. -1.
</event>
<event>
 5   0  0.1982847E-02  0.4992307E+03  0.7818609E-02  0.1013980E+00
       -2   -1    0    0    0  501  0.00000000000E+00  0.00000000000E+00  0.12289630778E+03  0.12289630780E+03  0.25500000920E-02 0. -1.
        2   -1    0    0  501    0  0.00000000000E+00  0.00000000000E+00 -0.50699514278E+03  0.50699514278E+03  0.25500000920E-02 0.  1.
    10030    2    1    2    0    0  0.00000000000E+00  0.00000000000E+00 -0.38409883500E+03  0.62989145059E+03  0.49923073270E+03 0.  0.
        2    1    3    3  502    0  0.19463523420E+03 -0.50647833298E+02 -0.55029484089E+01  0.20119234543E+03  0.25500000920E-02 0. -1.
       -2    1    3    3    0  502 -0.19463523420E+03  0.50647833298E+02 -0.37859588659E+03  0.42869910516E+03  0.25500000920E-02 0.  1.
</event>
<event>
 5   0  0.1941387E-02  0.4997007E+03  0.7818609E-02  0.1013857E+00
       -2   -1    0    0    0  501  0.00000000000E+00  0.00000000000E+00  0.11950529150E+03  0.11950529153E+03  0.25500000920E-02 0.  1.
        2   -1    0    0  501    0  0.00000000000E+00  0.00000000000E+00 -0.52236353341E+03  0.52236353341E+03  0.25500000920E-02 0. -1.
    10030    2    1    2    0    0  0.00000000000E+00  0.00000000000E+00 -0.40285824190E+03  0.64186882494E+03  0.49970073580E+03 0.  0.
        4    1    3    3  502    0 -0.21318383120E+03 -0.12943135260E+03 -0.18221415270E+03  0.30887445874E+03  0.12699999809E+01 0.  1.
       -4    1    3    3    0  502  0.21318383120E+03  0.12943135260E+03 -0.22064408920E+03  0.33299436620E+03  0.12699999809E+01 0. -1.
</event>
<event>
 5   0  0.1923706E-02  0.4999382E+03  0.7818609E-02  0.1013795E+00
       -2   -1    0    0    0  501  0.00000000000E+00  0.00000000000E+00  0.95504906142E+02  0.95504906176E+02  0.25500000920E-02 0.  1.
        2   -1    0    0  501    0  0.00000000000E+00  0.00000000000E+00 -0.65425481983E+03  0.65425481984E+03  0.25500000920E-02 0. -1.
    10030    2    1    2    0    0  0.00000000000E+00  0.00000000000E+00 -0.55874991369E+03  0.74975972601E+03  0.49993817688E+03 0.  0.
        3    1    3    3  502    0 -0.11345015279E+03 -0.88758928798E+02 -0.58575350810E+03  0.60320499589E+03  0.10100000352E+00 0. -1.
       -3    1    3    3    0  502  0.11345015279E+03  0.88758928798E+02  0.27003594411E+02  0.14655473013E+03  0.10100000352E+00 0.  1.
</event>
<event>
 5   0  0.1855407E-02  0.4992988E+03  0.7818609E-02  0.1013962E+00
        2   -1    0    0  501    0  0.00000000000E+00  0.00000000000E+00  0.35643560618E+03  0.35643560619E+03  0.25500000920E-02 0.  1.
       -2   -1    0    0    0  501  0.00000000000E+00  0.00000000000E+00 -0.17485575865E+03  0.17485575867E+03  0.25500000920E-02 0. -1.
    10030    2    1    2    0    0  0.00000000000E+00  0.00000000000E+00  0.18157984753E+03  0.53129136486E+03  0.49929878164E+03 0.  0.
        1    1    3    3  502    0  0.17506107690E+03 -0.16024908764E+03  0.17320366864E+03  0.29381228972E+03  0.50400001928E-02 0.  1.
       -1    1    3    3    0  502 -0.17506107690E+03  0.16024908764E+03  0.83761788887E+01  0.23747907515E+03  0.50400001928E-02 0. -1.
</event>
<event>
 5   0  0.1855407E-02  0.5003033E+03  0.7818609E-02  0.1013700E+00
        2   -1    0    0  501    0  0.00000000000E+00  0.00000000000E+00  0.47656595275E+03  0.47656595276E+03  0.25500000920E-02 0.  1.
       -2   -1    0    0    0  501  0.00000000000E+00  0.00000000000E+00 -0.13130577115E+03  0.13130577117E+03  0.25500000920E-02 0. -1.
    10030    2    1    2    0    0  0.00000000000E+00  0.00000000000E+00  0.34526018161E+03  0.60787172393E+03  0.50030334774E+03 0.  0.
        1    1    3    3  502    0 -0.12731301963E+03 -0.18954307405E+03  0.29677899328E+03  0.37445020065E+03  0.50400001928E-02 0.  1.
       -1    1    3    3    0  502  0.12731301963E+03  0.18954307405E+03  0.48481188328E+02  0.23342152329E+03  0.50400001928E-02 0. -1.
</event>
<event>
 5   0  0.1209831E-02  0.5001944E+03  0.7818609E-02  0.1013728E+00
       -1   -1    0    0    0  501  0.00000000000E+00  0.00000000000E+00  0.42223407806E+03  0.42223407809E+03  0.50400001928E-02 0.  1.
        1   -1    0    0  501    0  0.00000000000E+00  0.00000000000E+00 -0.14813728637E+03  0.14813728646E+03  0.50400001928E-02 0. -1.
    10030    2    1    2    0    0  0.00000000000E+00  0.00000000000E+00  0.27409679169E+03  0.57037136455E+03  0.50019440449E+03 0.  0.
        4    1    3    3  502    0 -0.10600257905E+03 -0.57129138511E+02  0.38699700412E+03  0.40530060367E+03  0.12699999809E+01 0.  1.
       -4    1    3    3    0  502  0.10600257905E+03  0.57129138511E+02 -0.11290021243E+03  0.16507076088E+03  0.12699999809E+01 0. -1.
</event>
<event>
 5   0  0.8012875E-03  0.5014810E+03  0.7818609E-02  0.1013393E+00
        4   -1    0    0  501    0  0.00000000000E+00  0.00000000000E+00  0.10125880144E+04  0.10125888109E+04  0.12699999809E+01 0. -1.
       -4   -1    0    0    0  501  0.00000000000E+00  0.00000000000E+00 -0.62081892104E+02  0.62094880845E+02  0.12699999809E+01 0.  1.
    10030    2    1    2    0    0  0.00000000000E+00  0.00000000000E+00  0.95050612234E+03  0.10746836917E+04  0.50148095540E+03 0.  0.
        3    1    3    3  502    0  0.76250660430E+02 -0.10649847382E+03  0.93345201983E+03  0.94259682350E+03  0.10100000352E+00 0. -1.
       -3    1    3    3    0  502 -0.76250660430E+02  0.10649847382E+03  0.17054102508E+02  0.13208686821E+03  0.10100000352E+00 0.  1.
</event>
<event>
 5   0  0.1855407E-02  0.4995710E+03  0.7818609E-02  0.1013891E+00
       -2   -1    0    0    0  501  0.00000000000E+00  0.00000000000E+00  0.73187673328E+02  0.73187673373E+02  0.25500000920E-02 0.  1.
        2   -1    0    0  501    0  0.00000000000E+00  0.00000000000E+00 -0.85250427652E+03  0.85250427652E+03  0.25500000920E-02 0. -1.
    10030    2    1    2    0    0  0.00000000000E+00  0.00000000000E+00 -0.77931660319E+03  0.92569194989E+03  0.49957103408E+03 0.  0.
        1    1    3    3  502    0  0.61794165506E+02  0.15452934261E+03 -0.44512589346E+02  0.17227654296E+03  0.50400001928E-02 0.  1.
       -1    1    3    3    0  502 -0.61794165506E+02 -0.15452934261E+03 -0.73480401384E+03  0.75341540693E+03  0.50400001928E-02 0. -1.
</event>
<event>
 5   0  0.1225989E-02  0.5000497E+03  0.7818609E-02  0.1013766E+00
        1   -1    0    0  501    0  0.00000000000E+00  0.00000000000E+00  0.18744563894E+03  0.18744563900E+03  0.50400001928E-02 0. -1.
       -1   -1    0    0    0  501  0.00000000000E+00  0.00000000000E+00 -0.33349628649E+03  0.33349628652E+03  0.50400001928E-02 0.  1.
    10030    2    1    2    0    0  0.00000000000E+00  0.00000000000E+00 -0.14605064755E+03  0.52094192553E+03  0.50004969565E+03 0.  0.
        3    1    3    3  502    0  0.58248585106E+01 -0.22372128196E+03  0.43109928941E+02  0.22791142391E+03  0.10100000352E+00 0. -1.
       -3    1    3    3    0  502 -0.58248585106E+01  0.22372128196E+03 -0.18916057649E+03  0.29303050161E+03  0.10100000352E+00 0.  1.
</event>
<event>
 5   0  0.1967813E-02  0.5002144E+03  0.7818609E-02  0.1013723E+00
        2   -1    0    0  501    0  0.00000000000E+00  0.00000000000E+00  0.53014675044E+03  0.53014675044E+03  0.25500000920E-02 0. -1.
       -2   -1    0    0    0  501  0.00000000000E+00  0.00000000000E+00 -0.11799299974E+03  0.11799299976E+03  0.25500000920E-02 0.  1.
    10030    2    1    2    0    0  0.00000000000E+00  0.00000000000E+00  0.41215375070E+03  0.64813975021E+03  0.50021437563E+03 0.  0.
        5    1    3    3  502    0  0.42935926901E+02  0.36163524638E+02  0.52181963010E+03  0.52485151299E+03  0.46999998093E+01 0. -1.
       -5    1    3    3    0  502 -0.42935926901E+02 -0.36163524638E+02 -0.10966587940E+03  0.12328823722E+03  0.46999998093E+01 0.  1.
</event>
<event>
 5   0  0.1180937E-02  0.4999352E+03  0.7818609E-02  0.1013796E+00
       -1   -1    0    0    0  501  0.00000000000E+00  0.00000000000E+00  0.58511226304E+03  0.58511226306E+03  0.50400001928E-02 0. -1.
        1   -1    0    0  501    0  0.00000000000E+00  0.00000000000E+00 -0.10678941586E+03  0.10678941598E+03  0.50400001928E-02 0.  1.
    10030    2    1    2    0    0  0.00000000000E+00  0.00000000000E+00  0.47832284718E+03  0.69190167904E+03  0.49993518312E+03 0.  0.
        1    1    3    3  502    0  0.19563116122E+03 -0.15548397576E+03  0.24757745515E+03  0.35176897857E+03  0.50400001928E-02 0.  1.
       -1    1    3    3    0  502 -0.19563116122E+03  0.15548397576E+03  0.23074539203E+03  0.34013270047E+03  0.50400001928E-02 0. -1.
</event>
<event>
 5   0  0.1982847E-02  0.4989733E+03  0.7818609E-02  0.1014047E+00
        2   -1    0    0  501    0  0.00000000000E+00  0.00000000000E+00  0.13794407950E+04  0.13794407950E+04  0.25500000920E-02 0.  1.
       -2   -1    0    0    0  501  0.00000000000E+00  0.00000000000E+00 -0.45122334523E+02  0.45122334595E+02  0.25500000920E-02 0. -1.
    10030    2    1    2    0    0  0.00000000000E+00  0.00000000000E+00  0.13343184605E+04  0.14245631296E+04  0.49897330214E+03 0.  0.
        2    1    3    3  502    0 -0.14402533909E+03 -0.14894210158E+03  0.27036159770E+03  0.34062067090E+03  0.25500000920E-02 0. -1.
       -2    1    3    3    0  502  0.14402533909E+03  0.14894210158E+03  0.10639568628E+04  0.10839424587E+04  0.25500000920E-02 0.  1.
</event>
<event>
 5   0  0.1217270E-02  0.4999271E+03  0.7818609E-02  0.1013798E+00
       -1   -1    0    0    0  501  0.00000000000E+00  0.00000000000E+00  0.22529503889E+03  0.22529503894E+03  0.50400001928E-02 0.  1.
        1   -1    0    0  501    0  0.00000000000E+00  0.00000000000E+00 -0.27733316879E+03  0.27733316883E+03  0.50400001928E-02 0. -1.
    10030    2    1    2    0    0  0.00000000000E+00  0.00000000000E+00 -0.52038129901E+02  0.50262820778E+03  0.49992714298E+03 0.  0.
        2    1    3    3  502    0  0.10504947835E+03 -0.16116730974E+03 -0.18647926780E+03  0.26792687800E+03  0.25500000920E-02 0. -1.
       -2    1    3    3    0  502 -0.10504947835E+03  0.16116730974E+03  0.13444113790E+03  0.23470132977E+03  0.25500000920E-02 0.  1.
</event>
<event>
 5   0  0.1227864E-02  0.5024010E+03  0.7818609E-02  0.1013154E+00
        1   -1    0    0  501    0  0.00000000000E+00  0.00000000000E+00  0.30463244124E+03  0.30463244129E+03  0.50400001928E-02 0.  1.
       -1   -1    0    0    0  501  0.00000000000E+00  0.00000000000E+00 -0.20714037804E+03  0.20714037810E+03  0.50400001928E-02 0. -1.
    10030    2    1    2    0    0  0.00000000000E+00  0.00000000000E+00  0.97492063206E+02  0.51177281939E+03  0.50240095171E+03 0.  0.
        5    1    3    3  502    0  0.60577958466E+02 -0.11323781352E+03  0.26861279856E+03  0.29777074573E+03  0.46999998093E+01 0.  1.
       -5    1    3    3    0  502 -0.60577958466E+02  0.11323781352E+03 -0.17112073535E+03  0.21400207366E+03  0.46999998093E+01 0. -1.
</event>
<event>
 5   0  0.1180937E-02  0.4993307E+03  0.7818609E-02  0.1013954E+00
        1   -1    0    0  501    0  0.00000000000E+00  0.00000000000E+00  0.51700295366E+03  0.51700295369E+03  0.50400001928E-02 0. -1.
       -1   -1    0    0    0  501  0.00000000000E+00  0.00000000000E+00 -0.12056564200E+03  0.12056564211E+03  0.50400001928E-02 0.  1.
    10030    2    1    2    0    0  0.00000000000E+00  0.00000000000E+00  0.39643731166E+03  0.63756859580E+03  0.49933072434E+03 0.  0.
        1    1    3    3  502    0 -0.35205164306E+02 -0.24181419677E+03  0.26356629419E+03  0.35941716822E+03  0.50400001928E-02 0. -1.
       -1    1    3    3    0  502  0.35205164306E+02  0.24181419677E+03  0.13287101747E+03  0.27815142758E+03  0.50400001928E-02 0.  1.
</event>
<event>
 5   0  0.1217270E-02  0.5002267E+03  0.7818609E-02  0.1013720E+00
        1   -1    0    0  501    0  0.00000000000E+00  0.00000000000E+00  0.44681402751E+03  0.44681402754E+03  0.50400001928E-02 0. -1.
       -1   -1    0    0    0  501  0.00000000000E+00  0.00000000000E+00 -0.14000607961E+03  0.14000607970E+03  0.50400001928E-02 0.  1.
    10030    2    1    2    0    0  0.00000000000E+00  0.00000000000E+00  0.30680794790E+03  0.58682010724E+03  0.50022666999E+03 0.  0.
        2    1    3    3  502    0 -0.53296445487E+02 -0.71062741888E+02 -0.12087834263E+03  0.15000666022E+03  0.25500000920E-02 0.  1.
       -2    1    3    3    0  502  0.53296445487E+02  0.71062741888E+02  0.42768629053E+03  0.43681344702E+03  0.25500000920E-02 0. -1.
</event>
<event>
 5   0  0.1923706E-02  0.5002359E+03  0.7818609E-02  0.1013717E+00
        2   -1    0    0  501    0  0.00000000000E+00  0.00000000000E+00  0.32325538298E+03  0.32325538299E+03  0.25500000920E-02 0. -1.
       -2   -1    0    0    0  501  0.00000000000E+00  0.00000000000E+00 -0.19352807725E+03  0.19352807727E+03  0.25500000920E-02 0.  1.
    10030    2    1    2    0    0  0.00000000000E+00  0.00000000000E+00  0.12972730572E+03  0.51678346026E+03  0.50023591529E+03 0.  0.
        3    1    3    3  502    0  0.51198712671E+02 -0.22976858164E+03 -0.22454931361E+02  0.23647228893E+03  0.10100000352E+00 0.  1.
       -3    1    3    3    0  502 -0.51198712671E+02  0.22976858164E+03  0.15218223709E+03  0.28031117133E+03  0.10100000352E+00 0. -1.
</event>
<event>
 5   0  0.1855407E-02  0.5005838E+03  0.7818609E-02  0.1013627E+00
        2   -1    0    0  501    0  0.00000000000E+00  0.00000000000E+00  0.67118625346E+03  0.67118625346E+03  0.25500000920E-02 0.  1.
       -2   -1    0    0    0  501  0.00000000000E+00  0.00000000000E+00 -0.93336285814E+02  0.93336285849E+02  0.25500000920E-02 0. -1.
    10030    2    1    2    0    0  0.00000000000E+00  0.00000000000E+00  0.57784996764E+03  0.76452253931E+03  0.50058378720E+03 0.  0.
        1    1    3    3  502    0  0.19254392316E+03 -0.58741616475E+02  0.51608326578E+03  0.55395458036E+03  0.50400001928E-02 0.  1.
       -1    1    3    3    0  502 -0.19254392316E+03  0.58741616475E+02  0.61766701860E+02  0.21056795895E+03  0.50400001928E-02 0. -1.
</event>
<event>
 5   0  0.8012875E-03  0.4994103E+03  0.7818609E-02  0.1013933E+00
        4   -1    0    0  501    0  0.00000000000E+00  0.00000000000E+00  0.96159287256E+03  0.96159371122E+03  0.12699999809E+01 0.  1.
       -4   -1    0    0    0  501  0.00000000000E+00  0.00000000000E+00 -0.64836012434E+02  0.64848449545E+02  0.12699999809E+01 0. -1.
    10030    2    1    2    0    0  0.00000000000E+00  0.00000000000E+00  0.89675686013E+03  0.10264421608E+04  0.49941029546E+03 0.  0.
        1    1    3    3  502    0  0.70883600910E+02 -0.11352911595E+03  0.88165047870E+03  0.89175159751E+03  0.50400001928E-02 0.  1.
       -1    1    3    3    0  502 -0.70883600910E+02  0.11352911595E+03  0.15106381429E+02  0.13469056326E+03  0.50400001928E-02 0. -1.
</event>
<event>
 5   0  0.1217270E-02  0.5001973E+03  0.7818609E-02  0.1013727E+00
        1   -1    0    0  501    0  0.00000000000E+00  0.00000000000E+00  0.14494296709E+04  0.14494296709E+04  0.50400001928E-02 0.  1.
       -1   -1    0    0    0  501  0.00000000000E+00  0.00000000000E+00 -0.43154450731E+02  0.43154451025E+02  0.50400001928E-02 0. -1.
    10030    2    1    2    0    0  0.00000000000E+00  0.00000000000E+00  0.14062752202E+04  0.14925841219E+04  0.50019732725E+03 0.  0.
        2    1    3    3  502    0  0.10611706512E+03 -0.54792227772E+02  0.47431074023E+02  0.12850185416E+03  0.25500000920E-02 0. -1.
       -2    1    3    3    0  502 -0.10611706512E+03  0.54792227772E+02  0.13588441462E+04  0.13640822678E+04  0.25500000920E-02 0.  1.
</event>
<event>
 5   0  0.1225989E-02  0.4997414E+03  0.7818609E-02  0.1013846E+00
       -1   -1    0    0    0  501  0.00000000000E+00  0.00000000000E+00  0.95402905409E+02  0.95402905542E+02  0.50400001928E-02 0. -1.
        1   -1    0    0  501    0  0.00000000000E+00  0.00000000000E+00 -0.65443889073E+03  0.65443889075E+03  0.50400001928E-02 0.  1.
    10030    2    1    2    0    0  0.00000000000E+00  0.00000000000E+00 -0.55903598532E+03  0.74984179629E+03  0.49974141972E+03 0.  0.
        3    1    3    3  502    0 -0.17861784409E+03 -0.11536137122E+03 -0.82604288903E+02  0.22811413578E+03  0.10100000352E+00 0. -1.
       -3    1    3    3    0  502  0.17861784409E+03  0.11536137122E+03 -0.47643169642E+03  0.52172766052E+03  0.10100000352E+00 0.  1.
</event>
<event>
 5   0  0.1209831E-02  0.4987321E+03  0.7818609E-02  0.1014110E+00
       -1   -1    0    0    0  501  0.00000000000E+00  0.00000000000E+00  0.13844213998E+03  0.13844214007E+03  0.50400001928E-02 0. -1.
        1   -1    0    0  501    0  0.00000000000E+00  0.00000000000E+00 -0.44916553357E+03  0.44916553360E+03  0.50400001928E-02 0.  1.
    10030    2    1    2    0    0  0.00000000000E+00  0.00000000000E+00 -0.31072339359E+03  0.58760767367E+03  0.49873214337E+03 0.  0.
        4    1    3    3  502    0  0.13713452367E+02  0.24343023479E+03 -0.93739466513E+02  0.26121837315E+03  0.12699999809E+01 0. -1.
       -4    1    3    3    0  502 -0.13713452367E+02 -0.24343023479E+03 -0.21698392708E+03  0.32638930053E+03  0.12699999809E+01 0.  1.
</event>
<event>
 5   0  0.1982847E-02  0.5003335E+03  0.7818609E-02  0.1013692E+00
       -2   -1    0    0    0  501  0.00000000000E+00  0.00000000000E+00  0.70989591780E+02  0.70989591826E+02  0.25500000920E-02 0.  1.
        2   -1    0    0  501    0  0.00000000000E+00  0.00000000000E+00 -0.88158556158E+03  0.88158556158E+03  0.25500000920E-02 0. -1.
    10030    2    1    2    0    0  0.00000000000E+00  0.00000000000E+00 -0.81059596980E+03  0.95257515341E+03  0.50033348543E+03 0.  0.
        2    1    3    3  502    0  0.42726259902E+02  0.23404851369E+03 -0.55251558544E+03  0.60156272508E+03  0.25500000920E-02 0. -1.
       -2    1    3    3    0  502 -0.42726259902E+02 -0.23404851369E+03 -0.25808038436E+03  0.35101242833E+03  0.25500000920E-02 0.  1.
</event>
<event>
 5   0  0.1855407E-02  0.4990408E+03  0.7818609E-02  0.1014030E+00
        2   -1    0    0  501    0  0.00000000000E+00  0.00000000000E+00  0.82256159527E+02  0.82256159566E+02  0.25500000920E-02 0.  1.
       -2   -1    0    0    0  501  0.00000000000E+00  0.00000000000E+00 -0.75690896784E+03  0.75690896785E+03  0.25500000920E-02 0. -1.
    10030    2    1    2    0    0  0.00000000000E+00  0.00000000000E+00 -0.67465280831E+03  0.83916512741E+03  0.49904077919E+03 0.  0.
        1    1    3    3  502    0 -0.17353877823E+03  0.17922914624E+03 -0.32950574141E+03  0.41329508594E+03  0.50400001928E-02 0. -1.
       -1    1    3    3    0  502  0.17353877823E+03 -0.17922914624E+03 -0.34514706690E+03  0.42587004147E+03  0.50400001928E-02 0.  1.
</event>
<event>
 5   0  0.1227864E-02  0.5009220E+03  0.7818609E-02  0.1013539E+00
        1   -1    0    0  501    0  0.00000000000E+00  0.00000000000E+00  0.14754721003E+03  0.14754721012E+03  0.50400001928E-02 0.  1.
       -1   -1    0    0    0  501  0.00000000000E+00  0.00000000000E+00 -0.42515687992E+03  0.42515687995E+03  0.50400001928E-02 0. -1.
    10030    2    1    2    0    0  0.00000000000E+00  0.00000000000E+00 -0.27760966989E+03  0.57270409007E+03  0.50092199589E+03 0.  0.
        5    1    3    3  502    0  0.13869784600E+03 -0.45052607473E+02  0.93939673899E+02  0.17353265472E+03  0.46999998093E+01 0.  1.
       -5    1    3    3    0  502 -0.13869784600E+03  0.45052607473E+02 -0.37154934379E+03  0.39917143535E+03  0.46999998093E+01 0. -1.
</event>
<event>
 5   0  0.1180937E-02  0.4998165E+03  0.7818609E-02  0.1013827E+00
       -1   -1    0    0    0  501  0.00000000000E+00  0.00000000000E+00  0.70042825334E+02  0.70042825515E+02  0.50400001928E-02 0.  1.
        1   -1    0    0  501    0  0.00000000000E+00  0.00000000000E+00 -0.89165638421E+03  0.89165638422E+03  0.50400001928E-02 0. -1.
    10030    2    1    2    0    0  0.00000000000E+00  0.00000000000E+00 -0.82161355888E+03  0.96169920974E+03  0.49981649621E+03 0.  0.
        1    1    3    3  502    0 -0.23517302771E+03  0.75426837239E+02 -0.33732281710E+03  0.41806966369E+03  0.50400001928E-02 0. -1.
       -1    1    3    3    0  502  0.23517302771E+03 -0.75426837239E+02 -0.48429074178E+03  0.54362954605E+03  0.50400001928E-02 0.  1.
</event>
<event>
 5   0  0.1982847E-02  0.5010404E+03  0.7818609E-02  0.1013508E+00
        2   -1    0    0  501    0  0.00000000000E+00  0.00000000000E+00  0.43360422540E+03  0.43360422541E+03  0.25500000920E-02 0.  1.
       -2   -1    0    0    0  501  0.00000000000E+00  0.00000000000E+00 -0.14474112299E+03  0.14474112301E+03  0.25500000920E-02 0. -1.
    10030    2    1    2    0    0  0.00000000000E+00  0.00000000000E+00  0.28886310241E+03  0.57834534842E+03  0.50104036773E+03 0.  0.
        2    1    3    3  502    0  0.35390821273E+02  0.24509022998E+03  0.18821291697E+03  0.31103992217E+03  0.25500000920E-02 0. -1.
       -2    1    3    3    0  502 -0.35390821273E+02 -0.24509022998E+03  0.10065018544E+03  0.26730542624E+03  0.25500000920E-02 0.  1.
</event>
<event>
 5   0  0.1180937E-02  0.4997698E+03  0.7818609E-02  0.1013839E+00
        1   -1    0    0  501    0  0.00000000000E+00  0.00000000000E+00  0.19018357419E+03  0.19018357425E+03  0.50400001928E-02 0. -1.
       -1   -1    0    0    0  501  0.00000000000E+00  0.00000000000E+00 -0.32832734469E+03  0.32832734472E+03  0.50400001928E-02 0.  1.
    10030    2    1    2    0    0  0.00000000000E+00  0.00000000000E+00 -0.13814377050E+03  0.51851091898E+03  0.49976981879E+03 0.  0.
        1    1    3    3  502    0 -0.20804752510E+03  0.12528177625E+03 -0.13012739990E+03  0.27552211597E+03  0.50400001928E-02 0. -1.
       -1    1    3    3    0  502  0.20804752510E+03 -0.12528177625E+03 -0.80163706054E+01  0.24298880300E+03  0.50400001928E-02 0.  1.
</event>
<event>
 5   0  0.1855407E-02  0.4989148E+03  0.7818609E-02  0.1014063E+00
        2   -1    0    0  501    0  0.00000000000E+00  0.00000000000E+00  0.40469380543E+03  0.40469380544E+03  0.25500000920E-02 0.  1.
       -2   -1    0    0    0  501  0.00000000000E+00  0.00000000000E+00 -0.15376806874E+03  0.15376806877E+03  0.25500000920E-02 0. -1.
    10030    2    1    2    0    0  0.00000000000E+00  0.00000000000E+00  0.25092573669E+03  0.55846187421E+03  0.49891476187E+03 0.  0.
        1    1    3    3  502    0  0.24033654567E+03  0.86956596690E+01  0.51283307234E+02  0.24590088920E+03  0.50400001928E-02 0. -1.
       -1    1    3    3    0  502 -0.24033654567E+03 -0.86956596690E+01  0.19964242945E+03  0.31256098500E+03  0.50400001928E-02 0.  1.
</event>
<event>
 5   0  0.1225989E-02  0.5001580E+03  0.7818609E-02  0.1013738E+00
       -1   -1    0    0    0  501  0.00000000000E+00  0.00000000000E+00  0.40780696505E+02  0.40780696816E+02  0.50400001928E-02 0. -1.
        1   -1    0    0  501    0  0.00000000000E+00  0.00000000000E+00 -0.15335563275E+04  0.15335563275E+04  0.50400001928E-02 0.  1.
    10030    2    1    2    0    0  0.00000000000E+00  0.00000000000E+00 -0.14927756310E+04  0.15743370243E+04  0.50015795671E+03 0.  0.
        3    1    3    3  502    0  0.21239568601E+03  0.53412292527E+02 -0.36638211431E+03  0.42684969757E+03  0.10100000352E+00 0. -1.
       -3    1    3    3    0  502 -0.21239568601E+03 -0.53412292527E+02 -0.11263935167E+04  0.11474873267E+04  0.10100000352E+00 0.  1.
</event>
<event>
 5   0  0.1967813E-02  0.5003298E+03  0.7818609E-02  0.1013693E+00
       -2   -1    0    0    0  501  0.00000000000E+00  0.00000000000E+00  0.75801082740E+02  0.75801082783E+02  0.25500000920E-02 0.  1.
        2   -1    0    0  501    0  0.00000000000E+00  0.00000000000E+00 -0.82561464644E+03  0.82561464644E+03  0.25500000920E-02 0. -1.
    10030    2    1    2    0    0  0.00000000000E+00  0.00000000000E+00 -0.74981356370E+03  0.90141572922E+03  0.50032982780E+03 0.  0.
        5    1    3    3  502    0 -0.18114649647E+03  0.16753344324E+02 -0.65644560287E+02  0.19345807304E+03  0.46999998093E+01 0.  1.
       -5    1    3    3    0  502  0.18114649647E+03 -0.16753344324E+02 -0.68416900341E+03  0.70795765619E+03  0.46999998093E+01 0. -1.
</event>
<event>
 5   0  0.1855407E-02  0.5004498E+03  0.7818609E-02  0.1013662E+00
        2   -1    0    0  501    0  0.00000000000E+00  0.00000000000E+00  0.92520185373E+02  0.92520185408E+02  0.25500000920E-02 0. -1.
       -2   -1    0    0    0  501  0.00000000000E+00  0.00000000000E+00 -0.67674435342E+03  0.67674435342E+03  0.25500000920E-02 0.  1.
    10030    2    1    2    0    0  0.00000000000E+00  0.00000000000E+00 -0.58422416805E+03  0.76926453883E+03  0.50044984981E+03 0.  0.
        1    1    3    3  502    0  0.12159936661E+02  0.24148685288E+03 -0.19310330111E+03  0.30943924945E+03  0.50400001928E-02 0. -1.
       -1    1    3    3    0  502 -0.12159936661E+02 -0.24148685288E+03 -0.39112086693E+03  0.45982528938E+03  0.50400001928E-02 0.  1.
</event>
<event>
 5   0  0.1217270E-02  0.5021336E+03  0.7818609E-02  0.1013224E+00
        1   -1    0    0  501    0  0.00000000000E+00  0.00000000000E+00  0.52677980920E+03  0.52677980922E+03  0.50400001928E-02 0. -1.
       -1   -1    0    0    0  501  0.00000000000E+00  0.00000000000E+00 -0.11966012695E+03  0.11966012706E+03  0.50400001928E-02 0.  1.
    10030    2    1    2    0    0  0.00000000000E+00  0.00000000000E+00  0.40711968224E+03  0.64643993628E+03  0.50213360329E+03 0.  0.
        2    1    3    3  502    0  0.40795402630E+02  0.23315496773E+03  0.31133979868E+03  0.39109841997E+03  0.25500000920E-02 0. -1.
       -2    1    3    3    0  502 -0.40795402630E+02 -0.23315496773E+03  0.95779883563E+02  0.25534151631E+03  0.25500000920E-02 0.  1.
</event>
<event>
 5   0  0.1982847E-02  0.4995873E+03  0.7818609E-02  0.1013887E+00
        2   -1    0    0  501    0  0.00000000000E+00  0.00000000000E+00  0.14387935870E+04  0.14387935870E+04  0.25500000920E-02 0.  1.
       -2   -1    0    0    0  501  0.00000000000E+00  0.00000000000E+00 -0.43367489877E+02  0.43367489952E+02  0.25500000920E-02 0. -1.
    10030    2    1    2    0    0  0.00000000000E+00  0.00000000000E+00  0.13954260971E+04  0.14821610770E+04  0.49958729519E+03 0.  0.
        2    1    3    3  502    0 -0.22215012062E+03  0.66577212279E+02  0.42236753193E+03  0.48184803966E+03  0.25500000920E-02 0.  1.
       -2    1    3    3    0  502  0.22215012062E+03 -0.66577212279E+02  0.97305856520E+03  0.10003130373E+04  0.25500000920E-02 0. -1.
</event>
<event>
 5   0  0.1855407E-02  0.4984679E+03  0.7818609E-02  0.1014180E+00
        2   -1    0    0  501    0  0.00000000000E+00  0.00000000000E+00  0.13474671144E+04  0.13474671144E+04  0.25500000920E-02 0.  1.
       -2   -1    0    0    0  501  0.00000000000E+00  0.00000000000E+00 -0.46099506421E+02  0.46099506491E+02  0.25500000920E-02 0. -1.
    10030    2    1    2    0    0  0.00000000000E+00  0.00000000000E+00  0.13013676080E+04  0.13935666209E+04  0.49846792853E+03 0.  0.
        1    1    3    3  502    0  0.17074879641E+03  0.32367680406E+02  0.11501271628E+04  0.11631832654E+04  0.50400001928E-02 0.  1.
       -1    1    3    3    0  502 -0.17074879641E+03 -0.32367680406E+02  0.15124044513E+03  0.23038335548E+03  0.50400001928E-02 0. -1.
</event>
<event>
 5   0  0.8012875E-03  0.5001064E+03  0.7818609E-02  0.1013751E+00
        3   -1    0    0  501    0  0.00000000000E+00  0.00000000000E+00  0.15734741664E+04  0.15734741697E+04  0.10100000352E+00 0. -1.
       -3   -1    0    0    0  501  0.00000000000E+00  0.00000000000E+00 -0.39737854888E+02  0.39737983242E+02  0.10100000352E+00 0.  1.
    10030    2    1    2    0    0  0.00000000000E+00  0.00000000000E+00  0.15337363116E+04  0.16132121529E+04  0.50010636565E+03 0.  0.
        5    1    3    3  502    0 -0.13852157236E+03  0.15832754942E+03  0.33111087140E+03  0.39231662986E+03  0.46999998093E+01 0.  1.
       -5    1    3    3    0  502  0.13852157236E+03 -0.15832754942E+03  0.12026254402E+04  0.12208955231E+04  0.46999998093E+01 0. -1.
</event>
<event>
 5   0  0.1217270E-02  0.4993474E+03  0.7818609E-02  0.1013949E+00
        1   -1    0    0  501    0  0.00000000000E+00  0.00000000000E+00  0.43577270560E+03  0.43577270563E+03  0.50400001928E-02 0.  1.
       -1   -1    0    0    0  501  0.00000000000E+00  0.00000000000E+00 -0.14304927164E+03  0.14304927173E+03  0.50400001928E-02 0. -1.
    10030    2    1    2    0    0  0.00000000000E+00  0.00000000000E+00  0.29272343396E+03  0.57882197736E+03  0.49934744685E+03 0.  0.
        2    1    3    3  502    0  0.29563299844E+02  0.12412709923E+02 -0.14065286069E+03  0.14426119122E+03  0.25500000920E-02 0. -1.
       -2    1    3    3    0  502 -0.29563299844E+02 -0.12412709923E+02  0.43337629466E+03  0.43456078613E+03  0.25500000920E-02 0.  1.
</event>
<event>
 5   0  0.1217270E-02  0.5008877E+03  0.7818609E-02  0.1013547E+00
        1   -1    0    0  501    0  0.00000000000E+00  0.00000000000E+00  0.46390294651E+02  0.46390294925E+02  0.50400001928E-02 0.  1.
       -1   -1    0    0    0  501  0.00000000000E+00  0.00000000000E+00 -0.13520525145E+04  0.13520525145E+04  0.50400001928E-02 0. -1.
    10030    2    1    2    0    0  0.00000000000E+00  0.00000000000E+00 -0.13056622198E+04  0.13984428094E+04  0.50088767095E+03 0.  0.
        2    1    3    3  502    0 -0.29367947454E+02 -0.91308374338E+02 -0.69207717675E+01  0.96164404279E+02  0.25500000920E-02 0.  1.
       -2    1    3    3    0  502  0.29367947454E+02  0.91308374338E+02 -0.12987414480E+04  0.13022784051E+04  0.25500000920E-02 0. -1.
</event>
<event>
 5   0  0.1967813E-02  0.5001338E+03  0.7818609E-02  0.1013744E+00
        2   -1    0    0  501    0  0.00000000000E+00  0.00000000000E+00  0.96303117099E+03  0.96303117099E+03  0.25500000920E-02 0. -1.
       -2   -1    0    0    0  501  0.00000000000E+00  0.00000000000E+00 -0.64933979302E+02  0.64933979352E+02  0.25500000920E-02 0.  1.
    10030    2    1    2    0    0  0.00000000000E+00  0.00000000000E+00  0.89809719169E+03  0.10279651503E+04  0.50013376671E+03 0.  0.
        5    1    3    3  502    0 -0.20000715205E+02 -0.24828035854E+03  0.40457484116E+03  0.47512741148E+03  0.46999998093E+01 0.  1.
       -5    1    3    3    0  502  0.20000715205E+02  0.24828035854E+03  0.49352235053E+03  0.55283773887E+03  0.46999998093E+01 0. -1.
</event>
<event>
 5   0  0.1225989E-02  0.4997391E+03  0.7818609E-02  0.1013847E+00
       -1   -1    0    0    0  501  0.00000000000E+00  0.00000000000E+00  0.55635049370E+02  0.55635049598E+02  0.50400001928E-02 0.  1.
        1   -1    0    0  501    0  0.00000000000E+00  0.00000000000E+00 -0.11222203857E+04  0.11222203857E+04  0.50400001928E-02 0. -1.
    10030    2    1    2    0    0  0.00000000000E+00  0.00000000000E+00 -0.10665853363E+04  0.11778554353E+04  0.49973907873E+03 0.  0.
        3    1    3    3  502    0  0.10549564988E+03 -0.14354075052E+03 -0.12031320375E+03  0.21496175567E+03  0.10100000352E+00 0.  1.
       -3    1    3    3    0  502 -0.10549564988E+03  0.14354075052E+03 -0.94627213255E+03  0.96289367962E+03  0.10100000352E+00 0. -1.
</event>
<event>
 5   0  0.1180937E-02  0.5003584E+03  0.7818609E-02  0.1013685E+00
        1   -1    0    0  501    0  0.00000000000E+00  0.00000000000E+00  0.75451087698E+03  0.75451087699E+03  0.50400001928E-02 0.  1.
       -1   -1    0    0    0  501  0.00000000000E+00  0.00000000000E+00 -0.82953919676E+02  0.82953919829E+02  0.50400001928E-02 0. -1.
    10030    2    1    2    0    0  0.00000000000E+00  0.00000000000E+00  0.67155695730E+03  0.83746479682E+03  0.50035841056E+03 0.  0.
        1    1    3    3  502    0  0.47989628975E+02 -0.22390080853E+02  0.74502275605E+03  0.74690242152E+03  0.50400001928E-02 0.  1.
       -1    1    3    3    0  502 -0.47989628975E+02  0.22390080853E+02 -0.73465798750E+02  0.90562375306E+02  0.50400001928E-02 0. -1.
</event>
<event>
 5   0  0.1923706E-02  0.4990839E+03  0.7818609E-02  0.1014018E+00
       -2   -1    0    0    0  501  0.00000000000E+00  0.00000000000E+00  0.11863247531E+03  0.11863247534E+03  0.25500000920E-02 0.  1.
        2   -1    0    0  501    0  0.00000000000E+00  0.00000000000E+00 -0.52490836282E+03  0.52490836282E+03  0.25500000920E-02 0. -1.
    10030    2    1    2    0    0  0.00000000000E+00  0.00000000000E+00 -0.40627588750E+03  0.64354083816E+03  0.49908387433E+03 0.  0.
        3    1    3    3  502    0 -0.10356709812E+03  0.20183189149E+03 -0.33719619933E+03  0.40640317824E+03  0.10100000352E+00 0. -1.
       -3    1    3    3    0  502  0.10356709812E+03 -0.20183189149E+03 -0.69079688169E+02  0.23713765992E+03  0.10100000352E+00 0.  1.
</event>
<event>
 5   0  0.1967813E-02  0.5001144E+03  0.7818609E-02  0.1013749E+00
        2   -1    0    0  501    0  0.00000000000E+00  0.00000000000E+00  0.16931243120E+03  0.16931243122E+03  0.25500000920E-02 0.  1.
       -2   -1    0    0    0  501  0.00000000000E+00  0.00000000000E+00 -0.36930892038E+03  0.36930892039E+03  0.25500000920E-02 0. -1.
    10030    2    1    2    0    0  0.00000000000E+00  0.00000000000E+00 -0.19999648918E+03  0.53862135161E+03  0.50011435165E+03 0.  0.
        5    1    3    3  502    0  0.53983248155E+02 -0.13304321709E+03 -0.32043236733E+03  0.35116047718E+03  0.46999998093E+01 0. -1.
       -5    1    3    3    0  502 -0.53983248155E+02  0.13304321709E+03  0.12043587816E+03  0.18746087443E+03  0.46999998093E+01 0.  1.
</event>
<event>
 5   0  0.1227864E-02  0.5000563E+03  0.7818609E-02  0.1013764E+00
       -1   -1    0    0    0  501  0.00000000000E+00  0.00000000000E+00  0.56422103299E+02  0.56422103524E+02  0.50400001928E-02 0. -1.
        1   -1    0    0  501    0  0.00000000000E+00  0.00000000000E+00 -0.11079713872E+04  0.11079713872E+04  0.50400001928E-02 0.  1.
    10030    2    1    2    0    0  0.00000000000E+00  0.00000000000E+00 -0.10515492839E+04  0.11643934907E+04  0.50005630162E+03 0.  0.
        5    1    3    3  502    0 -0.21351950737E+03 -0.82591725198E+02 -0.29199245733E+03  0.37107096119E+03  0.46999998093E+01 0. -1.
       -5    1    3    3    0  502  0.21351950737E+03  0.82591725198E+02 -0.75955682656E+03  0.79332252954E+03  0.46999998093E+01 0.  1.
</event>
<event>
 5   0  0.1217270E-02  0.5004395E+03  0.7818609E-02  0.1013664E+00
       -1   -1    0    0    0  501  0.00000000000E+00  0.00000000000E+00  0.12381166666E+03  0.12381166677E+03  0.50400001928E-02 0. -1.
        1   -1    0    0  501    0  0.00000000000E+00  0.00000000000E+00 -0.50568682570E+03  0.50568682572E+03  0.50400001928E-02 0.  1.
    10030    2    1    2    0    0  0.00000000000E+00  0.00000000000E+00 -0.38187515903E+03  0.62949849249E+03  0.50043952178E+03 0.  0.
        2    1    3    3  502    0  0.40711163330E+02 -0.17260510774E+03  0.31107863744E+02  0.18004894121E+03  0.25500000920E-02 0.  1.
       -2    1    3    3    0  502 -0.40711163330E+02  0.17260510774E+03 -0.41298302278E+03  0.44944955128E+03  0.25500000920E-02 0. -1.
</event>
<event>
 5   0  0.1941387E-02  0.5025039E+03  0.7818609E-02  0.1013127E+00
        2   -1    0    0  501    0  0.00000000000E+00  0.00000000000E+00  0.91778795471E+02  0.91778795506E+02  0.25500000920E-02 0.  1.
       -2   -1    0    0    0  501  0.00000000000E+00  0.00000000000E+00 -0.68782264398E+03  0.68782264399E+03  0.25500000920E-02 0. -1.
    10030    2    1    2    0    0  0.00000000000E+00  0.00000000000E+00 -0.59604384851E+03  0.77960143949E+03  0.50250386577E+03 0.  0.
        4    1    3    3  502    0  0.13245169987E+03  0.12971103029E+03 -0.34929153001E+02  0.18865328729E+03  0.12699999809E+01 0.  1.
       -4    1    3    3    0  502 -0.13245169987E+03 -0.12971103029E+03 -0.56111469551E+03  0.59094815220E+03  0.12699999809E+01 0. -1.
</event>
<event>
 5   0  0.1967813E-02  0.4997371E+03  0.7818609E-02  0.1013848E+00
        2   -1    0    0  501    0  0.00000000000E+00  0.00000000000E+00  0.41745652276E+03  0.41745652277E+03  0.25500000920E-02 0.  1.
       -2   -1    0    0    0  501  0.00000000000E+00  0.00000000000E+00 -0.14955877177E+03  0.14955877179E+03  0.25500000920E-02 0. -1.
    10030    2    1    2    0    0  0.00000000000E+00  0.00000000000E+00  0.26789775099E+03  0.56701529456E+03  0.49973707015E+03 0.  0.
        5    1    3    3  502    0  0.10337754554E+03 -0.21593131867E+03  0.52928676057E+02  0.24522802868E+03  0.46999998093E+01 0.  1.
       -5    1    3    3    0  502 -0.10337754554E+03  0.21593131867E+03  0.21496907493E+03  0.32178726588E+03  0.46999998093E+01 0. -1.
</event>
<event>
 5   0  0.1209831E-02  0.5031855E+03  0.7818609E-02  0.1012951E+00
       -1   -1    0    0    0  501  0.00000000000E+00  0.00000000000E+00  0.15348491792E+03  0.15348491800E+03  0.50400001928E-02 0. -1.
        1   -1    0    0  501    0  0.00000000000E+00  0.00000000000E+00 -0.41241130932E+03  0.41241130935E+03  0.50400001928E-02 0.  1.
    10030    2    1    2    0    0  0.00000000000E+00  0.00000000000E+00 -0.25892639140E+03  0.56589622736E+03  0.50318551646E+03 0.  0.
        4    1    3    3  502    0 -0.12835146618E+03  0.13906429928E+03  0.56982002775E+02  0.19763992447E+03  0.12699999809E+01 0. -1.
       -4    1    3    3    0  502  0.12835146618E+03 -0.13906429928E+03 -0.31590839417E+03  0.36825630289E+03  0.12699999809E+01 0.  1.
</event>
<event>
 5   0  0.1982847E-02  0.4911190E+03  0.7818609E-02  0.1016123E+00
        2   -1    0    0  501    0  0.00000000000E+00  0.00000000000E+00  0.10671612933E+04  0.10671612933E+04  0.25500000920E-02 0. -1.
       -2   -1    0    0    0  501  0.00000000000E+00  0.00000000000E+00 -0.56504541093E+02  0.56504541151E+02  0.25500000920E-02 0.  1.
    10030    2    1    2    0    0  0.00000000000E+00  0.00000000000E+00  0.10106567522E+04  0.11236658344E+04  0.49111896393E+03 0.  0.
        2    1    3    3  502    0 -0.22576057058E+03  0.84068522780E+01  0.28514820082E+03  0.36379665589E+03  0.25500000920E-02 0.  1.
       -2    1    3    3    0  502  0.22576057058E+03 -0.84068522780E+01  0.72550855135E+03  0.75986917853E+03  0.25500000920E-02 0. -1.
</event>
<event>
 5   0  0.8012875E-03  0.4990351E+03  0.7818609E-02  0.1014031E+00
        3   -1    0    0  501    0  0.00000000000E+00  0.00000000000E+00  0.73164290897E+02  0.73164360610E+02  0.10100000352E+00 0.  1.
       -3   -1    0    0    0  501  0.00000000000E+00  0.00000000000E+00 -0.85094742146E+03  0.85094742745E+03  0.10100000352E+00 0. -1.
    10030    2    1    2    0    0  0.00000000000E+00  0.00000000000E+00 -0.77778313056E+03  0.92411178806E+03  0.49903506756E+03 0.  0.
        4    1    3    3  502    0 -0.42254161361E+02  0.24312494519E+03 -0.45723853201E+03  0.51958044727E+03  0.12699999809E+01 0. -1.
       -4    1    3    3    0  502  0.42254161361E+02 -0.24312494519E+03 -0.32054459855E+03  0.40453134079E+03  0.12699999809E+01 0.  1.
</event>
<event>
 5   0  0.1217270E-02  0.4996126E+03  0.7818609E-02  0.1013880E+00
        1   -1    0    0  501    0  0.00000000000E+00  0.00000000000E+00  0.34564115221E+03  0.34564115225E+03  0.50400001928E-02 0.  1.
       -1   -1    0    0    0  501  0.00000000000E+00  0.00000000000E+00 -0.18054327287E+03  0.18054327294E+03  0.50400001928E-02 0. -1.
    10030    2    1    2    0    0  0.00000000000E+00  0.00000000000E+00  0.16509787934E+03  0.52618442519E+03  0.49961258946E+03 0.  0.
        2    1    3    3  502    0 -0.61513739611E+02 -0.32775629232E+02 -0.17009473158E+03  0.18382165201E+03  0.25500000920E-02 0. -1.
       -2    1    3    3    0  502  0.61513739611E+02  0.32775629232E+02  0.33519261092E+03  0.34236277317E+03  0.25500000920E-02 0.  1.
</event>
<event>
 5   0  0.1855407E-02  0.5012852E+03  0.7818609E-02  0.1013444E+00
        2   -1    0    0  501    0  0.00000000000E+00  0.00000000000E+00  0.44990666764E+03  0.44990666764E+03  0.25500000920E-02 0. -1.
       -2   -1    0    0    0  501  0.00000000000E+00  0.00000000000E+00 -0.13963278993E+03  0.13963278996E+03  0.25500000920E-02 0.  1.
    10030    2    1    2    0    0  0.00000000000E+00  0.00000000000E+00  0.31027387770E+03  0.58953945760E+03  0.50128524104E+03 0.  0.
        1    1    3    3  502    0  0.35863649480E+02 -0.67757796908E+02 -0.12550558714E+03  0.14706791908E+03  0.50400001928E-02 0.  1.
       -1    1    3    3    0  502 -0.35863649480E+02  0.67757796908E+02  0.43577946484E+03  0.44247153852E+03  0.50400001928E-02 0. -1.
</event>
<event>
 5   0  0.1180937E-02  0.5005323E+03  0.7818609E-02  0.1013640E+00
        1   -1    0    0  501    0  0.00000000000E+00  0.00000000000E+00  0.30498265384E+03  0.30498265388E+03  0.50400001928E-02 0.  1.
       -1   -1    0    0    0  501  0.00000000000E+00  0.00000000000E+00 -0.20536624301E+03  0.20536624308E+03  0.50400001928E-02 0. -1.
    10030    2    1    2    0    0  0.00000000000E+00  0.00000000000E+00  0.99616410828E+02  0.51034889696E+03  0.50053228399E+03 0.  0.
        1    1    3    3  502    0  0.20532646713E+03 -0.61078507699E+02  0.18174304730E+03  0.28092717468E+03  0.50400001928E-02 0.  1.
       -1    1    3    3    0  502 -0.20532646713E+03  0.61078507699E+02 -0.82126636469E+02  0.22942172228E+03  0.50400001928E-02 0. -1.
</event>
<event>
 5   0  0.1225989E-02  0.5001628E+03  0.7818609E-02  0.1013736E+00
        1   -1    0    0  501    0  0.00000000000E+00  0.00000000000E+00  0.80454498201E+03  0.80454498203E+03  0.50400001928E-02 0. -1.
       -1   -1    0    0    0  501  0.00000000000E+00  0.00000000000E+00 -0.77734253118E+02  0.77734253282E+02  0.50400001928E-02 0.  1.
    10030    2    1    2    0    0  0.00000000000E+00  0.00000000000E+00  0.72681072889E+03  0.88227923531E+03  0.50016278692E+03 0.  0.
        3    1    3    3  502    0 -0.22175049012E+03 -0.10937376372E+03  0.42952049563E+03  0.49560444553E+03  0.10100000352E+00 0. -1.
       -3    1    3    3    0  502  0.22175049012E+03  0.10937376372E+03  0.29729023326E+03  0.38667478978E+03  0.10100000352E+00 0.  1.
</event>
<event>
 5   0  0.1941387E-02  0.4998904E+03  0.7818609E-02  0.1013808E+00
       -2   -1    0    0    0  501  0.00000000000E+00  0.00000000000E+00  0.78588968547E+02  0.78588968588E+02  0.25500000920E-02 0. -1.
        2   -1    0    0  501    0  0.00000000000E+00  0.00000000000E+00 -0.79492836972E+03  0.79492836972E+03  0.25500000920E-02 0.  1.
    10030    2    1    2    0    0  0.00000000000E+00  0.00000000000E+00 -0.71633940117E+03  0.87351733831E+03  0.49989039064E+03 0.  0.
        4    1    3    3  502    0  0.83619620913E+02 -0.11058120851E+03  0.52366595411E+01  0.13874249595E+03  0.12699999809E+01 0. -1.
       -4    1    3    3    0  502 -0.83619620913E+02  0.11058120851E+03 -0.72157606071E+03  0.73477484236E+03  0.12699999809E+01 0.  1.
</event>
<event>
 5   0  0.1855407E-02  0.5000159E+03  0.7818609E-02  0.1013775E+00
       -2   -1    0    0    0  501  0.00000000000E+00  0.00000000000E+00  0.35914037684E+03  0.35914037685E+03  0.25500000920E-02 0. -1.
        2   -1    0    0  501    0  0.00000000000E+00  0.00000000000E+00 -0.17403771959E+03  0.17403771961E+03  0.25500000920E-02 0.  1.
    10030    2    1    2    0    0  0.00000000000E+00  0.00000000000E+00  0.18510265725E+03  0.53317809646E+03  0.50001588857E+03 0.  0.
        1    1    3    3  502    0 -0.17104048068E+03 -0.15171986994E+03 -0.15301294032E+02  0.22914601151E+03  0.50400001928E-02 0.  1.
       -1    1    3    3    0  502  0.17104048068E+03  0.15171986994E+03  0.20040395128E+03  0.30403208495E+03  0.50400001928E-02 0. -1.
</event>
<event>
 5   0  0.1967813E-02  0.4971387E+03  0.7818609E-02  0.1014528E+00
       -2   -1    0    0    0  501  0.00000000000E+00  0.00000000000E+00  0.48113857234E+02  0.48113857302E+02  0.25500000920E-02 0.  1.
        2   -1    0    0  501    0  0.00000000000E+00  0.00000000000E+00 -0.12841771297E+04  0.12841771297E+04  0.25500000920E-02 0. -1.
    10030    2    1    2    0    0  0.00000000000E+00  0.00000000000E+00 -0.12360632725E+04  0.13322909870E+04  0.49713867333E+03 0.  0.
        5    1    3    3  502    0 -0.20450520881E+03  0.94074857983E+02 -0.90027888491E+03  0.92800679951E+03  0.46999998093E+01 0. -1.
       -5    1    3    3    0  502  0.20450520881E+03 -0.94074857983E+02 -0.33578438760E+03  0.40428418753E+03  0.46999998093E+01 0.  1.
</event>
<event>
 5   0  0.1209831E-02  0.5004372E+03  0.7818609E-02  0.1013665E+00
        1   -1    0    0  501    0  0.00000000000E+00  0.00000000000E+00  0.47969944286E+03  0.47969944289E+03  0.50400001928E-02 0. -1.
       -1   -1    0    0    0  501  0.00000000000E+00  0.00000000000E+00 -0.13051786390E+03  0.13051786400E+03  0.50400001928E-02 0.  1.
    10030    2    1    2    0    0  0.00000000000E+00  0.00000000000E+00  0.34918157895E+03  0.61021730689E+03  0.50043719540E+03 0.  0.
        4    1    3    3  502    0 -0.11217192527E+03  0.89743458346E+02  0.42440156849E+03  0.44805661849E+03  0.12699999809E+01 0. -1.
       -4    1    3    3    0  502  0.11217192527E+03 -0.89743458346E+02 -0.75219989538E+02  0.16216068840E+03  0.12699999809E+01 0.  1.
</event>
<event>
 5   0  0.1227864E-02  0.5009605E+03  0.7818609E-02  0.1013529E+00
       -1   -1    0    0    0  501  0.00000000000E+00  0.00000000000E+00  0.63514228313E+02  0.63514228513E+02  0.50400001928E-02 0.  1.
        1   -1    0    0  501    0  0.00000000000E+00  0.00000000000E+00 -0.98781577636E+03  0.98781577637E+03  0.50400001928E-02 0. -1.
    10030    2    1    2    0    0  0.00000000000E+00  0.00000000000E+00 -0.92430154805E+03  0.10513300049E+04  0.50096050488E+03 0.  0.
        5    1    3    3  502    0  0.92314910026E+02  0.10544167154E+03 -0.89772757346E+03  0.90861260989E+03  0.46999998093E+01 0. -1.
       -5    1    3    3    0  502 -0.92314910026E+02 -0.10544167154E+03 -0.26573974591E+02  0.14271739499E+03  0.46999998093E+01 0.  1.
</event>
<event>
 5   0  0.1982847E-02  0.5003758E+03  0.7818609E-02  0.1013681E+00
        2   -1    0    0  501    0  0.00000000000E+00  0.00000000000E+00  0.18708641656E+04  0.18708641656E+04  0.25500000920E-02 0.  1.
       -2   -1    0    0    0  501  0.00000000000E+00  0.00000000000E+00 -0.33457261716E+02  0.33457261813E+02  0.25500000920E-02 0. -1.
    10030    2    1    2    0    0  0.00000000000E+00  0.00000000000E+00  0.18374069039E+04  0.19043214274E+04  0.50037582722E+03 0.  0.
        2    1    3    3  502    0  0.67424062479E+02 -0.17233030794E+03  0.15595033021E+04  0.15704439781E+04  0.25500000920E-02 0.  1.
       -2    1    3    3    0  502 -0.67424062479E+02  0.17233030794E+03  0.27790360178E+03  0.33387744926E+03  0.25500000920E-02 0. -1.
</event>
<event>
 5   0  0.1209831E-02  0.4995963E+03  0.7818609E-02  0.1013884E+00
       -1   -1    0    0    0  501  0.00000000000E+00  0.00000000000E+00  0.41839495084E+02  0.41839495387E+02  0.50400001928E-02 0. -1.
        1   -1    0    0  501    0  0.00000000000E+00  0.00000000000E+00 -0.14913924716E+04  0.14913924716E+04  0.50400001928E-02 0.  1.
    10030    2    1    2    0    0  0.00000000000E+00  0.00000000000E+00 -0.14495529765E+04  0.15332319670E+04  0.49959626989E+03 0.  0.
        4    1    3    3  502    0 -0.35285225975E+02 -0.18336590011E+03 -0.12339748650E+04  0.12480239104E+04  0.12699999809E+01 0.  1.
       -4    1    3    3    0  502  0.35285225975E+02  0.18336590011E+03 -0.21557811148E+03  0.28520805659E+03  0.12699999809E+01 0. -1.
</event>
<event>
 5   0  0.1967813E-02  0.4968132E+03  0.7818609E-02  0.1014614E+00
       -2   -1    0    0    0  501  0.00000000000E+00  0.00000000000E+00  0.32023342477E+02  0.32023342578E+02  0.25500000920E-02 0. -1.
        2   -1    0    0  501    0  0.00000000000E+00  0.00000000000E+00 -0.19269022620E+04  0.19269022620E+04  0.25500000920E-02 0.  1.
    10030    2    1    2    0    0  0.00000000000E+00  0.00000000000E+00 -0.18948789195E+04  0.19589256046E+04  0.49681324925E+03 0.  0.
        5    1    3    3  502    0 -0.11530226940E+03 -0.90792929530E+02 -0.15740726916E+03  0.21526055785E+03  0.46999998093E+01 0. -1.
       -5    1    3    3    0  502  0.11530226940E+03  0.90792929530E+02 -0.17374716504E+04  0.17436650468E+04  0.46999998093E+01 0.  1.
</event>
<event>
 5   0  0.1227864E-02  0.5008150E+03  0.7818609E-02  0.1013566E+00
       -1   -1    0    0    0  501  0.00000000000E+00  0.00000000000E+00  0.26797469107E+03  0.26797469112E+03  0.50400001928E-02 0. -1.
        1   -1    0    0  501    0  0.00000000000E+00  0.00000000000E+00 -0.23399190083E+03  0.23399190089E+03  0.50400001928E-02 0.  1.
    10030    2    1    2    0    0  0.00000000000E+00  0.00000000000E+00  0.33982790237E+02  0.50196659200E+03  0.50081496529E+03 0.  0.
        5    1    3    3  502    0  0.79732586598E+02 -0.14510487511E+03 -0.17124116508E+03  0.23824008219E+03  0.46999998093E+01 0.  1.
       -5    1    3    3    0  502 -0.79732586598E+02  0.14510487511E+03  0.20522395532E+03  0.26372650981E+03  0.46999998093E+01 0. -1.
</event>
<event>
 5   0  0.1209831E-02  0.4959968E+03  0.7818609E-02  0.1014829E+00
       -1   -1    0    0    0  501  0.00000000000E+00  0.00000000000E+00  0.19028147719E+03  0.19028147726E+03  0.50400001928E-02 0.  1.
        1   -1    0    0  501    0  0.00000000000E+00  0.00000000000E+00 -0.32322220519E+03  0.32322220522E+03  0.50400001928E-02 0. -1.
    10030    2    1    2    0    0  0.00000000000E+00  0.00000000000E+00 -0.13294072800E+03  0.51350368248E+03  0.49599676890E+03 0.  0.
        4    1    3    3  502    0 -0.67097097210E+02 -0.11611802098E+03  0.14949795607E+03  0.20083990395E+03  0.12699999809E+01 0.  1.
       -4    1    3    3    0  502  0.67097097210E+02  0.11611802098E+03 -0.28243868407E+03  0.31266377853E+03  0.12699999809E+01 0. -1.
</event>
<event>
 5   0  0.1982847E-02  0.5010626E+03  0.7818609E-02  0.1013502E+00
       -2   -1    0    0    0  501  0.00000000000E+00  0.00000000000E+00  0.17556205102E+03  0.17556205104E+03  0.25500000920E-02 0. -1.
        2   -1    0    0  501    0  0.00000000000E+00  0.00000000000E+00 -0.35751422841E+03  0.35751422842E+03  0.25500000920E-02 0.  1.
    10030    2    1    2    0    0  0.00000000000E+00  0.00000000000E+00 -0.18195217738E+03  0.53307627946E+03  0.50106259576E+03 0.  0.
        2    1    3    3  502    0  0.14843148516E+03 -0.12484700879E+03 -0.25968678665E+03  0.32412329222E+03  0.25500000920E-02 0.  1.
       -2    1    3    3    0  502 -0.14843148516E+03  0.12484700879E+03  0.77734609267E+02  0.20895298724E+03  0.25500000920E-02 0. -1.
</event>
<event>
 5   0  0.1227864E-02  0.5005179E+03  0.7818609E-02  0.1013644E+00
       -1   -1    0    0    0  501  0.00000000000E+00  0.00000000000E+00  0.15754503600E+03  0.15754503608E+03  0.50400001928E-02 0.  1.
        1   -1    0    0  501    0  0.00000000000E+00  0.00000000000E+00 -0.39753421897E+03  0.39753421900E+03  0.50400001928E-02 0. -1.
    10030    2    1    2    0    0  0.00000000000E+00  0.00000000000E+00 -0.23998918298E+03  0.55507925508E+03  0.50051790325E+03 0.  0.
        5    1    3    3  502    0  0.18125737631E+03  0.83074936676E+02  0.47652226497E+02  0.20505732432E+03  0.46999998093E+01 0.  1.
       -5    1    3    3    0  502 -0.18125737631E+03 -0.83074936676E+02 -0.28764140947E+03  0.35002193076E+03  0.46999998093E+01 0. -1.
</event>
<event>
 5   0  0.1855407E-02  0.5004107E+03  0.7818609E-02  0.1013672E+00
       -2   -1    0    0    0  501  0.00000000000E+00  0.00000000000E+00  0.51660694597E+02  0.51660694660E+02  0.25500000920E-02 0.  1.
        2   -1    0    0  501    0  0.00000000000E+00  0.00000000000E+00 -0.12118054035E+04  0.12118054035E+04  0.25500000920E-02 0. -1.
    10030    2    1    2    0    0  0.00000000000E+00  0.00000000000E+00 -0.11601447089E+04  0.12634660982E+04  0.50041066697E+03 0.  0.
        1    1    3    3  502    0  0.17871925891E+03  0.17318590265E+03 -0.64536709267E+03  0.69168823519E+03  0.50400001928E-02 0. -1.
       -1    1    3    3    0  502 -0.17871925891E+03 -0.17318590265E+03 -0.51477761628E+03  0.57177786301E+03  0.50400001928E-02 0.  1.
</event>
<event>
 5   0  0.1209831E-02  0.5000539E+03  0.7818609E-02  0.1013765E+00
       -1   -1    0    0    0  501  0.00000000000E+00  0.00000000000E+00  0.70142243416E+02  0.70142243598E+02  0.50400001928E-02 0. -1.
        1   -1    0    0  501    0  0.00000000000E+00  0.00000000000E+00 -0.89123874752E+03  0.89123874754E+03  0.50400001928E-02 0.  1.
    10030    2    1    2    0    0  0.00000000000E+00  0.00000000000E+00 -0.82109650411E+03  0.96138099114E+03  0.50005393815E+03 0.  0.
        4    1    3    3  502    0 -0.15519334330E+03  0.19309417235E+03 -0.47550497201E+03  0.53616874630E+03  0.12699999809E+01 0. -1.
       -4    1    3    3    0  502  0.15519334330E+03 -0.19309417235E+03 -0.34559153209E+03  0.42521224483E+03  0.12699999809E+01 0.  1.
</event>
<event>
 5   0  0.8012875E-03  0.4958888E+03  0.7818609E-02  0.1014858E+00
       -4   -1    0    0    0  501  0.00000000000E+00  0.00000000000E+00  0.30833003322E+03  0.30833264875E+03  0.12699999809E+01 0.  1.
        4   -1    0    0  501    0  0.00000000000E+00  0.00000000000E+00 -0.19937968360E+03  0.19938372836E+03  0.12699999809E+01 0. -1.
    10030    2    1    2    0    0  0.00000000000E+00  0.00000000000E+00  0.10895034961E+03  0.50771637710E+03  0.49588883925E+03 0.  0.
        5    1    3    3  502    0 -0.67979315837E+02 -0.21048854991E+02 -0.18865467652E+03  0.20168519690E+03  0.46999998093E+01 0. -1.
       -5    1    3    3    0  502  0.67979315837E+02  0.21048854991E+02  0.29760502613E+03  0.30603118020E+03  0.46999998093E+01 0.  1.
</event>
<event>
 5   0  0.1941387E-02  0.5000701E+03  0.7818609E-02  0.1013761E+00
       -2   -1    0    0    0  501  0.00000000000E+00  0.00000000000E+00  0.15487547660E+03  0.15487547663E+03  0.25500000920E-02 0.  1.
        2   -1    0    0  501    0  0.00000000000E+00  0.00000000000E+00 -0.40366312066E+03  0.40366312067E+03  0.25500000920E-02 0. -1.
    10030    2    1    2    0    0  0.00000000000E+00  0.00000000000E+00 -0.24878764405E+03  0.55853859729E+03  0.50007006792E+03 0.  0.
        4    1    3    3  502    0  0.80614975207E+02  0.44989856868E+02  0.13513837038E+03  0.16366689799E+03  0.12699999809E+01 0.  1.
       -4    1    3    3    0  502 -0.80614975207E+02 -0.44989856868E+02 -0.38392601444E+03  0.39487169930E+03  0.12699999809E+01 0. -1.
</event>
<event>
 5   0  0.1982847E-02  0.5012827E+03  0.7818609E-02  0.1013445E+00
        2   -1    0    0  501    0  0.00000000000E+00  0.00000000000E+00  0.61169086006E+02  0.61169086059E+02  0.25500000920E-02 0.  1.
       -2   -1    0    0    0  501  0.00000000000E+00  0.00000000000E+00 -0.10270073156E+04  0.10270073156E+04  0.25500000920E-02 0. -1.
    10030    2    1    2    0    0  0.00000000000E+00  0.00000000000E+00 -0.96583822956E+03  0.10881764016E+04  0.50128274994E+03 0.  0.
        2    1    3    3  502    0 -0.26997786605E+02 -0.17682811938E+03 -0.86403871560E+03  0.88236045149E+03  0.25500000920E-02 0. -1.
       -2    1    3    3    0  502  0.26997786605E+02  0.17682811938E+03 -0.10179951396E+03  0.20581595015E+03  0.25500000920E-02 0.  1.
</event>
<event>
 5   0  0.1941387E-02  0.5003000E+03  0.7818609E-02  0.1013701E+00
        2   -1    0    0  501    0  0.00000000000E+00  0.00000000000E+00  0.20543461756E+03  0.20543461757E+03  0.25500000920E-02 0.  1.
       -2   -1    0    0    0  501  0.00000000000E+00  0.00000000000E+00 -0.30459819261E+03  0.30459819262E+03  0.25500000920E-02 0. -1.
    10030    2    1    2    0    0  0.00000000000E+00  0.00000000000E+00 -0.99163575053E+02  0.51003281020E+03  0.50029996288E+03 0.  0.
        4    1    3    3  502    0  0.78795196833E+02  0.23605891744E+03 -0.23773190581E+02  0.24999854607E+03  0.12699999809E+01 0.  1.
       -4    1    3    3    0  502 -0.78795196833E+02 -0.23605891744E+03 -0.75390384473E+02  0.26003426412E+03  0.12699999809E+01 0. -1.
</event>
<event>
 5   0  0.8012875E-03  0.4998878E+03  0.7818609E-02  0.1013808E+00
        4   -1    0    0  501    0  0.00000000000E+00  0.00000000000E+00  0.14462143497E+03  0.14462701114E+03  0.12699999809E+01 0.  1.
       -4   -1    0    0    0  501  0.00000000000E+00  0.00000000000E+00 -0.43195405239E+03  0.43195591936E+03  0.12699999809E+01 0. -1.
    10030    2    1    2    0    0  0.00000000000E+00  0.00000000000E+00 -0.28733261742E+03  0.57658293051E+03  0.49988783014E+03 0.  0.
        1    1    3    3  502    0  0.10720263360E+03  0.15430557035E+03  0.46454134122E+02  0.19354741097E+03  0.50400001928E-02 0. -1.
       -1    1    3    3    0  502 -0.10720263360E+03 -0.15430557035E+03 -0.33378675154E+03  0.38303551953E+03  0.50400001928E-02 0.  1.
</event>
<event>
 5   0  0.1855407E-02  0.5014019E+03  0.7818609E-02  0.1013414E+00
       -2   -1    0    0    0  501  0.00000000000E+00  0.00000000000E+00  0.65457183309E+02  0.65457183358E+02  0.25500000920E-02 0. -1.
        2   -1    0    0  501    0  0.00000000000E+00  0.00000000000E+00 -0.96018440319E+03  0.96018440319E+03  0.25500000920E-02 0.  1.
    10030    2    1    2    0    0  0.00000000000E+00  0.00000000000E+00 -0.89472721988E+03  0.10256415865E+04  0.50140190074E+03 0.  0.
        1    1    3    3  502    0 -0.13137436664E+03  0.19360689973E+03 -0.63155506533E+03  0.67350178649E+03  0.50400001928E-02 0. -1.
       -1    1    3    3    0  502  0.13137436664E+03 -0.19360689973E+03 -0.26317215454E+03  0.35213980006E+03  0.50400001928E-02 0.  1.
</event>
<event>
 5   0  0.1209831E-02  0.5003804E+03  0.7818609E-02  0.1013680E+00
        1   -1    0    0  501    0  0.00000000000E+00  0.00000000000E+00  0.20992144561E+03  0.20992144567E+03  0.50400001928E-02 0. -1.
       -1   -1    0    0    0  501  0.00000000000E+00  0.00000000000E+00 -0.29818359937E+03  0.29818359941E+03  0.50400001928E-02 0.  1.
    10030    2    1    2    0    0  0.00000000000E+00  0.00000000000E+00 -0.88262153757E+02  0.50810504509E+03  0.50038038436E+03 0.  0.
        4    1    3    3  502    0  0.21333676300E+03  0.32666070461E+02 -0.17263057085E+03  0.27637397399E+03  0.12699999809E+01 0.  1.
       -4    1    3    3    0  502 -0.21333676300E+03 -0.32666070461E+02  0.84368417097E+02  0.23173107109E+03  0.12699999809E+01 0. -1.
</event>
<event>
 5   0  0.1217270E-02  0.4996358E+03  0.7818609E-02  0.1013874E+00
       -1   -1    0    0    0  501  0.00000000000E+00  0.00000000000E+00  0.20072573469E+03  0.20072573476E+03  0.50400001928E-02 0.  1.
        1   -1    0    0  501    0  0.00000000000E+00  0.00000000000E+00 -0.31091665184E+03  0.31091665188E+03  0.50400001928E-02 0. -1.
    10030    2    1    2    0    0  0.00000000000E+00  0.00000000000E+00 -0.11019091715E+03  0.51164238663E+03  0.49963576091E+03 0.  0.
        2    1    3    3  502    0  0.16091937086E+03 -0.16744589838E+03 -0.14937194018E+03  0.27612524209E+03  0.25500000920E-02 0. -1.
       -2    1    3    3    0  502 -0.16091937086E+03  0.16744589838E+03  0.39181023032E+02  0.23551714454E+03  0.25500000920E-02 0.  1.
</event>
<event>
 5   0  0.1209831E-02  0.4985411E+03  0.7818609E-02  0.1014160E+00
        1   -1    0    0  501    0  0.00000000000E+00  0.00000000000E+00  0.11143793072E+03  0.11143793084E+03  0.50400001928E-02 0.  1.
       -1   -1    0    0    0  501  0.00000000000E+00  0.00000000000E+00 -0.55758225928E+03  0.55758225930E+03  0.50400001928E-02 0. -1.
    10030    2    1    2    0    0  0.00000000000E+00  0.00000000000E+00 -0.44614432855E+03  0.66902019014E+03  0.49854112460E+03 0.  0.
        4    1    3    3  502    0 -0.63109302564E+02 -0.15772514958E+03 -0.46786122391E+03  0.49775068520E+03  0.12699999809E+01 0. -1.
       -4    1    3    3    0  502  0.63109302564E+02  0.15772514958E+03  0.21716895355E+02  0.17126950494E+03  0.12699999809E+01 0.  1.
</event>
<event>
 5   0  0.1855407E-02  0.5002424E+03  0.7818609E-02  0.1013716E+00
       -2   -1    0    0    0  501  0.00000000000E+00  0.00000000000E+00  0.68756801755E+02  0.68756801803E+02  0.25500000920E-02 0.  1.
        2   -1    0    0  501    0  0.00000000000E+00  0.00000000000E+00 -0.90988250645E+03  0.90988250645E+03  0.25500000920E-02 0. -1.
    10030    2    1    2    0    0  0.00000000000E+00  0.00000000000E+00 -0.84112570469E+03  0.97863930825E+03  0.50024238581E+03 0.  0.
        1    1    3    3  502    0 -0.17608166680E+02  0.22299997576E+03 -0.20164980938E+03  0.30116720003E+03  0.50400001928E-02 0.  1.
       -1    1    3    3    0  502  0.17608166680E+02 -0.22299997576E+03 -0.63947589531E+03  0.67747210823E+03  0.50400001928E-02 0. -1.
</event>
<event>
 5   0  0.1180937E-02  0.5008854E+03  0.7818609E-02  0.1013548E+00
        1   -1    0    0  501    0  0.00000000000E+00  0.00000000000E+00  0.11088322141E+04  0.11088322141E+04  0.50400001928E-02 0.  1.
       -1   -1    0    0    0  501  0.00000000000E+00  0.00000000000E+00 -0.56565416432E+02  0.56565416656E+02  0.50400001928E-02 0. -1.
    10030    2    1    2    0    0  0.00000000000E+00  0.00000000000E+00  0.10522667976E+04  0.11653976307E+04  0.50088544031E+03 0.  0.
        1    1    3    3  502    0  0.22611655366E+03  0.78434208252E+02  0.35451158034E+03  0.42773716402E+03  0.50400001928E-02 0. -1.
       -1    1    3    3    0  502 -0.22611655366E+03 -0.78434208252E+02  0.69775521730E+03  0.73766046672E+03  0.50400001928E-02 0.  1.
</event>
<event>
 5   0  0.1227864E-02  0.4995494E+03  0.7818609E-02  0.1013897E+00
       -1   -1    0    0    0  501  0.00000000000E+00  0.00000000000E+00  0.19465960236E+03  0.19465960243E+03  0.50400001928E-02 0.  1.
        1   -1    0    0  501    0  0.00000000000E+00  0.00000000000E+00 -0.32049489470E+03  0.32049489474E+03  0.50400001928E-02 0. -1.
    10030    2    1    2    0    0  0.00000000000E+00  0.00000000000E+00 -0.12583529234E+03  0.51515449717E+03  0.49954943214E+03 0.  0.
        5    1    3    3  502    0 -0.22144790133E+03 -0.10297438046E+03 -0.11672440210E+03  0.27072046853E+03  0.46999998093E+01 0. -1.
       -5    1    3    3    0  502  0.22144790133E+03  0.10297438046E+03 -0.91108902344E+01  0.24443402864E+03  0.46999998093E+01 0.  1.
</event>
<event>
 5   0  0.1225989E-02  0.4995240E+03  0.7818609E-02  0.1013903E+00
       -1   -1    0    0    0  501  0.00000000000E+00  0.00000000000E+00  0.55974755867E+02  0.55974756094E+02  0.50400001928E-02 0.  1.
        1   -1    0    0  501    0  0.00000000000E+00  0.00000000000E+00 -0.11144496165E+04  0.11144496165E+04  0.50400001928E-02 0. -1.
    10030    2    1    2    0    0  0.00000000000E+00  0.00000000000E+00 -0.10584748606E+04  0.11704243726E+04  0.49952395477E+03 0.  0.
        3    1    3    3  502    0  0.13888206626E+03 -0.68045804762E+02 -0.69715527383E+02  0.16964293335E+03  0.10100000352E+00 0.  1.
       -3    1    3    3    0  502 -0.13888206626E+03  0.68045804762E+02 -0.98875933321E+03  0.10007814392E+04  0.10100000352E+00 0. -1.
</event>
<event>
 5   0  0.1982847E-02  0.5016856E+03  0.7818609E-02  0.1013340E+00
       -2   -1    0    0    0  501  0.00000000000E+00  0.00000000000E+00  0.42072559975E+02  0.42072560053E+02  0.25500000920E-02 0.  1.
        2   -1    0    0  501    0  0.00000000000E+00  0.00000000000E+00 -0.14955614988E+04  0.14955614988E+04  0.25500000920E-02 0. -1.
    10030    2    1    2    0    0  0.00000000000E+00  0.00000000000E+00 -0.14534889388E+04  0.15376340588E+04  0.50168556254E+03 0.  0.
        2    1    3    3  502    0 -0.41440381555E+02 -0.68833177924E+02 -0.14550572552E+04  0.14572737998E+04  0.25500000920E-02 0. -1.
       -2    1    3    3    0  502  0.41440381555E+02  0.68833177924E+02  0.15683164326E+01  0.80360259018E+02  0.25500000920E-02 0.  1.
</event>
<event>
 5   0  0.1982847E-02  0.5003832E+03  0.7818609E-02  0.1013679E+00
       -2   -1    0    0    0  501  0.00000000000E+00  0.00000000000E+00  0.34815528590E+03  0.34815528591E+03  0.25500000920E-02 0.  1.
        2   -1    0    0  501    0  0.00000000000E+00  0.00000000000E+00 -0.17979285361E+03  0.17979285363E+03  0.25500000920E-02 0. -1.
    10030    2    1    2    0    0  0.00000000000E+00  0.00000000000E+00  0.16836243229E+03  0.52794813954E+03  0.50038318261E+03 0.  0.
        2    1    3    3  502    0 -0.22685097066E+03 -0.82328575270E+02  0.15382080200E+03  0.28618210344E+03  0.25500000920E-02 0.  1.
       -2    1    3    3    0  502  0.22685097066E+03  0.82328575270E+02  0.14541630292E+02  0.24176603610E+03  0.25500000920E-02 0. -1.
</event>
<event>
 5   0  0.8012875E-03  0.5001843E+03  0.7818609E-02  0.1013731E+00
        3   -1    0    0  501    0  0.00000000000E+00  0.00000000000E+00  0.46167555354E+03  0.46167556459E+03  0.10100000352E+00 0. -1.
       -3   -1    0    0    0  501  0.00000000000E+00  0.00000000000E+00 -0.13547622455E+03  0.13547626220E+03  0.10100000352E+00 0.  1.
    10030    2    1    2    0    0  0.00000000000E+00  0.00000000000E+00  0.32619932899E+03  0.59715182678E+03  0.50018426804E+03 0.  0.
        4    1    3    3  502    0 -0.18855374882E+03  0.94812250107E+02  0.29145500703E+01  0.21107341487E+03  0.12699999809E+01 0.  1.
       -4    1    3    3    0  502  0.18855374882E+03 -0.94812250107E+02  0.32328477892E+03  0.38607841191E+03  0.12699999809E+01 0. -1.
</event>
<event>
 5   0  0.1941387E-02  0.4997674E+03  0.7818609E-02  0.1013840E+00
        2   -1    0    0  501    0  0.00000000000E+00  0.00000000000E+00  0.16110931403E+04  0.16110931403E+04  0.25500000920E-02 0.  1.
       -2   -1    0    0    0  501  0.00000000000E+00  0.00000000000E+00 -0.38757443527E+02  0.38757443610E+02  0.25500000920E-02 0. -1.
    10030    2    1    2    0    0  0.00000000000E+00  0.00000000000E+00  0.15723356967E+04  0.16498505839E+04  0.49976735176E+03 0.  0.
        4    1    3    3  502    0 -0.13975947916E+03  0.86105797088E+02  0.16422563503E+03  0.23220377345E+03  0.12699999809E+01 0. -1.
       -4    1    3    3    0  502  0.13975947916E+03 -0.86105797088E+02  0.14081100617E+04  0.14176468104E+04  0.12699999809E+01 0.  1.
</event>
<event>
 5   0  0.8012875E-03  0.5004749E+03  0.7818609E-02  0.1013655E+00
        3   -1    0    0  501    0  0.00000000000E+00  0.00000000000E+00  0.27519595732E+03  0.27519597585E+03  0.10100000352E+00 0.  1.
       -3   -1    0    0    0  501  0.00000000000E+00  0.00000000000E+00 -0.22754245337E+03  0.22754247578E+03  0.10100000352E+00 0. -1.
    10030    2    1    2    0    0  0.00000000000E+00  0.00000000000E+00  0.47653503949E+02  0.50273845164E+03  0.50047486882E+03 0.  0.
        4    1    3    3  502    0 -0.20170563191E+03  0.14322313118E+03 -0.14015018215E+02  0.24778228525E+03  0.12699999809E+01 0. -1.
       -4    1    3    3    0  502  0.20170563191E+03 -0.14322313118E+03  0.61668522164E+02  0.25495616638E+03  0.12699999809E+01 0.  1.
</event>
<event>
 5   0  0.1227864E-02  0.5016799E+03  0.7818609E-02  0.1013341E+00
        1   -1    0    0  501    0  0.00000000000E+00  0.00000000000E+00  0.68817970319E+03  0.68817970321E+03  0.50400001928E-02 0. -1.
       -1   -1    0    0    0  501  0.00000000000E+00  0.00000000000E+00 -0.91430609110E+02  0.91430609249E+02  0.50400001928E-02 0.  1.
    10030    2    1    2    0    0  0.00000000000E+00  0.00000000000E+00  0.59674909408E+03  0.77961031246E+03  0.50167993582E+03 0.  0.
        5    1    3    3  502    0 -0.92883297673E+02  0.19663708694E+03  0.49250103459E+03  0.53839837483E+03  0.46999998093E+01 0. -1.
       -5    1    3    3    0  502  0.92883297673E+02 -0.19663708694E+03  0.10424805949E+03  0.24121193763E+03  0.46999998093E+01 0.  1.
</event>
<event>
 5   0  0.1180937E-02  0.5089813E+03  0.7818609E-02  0.1011461E+00
        1   -1    0    0  501    0  0.00000000000E+00  0.00000000000E+00  0.59318468460E+03  0.59318468462E+03  0.50400001928E-02 0. -1.
       -1   -1    0    0    0  501  0.00000000000E+00  0.00000000000E+00 -0.10918265646E+03  0.10918265657E+03  0.50400001928E-02 0.  1.
    10030    2    1    2    0    0  0.00000000000E+00  0.00000000000E+00  0.48400202814E+03  0.70236734119E+03  0.50898125577E+03 0.  0.
        1    1    3    3  502    0 -0.84296731661E+01  0.96262204921E+02  0.56688414118E+03  0.57506095419E+03  0.50400001928E-02 0. -1.
       -1    1    3    3    0  502  0.84296731661E+01 -0.96262204921E+02 -0.82882113036E+02  0.12730638701E+03  0.50400001928E-02 0.  1.
</event>
<event>
 5   0  0.1217270E-02  0.4993530E+03  0.7818609E-02  0.1013948E+00
        1   -1    0    0  501    0  0.00000000000E+00  0.00000000000E+00  0.29764055958E+03  0.29764055962E+03  0.50400001928E-02 0. -1.
       -1   -1    0    0    0  501  0.00000000000E+00  0.00000000000E+00 -0.20944177487E+03  0.20944177493E+03  0.50400001928E-02 0.  1.
    10030    2    1    2    0    0  0.00000000000E+00  0.00000000000E+00  0.88198784714E+02  0.50708233455E+03  0.49935304984E+03 0.  0.
        2    1    3    3  502    0 -0.66968403135E+02  0.19581867927E+03  0.18593469067E+03  0.27821112734E+03  0.25500000920E-02 0. -1.
       -2    1    3    3    0  502  0.66968403135E+02 -0.19581867927E+03 -0.97735905960E+02  0.22887120721E+03  0.25500000920E-02 0.  1.
</event>
<event>
 5   0  0.1967813E-02  0.5030570E+03  0.7818609E-02  0.1012984E+00
       -2   -1    0    0    0  501  0.00000000000E+00  0.00000000000E+00  0.70264488034E+02  0.70264488081E+02  0.25500000920E-02 0.  1.
        2   -1    0    0  501    0  0.00000000000E+00  0.00000000000E+00 -0.90040628949E+03  0.90040628949E+03  0.25500000920E-02 0. -1.
    10030    2    1    2    0    0  0.00000000000E+00  0.00000000000E+00 -0.83014180146E+03  0.97067077757E+03  0.50305700265E+03 0.  0.
        5    1    3    3  502    0 -0.20218224740E+03 -0.88187681595E+02 -0.64813692012E+03  0.68465924778E+03  0.46999998093E+01 0. -1.
       -5    1    3    3    0  502  0.20218224740E+03  0.88187681595E+02 -0.18200488133E+03  0.28601152979E+03  0.46999998093E+01 0.  1.
</event>
<event>
 5   0  0.1225989E-02  0.5007941E+03  0.7818609E-02  0.1013572E+00
        1   -1    0    0  501    0  0.00000000000E+00  0.00000000000E+00  0.23155302420E+03  0.23155302426E+03  0.50400001928E-02 0. -1.
       -1   -1    0    0    0  501  0.00000000000E+00  0.00000000000E+00 -0.27077458932E+03  0.27077458937E+03  0.50400001928E-02 0.  1.
    10030    2    1    2    0    0  0.00000000000E+00  0.00000000000E+00 -0.39221565121E+02  0.50232761363E+03  0.50079406970E+03 0.  0.
        3    1    3    3  502    0 -0.67163358709E+01 -0.24520090786E+03  0.30843052660E+02  0.24722438893E+03  0.10100000352E+00 0. -1.
       -3    1    3    3    0  502  0.67163358709E+01  0.24520090786E+03 -0.70064617781E+02  0.25510322470E+03  0.10100000352E+00 0.  1.
</event>
<event>
 5   0  0.1217270E-02  0.5011816E+03  0.7818609E-02  0.1013471E+00
       -1   -1    0    0    0  501  0.00000000000E+00  0.00000000000E+00  0.42173101632E+03  0.42173101635E+03  0.50400001928E-02 0. -1.
        1   -1    0    0  501    0  0.00000000000E+00  0.00000000000E+00 -0.14889999513E+03  0.14889999522E+03  0.50400001928E-02 0.  1.
    10030    2    1    2    0    0  0.00000000000E+00  0.00000000000E+00  0.27283102118E+03  0.57063101157E+03  0.50118158909E+03 0.  0.
        2    1    3    3  502    0  0.12040075267E+03 -0.13334947140E+03  0.33531491486E+03  0.38041361030E+03  0.25500000920E-02 0. -1.
       -2    1    3    3    0  502 -0.12040075267E+03  0.13334947140E+03 -0.62483893680E+02  0.19021740126E+03  0.25500000920E-02 0.  1.
</event>
<event>
 5   0  0.1923706E-02  0.5006865E+03  0.7818609E-02  0.1013600E+00
        2   -1    0    0  501    0  0.00000000000E+00  0.00000000000E+00  0.15824439987E+04  0.15824439987E+04  0.25500000920E-02 0. -1.
       -2   -1    0    0    0  501  0.00000000000E+00  0.00000000000E+00 -0.39604397899E+02  0.39604397981E+02  0.25500000920E-02 0.  1.
    10030    2    1    2    0    0  0.00000000000E+00  0.00000000000E+00  0.15428396008E+04  0.16220483967E+04  0.50068649610E+03 0.  0.
        3    1    3    3  502    0 -0.11220702919E+03 -0.30872839782E+02  0.14894840027E+04  0.14940234784E+04  0.10100000352E+00 0. -1.
       -3    1    3    3    0  502  0.11220702919E+03  0.30872839782E+02  0.53355598075E+02  0.12802491821E+03  0.10100000352E+00 0.  1.
</event>
<event>
 5   0  0.1225989E-02  0.4999108E+03  0.7818609E-02  0.1013802E+00
       -1   -1    0    0    0  501  0.00000000000E+00  0.00000000000E+00  0.95402778590E+03  0.95402778591E+03  0.50400001928E-02 0. -1.
        1   -1    0    0  501    0  0.00000000000E+00  0.00000000000E+00 -0.65488341686E+02  0.65488341880E+02  0.50400001928E-02 0.  1.
    10030    2    1    2    0    0  0.00000000000E+00  0.00000000000E+00  0.88853944421E+03  0.10195161278E+04  0.49991078295E+03 0.  0.
        3    1    3    3  502    0 -0.22061655241E+03  0.89871725051E+02  0.28990619356E+03  0.37522553408E+03  0.10100000352E+00 0.  1.
       -3    1    3    3    0  502  0.22061655241E+03 -0.89871725051E+02  0.59863325065E+03  0.64429059371E+03  0.10100000352E+00 0. -1.
</event>
<event>
 5   0  0.1225989E-02  0.5014006E+03  0.7818609E-02  0.1013414E+00
       -1   -1    0    0    0  501  0.00000000000E+00  0.00000000000E+00  0.16507054037E+03  0.16507054045E+03  0.50400001928E-02 0.  1.
        1   -1    0    0  501    0  0.00000000000E+00  0.00000000000E+00 -0.38075022842E+03  0.38075022845E+03  0.50400001928E-02 0. -1.
    10030    2    1    2    0    0  0.00000000000E+00  0.00000000000E+00 -0.21567968805E+03  0.54582076890E+03  0.50140062219E+03 0.  0.
        3    1    3    3  502    0 -0.22597113950E+03 -0.49445964241E+02 -0.21306102418E+03  0.31448826607E+03  0.10100000352E+00 0. -1.
       -3    1    3    3    0  502  0.22597113950E+03  0.49445964241E+02 -0.26186638703E+01  0.23133250284E+03  0.10100000352E+00 0.  1.
</event>
<event>
 5   0  0.1180937E-02  0.4985408E+03  0.7818609E-02  0.1014160E+00
        1   -1    0    0  501    0  0.00000000000E+00  0.00000000000E+00  0.33882100777E+03  0.33882100781E+03  0.50400001928E-02 0.  1.
       -1   -1    0    0    0  501  0.00000000000E+00  0.00000000000E+00 -0.18338806697E+03  0.18338806704E+03  0.50400001928E-02 0. -1.
    10030    2    1    2    0    0  0.00000000000E+00  0.00000000000E+00  0.15543294080E+03  0.52220907485E+03  0.49854078948E+03 0.  0.
        1    1    3    3  502    0  0.79148112028E+02  0.85317062097E+02 -0.15318540886E+03  0.19237773841E+03  0.50400001928E-02 0. -1.
       -1    1    3    3    0  502 -0.79148112028E+02 -0.85317062097E+02  0.30861834966E+03  0.32983133644E+03  0.50400001928E-02 0.  1.
</event>
<event>
 5   0  0.1967813E-02  0.4999197E+03  0.7818609E-02  0.1013800E+00
        2   -1    0    0  501    0  0.00000000000E+00  0.00000000000E+00  0.17572230408E+03  0.17572230410E+03  0.25500000920E-02 0.  1.
       -2   -1    0    0    0  501  0.00000000000E+00  0.00000000000E+00 -0.35556064398E+03  0.35556064399E+03  0.25500000920E-02 0. -1.
    10030    2    1    2    0    0  0.00000000000E+00  0.00000000000E+00 -0.17983833990E+03  0.53128294810E+03  0.49991973600E+03 0.  0.
        5    1    3    3  502    0  0.11961543128E+03  0.17887152315E+03 -0.22499532978E+03  0.31136451566E+03  0.46999998093E+01 0. -1.
       -5    1    3    3    0  502 -0.11961543128E+03 -0.17887152315E+03  0.45156989877E+02  0.21991843244E+03  0.46999998093E+01 0.  1.
</event>
<event>
 5   0  0.1217270E-02  0.4998956E+03  0.7818609E-02  0.1013806E+00
       -1   -1    0    0    0  501  0.00000000000E+00  0.00000000000E+00  0.83833965301E+02  0.83833965452E+02  0.50400001928E-02 0.  1.
        1   -1    0    0  501    0  0.00000000000E+00  0.00000000000E+00 -0.74521001596E+03  0.74521001598E+03  0.50400001928E-02 0. -1.
    10030    2    1    2    0    0  0.00000000000E+00  0.00000000000E+00 -0.66137605066E+03  0.82904398143E+03  0.49989563187E+03 0.  0.
        2    1    3    3  502    0 -0.20750055750E+03 -0.88897269516E+02 -0.15272710908E+03  0.27255233579E+03  0.25500000920E-02 0.  1.
       -2    1    3    3    0  502  0.20750055750E+03  0.88897269516E+02 -0.50864894158E+03  0.55649164564E+03  0.25500000920E-02 0. -1.
</event>
<event>
 5   0  0.1217270E-02  0.5003291E+03  0.7818609E-02  0.1013693E+00
       -1   -1    0    0    0  501  0.00000000000E+00  0.00000000000E+00  0.40454823680E+02  0.40454823994E+02  0.50400001928E-02 0. -1.
        1   -1    0    0  501    0  0.00000000000E+00  0.00000000000E+00 -0.15469674571E+04  0.15469674571E+04  0.50400001928E-02 0.  1.
    10030    2    1    2    0    0  0.00000000000E+00  0.00000000000E+00 -0.15065126334E+04  0.15874222811E+04  0.50032907559E+03 0.  0.
        2    1    3    3  502    0  0.52031770228E+02  0.24466990201E+03 -0.74243638046E+03  0.78344268782E+03  0.25500000920E-02 0.  1.
       -2    1    3    3    0  502 -0.52031770228E+02 -0.24466990201E+03 -0.76407625293E+03  0.80397959325E+03  0.25500000920E-02 0. -1.
</event>
<event>
 5   0  0.1923706E-02  0.5006837E+03  0.7818609E-02  0.1013601E+00
       -2   -1    0    0    0  501  0.00000000000E+00  0.00000000000E+00  0.61309454189E+02  0.61309454242E+02  0.25500000920E-02 0. -1.
        2   -1    0    0  501    0  0.00000000000E+00  0.00000000000E+00 -0.10222084860E+04  0.10222084860E+04  0.25500000920E-02 0.  1.
    10030    2    1    2    0    0  0.00000000000E+00  0.00000000000E+00 -0.96089903176E+03  0.10835179402E+04  0.50068371003E+03 0.  0.
        3    1    3    3  502    0 -0.11186875864E+03  0.21646855347E+03 -0.60472444072E+03  0.65197002477E+03  0.10100000352E+00 0. -1.
       -3    1    3    3    0  502  0.11186875864E+03 -0.21646855347E+03 -0.35617459104E+03  0.43154791542E+03  0.10100000352E+00 0.  1.
</event>
<event>
 5   0  0.1941387E-02  0.5004882E+03  0.7818609E-02  0.1013652E+00
        2   -1    0    0  501    0  0.00000000000E+00  0.00000000000E+00  0.82449702221E+03  0.82449702221E+03  0.25500000920E-02 0. -1.
       -2   -1    0    0    0  501  0.00000000000E+00  0.00000000000E+00 -0.75951884562E+02  0.75951884604E+02  0.25500000920E-02 0.  1.
    10030    2    1    2    0    0  0.00000000000E+00  0.00000000000E+00  0.74854513765E+03  0.90044890682E+03  0.50048817238E+03 0.  0.
        4    1    3    3  502    0 -0.71093567362E+02  0.97569525041E+02 -0.20089923424E+02  0.12239005458E+03  0.12699999809E+01 0.  1.
       -4    1    3    3    0  502  0.71093567362E+02 -0.97569525041E+02  0.76863506107E+03  0.77805885224E+03  0.12699999809E+01 0. -1.
</event>
<event>
 5   0  0.1941387E-02  0.4996675E+03  0.7818609E-02  0.1013866E+00
        2   -1    0    0  501    0  0.00000000000E+00  0.00000000000E+00  0.79999912232E+03  0.79999912233E+03  0.25500000920E-02 0. -1.
       -2   -1    0    0    0  501  0.00000000000E+00  0.00000000000E+00 -0.78021221782E+02  0.78021221824E+02  0.25500000920E-02 0.  1.
    10030    2    1    2    0    0  0.00000000000E+00  0.00000000000E+00  0.72197790054E+03  0.87802034415E+03  0.49966752533E+03 0.  0.
        4    1    3    3  502    0 -0.24663336929E+02  0.23674595951E+03  0.22764506438E+03  0.32936426304E+03  0.12699999809E+01 0.  1.
       -4    1    3    3    0  502  0.24663336929E+02 -0.23674595951E+03  0.49433283616E+03  0.54865608111E+03  0.12699999809E+01 0. -1.
</event>
<event>
 5   0  0.1227864E-02  0.4992452E+03  0.7818609E-02  0.1013976E+00
       -1   -1    0    0    0  501  0.00000000000E+00  0.00000000000E+00  0.29833869609E+03  0.29833869614E+03  0.50400001928E-02 0.  1.
        1   -1    0    0  501    0  0.00000000000E+00  0.00000000000E+00 -0.20886144627E+03  0.20886144633E+03  0.50400001928E-02 0. -1.
    10030    2    1    2    0    0  0.00000000000E+00  0.00000000000E+00  0.89477249820E+02  0.50720014247E+03  0.49924523662E+03 0.  0.
        5    1    3    3  502    0 -0.24244629262E+03 -0.30034228009E+02 -0.71347424531E+01  0.24444887852E+03  0.46999998093E+01 0. -1.
       -5    1    3    3    0  502  0.24244629262E+03  0.30034228009E+02  0.96611992273E+02  0.26275126395E+03  0.46999998093E+01 0.  1.
</event>
<event>
 5   0  0.1225989E-02  0.4999996E+03  0.7818609E-02  0.1013779E+00
        1   -1    0    0  501    0  0.00000000000E+00  0.00000000000E+00  0.88589279967E+02  0.88589280110E+02  0.50400001928E-02 0.  1.
       -1   -1    0    0    0  501  0.00000000000E+00  0.00000000000E+00 -0.70550171983E+03  0.70550171985E+03  0.50400001928E-02 0. -1.
    10030    2    1    2    0    0  0.00000000000E+00  0.00000000000E+00 -0.61691243986E+03  0.79409099996E+03  0.49999955776E+03 0.  0.
        3    1    3    3  502    0 -0.17798397271E+03  0.17553552320E+03 -0.31318484543E+03  0.40071906874E+03  0.10100000352E+00 0. -1.
       -3    1    3    3    0  502  0.17798397271E+03 -0.17553552320E+03 -0.30372759443E+03  0.39337193121E+03  0.10100000352E+00 0.  1.
</event>
<event>
 5   0  0.1941387E-02  0.5006073E+03  0.7818609E-02  0.1013621E+00
       -2   -1    0    0    0  501  0.00000000000E+00  0.00000000000E+00  0.10531512684E+03  0.10531512687E+03  0.25500000920E-02 0. -1.
        2   -1    0    0  501    0  0.00000000000E+00  0.00000000000E+00 -0.59489950603E+03  0.59489950604E+03  0.25500000920E-02 0.  1.
    10030    2    1    2    0    0  0.00000000000E+00  0.00000000000E+00 -0.48958437919E+03  0.70021463291E+03  0.50060729897E+03 0.  0.
        4    1    3    3  502    0  0.14631320370E+03  0.19948801448E+03 -0.29800432255E+03  0.38731280724E+03  0.12699999809E+01 0.  1.
       -4    1    3    3    0  502 -0.14631320370E+03 -0.19948801448E+03 -0.19158005664E+03  0.31290182566E+03  0.12699999809E+01 0. -1.
</event>
<event>
 5   0  0.8012875E-03  0.5003141E+03  0.7818609E-02  0.1013697E+00
       -3   -1    0    0    0  501  0.00000000000E+00  0.00000000000E+00  0.66690667059E+02  0.66690743539E+02  0.10100000352E+00 0. -1.
        3   -1    0    0  501    0  0.00000000000E+00  0.00000000000E+00 -0.93833995199E+03  0.93833995742E+03  0.10100000352E+00 0.  1.
    10030    2    1    2    0    0  0.00000000000E+00  0.00000000000E+00 -0.87164928493E+03  0.10050307010E+04  0.50031413528E+03 0.  0.
        4    1    3    3  502    0 -0.11240637053E+03  0.21977501175E+03 -0.35445716819E+03  0.43194646069E+03  0.12699999809E+01 0. -1.
       -4    1    3    3    0  502  0.11240637053E+03 -0.21977501175E+03 -0.51719211674E+03  0.57308424027E+03  0.12699999809E+01 0.  1.
</event>
<event>
 5   0  0.1967813E-02  0.4993340E+03  0.7818609E-02  0.1013953E+00
       -2   -1    0    0    0  501  0.00000000000E+00  0.00000000000E+00  0.49121189665E+02  0.49121189731E+02  0.25500000920E-02 0.  1.
        2   -1    0    0  501    0  0.00000000000E+00  0.00000000000E+00 -0.12689757717E+04  0.12689757717E+04  0.25500000920E-02 0. -1.
    10030    2    1    2    0    0  0.00000000000E+00  0.00000000000E+00 -0.12198545821E+04  0.13180969615E+04  0.49933395482E+03 0.  0.
        5    1    3    3  502    0  0.80207135562E+02  0.16381702293E+03 -0.10597815363E+04  0.10753735148E+04  0.46999998093E+01 0. -1.
       -5    1    3    3    0  502 -0.80207135562E+02 -0.16381702293E+03 -0.16007304578E+03  0.24272344670E+03  0.46999998093E+01 0.  1.
</event>
<event>
 5   0  0.1225989E-02  0.4995019E+03  0.7818609E-02  0.1013909E+00
        1   -1    0    0  501    0  0.00000000000E+00  0.00000000000E+00  0.35070742493E+03  0.35070742497E+03  0.50400001928E-02 0.  1.
       -1   -1    0    0    0  501  0.00000000000E+00  0.00000000000E+00 -0.17785636612E+03  0.17785636619E+03  0.50400001928E-02 0. -1.
    10030    2    1    2    0    0  0.00000000000E+00  0.00000000000E+00  0.17285105881E+03  0.52856379115E+03  0.49950194473E+03 0.  0.
        3    1    3    3  502    0  0.13805701858E+03 -0.19591020323E+03  0.12088815508E+02  0.23997228542E+03  0.10100000352E+00 0. -1.
       -3    1    3    3    0  502 -0.13805701858E+03  0.19591020323E+03  0.16076224330E+03  0.28859150573E+03  0.10100000352E+00 0.  1.
</event>
<event>
 5   0  0.1180937E-02  0.4996022E+03  0.7818609E-02  0.1013883E+00
        1   -1    0    0  501    0  0.00000000000E+00  0.00000000000E+00  0.48013726510E+03  0.48013726513E+03  0.50400001928E-02 0.  1.
       -1   -1    0    0    0  501  0.00000000000E+00  0.00000000000E+00 -0.12996405085E+03  0.12996405095E+03  0.50400001928E-02 0. -1.
    10030    2    1    2    0    0  0.00000000000E+00  0.00000000000E+00  0.35017321425E+03  0.61010131608E+03  0.49960217764E+03 0.  0.
        1    1    3    3  502    0 -0.22248818914E+03  0.10657173941E+03  0.22304089330E+03  0.33257445791E+03  0.50400001928E-02 0.  1.
       -1    1    3    3    0  502  0.22248818914E+03 -0.10657173941E+03  0.12713232095E+03  0.27752685816E+03  0.50400001928E-02 0. -1.
</event>
<event>
 5   0  0.1982847E-02  0.4993983E+03  0.7818609E-02  0.1013936E+00
       -2   -1    0    0    0  501  0.00000000000E+00  0.00000000000E+00  0.12171768437E+03  0.12171768440E+03  0.25500000920E-02 0. -1.
        2   -1    0    0  501    0  0.00000000000E+00  0.00000000000E+00 -0.51224821166E+03  0.51224821166E+03  0.25500000920E-02 0.  1.
    10030    2    1    2    0    0  0.00000000000E+00  0.00000000000E+00 -0.39053052728E+03  0.63396589606E+03  0.49939830259E+03 0.  0.
        2    1    3    3  502    0  0.23918398104E+03  0.49906354842E+02 -0.26061524490E+03  0.35723931324E+03  0.25500000920E-02 0.  1.
       -2    1    3    3    0  502 -0.23918398104E+03 -0.49906354842E+02 -0.12991528238E+03  0.27672658283E+03  0.25500000920E-02 0. -1.
</event>
<event>
 5   0  0.1967813E-02  0.4991244E+03  0.7818609E-02  0.1014008E+00
       -2   -1    0    0    0  501  0.00000000000E+00  0.00000000000E+00  0.17523653396E+03  0.17523653397E+03  0.25500000920E-02 0.  1.
        2   -1    0    0  501    0  0.00000000000E+00  0.00000000000E+00 -0.35541268326E+03  0.35541268327E+03  0.25500000920E-02 0. -1.
    10030    2    1    2    0    0  0.00000000000E+00  0.00000000000E+00 -0.18017614930E+03  0.53064921724E+03  0.49912438027E+03 0.  0.
        5    1    3    3  502    0  0.13109712902E+03 -0.93379008531E+02  0.11261926370E+03  0.19649754458E+03  0.46999998093E+01 0.  1.
       -5    1    3    3    0  502 -0.13109712902E+03  0.93379008531E+02 -0.29279541300E+03  0.33415167266E+03  0.46999998093E+01 0. -1.
</event>
<event>
 5   0  0.1855407E-02  0.5003884E+03  0.7818609E-02  0.1013678E+00
        2   -1    0    0  501    0  0.00000000000E+00  0.00000000000E+00  0.11299422136E+03  0.11299422138E+03  0.25500000920E-02 0.  1.
       -2   -1    0    0    0  501  0.00000000000E+00  0.00000000000E+00 -0.55398530961E+03  0.55398530961E+03  0.25500000920E-02 0. -1.
    10030    2    1    2    0    0  0.00000000000E+00  0.00000000000E+00 -0.44099108825E+03  0.66697953100E+03  0.50038840400E+03 0.  0.
        1    1    3    3  502    0 -0.10309598901E+03 -0.42860319775E+01  0.83311602119E+02  0.13261966707E+03  0.50400001928E-02 0.  1.
       -1    1    3    3    0  502  0.10309598901E+03  0.42860319775E+01 -0.52430269037E+03  0.53435986393E+03  0.50400001928E-02 0. -1.
</event>
<event>
 5   0  0.1941387E-02  0.5002435E+03  0.7818609E-02  0.1013715E+00
       -2   -1    0    0    0  501  0.00000000000E+00  0.00000000000E+00  0.88245952429E+02  0.88245952466E+02  0.25500000920E-02 0. -1.
        2   -1    0    0  501    0  0.00000000000E+00  0.00000000000E+00 -0.70893792211E+03  0.70893792212E+03  0.25500000920E-02 0.  1.
    10030    2    1    2    0    0  0.00000000000E+00  0.00000000000E+00 -0.62069196968E+03  0.79718387458E+03  0.50024354935E+03 0.  0.
        4    1    3    3  502    0 -0.63836383053E+02  0.20422762394E+03 -0.10394491838E+03  0.23788687467E+03  0.12699999809E+01 0. -1.
       -4    1    3    3    0  502  0.63836383053E+02 -0.20422762394E+03 -0.51674705130E+03  0.55929699991E+03  0.12699999809E+01 0.  1.
</event>
<event>
 5   0  0.1967813E-02  0.4994912E+03  0.7818609E-02  0.1013912E+00
        2   -1    0    0  501    0  0.00000000000E+00  0.00000000000E+00  0.29811048837E+03  0.29811048838E+03  0.25500000920E-02 0.  1.
       -2   -1    0    0    0  501  0.00000000000E+00  0.00000000000E+00 -0.20922735103E+03  0.20922735104E+03  0.25500000920E-02 0. -1.
    10030    2    1    2    0    0  0.00000000000E+00  0.00000000000E+00  0.88883137339E+02  0.50733783942E+03  0.49949121234E+03 0.  0.
        5    1    3    3  502    0  0.12015144354E+03 -0.20864526325E+03  0.11167478853E+03  0.26544785487E+03  0.46999998093E+01 0. -1.
       -5    1    3    3    0  502 -0.12015144354E+03  0.20864526325E+03 -0.22791651193E+02  0.24188998455E+03  0.46999998093E+01 0.  1.
</event>
<event>
 5   0  0.1923706E-02  0.5021380E+03  0.7818609E-02  0.1013222E+00
       -2   -1    0    0    0  501  0.00000000000E+00  0.00000000000E+00  0.77767346065E+02  0.77767346107E+02  0.25500000920E-02 0. -1.
        2   -1    0    0  501    0  0.00000000000E+00  0.00000000000E+00 -0.81056703535E+03  0.81056703535E+03  0.25500000920E-02 0.  1.
    10030    2    1    2    0    0  0.00000000000E+00  0.00000000000E+00 -0.73279968928E+03  0.88833438146E+03  0.50213801755E+03 0.  0.
        3    1    3    3  502    0  0.95912314188E+02 -0.23062180182E+03 -0.32129464866E+03  0.40695927185E+03  0.10100000352E+00 0. -1.
       -3    1    3    3    0  502 -0.95912314188E+02  0.23062180182E+03 -0.41150504063E+03  0.48137510961E+03  0.10100000352E+00 0.  1.
</event>
<event>
 5   0  0.1217270E-02  0.4982452E+03  0.7818609E-02  0.1014238E+00
       -1   -1    0    0    0  501  0.00000000000E+00  0.00000000000E+00  0.26915883963E+03  0.26915883968E+03  0.50400001928E-02 0.  1.
        1   -1    0    0  501    0  0.00000000000E+00  0.00000000000E+00 -0.23057789640E+03  0.23057789646E+03  0.50400001928E-02 0. -1.
    10030    2    1    2    0    0  0.00000000000E+00  0.00000000000E+00  0.38580943232E+02  0.49973673613E+03  0.49824523707E+03 0.  0.
        2    1    3    3  502    0  0.36146064625E+02 -0.22002617105E+03  0.13072672924E+03  0.25847152973E+03  0.25500000920E-02 0.  1.
       -2    1    3    3    0  502 -0.36146064625E+02  0.22002617105E+03 -0.92145786007E+02  0.24126520641E+03  0.25500000920E-02 0. -1.
</event>
<event>
 5   0  0.1967813E-02  0.5019338E+03  0.7818609E-02  0.1013275E+00
        2   -1    0    0  501    0  0.00000000000E+00  0.00000000000E+00  0.10011957942E+03  0.10011957945E+03  0.25500000920E-02 0.  1.
       -2   -1    0    0    0  501  0.00000000000E+00  0.00000000000E+00 -0.62909149548E+03  0.62909149549E+03  0.25500000920E-02 0. -1.
    10030    2    1    2    0    0  0.00000000000E+00  0.00000000000E+00 -0.52897191606E+03  0.72921107494E+03  0.50193376439E+03 0.  0.
        5    1    3    3  502    0 -0.91204039109E+00  0.13823557804E+03 -0.56871692993E+03  0.58529560330E+03  0.46999998093E+01 0. -1.
       -5    1    3    3    0  502  0.91204039109E+00 -0.13823557804E+03  0.39745013867E+02  0.14391547165E+03  0.46999998093E+01 0.  1.
</event>
<event>
 5   0  0.1227864E-02  0.5079753E+03  0.7818609E-02  0.1011718E+00
        1   -1    0    0  501    0  0.00000000000E+00  0.00000000000E+00  0.69882274899E+03  0.69882274901E+03  0.50400001928E-02 0. -1.
       -1   -1    0    0    0  501  0.00000000000E+00  0.00000000000E+00 -0.92311985746E+02  0.92311985884E+02  0.50400001928E-02 0.  1.
    10030    2    1    2    0    0  0.00000000000E+00  0.00000000000E+00  0.60651076324E+03  0.79113473489E+03  0.50797525808E+03 0.  0.
        5    1    3    3  502    0 -0.12673381952E+03  0.42553535518E+02  0.63951322280E+03  0.65335405144E+03  0.46999998093E+01 0. -1.
       -5    1    3    3    0  502  0.12673381952E+03 -0.42553535518E+02 -0.33002459562E+02  0.13778068345E+03  0.46999998093E+01 0.  1.
</event>
<event>
 5   0  0.1225989E-02  0.5004518E+03  0.7818609E-02  0.1013661E+00
        1   -1    0    0  501    0  0.00000000000E+00  0.00000000000E+00  0.11764282956E+04  0.11764282957E+04  0.50400001928E-02 0.  1.
       -1   -1    0    0    0  501  0.00000000000E+00  0.00000000000E+00 -0.53222965243E+02  0.53222965482E+02  0.50400001928E-02 0. -1.
    10030    2    1    2    0    0  0.00000000000E+00  0.00000000000E+00  0.11232053304E+04  0.12296512611E+04  0.50045180565E+03 0.  0.
        3    1    3    3  502    0 -0.12104888404E+03 -0.21430586830E+03  0.45081155497E+03  0.51362525815E+03  0.10100000352E+00 0. -1.
       -3    1    3    3    0  502  0.12104888404E+03  0.21430586830E+03  0.67239377542E+03  0.71602600298E+03  0.10100000352E+00 0.  1.
</event>
<event>
 5   0  0.1225989E-02  0.4929485E+03  0.7818609E-02  0.1015636E+00
       -1   -1    0    0    0  501  0.00000000000E+00  0.00000000000E+00  0.13131060679E+04  0.13131060679E+04  0.50400001928E-02 0.  1.
        1   -1    0    0  501    0  0.00000000000E+00  0.00000000000E+00 -0.46264005653E+02  0.46264005927E+02  0.50400001928E-02 0. -1.
    10030    2    1    2    0    0  0.00000000000E+00  0.00000000000E+00  0.12668420622E+04  0.13593700738E+04  0.49294846279E+03 0.  0.
        3    1    3    3  502    0  0.99151119997E+02  0.11515847629E+03  0.11685515547E+04  0.11783909222E+04  0.10100000352E+00 0.  1.
       -3    1    3    3    0  502 -0.99151119997E+02 -0.11515847629E+03  0.98290507505E+02  0.18097915163E+03  0.10100000352E+00 0. -1.
</event>
<event>
 5   0  0.1209831E-02  0.5004189E+03  0.7818609E-02  0.1013670E+00
        1   -1    0    0  501    0  0.00000000000E+00  0.00000000000E+00  0.33694856454E+03  0.33694856457E+03  0.50400001928E-02 0. -1.
       -1   -1    0    0    0  501  0.00000000000E+00  0.00000000000E+00 -0.18579915586E+03  0.18579915593E+03  0.50400001928E-02 0.  1.
    10030    2    1    2    0    0  0.00000000000E+00  0.00000000000E+00  0.15114940868E+03  0.52274772050E+03  0.50041886010E+03 0.  0.
        4    1    3    3  502    0 -0.69091062628E+02 -0.10170084865E+02 -0.17540854592E+03  0.18880353928E+03  0.12699999809E+01 0.  1.
       -4    1    3    3    0  502  0.69091062628E+02  0.10170084865E+02  0.32655795460E+03  0.33394418122E+03  0.12699999809E+01 0. -1.
</event>
<event>
 5   0  0.1923706E-02  0.5026073E+03  0.7818609E-02  0.1013101E+00
       -2   -1    0    0    0  501  0.00000000000E+00  0.00000000000E+00  0.18847434354E+03  0.18847434356E+03  0.25500000920E-02 0.  1.
        2   -1    0    0  501    0  0.00000000000E+00  0.00000000000E+00 -0.33507750156E+03  0.33507750157E+03  0.25500000920E-02 0. -1.
    10030    2    1    2    0    0  0.00000000000E+00  0.00000000000E+00 -0.14660315802E+03  0.52355184512E+03  0.50260725083E+03 0.  0.
        3    1    3    3  502    0  0.22284650298E+03 -0.11363017851E+03 -0.48190575041E+02  0.25474442699E+03  0.10100000352E+00 0.  1.
       -3    1    3    3    0  502 -0.22284650298E+03  0.11363017851E+03 -0.98412582975E+02  0.26880741814E+03  0.10100000352E+00 0. -1.
</event>
<event>
 5   0  0.1967813E-02  0.4998975E+03  0.7818609E-02  0.1013806E+00
        2   -1    0    0  501    0  0.00000000000E+00  0.00000000000E+00  0.17692869321E+04  0.17692869321E+04  0.25500000920E-02 0.  1.
       -2   -1    0    0    0  501  0.00000000000E+00  0.00000000000E+00 -0.35310485737E+02  0.35310485830E+02  0.25500000920E-02 0. -1.
    10030    2    1    2    0    0  0.00000000000E+00  0.00000000000E+00  0.17339764464E+04  0.18045974179E+04  0.49989751376E+03 0.  0.
        5    1    3    3  502    0  0.12787522827E+03 -0.21466750991E+03  0.85163973600E+03  0.88755086826E+03  0.46999998093E+01 0. -1.
       -5    1    3    3    0  502 -0.12787522827E+03  0.21466750991E+03  0.88233671037E+03  0.91704654968E+03  0.46999998093E+01 0.  1.
</event>
<event>
 5   0  0.1209831E-02  0.5004826E+03  0.7818609E-02  0.1013653E+00
        1   -1    0    0  501    0  0.00000000000E+00  0.00000000000E+00  0.10721937540E+04  0.10721937540E+04  0.50400001928E-02 0.  1.
       -1   -1    0    0    0  501  0.00000000000E+00  0.00000000000E+00 -0.58404293931E+02  0.58404294149E+02  0.50400001928E-02 0. -1.
    10030    2    1    2    0    0  0.00000000000E+00  0.00000000000E+00  0.10137894601E+04  0.11305980482E+04  0.50048264421E+03 0.  0.
        4    1    3    3  502    0  0.95925353895E+02  0.21890930717E+03  0.33942033278E+03  0.41512737020E+03  0.12699999809E+01 0.  1.
       -4    1    3    3    0  502 -0.95925353895E+02 -0.21890930717E+03  0.67436912729E+03  0.71547067797E+03  0.12699999809E+01 0. -1.
</event>
<event>
 5   0  0.1982847E-02  0.5082826E+03  0.7818609E-02  0.1011639E+00
        2   -1    0    0  501    0  0.00000000000E+00  0.00000000000E+00  0.14704056449E+03  0.14704056451E+03  0.25500000920E-02 0. -1.
       -2   -1    0    0    0  501  0.00000000000E+00  0.00000000000E+00 -0.43925153002E+03  0.43925153003E+03  0.25500000920E-02 0.  1.
    10030    2    1    2    0    0  0.00000000000E+00  0.00000000000E+00 -0.29221096553E+03  0.58629209454E+03  0.50828257076E+03 0.  0.
        2    1    3    3  502    0 -0.23065770052E+03  0.22028989434E+02 -0.26652945264E+03  0.35316596710E+03  0.25500000920E-02 0.  1.
       -2    1    3    3    0  502  0.23065770052E+03 -0.22028989434E+02 -0.25681512892E+02  0.23312612744E+03  0.25500000920E-02 0. -1.
</event>
<event>
 5   0  0.1982847E-02  0.5005047E+03  0.7818609E-02  0.1013647E+00
       -2   -1    0    0    0  501  0.00000000000E+00  0.00000000000E+00  0.25147664504E+03  0.25147664505E+03  0.25500000920E-02 0. -1.
        2   -1    0    0  501    0  0.00000000000E+00  0.00000000000E+00 -0.24903398774E+03  0.24903398776E+03  0.25500000920E-02 0.  1.
    10030    2    1    2    0    0  0.00000000000E+00  0.00000000000E+00  0.24426572929E+01  0.50051063281E+03  0.50050467228E+03 0.  0.
        2    1    3    3  502    0 -0.23229029559E+03  0.24869150086E+02 -0.88495823544E+02  0.24981746705E+03  0.25500000920E-02 0.  1.
       -2    1    3    3    0  502  0.23229029559E+03 -0.24869150086E+02  0.90938480837E+02  0.25069316576E+03  0.25500000920E-02 0. -1.
</event>
<event>
 5   0  0.1209831E-02  0.5010825E+03  0.7818609E-02  0.1013497E+00
       -1   -1    0    0    0  501  0.00000000000E+00  0.00000000000E+00  0.54108128020E+02  0.54108128255E+02  0.50400001928E-02 0. -1.
        1   -1    0    0  501    0  0.00000000000E+00  0.00000000000E+00 -0.11601015654E+04  0.11601015654E+04  0.50400001928E-02 0.  1.
    10030    2    1    2    0    0  0.00000000000E+00  0.00000000000E+00 -0.11059934374E+04  0.12142096937E+04  0.50108252481E+03 0.  0.
        4    1    3    3  502    0 -0.11227470333E+03  0.15801466858E+03 -0.93762586904E+03  0.95745398202E+03  0.12699999809E+01 0.  1.
       -4    1    3    3    0  502  0.11227470333E+03 -0.15801466858E+03 -0.16836756835E+03  0.25675571166E+03  0.12699999809E+01 0. -1.
</event>
<event>
 5   0  0.1967813E-02  0.4996268E+03  0.7818609E-02  0.1013876E+00
       -2   -1    0    0    0  501  0.00000000000E+00  0.00000000000E+00  0.56097108398E+02  0.56097108456E+02  0.25500000920E-02 0. -1.
        2   -1    0    0  501    0  0.00000000000E+00  0.00000000000E+00 -0.11124769122E+04  0.11124769122E+04  0.25500000920E-02 0.  1.
    10030    2    1    2    0    0  0.00000000000E+00  0.00000000000E+00 -0.10563798038E+04  0.11685740206E+04  0.49962681260E+03 0.  0.
        5    1    3    3  502    0 -0.23241130993E+03 -0.86354311827E+02 -0.45753503009E+03  0.52041567800E+03  0.46999998093E+01 0. -1.
       -5    1    3    3    0  502  0.23241130993E+03  0.86354311827E+02 -0.59884477368E+03  0.64815834263E+03  0.46999998093E+01 0.  1.
</event>
<event>
 5   0  0.8012875E-03  0.4991383E+03  0.7818609E-02  0.1014004E+00
        3   -1    0    0  501    0  0.00000000000E+00  0.00000000000E+00  0.63190143110E+02  0.63190223827E+02  0.10100000352E+00 0. -1.
       -3   -1    0    0    0  501  0.00000000000E+00  0.00000000000E+00 -0.98567139971E+03  0.98567140489E+03  0.10100000352E+00 0.  1.
    10030    2    1    2    0    0  0.00000000000E+00  0.00000000000E+00 -0.92248125660E+03  0.10488616287E+04  0.49913830489E+03 0.  0.
        4    1    3    3  502    0 -0.10116272508E+03 -0.47492612036E+02 -0.93014525031E+03  0.93683576187E+03  0.12699999809E+01 0.  1.
       -4    1    3    3    0  502  0.10116272508E+03  0.47492612036E+02  0.76639937030E+01  0.11202586685E+03  0.12699999809E+01 0. -1.
</event>
<event>
 5   0  0.1180937E-02  0.4990531E+03  0.7818609E-02  0.1014026E+00
        1   -1    0    0  501    0  0.00000000000E+00  0.00000000000E+00  0.29963570871E+03  0.29963570875E+03  0.50400001928E-02 0.  1.
       -1   -1    0    0    0  501  0.00000000000E+00  0.00000000000E+00 -0.20779735237E+03  0.20779735243E+03  0.50400001928E-02 0. -1.
    10030    2    1    2    0    0  0.00000000000E+00  0.00000000000E+00  0.91838356337E+02  0.50743306119E+03  0.49905313133E+03 0.  0.
        1    1    3    3  502    0  0.76500548163E+02 -0.22968846589E+03 -0.15547384802E+02  0.24259193398E+03  0.50400001928E-02 0. -1.
       -1    1    3    3    0  502 -0.76500548163E+02  0.22968846589E+03  0.10738574114E+03  0.26484112720E+03  0.50400001928E-02 0.  1.
</event>
<event>
 5   0  0.1941387E-02  0.5007261E+03  0.7818609E-02  0.1013590E+00
        2   -1    0    0  501    0  0.00000000000E+00  0.00000000000E+00  0.15184857523E+04  0.15184857523E+04  0.25500000920E-02 0. -1.
       -2   -1    0    0    0  501  0.00000000000E+00  0.00000000000E+00 -0.41279061483E+02  0.41279061562E+02  0.25500000920E-02 0.  1.
    10030    2    1    2    0    0  0.00000000000E+00  0.00000000000E+00  0.14772066908E+04  0.15597648139E+04  0.50072613990E+03 0.  0.
        4    1    3    3  502    0 -0.12073545716E+03  0.70412018511E+02  0.13856339919E+04  0.13926658161E+04  0.12699999809E+01 0. -1.
       -4    1    3    3    0  502  0.12073545716E+03 -0.70412018511E+02  0.91572698940E+02  0.16709899777E+03  0.12699999809E+01 0.  1.
</event>
<event>
 5   0  0.1227864E-02  0.5009687E+03  0.7818609E-02  0.1013526E+00
       -1   -1    0    0    0  501  0.00000000000E+00  0.00000000000E+00  0.64159870696E+03  0.64159870698E+03  0.50400001928E-02 0.  1.
        1   -1    0    0  501    0  0.00000000000E+00  0.00000000000E+00 -0.97790754053E+02  0.97790754183E+02  0.50400001928E-02 0. -1.
    10030    2    1    2    0    0  0.00000000000E+00  0.00000000000E+00  0.54380795291E+03  0.73938946116E+03  0.50096874716E+03 0.  0.
        5    1    3    3  502    0  0.97136469078E+02 -0.17138508911E+03  0.50013279076E+03  0.53755301207E+03  0.46999998093E+01 0.  1.
       -5    1    3    3    0  502 -0.97136469078E+02  0.17138508911E+03  0.43675162148E+02  0.20183644909E+03  0.46999998093E+01 0. -1.
</event>
<event>
 5   0  0.1967813E-02  0.5003633E+03  0.7818609E-02  0.1013684E+00
        2   -1    0    0  501    0  0.00000000000E+00  0.00000000000E+00  0.39411936508E+03  0.39411936509E+03  0.25500000920E-02 0. -1.
       -2   -1    0    0    0  501  0.00000000000E+00  0.00000000000E+00 -0.15881190962E+03  0.15881190964E+03  0.25500000920E-02 0.  1.
    10030    2    1    2    0    0  0.00000000000E+00  0.00000000000E+00  0.23530745546E+03  0.55293127473E+03  0.50036326402E+03 0.  0.
        5    1    3    3  502    0  0.77877225702E+02  0.76618906401E+02  0.36631288346E+03  0.38228593707E+03  0.46999998093E+01 0. -1.
       -5    1    3    3    0  502 -0.77877225702E+02 -0.76618906401E+02 -0.13100542800E+03  0.17064533766E+03  0.46999998093E+01 0.  1.
</event>
<event>
 5   0  0.8012875E-03  0.5008736E+03  0.7818609E-02  0.1013551E+00
        3   -1    0    0  501    0  0.00000000000E+00  0.00000000000E+00  0.93234347095E+03  0.93234347642E+03  0.10100000352E+00 0. -1.
       -3   -1    0    0    0  501  0.00000000000E+00  0.00000000000E+00 -0.67269778263E+02  0.67269854084E+02  0.10100000352E+00 0.  1.
    10030    2    1    2    0    0  0.00000000000E+00  0.00000000000E+00  0.86507369268E+03  0.99961333050E+03  0.50087355365E+03 0.  0.
        3    1    3    3  502    0  0.24100463948E+03 -0.32549904649E+02  0.55187869495E+03  0.60308609393E+03  0.10100000352E+00 0. -1.
       -3    1    3    3    0  502 -0.24100463948E+03  0.32549904649E+02  0.31319499773E+03  0.39652723658E+03  0.10100000352E+00 0.  1.
</event>
<event>
 5   0  0.1180937E-02  0.5000983E+03  0.7818609E-02  0.1013753E+00
       -1   -1    0    0    0  501  0.00000000000E+00  0.00000000000E+00  0.60666841028E+02  0.60666841237E+02  0.50400001928E-02 0.  1.
        1   -1    0    0  501    0  0.00000000000E+00  0.00000000000E+00 -0.10306218620E+04  0.10306218621E+04  0.50400001928E-02 0. -1.
    10030    2    1    2    0    0  0.00000000000E+00  0.00000000000E+00 -0.96995502101E+03  0.10912887033E+04  0.50009828148E+03 0.  0.
        1    1    3    3  502    0  0.45443071481E+02 -0.14473566157E+03 -0.51223210334E+02  0.16011652563E+03  0.50400001928E-02 0.  1.
       -1    1    3    3    0  502 -0.45443071481E+02  0.14473566157E+03 -0.91873181068E+03  0.93117217766E+03  0.50400001928E-02 0. -1.
</event>
<event>
 5   0  0.1209831E-02  0.5004407E+03  0.7818609E-02  0.1013664E+00
       -1   -1    0    0    0  501  0.00000000000E+00  0.00000000000E+00  0.74251170601E+02  0.74251170772E+02  0.50400001928E-02 0. -1.
        1   -1    0    0  501    0  0.00000000000E+00  0.00000000000E+00 -0.84322206187E+03  0.84322206189E+03  0.50400001928E-02 0.  1.
    10030    2    1    2    0    0  0.00000000000E+00  0.00000000000E+00 -0.76897089127E+03  0.91747323266E+03  0.50044070680E+03 0.  0.
        4    1    3    3  502    0  0.22013070610E+03  0.86653304455E+02 -0.23506856309E+03  0.33350437058E+03  0.12699999809E+01 0. -1.
       -4    1    3    3    0  502 -0.22013070610E+03 -0.86653304455E+02 -0.53390232818E+03  0.58396886208E+03  0.12699999809E+01 0.  1.
</event>
<event>
 5   0  0.1225989E-02  0.5002132E+03  0.7818609E-02  0.1013723E+00
       -1   -1    0    0    0  501  0.00000000000E+00  0.00000000000E+00  0.18239340614E+03  0.18239340621E+03  0.50400001928E-02 0.  1.
        1   -1    0    0  501    0  0.00000000000E+00  0.00000000000E+00 -0.34295823434E+03  0.34295823438E+03  0.50400001928E-02 0. -1.
    10030    2    1    2    0    0  0.00000000000E+00  0.00000000000E+00 -0.16056482820E+03  0.52535164059E+03  0.50021323675E+03 0.  0.
        3    1    3    3  502    0  0.22928010295E+02  0.14824114947E+03  0.12990561763E+03  0.19843540950E+03  0.10100000352E+00 0.  1.
       -3    1    3    3    0  502 -0.22928010295E+02 -0.14824114947E+03 -0.29047044582E+03  0.32691623109E+03  0.10100000352E+00 0. -1.
</event>
<event>
 5   0  0.1941387E-02  0.5003664E+03  0.7818609E-02  0.1013683E+00
       -2   -1    0    0    0  501  0.00000000000E+00  0.00000000000E+00  0.45369397059E+02  0.45369397130E+02  0.25500000920E-02 0. -1.
        2   -1    0    0  501    0  0.00000000000E+00  0.00000000000E+00 -0.13796002168E+04  0.13796002168E+04  0.25500000920E-02 0.  1.
    10030    2    1    2    0    0  0.00000000000E+00  0.00000000000E+00 -0.13342308198E+04  0.14249696139E+04  0.50036638605E+03 0.  0.
        4    1    3    3  502    0 -0.42970431698E+02  0.26627125310E+02  0.30663961454E+02  0.59138424350E+02  0.12699999809E+01 0. -1.
       -4    1    3    3    0  502  0.42970431698E+02 -0.26627125310E+02 -0.13648947812E+04  0.13658311896E+04  0.12699999809E+01 0.  1.
</event>
<event>
 5   0  0.1855407E-02  0.5099902E+03  0.7818609E-02  0.1011204E+00
        2   -1    0    0  501    0  0.00000000000E+00  0.00000000000E+00  0.18297770693E+04  0.18297770693E+04  0.25500000920E-02 0. -1.
       -2   -1    0    0    0  501  0.00000000000E+00  0.00000000000E+00 -0.35535753767E+02  0.35535753858E+02  0.25500000920E-02 0.  1.
    10030    2    1    2    0    0  0.00000000000E+00  0.00000000000E+00  0.17942413155E+04  0.18653128232E+04  0.50999022528E+03 0.  0.
        1    1    3    3  502    0 -0.11151606464E+03 -0.16459322266E+03  0.31310608513E+03  0.37089376133E+03  0.50400001928E-02 0.  1.
       -1    1    3    3    0  502  0.11151606464E+03  0.16459322266E+03  0.14811352304E+04  0.14944190618E+04  0.50400001928E-02 0. -1.
</event>
<event>
 5   0  0.1967813E-02  0.5027585E+03  0.7818609E-02  0.1013061E+00
        2   -1    0    0  501    0  0.00000000000E+00  0.00000000000E+00  0.10891655268E+04  0.10891655268E+04  0.25500000920E-02 0.  1.
       -2   -1    0    0    0  501  0.00000000000E+00  0.00000000000E+00 -0.58018290852E+02  0.58018290908E+02  0.25500000920E-02 0. -1.
    10030    2    1    2    0    0  0.00000000000E+00  0.00000000000E+00  0.10311472360E+04  0.11471838177E+04  0.50275848021E+03 0.  0.
        5    1    3    3  502    0  0.20270380494E+03 -0.23298782062E+02  0.85044184317E+03  0.87458852290E+03  0.46999998093E+01 0.  1.
       -5    1    3    3    0  502 -0.20270380494E+03  0.23298782062E+02  0.18070539282E+03  0.27259529485E+03  0.46999998093E+01 0. -1.
</event>
<event>
 5   0  0.8012875E-03  0.4996500E+03  0.7818609E-02  0.1013870E+00
        4   -1    0    0  501    0  0.00000000000E+00  0.00000000000E+00  0.17197018155E+03  0.17197487096E+03  0.12699999809E+01 0.  1.
       -4   -1    0    0    0  501  0.00000000000E+00  0.00000000000E+00 -0.36291565132E+03  0.36291787345E+03  0.12699999809E+01 0. -1.
    10030    2    1    2    0    0  0.00000000000E+00  0.00000000000E+00 -0.19094546977E+03  0.53489274442E+03  0.49964995307E+03 0.  0.
        1    1    3    3  502    0 -0.51073134808E+02 -0.22904352723E+03 -0.18720900166E+03  0.30019429175E+03  0.50400001928E-02 0.  1.
       -1    1    3    3    0  502  0.51073134808E+02  0.22904352723E+03 -0.37364681002E+01  0.23469845267E+03  0.50400001928E-02 0. -1.
</event>
<event>
 5   0  0.8012875E-03  0.4998523E+03  0.7818609E-02  0.1013817E+00
       -3   -1    0    0    0  501  0.00000000000E+00  0.00000000000E+00  0.12925694900E+04  0.12925694939E+04  0.10100000352E+00 0. -1.
        3   -1    0    0  501    0  0.00000000000E+00  0.00000000000E+00 -0.48324680133E+02  0.48324785680E+02  0.10100000352E+00 0.  1.
    10030    2    1    2    0    0  0.00000000000E+00  0.00000000000E+00  0.12442448098E+04  0.13408942796E+04  0.49985230043E+03 0.  0.
        4    1    3    3  502    0  0.77004694082E+02  0.18788324377E+03  0.23124143577E+03  0.30774023253E+03  0.12699999809E+01 0.  1.
       -4    1    3    3    0  502 -0.77004694082E+02 -0.18788324377E+03  0.10130033741E+04  0.10331540471E+04  0.12699999809E+01 0. -1.
</event>
<event>
 5   0  0.1227864E-02  0.4995169E+03  0.7818609E-02  0.1013905E+00
       -1   -1    0    0    0  501  0.00000000000E+00  0.00000000000E+00  0.19446855335E+03  0.19446855341E+03  0.50400001928E-02 0.  1.
        1   -1    0    0  501    0  0.00000000000E+00  0.00000000000E+00 -0.32076790949E+03  0.32076790953E+03  0.50400001928E-02 0. -1.
    10030    2    1    2    0    0  0.00000000000E+00  0.00000000000E+00 -0.12629935614E+03  0.51523646294E+03  0.49951685195E+03 0.  0.
        5    1    3    3  502    0  0.36640447215E+02 -0.16188045133E+03  0.12929441272E+03  0.21044461992E+03  0.46999998093E+01 0.  1.
       -5    1    3    3    0  502 -0.36640447215E+02  0.16188045133E+03 -0.25559376886E+03  0.30479184302E+03  0.46999998093E+01 0. -1.
</event>
<event>
 5   0  0.1941387E-02  0.5003662E+03  0.7818609E-02  0.1013683E+00
       -2   -1    0    0    0  501  0.00000000000E+00  0.00000000000E+00  0.74750183926E+02  0.74750183970E+02  0.25500000920E-02 0.  1.
        2   -1    0    0  501    0  0.00000000000E+00  0.00000000000E+00 -0.83734346518E+03  0.83734346518E+03  0.25500000920E-02 0. -1.
    10030    2    1    2    0    0  0.00000000000E+00  0.00000000000E+00 -0.76259328125E+03  0.91209364915E+03  0.50036617813E+03 0.  0.
        4    1    3    3  502    0  0.88109609814E+02 -0.12090350888E+03 -0.74681831951E+03  0.76165620661E+03  0.12699999809E+01 0. -1.
       -4    1    3    3    0  502 -0.88109609814E+02  0.12090350888E+03 -0.15774961740E+02  0.15043744255E+03  0.12699999809E+01 0.  1.
</event>
<event>
 5   0  0.1225989E-02  0.5001298E+03  0.7818609E-02  0.1013745E+00
       -1   -1    0    0    0  501  0.00000000000E+00  0.00000000000E+00  0.20446880011E+03  0.20446880017E+03  0.50400001928E-02 0.  1.
        1   -1    0    0  501    0  0.00000000000E+00  0.00000000000E+00 -0.30582887807E+03  0.30582887811E+03  0.50400001928E-02 0. -1.
    10030    2    1    2    0    0  0.00000000000E+00  0.00000000000E+00 -0.10136007796E+03  0.51029767828E+03  0.50012983820E+03 0.  0.
        3    1    3    3  502    0 -0.12848777044E+03 -0.36885690395E+02  0.16495223470E+03  0.21231794847E+03  0.10100000352E+00 0.  1.
       -3    1    3    3    0  502  0.12848777044E+03  0.36885690395E+02 -0.26631231265E+03  0.29797972981E+03  0.10100000352E+00 0. -1.
</event>
<event>
 5   0  0.1941387E-02  0.5001523E+03  0.7818609E-02  0.1013739E+00
       -2   -1    0    0    0  501  0.00000000000E+00  0.00000000000E+00  0.21199228072E+03  0.21199228074E+03  0.25500000920E-02 0. -1.
        2   -1    0    0  501    0  0.00000000000E+00  0.00000000000E+00 -0.29500174750E+03  0.29500174751E+03  0.25500000920E-02 0.  1.
    10030    2    1    2    0    0  0.00000000000E+00  0.00000000000E+00 -0.83009466781E+02  0.50699402825E+03  0.50015234989E+03 0.  0.
        4    1    3    3  502    0  0.78127861298E+02 -0.59524892465E+02 -0.27462737720E+03  0.29166587861E+03  0.12699999809E+01 0.  1.
       -4    1    3    3    0  502 -0.78127861298E+02  0.59524892465E+02  0.19161791042E+03  0.21532814964E+03  0.12699999809E+01 0. -1.
</event>
<event>
 5   0  0.1180937E-02  0.4999555E+03  0.7818609E-02  0.1013791E+00
        1   -1    0    0  501    0  0.00000000000E+00  0.00000000000E+00  0.13848950631E+04  0.13848950631E+04  0.50400001928E-02 0. -1.
       -1   -1    0    0    0  501  0.00000000000E+00  0.00000000000E+00 -0.45121746556E+02  0.45121746838E+02  0.50400001928E-02 0.  1.
    10030    2    1    2    0    0  0.00000000000E+00  0.00000000000E+00  0.13397733166E+04  0.14300168100E+04  0.49995553504E+03 0.  0.
        1    1    3    3  502    0  0.81022485164E+02  0.19828028618E+03  0.10385107513E+04  0.10603698862E+04  0.50400001928E-02 0. -1.
       -1    1    3    3    0  502 -0.81022485164E+02 -0.19828028618E+03  0.30126256527E+03  0.36964692377E+03  0.50400001928E-02 0.  1.
</event>
<event>
 5   0  0.1180937E-02  0.4998273E+03  0.7818609E-02  0.1013824E+00
        1   -1    0    0  501    0  0.00000000000E+00  0.00000000000E+00  0.12894734560E+03  0.12894734570E+03  0.50400001928E-02 0. -1.
       -1   -1    0    0    0  501  0.00000000000E+00  0.00000000000E+00 -0.48435924023E+03  0.48435924026E+03  0.50400001928E-02 0.  1.
    10030    2    1    2    0    0  0.00000000000E+00  0.00000000000E+00 -0.35541189463E+03  0.61330658596E+03  0.49982732372E+03 0.  0.
        1    1    3    3  502    0  0.20789778951E+02 -0.15158772563E+03 -0.42016852241E+03  0.44716064308E+03  0.50400001928E-02 0.  1.
       -1    1    3    3    0  502 -0.20789778951E+02  0.15158772563E+03  0.64756627778E+02  0.16614594288E+03  0.50400001928E-02 0. -1.
</event>
<event>
 5   0  0.1941387E-02  0.5001035E+03  0.7818609E-02  0.1013752E+00
        2   -1    0    0  501    0  0.00000000000E+00  0.00000000000E+00  0.17477007974E+03  0.17477007975E+03  0.25500000920E-02 0.  1.
       -2   -1    0    0    0  501  0.00000000000E+00  0.00000000000E+00 -0.35776070123E+03  0.35776070124E+03  0.25500000920E-02 0. -1.
    10030    2    1    2    0    0  0.00000000000E+00  0.00000000000E+00 -0.18299062150E+03  0.53253078100E+03  0.50010345445E+03 0.  0.
        4    1    3    3  502    0 -0.27817119361E+02  0.11277423463E+03 -0.32728596319E+03  0.34728883472E+03  0.12699999809E+01 0. -1.
       -4    1    3    3    0  502  0.27817119361E+02 -0.11277423463E+03  0.14429534169E+03  0.18524194627E+03  0.12699999809E+01 0.  1.
</event>
<event>
 5   0  0.1855407E-02  0.5007634E+03  0.7818609E-02  0.1013580E+00
       -2   -1    0    0    0  501  0.00000000000E+00  0.00000000000E+00  0.15900772201E+03  0.15900772203E+03  0.25500000920E-02 0. -1.
        2   -1    0    0  501    0  0.00000000000E+00  0.00000000000E+00 -0.39426389112E+03  0.39426389113E+03  0.25500000920E-02 0.  1.
    10030    2    1    2    0    0  0.00000000000E+00  0.00000000000E+00 -0.23525616911E+03  0.55327161316E+03  0.50076343000E+03 0.  0.
        1    1    3    3  502    0  0.25135355428E+02 -0.63878436678E+02  0.14840781985E+03  0.16351489774E+03  0.50400001928E-02 0. -1.
       -1    1    3    3    0  502 -0.25135355428E+02  0.63878436678E+02 -0.38366398896E+03  0.38975671542E+03  0.50400001928E-02 0.  1.
</event>
<event>
 5   0  0.1941387E-02  0.5008367E+03  0.7818609E-02  0.1013561E+00
       -2   -1    0    0    0  501  0.00000000000E+00  0.00000000000E+00  0.29498344358E+02  0.29498344468E+02  0.25500000920E-02 0. -1.
        2   -1    0    0  501    0  0.00000000000E+00  0.00000000000E+00 -0.21258595890E+04  0.21258595890E+04  0.25500000920E-02 0.  1.
    10030    2    1    2    0    0  0.00000000000E+00  0.00000000000E+00 -0.20963612447E+04  0.21553579335E+04  0.50083665335E+03 0.  0.
        4    1    3    3  502    0 -0.50722927250E+02  0.14401362524E+03 -0.19023495557E+04  0.19084674964E+04  0.12699999809E+01 0.  1.
       -4    1    3    3    0  502  0.50722927250E+02 -0.14401362524E+03 -0.19401168896E+03  0.24689043715E+03  0.12699999809E+01 0. -1.
</event>
<event>
 5   0  0.1941387E-02  0.4997179E+03  0.7818609E-02  0.1013853E+00
       -2   -1    0    0    0  501  0.00000000000E+00  0.00000000000E+00  0.60409013149E+02  0.60409013203E+02  0.25500000920E-02 0.  1.
        2   -1    0    0  501    0  0.00000000000E+00  0.00000000000E+00 -0.10334468888E+04  0.10334468888E+04  0.25500000920E-02 0. -1.
    10030    2    1    2    0    0  0.00000000000E+00  0.00000000000E+00 -0.97303787560E+03  0.10938559020E+04  0.49971794734E+03 0.  0.
        4    1    3    3  502    0 -0.44994139420E+01  0.11227525297E+03  0.19738944905E+01  0.11238988529E+03  0.12699999809E+01 0.  1.
       -4    1    3    3    0  502  0.44994139420E+01 -0.11227525297E+03 -0.97501177009E+03  0.98146601667E+03  0.12699999809E+01 0. -1.
</event>
<event>
 5   0  0.1180937E-02  0.4997517E+03  0.7818609E-02  0.1013844E+00
       -1   -1    0    0    0  501  0.00000000000E+00  0.00000000000E+00  0.98571726845E+02  0.98571726974E+02  0.50400001928E-02 0. -1.
        1   -1    0    0  501    0  0.00000000000E+00  0.00000000000E+00 -0.63342639777E+03  0.63342639779E+03  0.50400001928E-02 0.  1.
    10030    2    1    2    0    0  0.00000000000E+00  0.00000000000E+00 -0.53485467093E+03  0.73199812477E+03  0.49975167398E+03 0.  0.
        1    1    3    3  502    0  0.17491551136E+03  0.50161822468E+02 -0.51826010219E+03  0.54927695937E+03  0.50400001928E-02 0.  1.
       -1    1    3    3    0  502 -0.17491551136E+03 -0.50161822468E+02 -0.16594568737E+02  0.18272116540E+03  0.50400001928E-02 0. -1.
</event>
<event>
 5   0  0.1225989E-02  0.4994035E+03  0.7818609E-02  0.1013935E+00
       -1   -1    0    0    0  501  0.00000000000E+00  0.00000000000E+00  0.15060408163E+03  0.15060408172E+03  0.50400001928E-02 0. -1.
        1   -1    0    0  501    0  0.00000000000E+00  0.00000000000E+00 -0.41400585288E+03  0.41400585291E+03  0.50400001928E-02 0.  1.
    10030    2    1    2    0    0  0.00000000000E+00  0.00000000000E+00 -0.26340177124E+03  0.56460993463E+03  0.49940352941E+03 0.  0.
        3    1    3    3  502    0 -0.21336876837E+03  0.84955179760E+02 -0.20885859930E+02  0.23060755241E+03  0.10100000352E+00 0. -1.
       -3    1    3    3    0  502  0.21336876837E+03 -0.84955179760E+02 -0.24251591131E+03  0.33400238221E+03  0.10100000352E+00 0.  1.
</event>
<event>
 5   0  0.1982847E-02  0.4864125E+03  0.7818609E-02  0.1017388E+00
        2   -1    0    0  501    0  0.00000000000E+00  0.00000000000E+00  0.21002366283E+03  0.21002366285E+03  0.25500000920E-02 0. -1.
       -2   -1    0    0    0  501  0.00000000000E+00  0.00000000000E+00 -0.28163149127E+03  0.28163149128E+03  0.25500000920E-02 0.  1.
    10030    2    1    2    0    0  0.00000000000E+00  0.00000000000E+00 -0.71607828437E+02  0.49165515413E+03  0.48641248903E+03 0.  0.
        2    1    3    3  502    0 -0.19669045172E+03  0.10273008130E+03  0.64811298169E+02  0.23117332844E+03  0.25500000920E-02 0. -1.
       -2    1    3    3    0  502  0.19669045172E+03 -0.10273008130E+03 -0.13641912661E+03  0.26048182569E+03  0.25500000920E-02 0.  1.
</event>
<event>
 5   0  0.8012875E-03  0.5051165E+03  0.7818609E-02  0.1012452E+00
       -3   -1    0    0    0  501  0.00000000000E+00  0.00000000000E+00  0.27063863177E+03  0.27063865062E+03  0.10100000352E+00 0.  1.
        3   -1    0    0  501    0  0.00000000000E+00  0.00000000000E+00 -0.23568572881E+03  0.23568575045E+03  0.10100000352E+00 0. -1.
    10030    2    1    2    0    0  0.00000000000E+00  0.00000000000E+00  0.34952902957E+02  0.50632440107E+03  0.50511651497E+03 0.  0.
        2    1    3    3  502    0  0.60016335103E+02 -0.22291863292E+03  0.12014694530E+03  0.26024981432E+03  0.25500000920E-02 0.  1.
       -2    1    3    3    0  502 -0.60016335103E+02  0.22291863292E+03 -0.85194042343E+02  0.24607458674E+03  0.25500000920E-02 0. -1.
</event>
<event>
 5   0  0.1217270E-02  0.4994409E+03  0.7818609E-02  0.1013925E+00
       -1   -1    0    0    0  501  0.00000000000E+00  0.00000000000E+00  0.12943050996E+03  0.12943051006E+03  0.50400001928E-02 0.  1.
        1   -1    0    0  501    0  0.00000000000E+00  0.00000000000E+00 -0.48180535385E+03  0.48180535388E+03  0.50400001928E-02 0. -1.
    10030    2    1    2    0    0  0.00000000000E+00  0.00000000000E+00 -0.35237484389E+03  0.61123586394E+03  0.49944093821E+03 0.  0.
        2    1    3    3  502    0 -0.88743674026E+02  0.93281823293E+02 -0.43805310578E+03  0.45658237124E+03  0.25500000920E-02 0. -1.
       -2    1    3    3    0  502  0.88743674026E+02 -0.93281823293E+02  0.85678261894E+02  0.15465349270E+03  0.25500000920E-02 0.  1.
</event>
<event>
 5   0  0.1217270E-02  0.5044557E+03  0.7818609E-02  0.1012622E+00
       -1   -1    0    0    0  501  0.00000000000E+00  0.00000000000E+00  0.26279595064E+02  0.26279595548E+02  0.50400001928E-02 0.  1.
        1   -1    0    0  501    0  0.00000000000E+00  0.00000000000E+00 -0.24208472989E+04  0.24208472989E+04  0.50400001928E-02 0. -1.
    10030    2    1    2    0    0  0.00000000000E+00  0.00000000000E+00 -0.23945677038E+04  0.24471268945E+04  0.50445569608E+03 0.  0.
        2    1    3    3  502    0 -0.18791237709E+03  0.16250162071E+03 -0.14087934741E+04  0.14305302831E+04  0.25500000920E-02 0. -1.
       -2    1    3    3    0  502  0.18791237709E+03 -0.16250162071E+03 -0.98577422979E+03  0.10165966114E+04  0.25500000920E-02 0.  1.
</event>
<event>
 5   0  0.1209831E-02  0.4981767E+03  0.7818609E-02  0.1014256E+00
       -1   -1    0    0    0  501  0.00000000000E+00  0.00000000000E+00  0.92587341097E+02  0.92587341235E+02  0.50400001928E-02 0.  1.
        1   -1    0    0  501    0  0.00000000000E+00  0.00000000000E+00 -0.67012400665E+03  0.67012400667E+03  0.50400001928E-02 0. -1.
    10030    2    1    2    0    0  0.00000000000E+00  0.00000000000E+00 -0.57753666555E+03  0.76271134790E+03  0.49817667565E+03 0.  0.
        4    1    3    3  502    0  0.20632482791E+03 -0.58381520214E+02 -0.94716447235E+02  0.23441662653E+03  0.12699999809E+01 0. -1.
       -4    1    3    3    0  502 -0.20632482791E+03  0.58381520214E+02 -0.48282021832E+03  0.52829472138E+03  0.12699999809E+01 0.  1.
</event>
<event>
 5   0  0.1982847E-02  0.5005268E+03  0.7818609E-02  0.1013642E+00
       -2   -1    0    0    0  501  0.00000000000E+00  0.00000000000E+00  0.13265109638E+03  0.13265109640E+03  0.25500000920E-02 0.  1.
        2   -1    0    0  501    0  0.00000000000E+00  0.00000000000E+00 -0.47215413589E+03  0.47215413590E+03  0.25500000920E-02 0. -1.
    10030    2    1    2    0    0  0.00000000000E+00  0.00000000000E+00 -0.33950303952E+03  0.60480523230E+03  0.50052677769E+03 0.  0.
        2    1    3    3  502    0 -0.17624693339E+03 -0.16981226951E+03 -0.10658683995E+03  0.26694558033E+03  0.25500000920E-02 0.  1.
       -2    1    3    3    0  502  0.17624693339E+03  0.16981226951E+03 -0.23291619956E+03  0.33785965197E+03  0.25500000920E-02 0. -1.
</event>
<event>
 5   0  0.1180937E-02  0.5005757E+03  0.7818609E-02  0.1013629E+00
       -1   -1    0    0    0  501  0.00000000000E+00  0.00000000000E+00  0.26183792491E+03  0.26183792496E+03  0.50400001928E-02 0.  1.
        1   -1    0    0  501    0  0.00000000000E+00  0.00000000000E+00 -0.23924729191E+03  0.23924729196E+03  0.50400001928E-02 0. -1.
    10030    2    1    2    0    0  0.00000000000E+00  0.00000000000E+00  0.22590632998E+02  0.50108521692E+03  0.50057572646E+03 0.  0.
        1    1    3    3  502    0  0.10599539371E+03 -0.12802648943E+03  0.19861730918E+03  0.25898772367E+03  0.50400001928E-02 0.  1.
       -1    1    3    3    0  502 -0.10599539371E+03  0.12802648943E+03 -0.17602667618E+03  0.24209749325E+03  0.50400001928E-02 0. -1.
</event>
<event>
 5   0  0.1982847E-02  0.4992395E+03  0.7818609E-02  0.1013978E+00
        2   -1    0    0  501    0  0.00000000000E+00  0.00000000000E+00  0.88334962839E+03  0.88334962839E+03  0.25500000920E-02 0. -1.
       -2   -1    0    0    0  501  0.00000000000E+00  0.00000000000E+00 -0.70538341986E+02  0.70538342032E+02  0.25500000920E-02 0.  1.
    10030    2    1    2    0    0  0.00000000000E+00  0.00000000000E+00  0.81281128640E+03  0.95388797042E+03  0.49923949445E+03 0.  0.
        2    1    3    3  502    0  0.10863204914E+01 -0.24589908342E+03  0.48841996465E+03  0.54682867627E+03  0.25500000920E-02 0. -1.
       -2    1    3    3    0  502 -0.10863204914E+01  0.24589908342E+03  0.32439132175E+03  0.40705929415E+03  0.25500000920E-02 0.  1.
</event>
<event>
 5   0  0.1982847E-02  0.5005784E+03  0.7818609E-02  0.1013628E+00
        2   -1    0    0  501    0  0.00000000000E+00  0.00000000000E+00  0.51834766061E+03  0.51834766062E+03  0.25500000920E-02 0. -1.
       -2   -1    0    0    0  501  0.00000000000E+00  0.00000000000E+00 -0.12085457767E+03  0.12085457769E+03  0.25500000920E-02 0.  1.
    10030    2    1    2    0    0  0.00000000000E+00  0.00000000000E+00  0.39749308295E+03  0.63920223831E+03  0.50057841591E+03 0.  0.
        2    1    3    3  502    0  0.18624998930E+01 -0.64239868453E+02 -0.11013912858E+03  0.12751806639E+03  0.25500000920E-02 0.  1.
       -2    1    3    3    0  502 -0.18624998930E+01  0.64239868453E+02  0.50763221153E+03  0.51168417192E+03  0.25500000920E-02 0. -1.
</event>
<event>
 5   0  0.1982847E-02  0.4992805E+03  0.7818609E-02  0.1013967E+00
        2   -1    0    0  501    0  0.00000000000E+00  0.00000000000E+00  0.52924502874E+03  0.52924502875E+03  0.25500000920E-02 0. -1.
       -2   -1    0    0    0  501  0.00000000000E+00  0.00000000000E+00 -0.11775312562E+03  0.11775312565E+03  0.25500000920E-02 0.  1.
    10030    2    1    2    0    0  0.00000000000E+00  0.00000000000E+00  0.41149190313E+03  0.64699815440E+03  0.49928050779E+03 0.  0.
        2    1    3    3  502    0 -0.19611511953E+03 -0.67374869342E+02  0.25627126393E+02  0.20894320458E+03  0.25500000920E-02 0.  1.
       -2    1    3    3    0  502  0.19611511953E+03  0.67374869342E+02  0.38586477673E+03  0.43805494981E+03  0.25500000920E-02 0. -1.
</event>
<event>
 5   0  0.1855407E-02  0.5024712E+03  0.7818609E-02  0.1013136E+00
        2   -1    0    0  501    0  0.00000000000E+00  0.00000000000E+00  0.24920453069E+04  0.24920453069E+04  0.25500000920E-02 0. -1.
       -2   -1    0    0    0  501  0.00000000000E+00  0.00000000000E+00 -0.25328320916E+02  0.25328321044E+02  0.25500000920E-02 0.  1.
    10030    2    1    2    0    0  0.00000000000E+00  0.00000000000E+00  0.24667169860E+04  0.25173736280E+04  0.50247118697E+03 0.  0.
        1    1    3    3  502    0 -0.75317445350E+02 -0.11720370055E+03  0.18592510451E+03  0.23233073302E+03  0.50400001928E-02 0.  1.
       -1    1    3    3    0  502  0.75317445350E+02  0.11720370055E+03  0.22807918815E+04  0.22850428949E+04  0.50400001928E-02 0. -1.
</event>
<event>
 5   0  0.1217270E-02  0.4995944E+03  0.7818609E-02  0.1013885E+00
        1   -1    0    0  501    0  0.00000000000E+00  0.00000000000E+00  0.21216949579E+03  0.21216949585E+03  0.50400001928E-02 0.  1.
       -1   -1    0    0    0  501  0.00000000000E+00  0.00000000000E+00 -0.29409808031E+03  0.29409808035E+03  0.50400001928E-02 0. -1.
    10030    2    1    2    0    0  0.00000000000E+00  0.00000000000E+00 -0.81928584518E+02  0.50626757620E+03  0.49959440124E+03 0.  0.
        2    1    3    3  502    0  0.39728394981E+02 -0.24040421921E+03  0.14780554185E+02  0.24411267639E+03  0.25500000920E-02 0.  1.
       -2    1    3    3    0  502 -0.39728394981E+02  0.24040421921E+03 -0.96709138703E+02  0.26215489982E+03  0.25500000920E-02 0. -1.
</event>
<event>
 5   0  0.1941387E-02  0.5012931E+03  0.7818609E-02  0.1013442E+00
        2   -1    0    0  501    0  0.00000000000E+00  0.00000000000E+00  0.42059625084E+03  0.42059625085E+03  0.25500000920E-02 0.  1.
       -2   -1    0    0    0  501  0.00000000000E+00  0.00000000000E+00 -0.14936819327E+03  0.14936819329E+03  0.25500000920E-02 0. -1.
    10030    2    1    2    0    0  0.00000000000E+00  0.00000000000E+00  0.27122805758E+03  0.56996444414E+03  0.50129313617E+03 0.  0.
        4    1    3    3  502    0 -0.17327171957E+02  0.20600010172E+03 -0.25525003122E+02  0.20830125175E+03  0.12699999809E+01 0. -1.
       -4    1    3    3    0  502  0.17327171957E+02 -0.20600010172E+03  0.29675306070E+03  0.36166319239E+03  0.12699999809E+01 0.  1.
</event>
<event>
 5   0  0.1967813E-02  0.5012204E+03  0.7818609E-02  0.1013461E+00
        2   -1    0    0  501    0  0.00000000000E+00  0.00000000000E+00  0.23684426554E+03  0.23684426555E+03  0.25500000920E-02 0. -1.
       -2   -1    0    0    0  501  0.00000000000E+00  0.00000000000E+00 -0.26517626442E+03  0.26517626444E+03  0.25500000920E-02 0.  1.
    10030    2    1    2    0    0  0.00000000000E+00  0.00000000000E+00 -0.28331998885E+02  0.50202052999E+03  0.50122042094E+03 0.  0.
        5    1    3    3  502    0  0.49948334585E+01 -0.13752066422E+03  0.19556383663E+03  0.23917396523E+03  0.46999998093E+01 0. -1.
       -5    1    3    3    0  502 -0.49948334585E+01  0.13752066422E+03 -0.22389583551E+03  0.26284656476E+03  0.46999998093E+01 0.  1.
</event>
<event>
 5   0  0.1225989E-02  0.5007651E+03  0.7818609E-02  0.1013579E+00
        1   -1    0    0  501    0  0.00000000000E+00  0.00000000000E+00  0.13732972615E+03  0.13732972625E+03  0.50400001928E-02 0. -1.
       -1   -1    0    0    0  501  0.00000000000E+00  0.00000000000E+00 -0.45650296384E+03  0.45650296387E+03  0.50400001928E-02 0.  1.
    10030    2    1    2    0    0  0.00000000000E+00  0.00000000000E+00 -0.31917323768E+03  0.59383269012E+03  0.50076512278E+03 0.  0.
        3    1    3    3  502    0  0.10508574178E+03 -0.19540036390E+03 -0.21971200470E+02  0.22295079993E+03  0.10100000352E+00 0. -1.
       -3    1    3    3    0  502 -0.10508574178E+03  0.19540036390E+03 -0.29720203722E+03  0.37088189018E+03  0.10100000352E+00 0.  1.
</event>
<event>
 5   0  0.1967813E-02  0.4999781E+03  0.7818609E-02  0.1013785E+00
       -2   -1    0    0    0  501  0.00000000000E+00  0.00000000000E+00  0.13757595461E+03  0.13757595463E+03  0.25500000920E-02 0. -1.
        2   -1    0    0  501    0  0.00000000000E+00  0.00000000000E+00 -0.45425464298E+03  0.45425464299E+03  0.25500000920E-02 0.  1.
    10030    2    1    2    0    0  0.00000000000E+00  0.00000000000E+00 -0.31667868838E+03  0.59183059762E+03  0.49997806413E+03 0.  0.
        5    1    3    3  502    0 -0.22644332330E+03  0.66959428211E+02 -0.25531920928E+03  0.34780760820E+03  0.46999998093E+01 0.  1.
       -5    1    3    3    0  502  0.22644332330E+03 -0.66959428211E+02 -0.61359479100E+02  0.24402298943E+03  0.46999998093E+01 0. -1.
</event>
<event>
 5   0  0.1225989E-02  0.4997674E+03  0.7818609E-02  0.1013840E+00
       -1   -1    0    0    0  501  0.00000000000E+00  0.00000000000E+00  0.15928982763E+03  0.15928982771E+03  0.50400001928E-02 0.  1.
        1   -1    0    0  501    0  0.00000000000E+00  0.00000000000E+00 -0.39200162967E+03  0.39200162970E+03  0.50400001928E-02 0. -1.
    10030    2    1    2    0    0  0.00000000000E+00  0.00000000000E+00 -0.23271180204E+03  0.55129145741E+03  0.49976743412E+03 0.  0.
        3    1    3    3  502    0 -0.11618097939E+03 -0.12745688565E+03 -0.31582599117E+03  0.35984627908E+03  0.10100000352E+00 0. -1.
       -3    1    3    3    0  502  0.11618097939E+03  0.12745688565E+03  0.83114189126E+02  0.19144517833E+03  0.10100000352E+00 0.  1.
</event>
<event>
 5   0  0.1923706E-02  0.4999842E+03  0.7818609E-02  0.1013783E+00
        2   -1    0    0  501    0  0.00000000000E+00  0.00000000000E+00  0.39117023975E+03  0.39117023976E+03  0.25500000920E-02 0. -1.
       -2   -1    0    0    0  501  0.00000000000E+00  0.00000000000E+00 -0.15976685535E+03  0.15976685537E+03  0.25500000920E-02 0.  1.
    10030    2    1    2    0    0  0.00000000000E+00  0.00000000000E+00  0.23140338440E+03  0.55093709514E+03  0.49998415623E+03 0.  0.
        3    1    3    3  502    0 -0.11777564154E+03 -0.54024173421E+02 -0.11987584691E+03  0.17652178882E+03  0.10100000352E+00 0.  1.
       -3    1    3    3    0  502  0.11777564154E+03  0.54024173421E+02  0.35127923131E+03  0.37441530632E+03  0.10100000352E+00 0. -1.
</event>
<event>
 5   0  0.1982847E-02  0.4999923E+03  0.7818609E-02  0.1013781E+00
       -2   -1    0    0    0  501  0.00000000000E+00  0.00000000000E+00  0.72735236439E+02  0.72735236484E+02  0.25500000920E-02 0. -1.
        2   -1    0    0  501    0  0.00000000000E+00  0.00000000000E+00 -0.85925438716E+03  0.85925438717E+03  0.25500000920E-02 0.  1.
    10030    2    1    2    0    0  0.00000000000E+00  0.00000000000E+00 -0.78651915072E+03  0.93198962365E+03  0.49999228408E+03 0.  0.
        2    1    3    3  502    0 -0.11193928545E+03  0.58659025306E+02 -0.79532738325E+03  0.80530548951E+03  0.25500000920E-02 0.  1.
       -2    1    3    3    0  502  0.11193928545E+03 -0.58659025306E+02  0.88082325303E+01  0.12668413414E+03  0.25500000920E-02 0. -1.
</event>
<event>
 5   0  0.1209831E-02  0.4999645E+03  0.7818609E-02  0.1013788E+00
       -1   -1    0    0    0  501  0.00000000000E+00  0.00000000000E+00  0.71131528390E+02  0.71131528568E+02  0.50400001928E-02 0. -1.
        1   -1    0    0  501    0  0.00000000000E+00  0.00000000000E+00 -0.87852911934E+03  0.87852911936E+03  0.50400001928E-02 0.  1.
    10030    2    1    2    0    0  0.00000000000E+00  0.00000000000E+00 -0.80739759095E+03  0.94966064793E+03  0.49996447508E+03 0.  0.
        4    1    3    3  502    0 -0.21745390533E+03  0.12330167697E+03 -0.40362045943E+03  0.47476372298E+03  0.12699999809E+01 0.  1.
       -4    1    3    3    0  502  0.21745390533E+03 -0.12330167697E+03 -0.40377713153E+03  0.47489692495E+03  0.12699999809E+01 0. -1.
</event>
<event>
 5   0  0.1180937E-02  0.4987687E+03  0.7818609E-02  0.1014101E+00
       -1   -1    0    0    0  501  0.00000000000E+00  0.00000000000E+00  0.10165977094E+03  0.10165977106E+03  0.50400001928E-02 0.  1.
        1   -1    0    0  501    0  0.00000000000E+00  0.00000000000E+00 -0.61177163020E+03  0.61177163022E+03  0.50400001928E-02 0. -1.
    10030    2    1    2    0    0  0.00000000000E+00  0.00000000000E+00 -0.51011185926E+03  0.71343140128E+03  0.49876873937E+03 0.  0.
        1    1    3    3  502    0 -0.10699398476E+03 -0.10180761012E+03 -0.54248883386E+03  0.56223361438E+03  0.50400001928E-02 0. -1.
       -1    1    3    3    0  502  0.10699398476E+03  0.10180761012E+03  0.32376974592E+02  0.15119778690E+03  0.50400001928E-02 0.  1.
</event>
<event>
 5   0  0.1941387E-02  0.5022077E+03  0.7818609E-02  0.1013204E+00
        2   -1    0    0  501    0  0.00000000000E+00  0.00000000000E+00  0.10369405801E+04  0.10369405801E+04  0.25500000920E-02 0.  1.
       -2   -1    0    0    0  501  0.00000000000E+00  0.00000000000E+00 -0.60806896785E+02  0.60806896838E+02  0.25500000920E-02 0. -1.
    10030    2    1    2    0    0  0.00000000000E+00  0.00000000000E+00  0.97613368332E+03  0.10977474769E+04  0.50220768157E+03 0.  0.
        4    1    3    3  502    0 -0.59954488873E+02 -0.98364246265E+02  0.97576701770E+03  0.98254412186E+03  0.12699999809E+01 0.  1.
       -4    1    3    3    0  502  0.59954488873E+02  0.98364246265E+02  0.36666562439E+00  0.11520335509E+03  0.12699999809E+01 0. -1.
</event>
<event>
 5   0  0.1941387E-02  0.5003060E+03  0.7818609E-02  0.1013699E+00
       -2   -1    0    0    0  501  0.00000000000E+00  0.00000000000E+00  0.28023004696E+03  0.28023004697E+03  0.25500000920E-02 0. -1.
        2   -1    0    0  501    0  0.00000000000E+00  0.00000000000E+00 -0.22330407623E+03  0.22330407624E+03  0.25500000920E-02 0.  1.
    10030    2    1    2    0    0  0.00000000000E+00  0.00000000000E+00  0.56925970729E+02  0.50353412321E+03  0.50030595349E+03 0.  0.
        4    1    3    3  502    0  0.23304680498E+03 -0.80472345643E+02 -0.14098018591E+02  0.24695541855E+03  0.12699999809E+01 0. -1.
       -4    1    3    3    0  502 -0.23304680498E+03  0.80472345643E+02  0.71023989320E+02  0.25657870466E+03  0.12699999809E+01 0.  1.
</event>
<event>
 5   0  0.1855407E-02  0.4997836E+03  0.7818609E-02  0.1013835E+00
       -2   -1    0    0    0  501  0.00000000000E+00  0.00000000000E+00  0.23596122645E+03  0.23596122647E+03  0.25500000920E-02 0.  1.
        2   -1    0    0  501    0  0.00000000000E+00  0.00000000000E+00 -0.26464478765E+03  0.26464478766E+03  0.25500000920E-02 0. -1.
    10030    2    1    2    0    0  0.00000000000E+00  0.00000000000E+00 -0.28683561193E+02  0.50060601412E+03  0.49978358786E+03 0.  0.
        1    1    3    3  502    0 -0.16371223584E+03  0.68783386904E+02 -0.19045220266E+03  0.26039372496E+03  0.50400001928E-02 0. -1.
       -1    1    3    3    0  502  0.16371223584E+03 -0.68783386904E+02  0.16176864146E+03  0.24021228916E+03  0.50400001928E-02 0.  1.
</event>
<event>
 5   0  0.1967813E-02  0.5037912E+03  0.7818609E-02  0.1012794E+00
        2   -1    0    0  501    0  0.00000000000E+00  0.00000000000E+00  0.42536786044E+03  0.42536786044E+03  0.25500000920E-02 0.  1.
       -2   -1    0    0    0  501  0.00000000000E+00  0.00000000000E+00 -0.14916830779E+03  0.14916830781E+03  0.25500000920E-02 0. -1.
    10030    2    1    2    0    0  0.00000000000E+00  0.00000000000E+00  0.27619955265E+03  0.57453616826E+03  0.50379124223E+03 0.  0.
        5    1    3    3  502    0 -0.33525910150E+02 -0.24503279754E+03  0.83833569236E+02  0.26118042777E+03  0.46999998093E+01 0. -1.
       -5    1    3    3    0  502  0.33525910150E+02  0.24503279754E+03  0.19236598341E+03  0.31335574048E+03  0.46999998093E+01 0.  1.
</event>
<event>
 5   0  0.1225989E-02  0.5000797E+03  0.7818609E-02  0.1013758E+00
       -1   -1    0    0    0  501  0.00000000000E+00  0.00000000000E+00  0.96975176594E+02  0.96975176725E+02  0.50400001928E-02 0. -1.
        1   -1    0    0  501    0  0.00000000000E+00  0.00000000000E+00 -0.64470035827E+03  0.64470035829E+03  0.50400001928E-02 0.  1.
    10030    2    1    2    0    0  0.00000000000E+00  0.00000000000E+00 -0.54772518168E+03  0.74167553502E+03  0.50007971824E+03 0.  0.
        3    1    3    3  502    0  0.24254171420E+03 -0.47431370231E+02 -0.33021514856E+03  0.41245396416E+03  0.10100000352E+00 0. -1.
       -3    1    3    3    0  502 -0.24254171420E+03  0.47431370231E+02 -0.21751003312E+03  0.32922157086E+03  0.10100000352E+00 0.  1.
</event>
<event>
 5   0  0.1180937E-02  0.4996198E+03  0.7818609E-02  0.1013878E+00
       -1   -1    0    0    0  501  0.00000000000E+00  0.00000000000E+00  0.11039668136E+03  0.11039668148E+03  0.50400001928E-02 0. -1.
        1   -1    0    0  501    0  0.00000000000E+00  0.00000000000E+00 -0.56527943461E+03  0.56527943463E+03  0.50400001928E-02 0.  1.
    10030    2    1    2    0    0  0.00000000000E+00  0.00000000000E+00 -0.45488275324E+03  0.67567611611E+03  0.49961975009E+03 0.  0.
        1    1    3    3  502    0 -0.90020902776E+02 -0.14346419528E+02  0.87100955026E+02  0.12607997098E+03  0.50400001928E-02 0. -1.
       -1    1    3    3    0  502  0.90020902776E+02  0.14346419528E+02 -0.54198370827E+03  0.54959614513E+03  0.50400001928E-02 0.  1.
</event>
<event>
 5   0  0.1982847E-02  0.5004813E+03  0.7818609E-02  0.1013653E+00
        2   -1    0    0  501    0  0.00000000000E+00  0.00000000000E+00  0.48836195733E+03  0.48836195734E+03  0.25500000920E-02 0. -1.
       -2   -1    0    0    0  501  0.00000000000E+00  0.00000000000E+00 -0.12822533479E+03  0.12822533481E+03  0.25500000920E-02 0.  1.
    10030    2    1    2    0    0  0.00000000000E+00  0.00000000000E+00  0.36013662254E+03  0.61658729215E+03  0.50048127032E+03 0.  0.
        2    1    3    3  502    0 -0.97999294805E+02 -0.95775745212E+02 -0.77895894624E+02  0.15762178009E+03  0.25500000920E-02 0.  1.
       -2    1    3    3    0  502  0.97999294805E+02  0.95775745212E+02  0.43803251717E+03  0.45896551206E+03  0.25500000920E-02 0. -1.
</event>
<event>
 5   0  0.1227864E-02  0.4994706E+03  0.7818609E-02  0.1013917E+00
       -1   -1    0    0    0  501  0.00000000000E+00  0.00000000000E+00  0.31113750954E+03  0.31113750958E+03  0.50400001928E-02 0. -1.
        1   -1    0    0  501    0  0.00000000000E+00  0.00000000000E+00 -0.20045062679E+03  0.20045062685E+03  0.50400001928E-02 0.  1.
    10030    2    1    2    0    0  0.00000000000E+00  0.00000000000E+00  0.11068688275E+03  0.51158813643E+03  0.49947055501E+03 0.  0.
        5    1    3    3  502    0 -0.70501008100E+02 -0.12679311408E+03  0.26349465040E+03  0.30082953098E+03  0.46999998093E+01 0. -1.
       -5    1    3    3    0  502  0.70501008100E+02  0.12679311408E+03 -0.15280776765E+03  0.21075860545E+03  0.46999998093E+01 0.  1.
</event>
<event>
 5   0  0.1180937E-02  0.5009117E+03  0.7818609E-02  0.1013541E+00
        1   -1    0    0  501    0  0.00000000000E+00  0.00000000000E+00  0.87899329577E+03  0.87899329578E+03  0.50400001928E-02 0.  1.
       -1   -1    0    0    0  501  0.00000000000E+00  0.00000000000E+00 -0.71363607511E+02  0.71363607689E+02  0.50400001928E-02 0. -1.
    10030    2    1    2    0    0  0.00000000000E+00  0.00000000000E+00  0.80762968826E+03  0.95035690347E+03  0.50091169943E+03 0.  0.
        1    1    3    3  502    0  0.16264862743E+03 -0.17950721574E+03  0.28306364206E+03  0.37256199751E+03  0.50400001928E-02 0. -1.
       -1    1    3    3    0  502 -0.16264862743E+03  0.17950721574E+03  0.52456604620E+03  0.57779490597E+03  0.50400001928E-02 0.  1.
</event>
<event>
 5   0  0.1217270E-02  0.4991881E+03  0.7818609E-02  0.1013991E+00
        1   -1    0    0  501    0  0.00000000000E+00  0.00000000000E+00  0.72125362068E+03  0.72125362070E+03  0.50400001928E-02 0.  1.
       -1   -1    0    0    0  501  0.00000000000E+00  0.00000000000E+00 -0.86373488622E+02  0.86373488769E+02  0.50400001928E-02 0. -1.
    10030    2    1    2    0    0  0.00000000000E+00  0.00000000000E+00  0.63488013206E+03  0.80762710947E+03  0.49918810669E+03 0.  0.
        2    1    3    3  502    0  0.10140047489E+03  0.66980950738E+02 -0.35275453436E+02  0.12654193649E+03  0.25500000920E-02 0. -1.
       -2    1    3    3    0  502 -0.10140047489E+03 -0.66980950738E+02  0.67015558550E+03  0.68108517298E+03  0.25500000920E-02 0.  1.
</event>
<event>
 5   0  0.1982847E-02  0.5002081E+03  0.7818609E-02  0.1013725E+00
        2   -1    0    0  501    0  0.00000000000E+00  0.00000000000E+00  0.47583194500E+03  0.47583194500E+03  0.25500000920E-02 0.  1.
       -2   -1    0    0    0  501  0.00000000000E+00  0.00000000000E+00 -0.13145827377E+03  0.13145827379E+03  0.25500000920E-02 0. -1.
    10030    2    1    2    0    0  0.00000000000E+00  0.00000000000E+00  0.34437367123E+03  0.60729021879E+03  0.50020814108E+03 0.  0.
        2    1    3    3  502    0 -0.13518236094E+03  0.20991899789E+03  0.18985526551E+03  0.31366427631E+03  0.25500000920E-02 0.  1.
       -2    1    3    3    0  502  0.13518236094E+03 -0.20991899789E+03  0.15451840572E+03  0.29362594248E+03  0.25500000920E-02 0. -1.
</event>
<event>
 5   0  0.1923706E-02  0.5005210E+03  0.7818609E-02  0.1013643E+00
       -2   -1    0    0    0  501  0.00000000000E+00  0.00000000000E+00  0.15068603495E+03  0.15068603498E+03  0.25500000920E-02 0.  1.
        2   -1    0    0  501    0  0.00000000000E+00  0.00000000000E+00 -0.41563447375E+03  0.41563447376E+03  0.25500000920E-02 0. -1.
    10030    2    1    2    0    0  0.00000000000E+00  0.00000000000E+00 -0.26494843880E+03  0.56632050874E+03  0.50052097198E+03 0.  0.
        3    1    3    3  502    0  0.35093061355E+02 -0.61915214459E+02  0.13899483843E+03  0.15615566608E+03  0.10100000352E+00 0.  1.
       -3    1    3    3    0  502 -0.35093061355E+02  0.61915214459E+02 -0.40394327723E+03  0.41016484266E+03  0.10100000352E+00 0. -1.
</event>
<event>
 5   0  0.1227864E-02  0.5003285E+03  0.7818609E-02  0.1013693E+00
        1   -1    0    0  501    0  0.00000000000E+00  0.00000000000E+00  0.90962195540E+03  0.90962195541E+03  0.50400001928E-02 0. -1.
       -1   -1    0    0    0  501  0.00000000000E+00  0.00000000000E+00 -0.68800186350E+02  0.68800186535E+02  0.50400001928E-02 0.  1.
    10030    2    1    2    0    0  0.00000000000E+00  0.00000000000E+00  0.84082176905E+03  0.97842214195E+03  0.50032853261E+03 0.  0.
        5    1    3    3  502    0 -0.16322770050E+03  0.73865175324E+02  0.76171467481E+03  0.78251561145E+03  0.46999998093E+01 0. -1.
       -5    1    3    3    0  502  0.16322770050E+03 -0.73865175324E+02  0.79107094232E+02  0.19590653050E+03  0.46999998093E+01 0.  1.
</event>
<event>
 5   0  0.1180937E-02  0.4993486E+03  0.7818609E-02  0.1013949E+00
       -1   -1    0    0    0  501  0.00000000000E+00  0.00000000000E+00  0.43749167919E+02  0.43749168209E+02  0.50400001928E-02 0. -1.
        1   -1    0    0  501    0  0.00000000000E+00  0.00000000000E+00 -0.14248786655E+04  0.14248786655E+04  0.50400001928E-02 0.  1.
    10030    2    1    2    0    0  0.00000000000E+00  0.00000000000E+00 -0.13811294975E+04  0.14686278337E+04  0.49934860055E+03 0.  0.
        1    1    3    3  502    0 -0.10178040001E+03 -0.22152669046E+03 -0.84905447763E+03  0.88336109855E+03  0.50400001928E-02 0. -1.
       -1    1    3    3    0  502  0.10178040001E+03  0.22152669046E+03 -0.53207501990E+03  0.58526673512E+03  0.50400001928E-02 0.  1.
</event>
<event>
 5   0  0.1225989E-02  0.5000515E+03  0.7818609E-02  0.1013765E+00
       -1   -1    0    0    0  501  0.00000000000E+00  0.00000000000E+00  0.12023354470E+03  0.12023354480E+03  0.50400001928E-02 0. -1.
        1   -1    0    0  501    0  0.00000000000E+00  0.00000000000E+00 -0.51992870112E+03  0.51992870114E+03  0.50400001928E-02 0.  1.
    10030    2    1    2    0    0  0.00000000000E+00  0.00000000000E+00 -0.39969515642E+03  0.64016224595E+03  0.50005148042E+03 0.  0.
        3    1    3    3  502    0 -0.15028607736E+03  0.16043731243E+03 -0.35232935202E+03  0.41528546659E+03  0.10100000352E+00 0.  1.
       -3    1    3    3    0  502  0.15028607736E+03 -0.16043731243E+03 -0.47365804403E+02  0.22487677936E+03  0.10100000352E+00 0. -1.
</event>
<event>
 5   0  0.1967813E-02  0.5003586E+03  0.7818609E-02  0.1013685E+00
       -2   -1    0    0    0  501  0.00000000000E+00  0.00000000000E+00  0.11010470226E+03  0.11010470229E+03  0.25500000920E-02 0. -1.
        2   -1    0    0  501    0  0.00000000000E+00  0.00000000000E+00 -0.56845596751E+03  0.56845596752E+03  0.25500000920E-02 0.  1.
    10030    2    1    2    0    0  0.00000000000E+00  0.00000000000E+00 -0.45835126525E+03  0.67856066981E+03  0.50035857169E+03 0.  0.
        5    1    3    3  502    0  0.21189132414E+03 -0.12510852626E+03 -0.16826192645E+03  0.29813460463E+03  0.46999998093E+01 0.  1.
       -5    1    3    3    0  502 -0.21189132414E+03  0.12510852626E+03 -0.29008933880E+03  0.38042606518E+03  0.46999998093E+01 0. -1.
</event>
<event>
 5   0  0.1227864E-02  0.4997928E+03  0.7818609E-02  0.1013833E+00
       -1   -1    0    0    0  501  0.00000000000E+00  0.00000000000E+00  0.20318297517E+03  0.20318297524E+03  0.50400001928E-02 0.  1.
        1   -1    0    0  501    0  0.00000000000E+00  0.00000000000E+00 -0.30734967369E+03  0.30734967373E+03  0.50400001928E-02 0. -1.
    10030    2    1    2    0    0  0.00000000000E+00  0.00000000000E+00 -0.10416669852E+03  0.51053264897E+03  0.49979284167E+03 0.  0.
        5    1    3    3  502    0 -0.22005596246E+03 -0.11814894269E+03 -0.45437243738E+02  0.25391028414E+03  0.46999998093E+01 0.  1.
       -5    1    3    3    0  502  0.22005596246E+03  0.11814894269E+03 -0.58729454780E+02  0.25662236483E+03  0.46999998093E+01 0. -1.
</event>
<event>
 5   0  0.1982847E-02  0.5002516E+03  0.7818609E-02  0.1013713E+00
       -2   -1    0    0    0  501  0.00000000000E+00  0.00000000000E+00  0.10095067869E+03  0.10095067873E+03  0.25500000920E-02 0.  1.
        2   -1    0    0  501    0  0.00000000000E+00  0.00000000000E+00 -0.61973735565E+03  0.61973735566E+03  0.25500000920E-02 0. -1.
    10030    2    1    2    0    0  0.00000000000E+00  0.00000000000E+00 -0.51878667696E+03  0.72068803438E+03  0.50025156343E+03 0.  0.
        2    1    3    3  502    0  0.21961939472E+03 -0.11259506120E+03 -0.31795860798E+03  0.40250217731E+03  0.25500000920E-02 0.  1.
       -2    1    3    3    0  502 -0.21961939472E+03  0.11259506120E+03 -0.20082806898E+03  0.31818585707E+03  0.25500000920E-02 0. -1.
</event>
<event>
 5   0  0.1982847E-02  0.4982239E+03  0.7818609E-02  0.1014244E+00
       -2   -1    0    0    0  501  0.00000000000E+00  0.00000000000E+00  0.27308479777E+03  0.27308479778E+03  0.25500000920E-02 0.  1.
        2   -1    0    0  501    0  0.00000000000E+00  0.00000000000E+00 -0.22724355542E+03  0.22724355543E+03  0.25500000920E-02 0. -1.
    10030    2    1    2    0    0  0.00000000000E+00  0.00000000000E+00  0.45841242349E+02  0.50032835321E+03  0.49822388695E+03 0.  0.
        2    1    3    3  502    0 -0.30680090649E+02  0.13403755950E+03  0.23152243279E+03  0.26927675765E+03  0.25500000920E-02 0.  1.
       -2    1    3    3    0  502  0.30680090649E+02 -0.13403755950E+03 -0.18568119044E+03  0.23105159556E+03  0.25500000920E-02 0. -1.
</event>
<event>
 5   0  0.1967813E-02  0.5005409E+03  0.7818609E-02  0.1013638E+00
        2   -1    0    0  501    0  0.00000000000E+00  0.00000000000E+00  0.48669867576E+03  0.48669867576E+03  0.25500000920E-02 0. -1.
       -2   -1    0    0    0  501  0.00000000000E+00  0.00000000000E+00 -0.12869419503E+03  0.12869419505E+03  0.25500000920E-02 0.  1.
    10030    2    1    2    0    0  0.00000000000E+00  0.00000000000E+00  0.35800448073E+03  0.61539287082E+03  0.50054088467E+03 0.  0.
        5    1    3    3  502    0 -0.84270723126E+02 -0.13960000590E+03 -0.54346673554E+02  0.17194582679E+03  0.46999998093E+01 0.  1.
       -5    1    3    3    0  502  0.84270723126E+02  0.13960000590E+03  0.41235115428E+03  0.44344704403E+03  0.46999998093E+01 0. -1.
</event>
<event>
 5   0  0.1855407E-02  0.4991715E+03  0.7818609E-02  0.1013995E+00
        2   -1    0    0  501    0  0.00000000000E+00  0.00000000000E+00  0.84254563305E+03  0.84254563305E+03  0.25500000920E-02 0.  1.
       -2   -1    0    0    0  501  0.00000000000E+00  0.00000000000E+00 -0.73934322544E+02  0.73934322587E+02  0.25500000920E-02 0. -1.
    10030    2    1    2    0    0  0.00000000000E+00  0.00000000000E+00  0.76861131051E+03  0.91647995564E+03  0.49917147600E+03 0.  0.
        1    1    3    3  502    0 -0.17298255152E+03  0.17391039449E+03  0.29966511200E+03  0.38725568791E+03  0.50400001928E-02 0. -1.
       -1    1    3    3    0  502  0.17298255152E+03 -0.17391039449E+03  0.46894619851E+03  0.52922426773E+03  0.50400001928E-02 0.  1.
</event>
<event>
 5   0  0.1982847E-02  0.4996250E+03  0.7818609E-02  0.1013877E+00
       -2   -1    0    0    0  501  0.00000000000E+00  0.00000000000E+00  0.14039907752E+03  0.14039907754E+03  0.25500000920E-02 0.  1.
        2   -1    0    0  501    0  0.00000000000E+00  0.00000000000E+00 -0.44449218594E+03  0.44449218594E+03  0.25500000920E-02 0. -1.
    10030    2    1    2    0    0  0.00000000000E+00  0.00000000000E+00 -0.30409310842E+03  0.58489126348E+03  0.49962503091E+03 0.  0.
        2    1    3    3  502    0 -0.46021204468E+02  0.22546988909E+03 -0.26585781589E+03  0.35161769072E+03  0.25500000920E-02 0. -1.
       -2    1    3    3    0  502  0.46021204468E+02 -0.22546988909E+03 -0.38235292530E+02  0.23327357276E+03  0.25500000920E-02 0.  1.
</event>
<event>
 5   0  0.1855407E-02  0.5000058E+03  0.7818609E-02  0.1013777E+00
        2   -1    0    0  501    0  0.00000000000E+00  0.00000000000E+00  0.38400045346E+03  0.38400045347E+03  0.25500000920E-02 0. -1.
       -2   -1    0    0    0  501  0.00000000000E+00  0.00000000000E+00 -0.16276399558E+03  0.16276399560E+03  0.25500000920E-02 0.  1.
    10030    2    1    2    0    0  0.00000000000E+00  0.00000000000E+00  0.22123645788E+03  0.54676444908E+03  0.50000579245E+03 0.  0.
        1    1    3    3  502    0  0.10220439755E+03  0.17804696889E+03 -0.45394717186E+02  0.21025494616E+03  0.50400001928E-02 0.  1.
       -1    1    3    3    0  502 -0.10220439755E+03 -0.17804696889E+03  0.26663117507E+03  0.33650950292E+03  0.50400001928E-02 0. -1.
</event>
<event>
 5   0  0.1217270E-02  0.5023338E+03  0.7818609E-02  0.1013172E+00
       -1   -1    0    0    0  501  0.00000000000E+00  0.00000000000E+00  0.68662774994E+02  0.68662775179E+02  0.50400001928E-02 0.  1.
        1   -1    0    0  501    0  0.00000000000E+00  0.00000000000E+00 -0.91876294661E+03  0.91876294662E+03  0.50400001928E-02 0. -1.
    10030    2    1    2    0    0  0.00000000000E+00  0.00000000000E+00 -0.85010017161E+03  0.98742572180E+03  0.50233380764E+03 0.  0.
        2    1    3    3  502    0 -0.12919087344E+03 -0.45120754852E+02 -0.11049281243E+02  0.13728893226E+03  0.25500000920E-02 0.  1.
       -2    1    3    3    0  502  0.12919087344E+03  0.45120754852E+02 -0.83905089037E+03  0.85013678954E+03  0.25500000920E-02 0. -1.
</event>
<event>
 5   0  0.1209831E-02  0.4996015E+03  0.7818609E-02  0.1013883E+00
        1   -1    0    0  501    0  0.00000000000E+00  0.00000000000E+00  0.60035382170E+03  0.60035382172E+03  0.50400001928E-02 0.  1.
       -1   -1    0    0    0  501  0.00000000000E+00  0.00000000000E+00 -0.10393941246E+03  0.10393941258E+03  0.50400001928E-02 0. -1.
    10030    2    1    2    0    0  0.00000000000E+00  0.00000000000E+00  0.49641440924E+03  0.70429323430E+03  0.49960153541E+03 0.  0.
        4    1    3    3  502    0  0.13831364045E+03 -0.17668621439E+03  0.40295540350E+03  0.46121941806E+03  0.12699999809E+01 0.  1.
       -4    1    3    3    0  502 -0.13831364045E+03  0.17668621439E+03  0.93459005739E+02  0.24307381624E+03  0.12699999809E+01 0. -1.
</event>
<event>
 5   0  0.8012875E-03  0.4993474E+03  0.7818609E-02  0.1013949E+00
       -3   -1    0    0    0  501  0.00000000000E+00  0.00000000000E+00  0.81220085572E+02  0.81220148370E+02  0.10100000352E+00 0. -1.
        3   -1    0    0  501    0  0.00000000000E+00  0.00000000000E+00 -0.76750618526E+03  0.76750619190E+03  0.10100000352E+00 0.  1.
    10030    2    1    2    0    0  0.00000000000E+00  0.00000000000E+00 -0.68628609969E+03  0.84872634027E+03  0.49934736412E+03 0.  0.
        5    1    3    3  502    0  0.78693758870E+02  0.23412836211E+03 -0.40456823360E+03  0.47403200658E+03  0.46999998093E+01 0. -1.
       -5    1    3    3    0  502 -0.78693758870E+02 -0.23412836211E+03 -0.28171786608E+03  0.37469433369E+03  0.46999998093E+01 0.  1.
</event>
<event>
 5   0  0.1209831E-02  0.4958446E+03  0.7818609E-02  0.1014869E+00
       -1   -1    0    0    0  501  0.00000000000E+00  0.00000000000E+00  0.50688557714E+03  0.50688557716E+03  0.50400001928E-02 0. -1.
        1   -1    0    0  501    0  0.00000000000E+00  0.00000000000E+00 -0.12126103371E+03  0.12126103382E+03  0.50400001928E-02 0.  1.
    10030    2    1    2    0    0  0.00000000000E+00  0.00000000000E+00  0.38562454343E+03  0.62814661098E+03  0.49584460912E+03 0.  0.
        4    1    3    3  502    0 -0.78316097626E+02 -0.83268157525E+02 -0.85879414514E+02  0.14298211057E+03  0.12699999809E+01 0.  1.
       -4    1    3    3    0  502  0.78316097626E+02  0.83268157525E+02  0.47150395794E+03  0.48516450041E+03  0.12699999809E+01 0. -1.
</event>
<event>
 5   0  0.8012875E-03  0.5002020E+03  0.7818609E-02  0.1013726E+00
        3   -1    0    0  501    0  0.00000000000E+00  0.00000000000E+00  0.28496059127E+03  0.28496060917E+03  0.10100000352E+00 0.  1.
       -3   -1    0    0    0  501  0.00000000000E+00  0.00000000000E+00 -0.21950580961E+03  0.21950583285E+03  0.10100000352E+00 0. -1.
    10030    2    1    2    0    0  0.00000000000E+00  0.00000000000E+00  0.65454781655E+02  0.50446644202E+03  0.50020202187E+03 0.  0.
        5    1    3    3  502    0  0.13326913307E+03 -0.24666547096E+02  0.24466013096E+03  0.27973160361E+03  0.46999998093E+01 0.  1.
       -5    1    3    3    0  502 -0.13326913307E+03  0.24666547096E+02 -0.17920534931E+03  0.22473483841E+03  0.46999998093E+01 0. -1.
</event>
<event>
 5   0  0.1941387E-02  0.4998058E+03  0.7818609E-02  0.1013830E+00
        2   -1    0    0  501    0  0.00000000000E+00  0.00000000000E+00  0.22292981372E+03  0.22292981374E+03  0.25500000920E-02 0. -1.
       -2   -1    0    0    0  501  0.00000000000E+00  0.00000000000E+00 -0.28013950552E+03  0.28013950553E+03  0.25500000920E-02 0.  1.
    10030    2    1    2    0    0  0.00000000000E+00  0.00000000000E+00 -0.57209691792E+02  0.50306931927E+03  0.49980575342E+03 0.  0.
        4    1    3    3  502    0 -0.13636028730E+03  0.73856196278E+02 -0.22584606290E+03  0.27396518521E+03  0.12699999809E+01 0.  1.
       -4    1    3    3    0  502  0.13636028730E+03 -0.73856196278E+02  0.16863637111E+03  0.22910413406E+03  0.12699999809E+01 0. -1.
</event>
<event>
 5   0  0.1227864E-02  0.5001190E+03  0.7818609E-02  0.1013748E+00
       -1   -1    0    0    0  501  0.00000000000E+00  0.00000000000E+00  0.12354098475E+03  0.12354098485E+03  0.50400001928E-02 0. -1.
        1   -1    0    0  501    0  0.00000000000E+00  0.00000000000E+00 -0.50614588338E+03  0.50614588341E+03  0.50400001928E-02 0.  1.
    10030    2    1    2    0    0  0.00000000000E+00  0.00000000000E+00 -0.38260489864E+03  0.62968686826E+03  0.50011902943E+03 0.  0.
        5    1    3    3  502    0  0.15770039634E+03  0.77554558543E+02 -0.41520371179E+03  0.45088838623E+03  0.46999998093E+01 0.  1.
       -5    1    3    3    0  502 -0.15770039634E+03 -0.77554558543E+02  0.32598813154E+02  0.17879848202E+03  0.46999998093E+01 0. -1.
</event>
<event>
 5   0  0.8012875E-03  0.4996250E+03  0.7818609E-02  0.1013877E+00
       -4   -1    0    0    0  501  0.00000000000E+00  0.00000000000E+00  0.27681835598E+03  0.27682126924E+03  0.12699999809E+01 0. -1.
        4   -1    0    0  501    0  0.00000000000E+00  0.00000000000E+00 -0.22543536641E+03  0.22543894368E+03  0.12699999809E+01 0.  1.
    10030    2    1    2    0    0  0.00000000000E+00  0.00000000000E+00  0.51382989573E+02  0.50226021292E+03  0.49962496922E+03 0.  0.
        5    1    3    3  502    0  0.90376937683E+02 -0.11659925870E+03 -0.17691759649E+03  0.23040248250E+03  0.46999998093E+01 0.  1.
       -5    1    3    3    0  502 -0.90376937683E+02  0.11659925870E+03  0.22830058606E+03  0.27185773042E+03  0.46999998093E+01 0. -1.
</event>
<event>
 5   0  0.1209831E-02  0.4998152E+03  0.7818609E-02  0.1013827E+00
        1   -1    0    0  501    0  0.00000000000E+00  0.00000000000E+00  0.23501632468E+03  0.23501632473E+03  0.50400001928E-02 0.  1.
       -1   -1    0    0    0  501  0.00000000000E+00  0.00000000000E+00 -0.26574241809E+03  0.26574241814E+03  0.50400001928E-02 0. -1.
    10030    2    1    2    0    0  0.00000000000E+00  0.00000000000E+00 -0.30726093413E+02  0.50075874288E+03  0.49981519160E+03 0.  0.
        4    1    3    3  502    0  0.36912570846E+02 -0.18242795502E+03  0.15171416388E+03  0.24012766829E+03  0.12699999809E+01 0.  1.
       -4    1    3    3    0  502 -0.36912570846E+02  0.18242795502E+03 -0.18244025729E+03  0.26063107458E+03  0.12699999809E+01 0. -1.
</event>
<event>
 5   0  0.1209831E-02  0.5010026E+03  0.7818609E-02  0.1013518E+00
        1   -1    0    0  501    0  0.00000000000E+00  0.00000000000E+00  0.23014899047E+03  0.23014899052E+03  0.50400001928E-02 0.  1.
       -1   -1    0    0    0  501  0.00000000000E+00  0.00000000000E+00 -0.27265337810E+03  0.27265337815E+03  0.50400001928E-02 0. -1.
    10030    2    1    2    0    0  0.00000000000E+00  0.00000000000E+00 -0.42504387631E+02  0.50280236867E+03  0.50100259378E+03 0.  0.
        4    1    3    3  502    0 -0.14228850243E+03  0.12338419235E+03  0.14450653947E+03  0.23738877331E+03  0.12699999809E+01 0.  1.
       -4    1    3    3    0  502  0.14228850243E+03 -0.12338419235E+03 -0.18701092710E+03  0.26541359536E+03  0.12699999809E+01 0. -1.
</event>
<event>
 5   0  0.1923706E-02  0.4997561E+03  0.7818609E-02  0.1013843E+00
       -2   -1    0    0    0  501  0.00000000000E+00  0.00000000000E+00  0.31939668957E+03  0.31939668958E+03  0.25500000920E-02 0. -1.
        2   -1    0    0  501    0  0.00000000000E+00  0.00000000000E+00 -0.19549054382E+03  0.19549054384E+03  0.25500000920E-02 0.  1.
    10030    2    1    2    0    0  0.00000000000E+00  0.00000000000E+00  0.12390614575E+03  0.51488723342E+03  0.49975607068E+03 0.  0.
        3    1    3    3  502    0 -0.74073298951E+02 -0.21948992628E+03  0.15847162304E+03  0.28067053081E+03  0.10100000352E+00 0. -1.
       -3    1    3    3    0  502  0.74073298951E+02  0.21948992628E+03 -0.34565477285E+02  0.23421670260E+03  0.10100000352E+00 0.  1.
</event>
<event>
 5   0  0.1217270E-02  0.5006459E+03  0.7818609E-02  0.1013610E+00
       -1   -1    0    0    0  501  0.00000000000E+00  0.00000000000E+00  0.90464960024E+02  0.90464960164E+02  0.50400001928E-02 0. -1.
        1   -1    0    0  501    0  0.00000000000E+00  0.00000000000E+00 -0.69266140785E+03  0.69266140787E+03  0.50400001928E-02 0.  1.
    10030    2    1    2    0    0  0.00000000000E+00  0.00000000000E+00 -0.60219644782E+03  0.78312636803E+03  0.50064592931E+03 0.  0.
        2    1    3    3  502    0 -0.17646414809E+03 -0.58380328243E+02 -0.38821119900E+02  0.18988137782E+03  0.25500000920E-02 0. -1.
       -2    1    3    3    0  502  0.17646414809E+03  0.58380328243E+02 -0.56337532792E+03  0.59324499021E+03  0.25500000920E-02 0.  1.
</event>
<event>
 5   0  0.1923706E-02  0.5071411E+03  0.7818609E-02  0.1011932E+00
       -2   -1    0    0    0  501  0.00000000000E+00  0.00000000000E+00  0.10028245258E+03  0.10028245261E+03  0.25500000920E-02 0.  1.
        2   -1    0    0  501    0  0.00000000000E+00  0.00000000000E+00 -0.64116920294E+03  0.64116920295E+03  0.25500000920E-02 0. -1.
    10030    2    1    2    0    0  0.00000000000E+00  0.00000000000E+00 -0.54088675036E+03  0.74145165556E+03  0.50714108571E+03 0.  0.
        3    1    3    3  502    0 -0.82053445821E+02 -0.23026691307E+03 -0.36897968409E+03  0.44260776845E+03  0.10100000352E+00 0. -1.
       -3    1    3    3    0  502  0.82053445821E+02  0.23026691307E+03 -0.17190706628E+03  0.29884388711E+03  0.10100000352E+00 0.  1.
</event>
<event>
 5   0  0.1227864E-02  0.5004227E+03  0.7818609E-02  0.1013669E+00
        1   -1    0    0  501    0  0.00000000000E+00  0.00000000000E+00  0.55124738280E+03  0.55124738282E+03  0.50400001928E-02 0.  1.
       -1   -1    0    0    0  501  0.00000000000E+00  0.00000000000E+00 -0.11357099303E+03  0.11357099314E+03  0.50400001928E-02 0. -1.
    10030    2    1    2    0    0  0.00000000000E+00  0.00000000000E+00  0.43767638977E+03  0.66481837596E+03  0.50042267220E+03 0.  0.
        5    1    3    3  502    0 -0.50525833967E+02  0.24225966107E+03  0.26748827652E+03  0.36443747249E+03  0.46999998093E+01 0.  1.
       -5    1    3    3    0  502  0.50525833967E+02 -0.24225966107E+03  0.17018811325E+03  0.30038090347E+03  0.46999998093E+01 0. -1.
</event>
<event>
 5   0  0.1923706E-02  0.5000846E+03  0.7818609E-02  0.1013757E+00
        2   -1    0    0  501    0  0.00000000000E+00  0.00000000000E+00  0.42676067170E+03  0.42676067171E+03  0.25500000920E-02 0. -1.
       -2   -1    0    0    0  501  0.00000000000E+00  0.00000000000E+00 -0.14650167677E+03  0.14650167680E+03  0.25500000920E-02 0.  1.
    10030    2    1    2    0    0  0.00000000000E+00  0.00000000000E+00  0.28025899493E+03  0.57326234850E+03  0.50008460881E+03 0.  0.
        3    1    3    3  502    0  0.24305634389E+02 -0.22837711899E+03  0.25346138661E+03  0.34203736206E+03  0.10100000352E+00 0. -1.
       -3    1    3    3    0  502 -0.24305634389E+02  0.22837711899E+03  0.26797608319E+02  0.23122498644E+03  0.10100000352E+00 0.  1.
</event>
<event>
 5   0  0.1180937E-02  0.5007075E+03  0.7818609E-02  0.1013594E+00
       -1   -1    0    0    0  501  0.00000000000E+00  0.00000000000E+00  0.10824235787E+03  0.10824235798E+03  0.50400001928E-02 0.  1.
        1   -1    0    0  501    0  0.00000000000E+00  0.00000000000E+00 -0.57904313472E+03  0.57904313475E+03  0.50400001928E-02 0. -1.
    10030    2    1    2    0    0  0.00000000000E+00  0.00000000000E+00 -0.47080077686E+03  0.68728549273E+03  0.50070747650E+03 0.  0.
        1    1    3    3  502    0  0.18082071016E+03 -0.10596123882E+03 -0.47430010792E+02  0.21488024409E+03  0.50400001928E-02 0.  1.
       -1    1    3    3    0  502 -0.18082071016E+03  0.10596123882E+03 -0.42337076607E+03  0.47240524863E+03  0.50400001928E-02 0. -1.
</event>
<event>
 5   0  0.1225989E-02  0.5003590E+03  0.7818609E-02  0.1013685E+00
       -1   -1    0    0    0  501  0.00000000000E+00  0.00000000000E+00  0.81602011726E+02  0.81602011882E+02  0.50400001928E-02 0.  1.
        1   -1    0    0  501    0  0.00000000000E+00  0.00000000000E+00 -0.76701273672E+03  0.76701273673E+03  0.50400001928E-02 0. -1.
    10030    2    1    2    0    0  0.00000000000E+00  0.00000000000E+00 -0.68541072499E+03  0.84861474861E+03  0.50035900075E+03 0.  0.
        3    1    3    3  502    0  0.45610632105E+02 -0.54812172457E+02 -0.74941261812E+03  0.75279744049E+03  0.10100000352E+00 0. -1.
       -3    1    3    3    0  502 -0.45610632105E+02  0.54812172457E+02  0.64001893131E+02  0.95817308123E+02  0.10100000352E+00 0.  1.
</event>
<event>
 5   0  0.1923706E-02  0.5023472E+03  0.7818609E-02  0.1013168E+00
       -2   -1    0    0    0  501  0.00000000000E+00  0.00000000000E+00  0.79884614177E+02  0.79884614218E+02  0.25500000920E-02 0.  1.
        2   -1    0    0  501    0  0.00000000000E+00  0.00000000000E+00 -0.78974119753E+03  0.78974119754E+03  0.25500000920E-02 0. -1.
    10030    2    1    2    0    0  0.00000000000E+00  0.00000000000E+00 -0.70985658336E+03  0.86962581175E+03  0.50234717431E+03 0.  0.
        3    1    3    3  502    0 -0.16741630103E+03 -0.94453697524E+02 -0.75050585635E+02  0.20635483864E+03  0.10100000352E+00 0.  1.
       -3    1    3    3    0  502  0.16741630103E+03  0.94453697524E+02 -0.63480599772E+03  0.66327097311E+03  0.10100000352E+00 0. -1.
</event>
<event>
 5   0  0.1180937E-02  0.5004469E+03  0.7818609E-02  0.1013662E+00
        1   -1    0    0  501    0  0.00000000000E+00  0.00000000000E+00  0.83505213279E+03  0.83505213281E+03  0.50400001928E-02 0. -1.
       -1   -1    0    0    0  501  0.00000000000E+00  0.00000000000E+00 -0.74979493404E+02  0.74979493573E+02  0.50400001928E-02 0.  1.
    10030    2    1    2    0    0  0.00000000000E+00  0.00000000000E+00  0.76007263939E+03  0.91003162638E+03  0.50044694411E+03 0.  0.
        1    1    3    3  502    0  0.15554127862E+03  0.18302463344E+03  0.25247734736E+03  0.34847656558E+03  0.50400001928E-02 0.  1.
       -1    1    3    3    0  502 -0.15554127862E+03 -0.18302463344E+03  0.50759529203E+03  0.56155506080E+03  0.50400001928E-02 0. -1.
</event>
<event>
 5   0  0.1217270E-02  0.4982069E+03  0.7818609E-02  0.1014248E+00
       -1   -1    0    0    0  501  0.00000000000E+00  0.00000000000E+00  0.67676680888E+03  0.67676680890E+03  0.50400001928E-02 0.  1.
        1   -1    0    0  501    0  0.00000000000E+00  0.00000000000E+00 -0.91689657072E+02  0.91689657211E+02  0.50400001928E-02 0. -1.
    10030    2    1    2    0    0  0.00000000000E+00  0.00000000000E+00  0.58507715181E+03  0.76845646611E+03  0.49820685136E+03 0.  0.
        2    1    3    3  502    0  0.14075864583E+03 -0.16953584692E+03  0.11334184666E+03  0.24779381343E+03  0.25500000920E-02 0. -1.
       -2    1    3    3    0  502 -0.14075864583E+03  0.16953584692E+03  0.47173530515E+03  0.52066265268E+03  0.25500000920E-02 0.  1.
</event>
<event>
 5   0  0.1982847E-02  0.5005421E+03  0.7818609E-02  0.1013638E+00
        2   -1    0    0  501    0  0.00000000000E+00  0.00000000000E+00  0.64776086675E+03  0.64776086675E+03  0.25500000920E-02 0.  1.
       -2   -1    0    0    0  501  0.00000000000E+00  0.00000000000E+00 -0.96695541746E+02  0.96695541780E+02  0.25500000920E-02 0. -1.
    10030    2    1    2    0    0  0.00000000000E+00  0.00000000000E+00  0.55106532500E+03  0.74445640853E+03  0.50054205796E+03 0.  0.
        2    1    3    3  502    0 -0.34297467605E+02  0.24082749706E+03  0.18802947777E+03  0.30745614995E+03  0.25500000920E-02 0. -1.
       -2    1    3    3    0  502  0.34297467605E+02 -0.24082749706E+03  0.36303584723E+03  0.43700025858E+03  0.25500000920E-02 0.  1.
</event>
<event>
 5   0  0.1982847E-02  0.4993411E+03  0.7818609E-02  0.1013951E+00
       -2   -1    0    0    0  501  0.00000000000E+00  0.00000000000E+00  0.92227125415E+02  0.92227125450E+02  0.25500000920E-02 0.  1.
        2   -1    0    0  501    0  0.00000000000E+00  0.00000000000E+00 -0.67589001229E+03  0.67589001229E+03  0.25500000920E-02 0. -1.
    10030    2    1    2    0    0  0.00000000000E+00  0.00000000000E+00 -0.58366288687E+03  0.76811713774E+03  0.49934113768E+03 0.  0.
        2    1    3    3  502    0 -0.54879058955E+02 -0.22225649556E+03 -0.44508528903E+03  0.50051031503E+03  0.25500000920E-02 0. -1.
       -2    1    3    3    0  502  0.54879058955E+02  0.22225649556E+03 -0.13857759784E+03  0.26760682271E+03  0.25500000920E-02 0.  1.
</event>
<event>
 5   0  0.1941387E-02  0.5002949E+03  0.7818609E-02  0.1013702E+00
       -2   -1    0    0    0  501  0.00000000000E+00  0.00000000000E+00  0.76203840416E+02  0.76203840458E+02  0.25500000920E-02 0.  1.
        2   -1    0    0  501    0  0.00000000000E+00  0.00000000000E+00 -0.82113647284E+03  0.82113647285E+03  0.25500000920E-02 0. -1.
    10030    2    1    2    0    0  0.00000000000E+00  0.00000000000E+00 -0.74493263243E+03  0.89734031330E+03  0.50029492405E+03 0.  0.
        4    1    3    3  502    0 -0.94672405299E+02  0.21160972692E+03 -0.54101531008E+03  0.58859215038E+03  0.12699999809E+01 0. -1.
       -4    1    3    3    0  502  0.94672405299E+02 -0.21160972692E+03 -0.20391732235E+03  0.30874816292E+03  0.12699999809E+01 0.  1.
</event>
<event>
 5   0  0.1855407E-02  0.5002636E+03  0.7818609E-02  0.1013710E+00
       -2   -1    0    0    0  501  0.00000000000E+00  0.00000000000E+00  0.20610043729E+03  0.20610043730E+03  0.25500000920E-02 0. -1.
        2   -1    0    0  501    0  0.00000000000E+00  0.00000000000E+00 -0.30357001733E+03  0.30357001734E+03  0.25500000920E-02 0.  1.
    10030    2    1    2    0    0  0.00000000000E+00  0.00000000000E+00 -0.97469580045E+02  0.50967045464E+03  0.50026358382E+03 0.  0.
        1    1    3    3  502    0  0.17232592314E+03 -0.80593369415E+02 -0.21419053404E+03  0.28647704948E+03  0.50400001928E-02 0.  1.
       -1    1    3    3    0  502 -0.17232592314E+03  0.80593369415E+02  0.11672095399E+03  0.22319340516E+03  0.50400001928E-02 0. -1.
</event>
<event>
 5   0  0.1967813E-02  0.5000320E+03  0.7818609E-02  0.1013771E+00
        2   -1    0    0  501    0  0.00000000000E+00  0.00000000000E+00  0.87199158065E+03  0.87199158066E+03  0.25500000920E-02 0.  1.
       -2   -1    0    0    0  501  0.00000000000E+00  0.00000000000E+00 -0.71684191083E+02  0.71684191128E+02  0.25500000920E-02 0. -1.
    10030    2    1    2    0    0  0.00000000000E+00  0.00000000000E+00  0.80030738957E+03  0.94367577178E+03  0.50003204343E+03 0.  0.
        5    1    3    3  502    0  0.45463829636E+02  0.20634377063E+03  0.14807443374E+03  0.25805588427E+03  0.46999998093E+01 0. -1.
       -5    1    3    3    0  502 -0.45463829636E+02 -0.20634377063E+03  0.65223295583E+03  0.68561988751E+03  0.46999998093E+01 0.  1.
</event>
<event>
 5   0  0.1941387E-02  0.4993907E+03  0.7818609E-02  0.1013938E+00
        2   -1    0    0  501    0  0.00000000000E+00  0.00000000000E+00  0.52562843942E+03  0.52562843942E+03  0.25500000920E-02 0.  1.
       -2   -1    0    0    0  501  0.00000000000E+00  0.00000000000E+00 -0.11861568468E+03  0.11861568471E+03  0.25500000920E-02 0. -1.
    10030    2    1    2    0    0  0.00000000000E+00  0.00000000000E+00  0.40701275474E+03  0.64424412413E+03  0.49939073775E+03 0.  0.
        4    1    3    3  502    0  0.14613283154E+03  0.14984265247E+03  0.27856544853E+02  0.21115213696E+03  0.12699999809E+01 0. -1.
       -4    1    3    3    0  502 -0.14613283154E+03 -0.14984265247E+03  0.37915620988E+03  0.43309198717E+03  0.12699999809E+01 0.  1.
</event>
<event>
 5   0  0.1855407E-02  0.4999506E+03  0.7818609E-02  0.1013792E+00
       -2   -1    0    0    0  501  0.00000000000E+00  0.00000000000E+00  0.36836157601E+03  0.36836157602E+03  0.25500000920E-02 0. -1.
        2   -1    0    0  501    0  0.00000000000E+00  0.00000000000E+00 -0.16963669851E+03  0.16963669853E+03  0.25500000920E-02 0.  1.
    10030    2    1    2    0    0  0.00000000000E+00  0.00000000000E+00  0.19872487751E+03  0.53799827455E+03  0.49995056404E+03 0.  0.
        1    1    3    3  502    0  0.62171520860E+02  0.14919706391E+03  0.30456423745E+03  0.34479622481E+03  0.50400001928E-02 0. -1.
       -1    1    3    3    0  502 -0.62171520860E+02 -0.14919706391E+03 -0.10583935994E+03  0.19320204974E+03  0.50400001928E-02 0.  1.
</event>
<event>
 5   0  0.1227864E-02  0.4997070E+03  0.7818609E-02  0.1013855E+00
        1   -1    0    0  501    0  0.00000000000E+00  0.00000000000E+00  0.96783753034E+03  0.96783753035E+03  0.50400001928E-02 0. -1.
       -1   -1    0    0    0  501  0.00000000000E+00  0.00000000000E+00 -0.64501301913E+02  0.64501302110E+02  0.50400001928E-02 0.  1.
    10030    2    1    2    0    0  0.00000000000E+00  0.00000000000E+00  0.90333622843E+03  0.10323388325E+04  0.49970703760E+03 0.  0.
        5    1    3    3  502    0 -0.81965475336E+02  0.18179959672E+03  0.14085486316E+03  0.24419585376E+03  0.46999998093E+01 0.  1.
       -5    1    3    3    0  502  0.81965475336E+02 -0.18179959672E+03  0.76248136526E+03  0.78814297871E+03  0.46999998093E+01 0. -1.
</event>
<event>
 5   0  0.1227864E-02  0.4997001E+03  0.7818609E-02  0.1013857E+00
        1   -1    0    0  501    0  0.00000000000E+00  0.00000000000E+00  0.27137310980E+03  0.27137310984E+03  0.50400001928E-02 0.  1.
       -1   -1    0    0    0  501  0.00000000000E+00  0.00000000000E+00 -0.23003403398E+03  0.23003403404E+03  0.50400001928E-02 0. -1.
    10030    2    1    2    0    0  0.00000000000E+00  0.00000000000E+00  0.41339075813E+02  0.50140714388E+03  0.49970011481E+03 0.  0.
        5    1    3    3  502    0 -0.18336388774E+03 -0.16952382089E+03  0.27197144283E+02  0.25124174779E+03  0.46999998093E+01 0.  1.
       -5    1    3    3    0  502  0.18336388774E+03  0.16952382089E+03  0.14141931530E+02  0.25016539609E+03  0.46999998093E+01 0. -1.
</event>
<event>
 5   0  0.1180937E-02  0.4980795E+03  0.7818609E-02  0.1014281E+00
       -1   -1    0    0    0  501  0.00000000000E+00  0.00000000000E+00  0.12326073755E+03  0.12326073766E+03  0.50400001928E-02 0.  1.
        1   -1    0    0  501    0  0.00000000000E+00  0.00000000000E+00 -0.50316756587E+03  0.50316756590E+03  0.50400001928E-02 0. -1.
    10030    2    1    2    0    0  0.00000000000E+00  0.00000000000E+00 -0.37990682832E+03  0.62642830356E+03  0.49807953310E+03 0.  0.
        1    1    3    3  502    0  0.10405850457E+03  0.16142537942E+03  0.94385384663E+01  0.19228991530E+03  0.50400001928E-02 0.  1.
       -1    1    3    3    0  502 -0.10405850457E+03 -0.16142537942E+03 -0.38934536679E+03  0.43413838825E+03  0.50400001928E-02 0. -1.
</event>
<event>
 5   0  0.8012875E-03  0.5018320E+03  0.7818609E-02  0.1013302E+00
       -3   -1    0    0    0  501  0.00000000000E+00  0.00000000000E+00  0.13400569704E+04  0.13400569742E+04  0.10100000352E+00 0. -1.
        3   -1    0    0  501    0  0.00000000000E+00  0.00000000000E+00 -0.46982155522E+02  0.46982264084E+02  0.10100000352E+00 0.  1.
    10030    2    1    2    0    0  0.00000000000E+00  0.00000000000E+00  0.12930748149E+04  0.13870392383E+04  0.50183201541E+03 0.  0.
        1    1    3    3  502    0  0.17777551281E+03  0.13324002087E+02  0.15850484033E+03  0.23854862485E+03  0.50400001928E-02 0.  1.
       -1    1    3    3    0  502 -0.17777551281E+03 -0.13324002087E+02  0.11345699746E+04  0.11484906135E+04  0.50400001928E-02 0. -1.
</event>
<event>
 5   0  0.1967813E-02  0.4960744E+03  0.7818609E-02  0.1014809E+00
       -2   -1    0    0    0  501  0.00000000000E+00  0.00000000000E+00  0.15730290535E+03  0.15730290538E+03  0.25500000920E-02 0. -1.
        2   -1    0    0  501    0  0.00000000000E+00  0.00000000000E+00 -0.39110825555E+03  0.39110825556E+03  0.25500000920E-02 0.  1.
    10030    2    1    2    0    0  0.00000000000E+00  0.00000000000E+00 -0.23380535020E+03  0.54841116094E+03  0.49607444971E+03 0.  0.
        5    1    3    3  502    0 -0.20699441324E+03  0.10524179678E+03 -0.21313754983E+03  0.31523360869E+03  0.46999998093E+01 0. -1.
       -5    1    3    3    0  502  0.20699441324E+03 -0.10524179678E+03 -0.20667800367E+02  0.23317755225E+03  0.46999998093E+01 0.  1.
</event>
<event>
 5   0  0.1209831E-02  0.5000531E+03  0.7818609E-02  0.1013765E+00
       -1   -1    0    0    0  501  0.00000000000E+00  0.00000000000E+00  0.23225405589E+03  0.23225405594E+03  0.50400001928E-02 0. -1.
        1   -1    0    0  501    0  0.00000000000E+00  0.00000000000E+00 -0.26915902467E+03  0.26915902472E+03  0.50400001928E-02 0.  1.
    10030    2    1    2    0    0  0.00000000000E+00  0.00000000000E+00 -0.36904968787E+02  0.50141308066E+03  0.50005309792E+03 0.  0.
        4    1    3    3  502    0 -0.61223276098E+02  0.33268530862E+02  0.22231839957E+03  0.23298533939E+03  0.12699999809E+01 0. -1.
       -4    1    3    3    0  502  0.61223276098E+02 -0.33268530862E+02 -0.25922336836E+03  0.26842774127E+03  0.12699999809E+01 0.  1.
</event>
<event>
 5   0  0.1855407E-02  0.5000651E+03  0.7818609E-02  0.1013762E+00
       -2   -1    0    0    0  501  0.00000000000E+00  0.00000000000E+00  0.15671783706E+03  0.15671783708E+03  0.25500000920E-02 0. -1.
        2   -1    0    0  501    0  0.00000000000E+00  0.00000000000E+00 -0.39890982424E+03  0.39890982425E+03  0.25500000920E-02 0.  1.
    10030    2    1    2    0    0  0.00000000000E+00  0.00000000000E+00 -0.24219198718E+03  0.55562766133E+03  0.50006513514E+03 0.  0.
        1    1    3    3  502    0  0.28788260839E+02 -0.65754769124E+02  0.14502329681E+03  0.16181535857E+03  0.50400001928E-02 0. -1.
       -1    1    3    3    0  502 -0.28788260839E+02  0.65754769124E+02 -0.38721528399E+03  0.39381230276E+03  0.50400001928E-02 0.  1.
</event>
<event>
 5   0  0.1227864E-02  0.4994879E+03  0.7818609E-02  0.1013913E+00
       -1   -1    0    0    0  501  0.00000000000E+00  0.00000000000E+00  0.15541171225E+03  0.15541171233E+03  0.50400001928E-02 0.  1.
        1   -1    0    0  501    0  0.00000000000E+00  0.00000000000E+00 -0.40133417209E+03  0.40133417212E+03  0.50400001928E-02 0. -1.
    10030    2    1    2    0    0  0.00000000000E+00  0.00000000000E+00 -0.24592245984E+03  0.55674588445E+03  0.49948786131E+03 0.  0.
        5    1    3    3  502    0 -0.75265244938E+02  0.14888006224E+03 -0.33005464066E+03  0.36984900412E+03  0.46999998093E+01 0. -1.
       -5    1    3    3    0  502  0.75265244938E+02 -0.14888006224E+03  0.84132180820E+02  0.18689688033E+03  0.46999998093E+01 0.  1.
</event>
<event>
 5   0  0.1982847E-02  0.4990296E+03  0.7818609E-02  0.1014033E+00
       -2   -1    0    0    0  501  0.00000000000E+00  0.00000000000E+00  0.79226062879E+03  0.79226062879E+03  0.25500000920E-02 0.  1.
        2   -1    0    0  501    0  0.00000000000E+00  0.00000000000E+00 -0.78582268504E+02  0.78582268545E+02  0.25500000920E-02 0. -1.
    10030    2    1    2    0    0  0.00000000000E+00  0.00000000000E+00  0.71367836028E+03  0.87084289733E+03  0.49902960824E+03 0.  0.
        2    1    3    3  502    0  0.22469415435E+03  0.89290411678E+02  0.46437582774E+03  0.52355052288E+03  0.25500000920E-02 0.  1.
       -2    1    3    3    0  502 -0.22469415435E+03 -0.89290411678E+02  0.24930253254E+03  0.34729237445E+03  0.25500000920E-02 0. -1.
</event>
<event>
 5   0  0.1227864E-02  0.4998849E+03  0.7818609E-02  0.1013809E+00
       -1   -1    0    0    0  501  0.00000000000E+00  0.00000000000E+00  0.90497156802E+02  0.90497156943E+02  0.50400001928E-02 0.  1.
        1   -1    0    0  501    0  0.00000000000E+00  0.00000000000E+00 -0.69031139442E+03  0.69031139444E+03  0.50400001928E-02 0. -1.
    10030    2    1    2    0    0  0.00000000000E+00  0.00000000000E+00 -0.59981423762E+03  0.78080855139E+03  0.49988486101E+03 0.  0.
        5    1    3    3  502    0  0.10435479257E+03 -0.10840197394E+03 -0.61155267928E+03  0.62980924114E+03  0.46999998093E+01 0. -1.
       -5    1    3    3    0  502 -0.10435479257E+03  0.10840197394E+03  0.11738441660E+02  0.15099931025E+03  0.46999998093E+01 0.  1.
</event>
<event>
 5   0  0.1941387E-02  0.5008723E+03  0.7818609E-02  0.1013551E+00
        2   -1    0    0  501    0  0.00000000000E+00  0.00000000000E+00  0.37771223799E+03  0.37771223799E+03  0.25500000920E-02 0. -1.
       -2   -1    0    0    0  501  0.00000000000E+00  0.00000000000E+00 -0.16604774794E+03  0.16604774796E+03  0.25500000920E-02 0.  1.
    10030    2    1    2    0    0  0.00000000000E+00  0.00000000000E+00  0.21166449005E+03  0.54375998595E+03  0.50087230506E+03 0.  0.
        4    1    3    3  502    0  0.14385149046E+03  0.16765238777E+03  0.23389966849E+03  0.32173163079E+03  0.12699999809E+01 0. -1.
       -4    1    3    3    0  502 -0.14385149046E+03 -0.16765238777E+03 -0.22235178439E+02  0.22202835516E+03  0.12699999809E+01 0.  1.
</event>
<event>
 5   0  0.1967813E-02  0.4998188E+03  0.7818609E-02  0.1013826E+00
       -2   -1    0    0    0  501  0.00000000000E+00  0.00000000000E+00  0.40749856121E+03  0.40749856121E+03  0.25500000920E-02 0.  1.
        2   -1    0    0  501    0  0.00000000000E+00  0.00000000000E+00 -0.15326361418E+03  0.15326361420E+03  0.25500000920E-02 0. -1.
    10030    2    1    2    0    0  0.00000000000E+00  0.00000000000E+00  0.25423494702E+03  0.56076217542E+03  0.49981877625E+03 0.  0.
        5    1    3    3  502    0  0.16504701468E+03 -0.14363193563E+03  0.26250420264E+03  0.34176190014E+03  0.46999998093E+01 0.  1.
       -5    1    3    3    0  502 -0.16504701468E+03  0.14363193563E+03 -0.82692556169E+01  0.21900027528E+03  0.46999998093E+01 0. -1.
</event>
<event>
 5   0  0.1209831E-02  0.5017346E+03  0.7818609E-02  0.1013327E+00
        1   -1    0    0  501    0  0.00000000000E+00  0.00000000000E+00  0.81605446252E+03  0.81605446253E+03  0.50400001928E-02 0.  1.
       -1   -1    0    0    0  501  0.00000000000E+00  0.00000000000E+00 -0.77120358869E+02  0.77120359034E+02  0.50400001928E-02 0. -1.
    10030    2    1    2    0    0  0.00000000000E+00  0.00000000000E+00  0.73893410365E+03  0.89317482157E+03  0.50173464336E+03 0.  0.
        4    1    3    3  502    0  0.14944184195E+03  0.29959740458E+02  0.14759455014E+02  0.15313361677E+03  0.12699999809E+01 0. -1.
       -4    1    3    3    0  502 -0.14944184195E+03 -0.29959740458E+02  0.72417464863E+03  0.74004120480E+03  0.12699999809E+01 0.  1.
</event>
<event>
 5   0  0.1855407E-02  0.5002800E+03  0.7818609E-02  0.1013706E+00
        2   -1    0    0  501    0  0.00000000000E+00  0.00000000000E+00  0.24652989711E+03  0.24652989713E+03  0.25500000920E-02 0. -1.
       -2   -1    0    0    0  501  0.00000000000E+00  0.00000000000E+00 -0.25380296208E+03  0.25380296209E+03  0.25500000920E-02 0.  1.
    10030    2    1    2    0    0  0.00000000000E+00  0.00000000000E+00 -0.72730649619E+01  0.50033285922E+03  0.50027999414E+03 0.  0.
        1    1    3    3  502    0  0.27740003051E+02  0.19616897851E+03 -0.15635578665E+03  0.25238642583E+03  0.50400001928E-02 0.  1.
       -1    1    3    3    0  502 -0.27740003051E+02 -0.19616897851E+03  0.14908272169E+03  0.24794643339E+03  0.50400001928E-02 0. -1.
</event>
<event>
 5   0  0.1227864E-02  0.5005481E+03  0.7818609E-02  0.1013636E+00
       -1   -1    0    0    0  501  0.00000000000E+00  0.00000000000E+00  0.60702439518E+02  0.60702439727E+02  0.50400001928E-02 0. -1.
        1   -1    0    0  501    0  0.00000000000E+00  0.00000000000E+00 -0.10318710294E+04  0.10318710294E+04  0.50400001928E-02 0.  1.
    10030    2    1    2    0    0  0.00000000000E+00  0.00000000000E+00 -0.97116858984E+03  0.10925734691E+04  0.50054805512E+03 0.  0.
        5    1    3    3  502    0  0.22115729437E+03 -0.11349254657E+03 -0.54823702315E+03  0.60197759969E+03  0.46999998093E+01 0.  1.
       -5    1    3    3    0  502 -0.22115729437E+03  0.11349254657E+03 -0.42293156669E+03  0.49059586941E+03  0.46999998093E+01 0. -1.
</event>
<event>
 5   0  0.1180937E-02  0.5007152E+03  0.7818609E-02  0.1013592E+00
       -1   -1    0    0    0  501  0.00000000000E+00  0.00000000000E+00  0.52988882991E+03  0.52988882993E+03  0.50400001928E-02 0. -1.
        1   -1    0    0  501    0  0.00000000000E+00  0.00000000000E+00 -0.11828692635E+03  0.11828692646E+03  0.50400001928E-02 0.  1.
    10030    2    1    2    0    0  0.00000000000E+00  0.00000000000E+00  0.41160190356E+03  0.64817575639E+03  0.50071517268E+03 0.  0.
        1    1    3    3  502    0 -0.11065000948E+03 -0.10786511329E+03  0.46078988336E+03  0.48600990102E+03  0.50400001928E-02 0. -1.
       -1    1    3    3    0  502  0.11065000948E+03  0.10786511329E+03 -0.49187979800E+02  0.16216585536E+03  0.50400001928E-02 0.  1.
</event>
<event>
 5   0  0.1225989E-02  0.5000455E+03  0.7818609E-02  0.1013767E+00
       -1   -1    0    0    0  501  0.00000000000E+00  0.00000000000E+00  0.58413507579E+03  0.58413507581E+03  0.50400001928E-02 0.  1.
        1   -1    0    0  501    0  0.00000000000E+00  0.00000000000E+00 -0.10701525974E+03  0.10701525986E+03  0.50400001928E-02 0. -1.
    10030    2    1    2    0    0  0.00000000000E+00  0.00000000000E+00  0.47711981605E+03  0.69115033567E+03  0.50004546556E+03 0.  0.
        3    1    3    3  502    0 -0.22260085742E+03 -0.36978313059E+02  0.38737862770E+03  0.44830876499E+03  0.10100000352E+00 0.  1.
       -3    1    3    3    0  502  0.22260085742E+03  0.36978313059E+02  0.89741188348E+02  0.24284157068E+03  0.10100000352E+00 0. -1.
</event>
<event>
 5   0  0.1209831E-02  0.5005281E+03  0.7818609E-02  0.1013641E+00
        1   -1    0    0  501    0  0.00000000000E+00  0.00000000000E+00  0.29363707968E+03  0.29363707972E+03  0.50400001928E-02 0.  1.
       -1   -1    0    0    0  501  0.00000000000E+00  0.00000000000E+00 -0.21329762436E+03  0.21329762442E+03  0.50400001928E-02 0. -1.
    10030    2    1    2    0    0  0.00000000000E+00  0.00000000000E+00  0.80339455315E+02  0.50693470414E+03  0.50052808730E+03 0.  0.
        4    1    3    3  502    0  0.17027118903E+03 -0.38693534450E+02  0.22174359289E+03  0.28224333705E+03  0.12699999809E+01 0.  1.
       -4    1    3    3    0  502 -0.17027118903E+03  0.38693534450E+02 -0.14140413757E+03  0.22469136709E+03  0.12699999809E+01 0. -1.
</event>
<event>
 5   0  0.1923706E-02  0.5003031E+03  0.7818609E-02  0.1013700E+00
       -2   -1    0    0    0  501  0.00000000000E+00  0.00000000000E+00  0.89564102043E+02  0.89564102080E+02  0.25500000920E-02 0.  1.
        2   -1    0    0  501    0  0.00000000000E+00  0.00000000000E+00 -0.69867065611E+03  0.69867065612E+03  0.25500000920E-02 0. -1.
    10030    2    1    2    0    0  0.00000000000E+00  0.00000000000E+00 -0.60910655407E+03  0.78823475820E+03  0.50030314792E+03 0.  0.
        3    1    3    3  502    0 -0.75658196418E+02  0.83291821512E+02 -0.65654626346E+03  0.66611913084E+03  0.10100000352E+00 0. -1.
       -3    1    3    3    0  502  0.75658196418E+02 -0.83291821512E+02  0.47439709388E+02  0.12211562735E+03  0.10100000352E+00 0.  1.
</event>
<event>
 5   0  0.1227864E-02  0.5023596E+03  0.7818609E-02  0.1013165E+00
       -1   -1    0    0    0  501  0.00000000000E+00  0.00000000000E+00  0.13347290448E+03  0.13347290458E+03  0.50400001928E-02 0. -1.
        1   -1    0    0  501    0  0.00000000000E+00  0.00000000000E+00 -0.47268985059E+03  0.47268985062E+03  0.50400001928E-02 0.  1.
    10030    2    1    2    0    0  0.00000000000E+00  0.00000000000E+00 -0.33921694611E+03  0.60616275520E+03  0.50235958164E+03 0.  0.
        5    1    3    3  502    0  0.14690175377E+03 -0.48464038012E+02  0.69110360415E+02  0.16949106217E+03  0.46999998093E+01 0. -1.
       -5    1    3    3    0  502 -0.14690175377E+03  0.48464038012E+02 -0.40832730652E+03  0.43667169303E+03  0.46999998093E+01 0.  1.
</event>
<event>
 5   0  0.1923706E-02  0.5001771E+03  0.7818609E-02  0.1013733E+00
        2   -1    0    0  501    0  0.00000000000E+00  0.00000000000E+00  0.43305293571E+03  0.43305293572E+03  0.25500000920E-02 0.  1.
       -2   -1    0    0    0  501  0.00000000000E+00  0.00000000000E+00 -0.14442644100E+03  0.14442644102E+03  0.25500000920E-02 0. -1.
    10030    2    1    2    0    0  0.00000000000E+00  0.00000000000E+00  0.28862649471E+03  0.57747937674E+03  0.50017714573E+03 0.  0.
        3    1    3    3  502    0  0.12130227104E+03  0.10956120663E+03 -0.74218294638E+02  0.17951675247E+03  0.10100000352E+00 0. -1.
       -3    1    3    3    0  502 -0.12130227104E+03 -0.10956120663E+03  0.36284478935E+03  0.39796262427E+03  0.10100000352E+00 0.  1.
</event>
<event>
 5   0  0.1967813E-02  0.5001481E+03  0.7818609E-02  0.1013740E+00
       -2   -1    0    0    0  501  0.00000000000E+00  0.00000000000E+00  0.26360697672E+03  0.26360697674E+03  0.25500000920E-02 0.  1.
        2   -1    0    0  501    0  0.00000000000E+00  0.00000000000E+00 -0.23723585017E+03  0.23723585018E+03  0.25500000920E-02 0. -1.
    10030    2    1    2    0    0  0.00000000000E+00  0.00000000000E+00  0.26371126557E+02  0.50084282692E+03  0.50014807903E+03 0.  0.
        5    1    3    3  502    0 -0.16811703899E+03 -0.38715181645E+02 -0.16804298570E+03  0.24087909650E+03  0.46999998093E+01 0. -1.
       -5    1    3    3    0  502  0.16811703899E+03  0.38715181645E+02  0.19441411226E+03  0.25996373042E+03  0.46999998093E+01 0.  1.
</event>
<event>
 5   0  0.1217270E-02  0.4978850E+03  0.7818609E-02  0.1014332E+00
       -1   -1    0    0    0  501  0.00000000000E+00  0.00000000000E+00  0.22549527078E+03  0.22549527083E+03  0.50400001928E-02 0.  1.
        1   -1    0    0  501    0  0.00000000000E+00  0.00000000000E+00 -0.27482784302E+03  0.27482784307E+03  0.50400001928E-02 0. -1.
    10030    2    1    2    0    0  0.00000000000E+00  0.00000000000E+00 -0.49332572246E+02  0.50032311390E+03  0.49788504257E+03 0.  0.
        2    1    3    3  502    0  0.13960793202E+03  0.16955896581E+01 -0.23178020685E+03  0.27058328478E+03  0.25500000920E-02 0. -1.
       -2    1    3    3    0  502 -0.13960793202E+03 -0.16955896581E+01  0.18244763460E+03  0.22973982912E+03  0.25500000920E-02 0.  1.
</event>
<event>
 5   0  0.1209831E-02  0.5001999E+03  0.7818609E-02  0.1013727E+00
       -1   -1    0    0    0  501  0.00000000000E+00  0.00000000000E+00  0.36957316684E+02  0.36957317028E+02  0.50400001928E-02 0. -1.
        1   -1    0    0  501    0  0.00000000000E+00  0.00000000000E+00 -0.16924925503E+04  0.16924925503E+04  0.50400001928E-02 0.  1.
    10030    2    1    2    0    0  0.00000000000E+00  0.00000000000E+00 -0.16555352336E+04  0.17294498674E+04  0.50019989393E+03 0.  0.
        4    1    3    3  502    0 -0.21590511408E+03  0.12518210130E+03 -0.88381714230E+03  0.91837896900E+03  0.12699999809E+01 0. -1.
       -4    1    3    3    0  502  0.21590511408E+03 -0.12518210130E+03 -0.77171809133E+03  0.81107089835E+03  0.12699999809E+01 0.  1.
</event>
<event>
 5   0  0.1982847E-02  0.4994622E+03  0.7818609E-02  0.1013919E+00
        2   -1    0    0  501    0  0.00000000000E+00  0.00000000000E+00  0.45362719456E+03  0.45362719456E+03  0.25500000920E-02 0. -1.
       -2   -1    0    0    0  501  0.00000000000E+00  0.00000000000E+00 -0.13748208194E+03  0.13748208196E+03  0.25500000920E-02 0.  1.
    10030    2    1    2    0    0  0.00000000000E+00  0.00000000000E+00  0.31614511262E+03  0.59110927653E+03  0.49946215529E+03 0.  0.
        2    1    3    3  502    0  0.29048000543E+02  0.46783057859E+02 -0.13020707979E+03  0.14137299768E+03  0.25500000920E-02 0.  1.
       -2    1    3    3    0  502 -0.29048000543E+02 -0.46783057859E+02  0.44635219241E+03  0.44973627885E+03  0.25500000920E-02 0. -1.
</event>
<event>
 5   0  0.1923706E-02  0.5030081E+03  0.7818609E-02  0.1012997E+00
        2   -1    0    0  501    0  0.00000000000E+00  0.00000000000E+00  0.17820447347E+03  0.17820447349E+03  0.25500000920E-02 0. -1.
       -2   -1    0    0    0  501  0.00000000000E+00  0.00000000000E+00 -0.35495335555E+03  0.35495335555E+03  0.25500000920E-02 0.  1.
    10030    2    1    2    0    0  0.00000000000E+00  0.00000000000E+00 -0.17674888208E+03  0.53315782904E+03  0.50300805496E+03 0.  0.
        3    1    3    3  502    0 -0.31974241505E+02 -0.11442182379E+03 -0.32333581972E+03  0.34447172365E+03  0.10100000352E+00 0.  1.
       -3    1    3    3    0  502  0.31974241505E+02  0.11442182379E+03  0.14658693764E+03  0.18868610539E+03  0.10100000352E+00 0. -1.
</event>
<event>
 5   0  0.1180937E-02  0.5010970E+03  0.7818609E-02  0.1013493E+00
       -1   -1    0    0    0  501  0.00000000000E+00  0.00000000000E+00  0.17867672936E+03  0.17867672943E+03  0.50400001928E-02 0.  1.
        1   -1    0    0  501    0  0.00000000000E+00  0.00000000000E+00 -0.35133025899E+03  0.35133025902E+03  0.50400001928E-02 0. -1.
    10030    2    1    2    0    0  0.00000000000E+00  0.00000000000E+00 -0.17265352963E+03  0.53000698845E+03  0.50109696319E+03 0.  0.
        1    1    3    3  502    0 -0.22954402344E+02  0.11939899691E+03  0.14538178670E+03  0.18952279277E+03  0.50400001928E-02 0.  1.
       -1    1    3    3    0  502  0.22954402344E+02 -0.11939899691E+03 -0.31803531633E+03  0.34048419568E+03  0.50400001928E-02 0. -1.
</event>
<event>
 5   0  0.1967813E-02  0.4994173E+03  0.7818609E-02  0.1013931E+00
        2   -1    0    0  501    0  0.00000000000E+00  0.00000000000E+00  0.13279929636E+04  0.13279929636E+04  0.25500000920E-02 0.  1.
       -2   -1    0    0    0  501  0.00000000000E+00  0.00000000000E+00 -0.46953875436E+02  0.46953875506E+02  0.25500000920E-02 0. -1.
    10030    2    1    2    0    0  0.00000000000E+00  0.00000000000E+00  0.12810390881E+04  0.13749468391E+04  0.49941732545E+03 0.  0.
        5    1    3    3  502    0 -0.19689060314E+03  0.25877376246E+02  0.10571101663E+04  0.10756112411E+04  0.46999998093E+01 0.  1.
       -5    1    3    3    0  502  0.19689060314E+03 -0.25877376246E+02  0.22392892181E+03  0.29933559799E+03  0.46999998093E+01 0. -1.
</event>
<event>
 5   0  0.8012875E-03  0.4959240E+03  0.7818609E-02  0.1014848E+00
        3   -1    0    0  501    0  0.00000000000E+00  0.00000000000E+00  0.41830158419E+03  0.41830159638E+03  0.10100000352E+00 0. -1.
       -3   -1    0    0    0  501  0.00000000000E+00  0.00000000000E+00 -0.14698756775E+03  0.14698760245E+03  0.10100000352E+00 0.  1.
    10030    2    1    2    0    0  0.00000000000E+00  0.00000000000E+00  0.27131401644E+03  0.56528919884E+03  0.49592396878E+03 0.  0.
        3    1    3    3  502    0  0.19462491665E+03 -0.44057951548E+02 -0.32121636268E+02  0.20211821045E+03  0.10100000352E+00 0.  1.
       -3    1    3    3    0  502 -0.19462491665E+03  0.44057951548E+02  0.30343565270E+03  0.36317098839E+03  0.10100000352E+00 0. -1.
</event>
<event>
 5   0  0.1209831E-02  0.4994644E+03  0.7818609E-02  0.1013919E+00
        1   -1    0    0  501    0  0.00000000000E+00  0.00000000000E+00  0.89427806632E+03  0.89427806634E+03  0.50400001928E-02 0.  1.
       -1   -1    0    0    0  501  0.00000000000E+00  0.00000000000E+00 -0.69739133050E+02  0.69739133233E+02  0.50400001928E-02 0. -1.
    10030    2    1    2    0    0  0.00000000000E+00  0.00000000000E+00  0.82453893327E+03  0.96401719957E+03  0.49946442174E+03 0.  0.
        4    1    3    3  502    0 -0.10831858070E+02 -0.15342731809E+03  0.79200096740E+03  0.80679886983E+03  0.12699999809E+01 0.  1.
       -4    1    3    3    0  502  0.10831858070E+02  0.15342731809E+03  0.32537965867E+02  0.15721832974E+03  0.12699999809E+01 0. -1.
</event>
<event>
 5   0  0.8012875E-03  0.5021486E+03  0.7818609E-02  0.1013220E+00
       -3   -1    0    0    0  501  0.00000000000E+00  0.00000000000E+00  0.30396610155E+03  0.30396611833E+03  0.10100000352E+00 0. -1.
        3   -1    0    0  501    0  0.00000000000E+00  0.00000000000E+00 -0.20738597339E+03  0.20738599799E+03  0.10100000352E+00 0.  1.
    10030    2    1    2    0    0  0.00000000000E+00  0.00000000000E+00  0.96580128156E+02  0.51135211632E+03  0.50214864902E+03 0.  0.
        3    1    3    3  502    0  0.46465886422E+02  0.35675092904E+01 -0.20294307545E+03  0.20822513728E+03  0.10100000352E+00 0.  1.
       -3    1    3    3    0  502 -0.46465886422E+02 -0.35675092904E+01  0.29952320360E+03  0.30312697904E+03  0.10100000352E+00 0. -1.
</event>
<event>
 5   0  0.1225989E-02  0.4999547E+03  0.7818609E-02  0.1013791E+00
       -1   -1    0    0    0  501  0.00000000000E+00  0.00000000000E+00  0.19027563967E+03  0.19027563973E+03  0.50400001928E-02 0.  1.
        1   -1    0    0  501    0  0.00000000000E+00  0.00000000000E+00 -0.32841129616E+03  0.32841129620E+03  0.50400001928E-02 0. -1.
    10030    2    1    2    0    0  0.00000000000E+00  0.00000000000E+00 -0.13813565650E+03  0.51868693593E+03  0.49995467586E+03 0.  0.
        3    1    3    3  502    0  0.13779580171E+03  0.12158804331E+03 -0.24487907731E+03  0.30616516450E+03  0.10100000352E+00 0. -1.
       -3    1    3    3    0  502 -0.13779580171E+03 -0.12158804331E+03  0.10674342082E+03  0.21252177144E+03  0.10100000352E+00 0.  1.
</event>
<event>
 5   0  0.1982847E-02  0.4994114E+03  0.7818609E-02  0.1013933E+00
        2   -1    0    0  501    0  0.00000000000E+00  0.00000000000E+00  0.24349741214E+03  0.24349741215E+03  0.25500000920E-02 0. -1.
       -2   -1    0    0    0  501  0.00000000000E+00  0.00000000000E+00 -0.25607229343E+03  0.25607229344E+03  0.25500000920E-02 0.  1.
    10030    2    1    2    0    0  0.00000000000E+00  0.00000000000E+00 -0.12574881287E+02  0.49956970559E+03  0.49941141667E+03 0.  0.
        2    1    3    3  502    0 -0.24341596401E+03 -0.46768563729E+02  0.23959713886E+02  0.24902348882E+03  0.25500000920E-02 0.  1.
       -2    1    3    3    0  502  0.24341596401E+03  0.46768563729E+02 -0.36534595174E+02  0.25054621677E+03  0.25500000920E-02 0. -1.
</event>
<event>
 5   0  0.1209831E-02  0.4997833E+03  0.7818609E-02  0.1013835E+00
        1   -1    0    0  501    0  0.00000000000E+00  0.00000000000E+00  0.42606226876E+03  0.42606226879E+03  0.50400001928E-02 0.  1.
       -1   -1    0    0    0  501  0.00000000000E+00  0.00000000000E+00 -0.14656506172E+03  0.14656506181E+03  0.50400001928E-02 0. -1.
    10030    2    1    2    0    0  0.00000000000E+00  0.00000000000E+00  0.27949720703E+03  0.57262733060E+03  0.49978332406E+03 0.  0.
        4    1    3    3  502    0  0.64343032155E+02 -0.23065002941E+03  0.57887364129E+02  0.24635750786E+03  0.12699999809E+01 0. -1.
       -4    1    3    3    0  502 -0.64343032155E+02  0.23065002941E+03  0.22160984290E+03  0.32626982273E+03  0.12699999809E+01 0.  1.
</event>
<event>
 5   0  0.8012875E-03  0.5004938E+03  0.7818609E-02  0.1013650E+00
       -4   -1    0    0    0  501  0.00000000000E+00  0.00000000000E+00  0.46383547561E+03  0.46383721426E+03  0.12699999809E+01 0.  1.
        4   -1    0    0  501    0  0.00000000000E+00  0.00000000000E+00 -0.13500736574E+03  0.13501333899E+03  0.12699999809E+01 0. -1.
    10030    2    1    2    0    0  0.00000000000E+00  0.00000000000E+00  0.32882810986E+03  0.59885055325E+03  0.50049381543E+03 0.  0.
        5    1    3    3  502    0  0.93486766673E+02  0.44257076210E+02  0.43700774892E+03  0.44910614219E+03  0.46999998093E+01 0.  1.
       -5    1    3    3    0  502 -0.93486766673E+02 -0.44257076210E+02 -0.10817963906E+03  0.14974441106E+03  0.46999998093E+01 0. -1.
</event>
<event>
 5   0  0.1967813E-02  0.4994262E+03  0.7818609E-02  0.1013929E+00
        2   -1    0    0  501    0  0.00000000000E+00  0.00000000000E+00  0.66729659474E+03  0.66729659474E+03  0.25500000920E-02 0. -1.
       -2   -1    0    0    0  501  0.00000000000E+00  0.00000000000E+00 -0.93446650840E+02  0.93446650875E+02  0.25500000920E-02 0.  1.
    10030    2    1    2    0    0  0.00000000000E+00  0.00000000000E+00  0.57384994390E+03  0.76074324562E+03  0.49942619839E+03 0.  0.
        5    1    3    3  502    0 -0.10240815594E+03  0.86524046168E+01 -0.59664441935E+02  0.11892951753E+03  0.46999998093E+01 0.  1.
       -5    1    3    3    0  502  0.10240815594E+03 -0.86524046168E+01  0.63351438584E+03  0.64181372809E+03  0.46999998093E+01 0. -1.
</event>
<event>
 5   0  0.1941387E-02  0.5004915E+03  0.7818609E-02  0.1013651E+00
        2   -1    0    0  501    0  0.00000000000E+00  0.00000000000E+00  0.44538253282E+03  0.44538253283E+03  0.25500000920E-02 0. -1.
       -2   -1    0    0    0  501  0.00000000000E+00  0.00000000000E+00 -0.14060484730E+03  0.14060484732E+03  0.25500000920E-02 0.  1.
    10030    2    1    2    0    0  0.00000000000E+00  0.00000000000E+00  0.30477768552E+03  0.58598738015E+03  0.50049153050E+03 0.  0.
        4    1    3    3  502    0  0.12855187271E+03 -0.66329270477E+02  0.39146685364E+03  0.41734046832E+03  0.12699999809E+01 0. -1.
       -4    1    3    3    0  502 -0.12855187271E+03  0.66329270477E+02 -0.86689168119E+02  0.16864691183E+03  0.12699999809E+01 0.  1.
</event>
<event>
 5   0  0.8012875E-03  0.4993415E+03  0.7818609E-02  0.1013951E+00
        4   -1    0    0  501    0  0.00000000000E+00  0.00000000000E+00  0.23821805668E+03  0.23822144200E+03  0.12699999809E+01 0.  1.
       -4   -1    0    0    0  501  0.00000000000E+00  0.00000000000E+00 -0.26166724899E+03  0.26167033094E+03  0.12699999809E+01 0. -1.
    10030    2    1    2    0    0  0.00000000000E+00  0.00000000000E+00 -0.23449192311E+02  0.49989177293E+03  0.49934148638E+03 0.  0.
        5    1    3    3  502    0  0.65758543391E+02 -0.74884369695E+02 -0.24084694391E+03  0.26069368086E+03  0.46999998093E+01 0. -1.
       -5    1    3    3    0  502 -0.65758543391E+02  0.74884369695E+02  0.21739775160E+03  0.23919809207E+03  0.46999998093E+01 0.  1.
</event>
<event>
 5   0  0.1225989E-02  0.5042693E+03  0.7818609E-02  0.1012671E+00
       -1   -1    0    0    0  501  0.00000000000E+00  0.00000000000E+00  0.43788779055E+02  0.43788779345E+02  0.50400001928E-02 0. -1.
        1   -1    0    0  501    0  0.00000000000E+00  0.00000000000E+00 -0.14517844625E+04  0.14517844625E+04  0.50400001928E-02 0.  1.
    10030    2    1    2    0    0  0.00000000000E+00  0.00000000000E+00 -0.14079956834E+04  0.14955732418E+04  0.50426925065E+03 0.  0.
        3    1    3    3  502    0 -0.23632126763E+03  0.19839917539E+02 -0.95792658154E+03  0.98684583887E+03  0.10100000352E+00 0.  1.
       -3    1    3    3    0  502  0.23632126763E+03 -0.19839917539E+02 -0.45006910188E+03  0.50872740296E+03  0.10100000352E+00 0. -1.
</event>
<event>
 5   0  0.1217270E-02  0.5006217E+03  0.7818609E-02  0.1013617E+00
        1   -1    0    0  501    0  0.00000000000E+00  0.00000000000E+00  0.85537342337E+03  0.85537342338E+03  0.50400001928E-02 0.  1.
       -1   -1    0    0    0  501  0.00000000000E+00  0.00000000000E+00 -0.73249326688E+02  0.73249326862E+02  0.50400001928E-02 0. -1.
    10030    2    1    2    0    0  0.00000000000E+00  0.00000000000E+00  0.78212409668E+03  0.92862275025E+03  0.50062172313E+03 0.  0.
        2    1    3    3  502    0 -0.22173434330E+03 -0.95712931074E+02  0.26902393310E+03  0.36152587841E+03  0.25500000920E-02 0. -1.
       -2    1    3    3    0  502  0.22173434330E+03  0.95712931074E+02  0.51310016359E+03  0.56709687184E+03  0.25500000920E-02 0.  1.
</event>
<event>
 5   0  0.1923706E-02  0.5000793E+03  0.7818609E-02  0.1013758E+00
        2   -1    0    0  501    0  0.00000000000E+00  0.00000000000E+00  0.12143788661E+04  0.12143788661E+04  0.25500000920E-02 0.  1.
       -2   -1    0    0    0  501  0.00000000000E+00  0.00000000000E+00 -0.51482967596E+02  0.51482967659E+02  0.25500000920E-02 0. -1.
    10030    2    1    2    0    0  0.00000000000E+00  0.00000000000E+00  0.11628958985E+04  0.12658618338E+04  0.50007930513E+03 0.  0.
        3    1    3    3  502    0  0.30078484051E+02 -0.14924757150E+03  0.79375878428E+02  0.17169767930E+03  0.10100000352E+00 0. -1.
       -3    1    3    3    0  502 -0.30078484051E+02  0.14924757150E+03  0.10835200201E+04  0.10941641545E+04  0.10100000352E+00 0.  1.
</event>
<event>
 5   0  0.1227864E-02  0.4984937E+03  0.7818609E-02  0.1014173E+00
       -1   -1    0    0    0  501  0.00000000000E+00  0.00000000000E+00  0.80419740733E+02  0.80419740891E+02  0.50400001928E-02 0.  1.
        1   -1    0    0  501    0  0.00000000000E+00  0.00000000000E+00 -0.77249670839E+03  0.77249670841E+03  0.50400001928E-02 0. -1.
    10030    2    1    2    0    0  0.00000000000E+00  0.00000000000E+00 -0.69207696766E+03  0.85291644930E+03  0.49849367130E+03 0.  0.
        5    1    3    3  502    0 -0.22695152324E+03 -0.93035234027E+02 -0.27068999671E+03  0.36531864583E+03  0.46999998093E+01 0.  1.
       -5    1    3    3    0  502  0.22695152324E+03  0.93035234027E+02 -0.42138697094E+03  0.48759780347E+03  0.46999998093E+01 0. -1.
</event>
<event>
 5   0  0.1209831E-02  0.4996125E+03  0.7818609E-02  0.1013880E+00
       -1   -1    0    0    0  501  0.00000000000E+00  0.00000000000E+00  0.10125465803E+04  0.10125465803E+04  0.50400001928E-02 0.  1.
        1   -1    0    0  501    0  0.00000000000E+00  0.00000000000E+00 -0.61629909564E+02  0.61629909770E+02  0.50400001928E-02 0. -1.
    10030    2    1    2    0    0  0.00000000000E+00  0.00000000000E+00  0.95091667075E+03  0.10741764901E+04  0.49961246698E+03 0.  0.
        4    1    3    3  502    0 -0.51555670239E+02  0.12395288333E+02 -0.49383861594E+02  0.72470745771E+02  0.12699999809E+01 0. -1.
       -4    1    3    3    0  502  0.51555670239E+02 -0.12395288333E+02  0.10003005323E+04  0.10017057443E+04  0.12699999809E+01 0.  1.
</event>
<event>
 5   0  0.1180937E-02  0.4997755E+03  0.7818609E-02  0.1013838E+00
        1   -1    0    0  501    0  0.00000000000E+00  0.00000000000E+00  0.15323125242E+04  0.15323125242E+04  0.50400001928E-02 0.  1.
       -1   -1    0    0    0  501  0.00000000000E+00  0.00000000000E+00 -0.40751409468E+02  0.40751409779E+02  0.50400001928E-02 0. -1.
    10030    2    1    2    0    0  0.00000000000E+00  0.00000000000E+00  0.14915611147E+04  0.15730639339E+04  0.49977553104E+03 0.  0.
        1    1    3    3  502    0 -0.69840679170E+02  0.20997721689E+02 -0.65098423809E+01  0.73218869537E+02  0.50400001928E-02 0. -1.
       -1    1    3    3    0  502  0.69840679170E+02 -0.20997721689E+02  0.14980709571E+04  0.14998450644E+04  0.50400001928E-02 0.  1.
</event>
<event>
 5   0  0.1855407E-02  0.5000515E+03  0.7818609E-02  0.1013765E+00
       -2   -1    0    0    0  501  0.00000000000E+00  0.00000000000E+00  0.72853721727E+02  0.72853721772E+02  0.25500000920E-02 0.  1.
        2   -1    0    0  501    0  0.00000000000E+00  0.00000000000E+00 -0.85806003343E+03  0.85806003344E+03  0.25500000920E-02 0. -1.
    10030    2    1    2    0    0  0.00000000000E+00  0.00000000000E+00 -0.78520631171E+03  0.93091375521E+03  0.50005146504E+03 0.  0.
        1    1    3    3  502    0 -0.86281289971E+02 -0.85190056557E+02  0.14457314813E+02  0.12210987148E+03  0.50400001928E-02 0.  1.
       -1    1    3    3    0  502  0.86281289971E+02  0.85190056557E+02 -0.79966362652E+03  0.80880388373E+03  0.50400001928E-02 0. -1.
</event>
<event>
 5   0  0.1180937E-02  0.4948034E+03  0.7818609E-02  0.1015144E+00
        1   -1    0    0  501    0  0.00000000000E+00  0.00000000000E+00  0.24326576278E+04  0.24326576278E+04  0.50400001928E-02 0. -1.
       -1   -1    0    0    0  501  0.00000000000E+00  0.00000000000E+00 -0.25160796203E+02  0.25160796708E+02  0.50400001928E-02 0.  1.
    10030    2    1    2    0    0  0.00000000000E+00  0.00000000000E+00  0.24074968316E+04  0.24578184245E+04  0.49480340917E+03 0.  0.
        1    1    3    3  502    0 -0.40163135010E+02 -0.24401897604E+03  0.11688835663E+04  0.11947581888E+04  0.50400001928E-02 0.  1.
       -1    1    3    3    0  502  0.40163135010E+02  0.24401897604E+03  0.12386132653E+04  0.12630602357E+04  0.50400001928E-02 0. -1.
</event>
<event>
 5   0  0.1923706E-02  0.5002923E+03  0.7818609E-02  0.1013703E+00
       -2   -1    0    0    0  501  0.00000000000E+00  0.00000000000E+00  0.22222187485E+03  0.22222187487E+03  0.25500000920E-02 0.  1.
        2   -1    0    0  501    0  0.00000000000E+00  0.00000000000E+00 -0.28157940961E+03  0.28157940963E+03  0.25500000920E-02 0. -1.
    10030    2    1    2    0    0  0.00000000000E+00  0.00000000000E+00 -0.59357534762E+02  0.50380128449E+03  0.50029233187E+03 0.  0.
        3    1    3    3  502    0  0.21000638573E+03  0.86564116068E+02 -0.13518510787E+03  0.26433132963E+03  0.10100000352E+00 0. -1.
       -3    1    3    3    0  502 -0.21000638573E+03 -0.86564116068E+02  0.75827573104E+02  0.23946995486E+03  0.10100000352E+00 0.  1.
</event>
<event>
 5   0  0.1923706E-02  0.4984272E+03  0.7818609E-02  0.1014190E+00
        2   -1    0    0  501    0  0.00000000000E+00  0.00000000000E+00  0.71651399302E+03  0.71651399302E+03  0.25500000920E-02 0. -1.
       -2   -1    0    0    0  501  0.00000000000E+00  0.00000000000E+00 -0.86679980121E+02  0.86679980159E+02  0.25500000920E-02 0.  1.
    10030    2    1    2    0    0  0.00000000000E+00  0.00000000000E+00  0.62983401289E+03  0.80319397318E+03  0.49842720106E+03 0.  0.
        3    1    3    3  502    0 -0.12419181171E+03  0.19677849783E+03  0.45870760087E+03  0.51435207456E+03  0.10100000352E+00 0. -1.
       -3    1    3    3    0  502  0.12419181171E+03 -0.19677849783E+03  0.17112641202E+03  0.28884189862E+03  0.10100000352E+00 0.  1.
</event>
<event>
 5   0  0.1941387E-02  0.5102198E+03  0.7818609E-02  0.1011145E+00
       -2   -1    0    0    0  501  0.00000000000E+00  0.00000000000E+00  0.89680561394E+03  0.89680561394E+03  0.25500000920E-02 0.  1.
        2   -1    0    0  501    0  0.00000000000E+00  0.00000000000E+00 -0.72569853879E+02  0.72569853924E+02  0.25500000920E-02 0. -1.
    10030    2    1    2    0    0  0.00000000000E+00  0.00000000000E+00  0.82423576006E+03  0.96937546787E+03  0.51021976592E+03 0.  0.
        4    1    3    3  502    0  0.20745608692E+03 -0.30809682300E+02  0.68804566091E+03  0.71930223753E+03  0.12699999809E+01 0.  1.
       -4    1    3    3    0  502 -0.20745608692E+03  0.30809682300E+02  0.13619009916E+03  0.25007323034E+03  0.12699999809E+01 0. -1.
</event>
<event>
 5   0  0.1225989E-02  0.4996112E+03  0.7818609E-02  0.1013880E+00
       -1   -1    0    0    0  501  0.00000000000E+00  0.00000000000E+00  0.14081889747E+03  0.14081889756E+03  0.50400001928E-02 0.  1.
        1   -1    0    0  501    0  0.00000000000E+00  0.00000000000E+00 -0.44314256794E+03  0.44314256797E+03  0.50400001928E-02 0. -1.
    10030    2    1    2    0    0  0.00000000000E+00  0.00000000000E+00 -0.30232367047E+03  0.58396146553E+03  0.49961124037E+03 0.  0.
        3    1    3    3  502    0  0.23116959442E+03 -0.22178913083E+02 -0.25874231640E+03  0.34767640424E+03  0.10100000352E+00 0. -1.
       -3    1    3    3    0  502 -0.23116959442E+03  0.22178913083E+02 -0.43581354071E+02  0.23628506130E+03  0.10100000352E+00 0.  1.
</event>
<event>
 5   0  0.1941387E-02  0.5001554E+03  0.7818609E-02  0.1013738E+00
       -2   -1    0    0    0  501  0.00000000000E+00  0.00000000000E+00  0.10635332335E+03  0.10635332338E+03  0.25500000920E-02 0.  1.
        2   -1    0    0  501    0  0.00000000000E+00  0.00000000000E+00 -0.58802908094E+03  0.58802908095E+03  0.25500000920E-02 0. -1.
    10030    2    1    2    0    0  0.00000000000E+00  0.00000000000E+00 -0.48167575759E+03  0.69438240433E+03  0.50015536385E+03 0.  0.
        4    1    3    3  502    0  0.15798077829E+02  0.37415031369E+02  0.10173960226E+03  0.10955374664E+03  0.12699999809E+01 0.  1.
       -4    1    3    3    0  502 -0.15798077829E+02 -0.37415031369E+02 -0.58341535985E+03  0.58482865768E+03  0.12699999809E+01 0. -1.
</event>
<event>
 5   0  0.1227864E-02  0.5002002E+03  0.7818609E-02  0.1013727E+00
        1   -1    0    0  501    0  0.00000000000E+00  0.00000000000E+00  0.33702374397E+03  0.33702374401E+03  0.50400001928E-02 0. -1.
       -1   -1    0    0    0  501  0.00000000000E+00  0.00000000000E+00 -0.18559541646E+03  0.18559541653E+03  0.50400001928E-02 0.  1.
    10030    2    1    2    0    0  0.00000000000E+00  0.00000000000E+00  0.15142832751E+03  0.52261916054E+03  0.50020020851E+03 0.  0.
        5    1    3    3  502    0  0.24500602805E+02 -0.10762599804E+02 -0.18404887878E+03  0.18604352413E+03  0.46999998093E+01 0.  1.
       -5    1    3    3    0  502 -0.24500602805E+02  0.10762599804E+02  0.33547720629E+03  0.33657563642E+03  0.46999998093E+01 0. -1.
</event>
<event>
 5   0  0.1855407E-02  0.5006364E+03  0.7818609E-02  0.1013613E+00
       -2   -1    0    0    0  501  0.00000000000E+00  0.00000000000E+00  0.17852914483E+03  0.17852914485E+03  0.25500000920E-02 0.  1.
        2   -1    0    0  501    0  0.00000000000E+00  0.00000000000E+00 -0.35097457003E+03  0.35097457004E+03  0.25500000920E-02 0. -1.
    10030    2    1    2    0    0  0.00000000000E+00  0.00000000000E+00 -0.17244542520E+03  0.52950371489E+03  0.50063635447E+03 0.  0.
        1    1    3    3  502    0 -0.17373623806E+03  0.17660456275E+03 -0.48297952776E+02  0.25240076122E+03  0.50400001928E-02 0. -1.
       -1    1    3    3    0  502  0.17373623806E+03 -0.17660456275E+03 -0.12414747242E+03  0.27710295367E+03  0.50400001928E-02 0.  1.
</event>
<event>
 5   0  0.8012875E-03  0.5007568E+03  0.7818609E-02  0.1013582E+00
       -4   -1    0    0    0  501  0.00000000000E+00  0.00000000000E+00  0.11385925685E+04  0.11385932768E+04  0.12699999809E+01 0. -1.
        4   -1    0    0  501    0  0.00000000000E+00  0.00000000000E+00 -0.55050575218E+02  0.55065222526E+02  0.12699999809E+01 0.  1.
    10030    2    1    2    0    0  0.00000000000E+00  0.00000000000E+00  0.10835419933E+04  0.11936584994E+04  0.50075678905E+03 0.  0.
        3    1    3    3  502    0 -0.12214009673E+03  0.15119547802E+03  0.91799742893E+03  0.93834831780E+03  0.10100000352E+00 0. -1.
       -3    1    3    3    0  502  0.12214009673E+03 -0.15119547802E+03  0.16554456439E+03  0.25531018155E+03  0.10100000352E+00 0.  1.
</event>
<event>
 5   0  0.1967813E-02  0.4994600E+03  0.7818609E-02  0.1013920E+00
        2   -1    0    0  501    0  0.00000000000E+00  0.00000000000E+00  0.41119121885E+03  0.41119121886E+03  0.25500000920E-02 0. -1.
       -2   -1    0    0    0  501  0.00000000000E+00  0.00000000000E+00 -0.15166927566E+03  0.15166927569E+03  0.25500000920E-02 0.  1.
    10030    2    1    2    0    0  0.00000000000E+00  0.00000000000E+00  0.25952194319E+03  0.56286049455E+03  0.49946000573E+03 0.  0.
        5    1    3    3  502    0 -0.14273218671E+03 -0.20468618882E+03  0.13945992963E+03  0.28590221228E+03  0.46999998093E+01 0. -1.
       -5    1    3    3    0  502  0.14273218671E+03  0.20468618882E+03  0.12006201356E+03  0.27695828227E+03  0.46999998093E+01 0.  1.
</event>
<event>
 5   0  0.1225989E-02  0.4995453E+03  0.7818609E-02  0.1013898E+00
       -1   -1    0    0    0  501  0.00000000000E+00  0.00000000000E+00  0.31373830355E+03  0.31373830359E+03  0.50400001928E-02 0.  1.
        1   -1    0    0  501    0  0.00000000000E+00  0.00000000000E+00 -0.19884847494E+03  0.19884847501E+03  0.50400001928E-02 0. -1.
    10030    2    1    2    0    0  0.00000000000E+00  0.00000000000E+00  0.11488982861E+03  0.51258677860E+03  0.49954532615E+03 0.  0.
        3    1    3    3  502    0  0.43349290330E+02 -0.97414450231E+02  0.28921248542E+03  0.30824115236E+03  0.10100000352E+00 0.  1.
       -3    1    3    3    0  502 -0.43349290330E+02  0.97414450231E+02 -0.17432265681E+03  0.20434562624E+03  0.10100000352E+00 0. -1.
</event>
<event>
 5   0  0.1180937E-02  0.5010258E+03  0.7818609E-02  0.1013512E+00
       -1   -1    0    0    0  501  0.00000000000E+00  0.00000000000E+00  0.61810378720E+02  0.61810378926E+02  0.50400001928E-02 0.  1.
        1   -1    0    0  501    0  0.00000000000E+00  0.00000000000E+00 -0.10153102679E+04  0.10153102680E+04  0.50400001928E-02 0. -1.
    10030    2    1    2    0    0  0.00000000000E+00  0.00000000000E+00 -0.95349988923E+03  0.10771206469E+04  0.50102579693E+03 0.  0.
        1    1    3    3  502    0  0.25553015155E+02 -0.12065010691E+03 -0.94552795042E+03  0.95353684247E+03  0.50400001928E-02 0. -1.
       -1    1    3    3    0  502 -0.25553015155E+02  0.12065010691E+03 -0.79719388010E+01  0.12358380442E+03  0.50400001928E-02 0.  1.
</event>
<event>
 5   0  0.8012875E-03  0.4989765E+03  0.7818609E-02  0.1014046E+00
       -3   -1    0    0    0  501  0.00000000000E+00  0.00000000000E+00  0.62287655714E+02  0.62287737600E+02  0.10100000352E+00 0. -1.
        3   -1    0    0  501    0  0.00000000000E+00  0.00000000000E+00 -0.99930459469E+03  0.99930459979E+03  0.10100000352E+00 0.  1.
    10030    2    1    2    0    0  0.00000000000E+00  0.00000000000E+00 -0.93701693898E+03  0.10615923374E+04  0.49897649933E+03 0.  0.
        4    1    3    3  502    0  0.18565859314E+03  0.15681571978E+03 -0.34848636127E+03  0.42485837648E+03  0.12699999809E+01 0. -1.
       -4    1    3    3    0  502 -0.18565859314E+03 -0.15681571978E+03 -0.58853057771E+03  0.63673396091E+03  0.12699999809E+01 0.  1.
</event>
<event>
 5   0  0.1227864E-02  0.5000848E+03  0.7818609E-02  0.1013757E+00
        1   -1    0    0  501    0  0.00000000000E+00  0.00000000000E+00  0.10593920450E+04  0.10593920450E+04  0.50400001928E-02 0. -1.
       -1   -1    0    0    0  501  0.00000000000E+00  0.00000000000E+00 -0.59016123834E+02  0.59016124049E+02  0.50400001928E-02 0.  1.
    10030    2    1    2    0    0  0.00000000000E+00  0.00000000000E+00  0.10003759212E+04  0.11184081691E+04  0.50008484178E+03 0.  0.
        5    1    3    3  502    0 -0.74036963212E+02 -0.54404037452E+02 -0.19791307584E+02  0.94101312779E+02  0.46999998093E+01 0.  1.
       -5    1    3    3    0  502  0.74036963212E+02  0.54404037452E+02  0.10201672288E+04  0.10243068563E+04  0.46999998093E+01 0. -1.
</event>
<event>
 5   0  0.1180937E-02  0.4991863E+03  0.7818609E-02  0.1013992E+00
        1   -1    0    0  501    0  0.00000000000E+00  0.00000000000E+00  0.16521204310E+04  0.16521204310E+04  0.50400001928E-02 0.  1.
       -1   -1    0    0    0  501  0.00000000000E+00  0.00000000000E+00 -0.37707139299E+02  0.37707139636E+02  0.50400001928E-02 0. -1.
    10030    2    1    2    0    0  0.00000000000E+00  0.00000000000E+00  0.16144132917E+04  0.16898275707E+04  0.49918627995E+03 0.  0.
        1    1    3    3  502    0  0.20174616253E+03 -0.13264235505E+03  0.59307722161E+03  0.64034061191E+03  0.50400001928E-02 0. -1.
       -1    1    3    3    0  502 -0.20174616253E+03  0.13264235505E+03  0.10213360701E+04  0.10494869587E+04  0.50400001928E-02 0.  1.
</event>
<event>
 5   0  0.1217270E-02  0.4991341E+03  0.7818609E-02  0.1014005E+00
        1   -1    0    0  501    0  0.00000000000E+00  0.00000000000E+00  0.14605252156E+03  0.14605252165E+03  0.50400001928E-02 0. -1.
       -1   -1    0    0    0  501  0.00000000000E+00  0.00000000000E+00 -0.42644729630E+03  0.42644729633E+03  0.50400001928E-02 0.  1.
    10030    2    1    2    0    0  0.00000000000E+00  0.00000000000E+00 -0.28039477474E+03  0.57249981798E+03  0.49913406203E+03 0.  0.
        2    1    3    3  502    0 -0.77676070859E+01  0.24712187957E+03 -0.17916359329E+03  0.30533449240E+03  0.25500000920E-02 0.  1.
       -2    1    3    3    0  502  0.77676070859E+01 -0.24712187957E+03 -0.10123118145E+03  0.26716532557E+03  0.25500000920E-02 0. -1.
</event>
<event>
 5   0  0.1225989E-02  0.4942220E+03  0.7818609E-02  0.1015298E+00
       -1   -1    0    0    0  501  0.00000000000E+00  0.00000000000E+00  0.11328086248E+03  0.11328086259E+03  0.50400001928E-02 0. -1.
        1   -1    0    0  501    0  0.00000000000E+00  0.00000000000E+00 -0.53904824103E+03  0.53904824106E+03  0.50400001928E-02 0.  1.
    10030    2    1    2    0    0  0.00000000000E+00  0.00000000000E+00 -0.42576737855E+03  0.65232910365E+03  0.49422201371E+03 0.  0.
        3    1    3    3  502    0 -0.21844587060E+03 -0.63980637796E+02 -0.33984046625E+03  0.40902771678E+03  0.10100000352E+00 0.  1.
       -3    1    3    3    0  502  0.21844587060E+03  0.63980637796E+02 -0.85926912302E+02  0.24330138687E+03  0.10100000352E+00 0. -1.
</event>
<event>
 5   0  0.1967813E-02  0.4988694E+03  0.7818609E-02  0.1014074E+00
        2   -1    0    0  501    0  0.00000000000E+00  0.00000000000E+00  0.95055186888E+03  0.95055186889E+03  0.25500000920E-02 0.  1.
       -2   -1    0    0    0  501  0.00000000000E+00  0.00000000000E+00 -0.65454272127E+02  0.65454272176E+02  0.25500000920E-02 0. -1.
    10030    2    1    2    0    0  0.00000000000E+00  0.00000000000E+00  0.88509759676E+03  0.10160061411E+04  0.49886944474E+03 0.  0.
        5    1    3    3  502    0 -0.24084682558E+03  0.64703429921E+02  0.44532897926E+03  0.51042503563E+03  0.46999998093E+01 0.  1.
       -5    1    3    3    0  502  0.24084682558E+03 -0.64703429921E+02  0.43976861750E+03  0.50558110543E+03  0.46999998093E+01 0. -1.
</event>
<event>
 5   0  0.1227864E-02  0.4998788E+03  0.7818609E-02  0.1013811E+00
        1   -1    0    0  501    0  0.00000000000E+00  0.00000000000E+00  0.14309901930E+04  0.14309901930E+04  0.50400001928E-02 0.  1.
       -1   -1    0    0    0  501  0.00000000000E+00  0.00000000000E+00 -0.43654884312E+02  0.43654884603E+02  0.50400001928E-02 0. -1.
    10030    2    1    2    0    0  0.00000000000E+00  0.00000000000E+00  0.13873353086E+04  0.14746450776E+04  0.49987883150E+03 0.  0.
        5    1    3    3  502    0 -0.42997159326E+02  0.22669329055E+03  0.97676084093E+03  0.10036545392E+04  0.46999998093E+01 0. -1.
       -5    1    3    3    0  502  0.42997159326E+02 -0.22669329055E+03  0.41057446771E+03  0.47099053837E+03  0.46999998093E+01 0.  1.
</event>
<event>
 5   0  0.1855407E-02  0.5007793E+03  0.7818609E-02  0.1013576E+00
       -2   -1    0    0    0  501  0.00000000000E+00  0.00000000000E+00  0.53335209008E+02  0.53335209069E+02  0.25500000920E-02 0.  1.
        2   -1    0    0  501    0  0.00000000000E+00  0.00000000000E+00 -0.11754894226E+04  0.11754894226E+04  0.25500000920E-02 0. -1.
    10030    2    1    2    0    0  0.00000000000E+00  0.00000000000E+00 -0.11221542136E+04  0.12288246316E+04  0.50077928902E+03 0.  0.
        1    1    3    3  502    0 -0.16689565415E+03  0.10230484152E+03 -0.17797749634E+03  0.26456838285E+03  0.50400001928E-02 0.  1.
       -1    1    3    3    0  502  0.16689565415E+03 -0.10230484152E+03 -0.94417671723E+03  0.96425624880E+03  0.50400001928E-02 0. -1.
</event>
<event>
 5   0  0.1180937E-02  0.5003707E+03  0.7818609E-02  0.1013682E+00
        1   -1    0    0  501    0  0.00000000000E+00  0.00000000000E+00  0.50195267560E+03  0.50195267562E+03  0.50400001928E-02 0.  1.
       -1   -1    0    0    0  501  0.00000000000E+00  0.00000000000E+00 -0.12469841729E+03  0.12469841739E+03  0.50400001928E-02 0. -1.
    10030    2    1    2    0    0  0.00000000000E+00  0.00000000000E+00  0.37725425831E+03  0.62665109302E+03  0.50037067957E+03 0.  0.
        1    1    3    3  502    0  0.82745185736E+02 -0.10977524763E+03  0.45041617927E+03  0.47092685772E+03  0.50400001928E-02 0.  1.
       -1    1    3    3    0  502 -0.82745185736E+02  0.10977524763E+03 -0.73161920959E+02  0.15572423530E+03  0.50400001928E-02 0. -1.
</event>
<event>
 5   0  0.1941387E-02  0.5005696E+03  0.7818609E-02  0.1013630E+00
       -2   -1    0    0    0  501  0.00000000000E+00  0.00000000000E+00  0.32837427408E+03  0.32837427409E+03  0.25500000920E-02 0.  1.
        2   -1    0    0  501    0  0.00000000000E+00  0.00000000000E+00 -0.19076553045E+03  0.19076553047E+03  0.25500000920E-02 0. -1.
    10030    2    1    2    0    0  0.00000000000E+00  0.00000000000E+00  0.13760874363E+03  0.51913980456E+03  0.50056964586E+03 0.  0.
        4    1    3    3  502    0 -0.54968441472E+02  0.22841430823E+03  0.15829730438E+03  0.28329185522E+03  0.12699999809E+01 0. -1.
       -4    1    3    3    0  502  0.54968441472E+02 -0.22841430823E+03 -0.20688560752E+02  0.23584794934E+03  0.12699999809E+01 0.  1.
</event>
<event>
 5   0  0.1923706E-02  0.5043761E+03  0.7818609E-02  0.1012643E+00
        2   -1    0    0  501    0  0.00000000000E+00  0.00000000000E+00  0.70962958497E+03  0.70962958497E+03  0.25500000920E-02 0.  1.
       -2   -1    0    0    0  501  0.00000000000E+00  0.00000000000E+00 -0.89622556618E+02  0.89622556655E+02  0.25500000920E-02 0. -1.
    10030    2    1    2    0    0  0.00000000000E+00  0.00000000000E+00  0.62000702835E+03  0.79925214163E+03  0.50437612026E+03 0.  0.
        3    1    3    3  502    0  0.19794409539E+03 -0.18927856843E+02  0.64212965493E+02  0.20895799531E+03  0.10100000352E+00 0. -1.
       -3    1    3    3    0  502 -0.19794409539E+03  0.18927856843E+02  0.55579406286E+03  0.59029414632E+03  0.10100000352E+00 0.  1.
</event>
<event>
 5   0  0.1180937E-02  0.4998638E+03  0.7818609E-02  0.1013814E+00
        1   -1    0    0  501    0  0.00000000000E+00  0.00000000000E+00  0.17495929885E+04  0.17495929885E+04  0.50400001928E-02 0.  1.
       -1   -1    0    0    0  501  0.00000000000E+00  0.00000000000E+00 -0.35703128515E+02  0.35703128871E+02  0.50400001928E-02 0. -1.
    10030    2    1    2    0    0  0.00000000000E+00  0.00000000000E+00  0.17138898600E+04  0.17852961174E+04  0.49986375601E+03 0.  0.
        1    1    3    3  502    0 -0.20147662495E+03 -0.18309450311E+02  0.13811003259E+04  0.13958388792E+04  0.50400001928E-02 0.  1.
       -1    1    3    3    0  502  0.20147662495E+03  0.18309450311E+02  0.33278953406E+03  0.38945723819E+03  0.50400001928E-02 0. -1.
</event>
<event>
 5   0  0.1227864E-02  0.5025865E+03  0.7818609E-02  0.1013106E+00
        1   -1    0    0  501    0  0.00000000000E+00  0.00000000000E+00  0.59205109234E+03  0.59205109236E+03  0.50400001928E-02 0.  1.
       -1   -1    0    0    0  501  0.00000000000E+00  0.00000000000E+00 -0.10666020129E+03  0.10666020140E+03  0.50400001928E-02 0. -1.
    10030    2    1    2    0    0  0.00000000000E+00  0.00000000000E+00  0.48539089105E+03  0.69871129377E+03  0.50258646512E+03 0.  0.
        5    1    3    3  502    0  0.17770587556E+03 -0.12539515355E+03  0.41757123439E+03  0.47084089514E+03  0.46999998093E+01 0.  1.
       -5    1    3    3    0  502 -0.17770587556E+03  0.12539515355E+03  0.67819656661E+02  0.22787039863E+03  0.46999998093E+01 0. -1.
</event>
<event>
 5   0  0.1227864E-02  0.5004833E+03  0.7818609E-02  0.1013653E+00
        1   -1    0    0  501    0  0.00000000000E+00  0.00000000000E+00  0.35290462065E+03  0.35290462069E+03  0.50400001928E-02 0.  1.
       -1   -1    0    0    0  501  0.00000000000E+00  0.00000000000E+00 -0.17744423829E+03  0.17744423836E+03  0.50400001928E-02 0. -1.
    10030    2    1    2    0    0  0.00000000000E+00  0.00000000000E+00  0.17546038237E+03  0.53034885905E+03  0.50048333290E+03 0.  0.
        5    1    3    3  502    0 -0.23940277014E+03  0.34661965634E+02  0.15544707888E+03  0.28757785475E+03  0.46999998093E+01 0.  1.
       -5    1    3    3    0  502  0.23940277014E+03 -0.34661965634E+02  0.20013303487E+02  0.24277100430E+03  0.46999998093E+01 0. -1.
</event>
<event>
 5   0  0.1217270E-02  0.4997558E+03  0.7818609E-02  0.1013843E+00
        1   -1    0    0  501    0  0.00000000000E+00  0.00000000000E+00  0.22813880057E+04  0.22813880057E+04  0.50400001928E-02 0.  1.
       -1   -1    0    0    0  501  0.00000000000E+00  0.00000000000E+00 -0.27368853807E+02  0.27368854271E+02  0.50400001928E-02 0. -1.
    10030    2    1    2    0    0  0.00000000000E+00  0.00000000000E+00  0.22540191519E+04  0.23087568600E+04  0.49975584177E+03 0.  0.
        2    1    3    3  502    0 -0.95965596891E+02  0.48511821492E+02  0.21690332326E+04  0.21716970223E+04  0.25500000920E-02 0.  1.
       -2    1    3    3    0  502  0.95965596891E+02 -0.48511821492E+02  0.84985919258E+02  0.13705983763E+03  0.25500000920E-02 0. -1.
</event>
<event>
 5   0  0.1923706E-02  0.4992729E+03  0.7818609E-02  0.1013969E+00
       -2   -1    0    0    0  501  0.00000000000E+00  0.00000000000E+00  0.75256400734E+02  0.75256400778E+02  0.25500000920E-02 0.  1.
        2   -1    0    0  501    0  0.00000000000E+00  0.00000000000E+00 -0.82808033859E+03  0.82808033859E+03  0.25500000920E-02 0. -1.
    10030    2    1    2    0    0  0.00000000000E+00  0.00000000000E+00 -0.75282393786E+03  0.90333673937E+03  0.49927285455E+03 0.  0.
        3    1    3    3  502    0 -0.21853063620E+03  0.41943252827E+02 -0.58113909859E+03  0.62228412925E+03  0.10100000352E+00 0. -1.
       -3    1    3    3    0  502  0.21853063620E+03 -0.41943252827E+02 -0.17168483927E+03  0.28105261012E+03  0.10100000352E+00 0.  1.
</event>
<event>
 5   0  0.1982847E-02  0.5022943E+03  0.7818609E-02  0.1013182E+00
        2   -1    0    0  501    0  0.00000000000E+00  0.00000000000E+00  0.15128699014E+03  0.15128699016E+03  0.25500000920E-02 0. -1.
       -2   -1    0    0    0  501  0.00000000000E+00  0.00000000000E+00 -0.41692213677E+03  0.41692213677E+03  0.25500000920E-02 0.  1.
    10030    2    1    2    0    0  0.00000000000E+00  0.00000000000E+00 -0.26563514663E+03  0.56820912694E+03  0.50229431692E+03 0.  0.
        2    1    3    3  502    0 -0.24086123778E+03  0.68471596765E+02 -0.11098752775E+03  0.27389911783E+03  0.25500000920E-02 0. -1.
       -2    1    3    3    0  502  0.24086123778E+03 -0.68471596765E+02 -0.15464761887E+03  0.29431000910E+03  0.25500000920E-02 0.  1.
</event>
<event>
 5   0  0.1923706E-02  0.4992924E+03  0.7818609E-02  0.1013964E+00
        2   -1    0    0  501    0  0.00000000000E+00  0.00000000000E+00  0.51928434475E+03  0.51928434476E+03  0.25500000920E-02 0.  1.
       -2   -1    0    0    0  501  0.00000000000E+00  0.00000000000E+00 -0.12001751246E+03  0.12001751249E+03  0.25500000920E-02 0. -1.
    10030    2    1    2    0    0  0.00000000000E+00  0.00000000000E+00  0.39926683229E+03  0.63930185724E+03  0.49929236056E+03 0.  0.
        3    1    3    3  502    0 -0.15666717783E+03  0.18534054104E+03  0.12467182678E+03  0.27283474001E+03  0.10100000352E+00 0. -1.
       -3    1    3    3    0  502  0.15666717783E+03 -0.18534054104E+03  0.27459500551E+03  0.36646711723E+03  0.10100000352E+00 0.  1.
</event>
<event>
 5   0  0.1982847E-02  0.4995221E+03  0.7818609E-02  0.1013904E+00
        2   -1    0    0  501    0  0.00000000000E+00  0.00000000000E+00  0.26592139922E+03  0.26592139924E+03  0.25500000920E-02 0.  1.
       -2   -1    0    0    0  501  0.00000000000E+00  0.00000000000E+00 -0.23458274992E+03  0.23458274993E+03  0.25500000920E-02 0. -1.
    10030    2    1    2    0    0  0.00000000000E+00  0.00000000000E+00  0.31338649305E+02  0.50050414917E+03  0.49952206397E+03 0.  0.
        2    1    3    3  502    0  0.19377643810E+03 -0.10065955344E+03 -0.10580813770E+03  0.24264586473E+03  0.25500000920E-02 0. -1.
       -2    1    3    3    0  502 -0.19377643810E+03  0.10065955344E+03  0.13714678700E+03  0.25785828444E+03  0.25500000920E-02 0.  1.
</event>
<event>
 5   0  0.1923706E-02  0.4995294E+03  0.7818609E-02  0.1013902E+00
       -2   -1    0    0    0  501  0.00000000000E+00  0.00000000000E+00  0.10288223583E+03  0.10288223587E+03  0.25500000920E-02 0. -1.
        2   -1    0    0  501    0  0.00000000000E+00  0.00000000000E+00 -0.60634767594E+03  0.60634767595E+03  0.25500000920E-02 0.  1.
    10030    2    1    2    0    0  0.00000000000E+00  0.00000000000E+00 -0.50346544011E+03  0.70922991181E+03  0.49952939696E+03 0.  0.
        3    1    3    3  502    0 -0.82030463534E+02  0.98251716849E+02 -0.55624506031E+03  0.57078102117E+03  0.10100000352E+00 0.  1.
       -3    1    3    3    0  502  0.82030463534E+02 -0.98251716849E+02  0.52779620198E+02  0.13844889064E+03  0.10100000352E+00 0. -1.
</event>
<event>
 5   0  0.1967813E-02  0.4993676E+03  0.7818609E-02  0.1013944E+00
       -2   -1    0    0    0  501  0.00000000000E+00  0.00000000000E+00  0.50508439986E+02  0.50508440051E+02  0.25500000920E-02 0. -1.
        2   -1    0    0  501    0  0.00000000000E+00  0.00000000000E+00 -0.12342888824E+04  0.12342888824E+04  0.25500000920E-02 0.  1.
    10030    2    1    2    0    0  0.00000000000E+00  0.00000000000E+00 -0.11837804424E+04  0.12847973224E+04  0.49936762404E+03 0.  0.
        5    1    3    3  502    0  0.43471663125E+02  0.20818580465E+03 -0.92822365414E+03  0.95228795900E+03  0.46999998093E+01 0. -1.
       -5    1    3    3    0  502 -0.43471663125E+02 -0.20818580465E+03 -0.25555678826E+03  0.33250936344E+03  0.46999998093E+01 0.  1.
</event>
<event>
 5   0  0.1941387E-02  0.5002761E+03  0.7818609E-02  0.1013707E+00
       -2   -1    0    0    0  501  0.00000000000E+00  0.00000000000E+00  0.15408443930E+03  0.15408443932E+03  0.25500000920E-02 0. -1.
        2   -1    0    0  501    0  0.00000000000E+00  0.00000000000E+00 -0.40606981153E+03  0.40606981154E+03  0.25500000920E-02 0.  1.
    10030    2    1    2    0    0  0.00000000000E+00  0.00000000000E+00 -0.25198537224E+03  0.56015425086E+03  0.50027608071E+03 0.  0.
        4    1    3    3  502    0  0.22456463640E+03 -0.65991512826E+01 -0.24913113568E+03  0.33547095311E+03  0.12699999809E+01 0.  1.
       -4    1    3    3    0  502 -0.22456463640E+03  0.65991512826E+01 -0.28542365590E+01  0.22468329774E+03  0.12699999809E+01 0. -1.
</event>
<event>
 5   0  0.1941387E-02  0.4990653E+03  0.7818609E-02  0.1014023E+00
       -2   -1    0    0    0  501  0.00000000000E+00  0.00000000000E+00  0.87420402767E+02  0.87420402804E+02  0.25500000920E-02 0. -1.
        2   -1    0    0  501    0  0.00000000000E+00  0.00000000000E+00 -0.71226563626E+03  0.71226563627E+03  0.25500000920E-02 0.  1.
    10030    2    1    2    0    0  0.00000000000E+00  0.00000000000E+00 -0.62484523350E+03  0.79968603907E+03  0.49906532164E+03 0.  0.
        4    1    3    3  502    0  0.86627580144E+02  0.15443103688E+03 -0.59414622140E+03  0.61997147361E+03  0.12699999809E+01 0.  1.
       -4    1    3    3    0  502 -0.86627580144E+02 -0.15443103688E+03 -0.30699012099E+02  0.17971456546E+03  0.12699999809E+01 0. -1.
</event>
<event>
 5   0  0.1180937E-02  0.5003805E+03  0.7818609E-02  0.1013680E+00
       -1   -1    0    0    0  501  0.00000000000E+00  0.00000000000E+00  0.21290853110E+03  0.21290853116E+03  0.50400001928E-02 0. -1.
        1   -1    0    0  501    0  0.00000000000E+00  0.00000000000E+00 -0.29400021910E+03  0.29400021914E+03  0.50400001928E-02 0.  1.
    10030    2    1    2    0    0  0.00000000000E+00  0.00000000000E+00 -0.81091688003E+02  0.50690875030E+03  0.50038047451E+03 0.  0.
        1    1    3    3  502    0  0.17899620543E+03 -0.80279894340E+02  0.11675603451E+03  0.22829032965E+03  0.50400001928E-02 0. -1.
       -1    1    3    3    0  502 -0.17899620543E+03  0.80279894340E+02 -0.19784772251E+03  0.27861842064E+03  0.50400001928E-02 0.  1.
</event>
<event>
 5   0  0.1982847E-02  0.4993218E+03  0.7818609E-02  0.1013956E+00
       -2   -1    0    0    0  501  0.00000000000E+00  0.00000000000E+00  0.94561755937E+02  0.94561755971E+02  0.25500000920E-02 0. -1.
        2   -1    0    0  501    0  0.00000000000E+00  0.00000000000E+00 -0.65915184215E+03  0.65915184216E+03  0.25500000920E-02 0.  1.
    10030    2    1    2    0    0  0.00000000000E+00  0.00000000000E+00 -0.56459008621E+03  0.75371359813E+03  0.49932176254E+03 0.  0.
        2    1    3    3  502    0 -0.22341929549E+03  0.86481969908E+02 -0.38833758334E+03  0.45629090650E+03  0.25500000920E-02 0.  1.
       -2    1    3    3    0  502  0.22341929549E+03 -0.86481969908E+02 -0.17625250287E+03  0.29742269162E+03  0.25500000920E-02 0. -1.
</event>
<event>
 5   0  0.1227864E-02  0.4998347E+03  0.7818609E-02  0.1013822E+00
       -1   -1    0    0    0  501  0.00000000000E+00  0.00000000000E+00  0.12588582937E+03  0.12588582947E+03  0.50400001928E-02 0. -1.
        1   -1    0    0  501    0  0.00000000000E+00  0.00000000000E+00 -0.49615332248E+03  0.49615332250E+03  0.50400001928E-02 0.  1.
    10030    2    1    2    0    0  0.00000000000E+00  0.00000000000E+00 -0.37026749311E+03  0.62203915197E+03  0.49983466280E+03 0.  0.
        5    1    3    3  502    0 -0.14499259736E+03  0.76222208633E+02 -0.41995649223E+03  0.45079732002E+03  0.46999998093E+01 0.  1.
       -5    1    3    3    0  502  0.14499259736E+03 -0.76222208633E+02  0.49688999119E+02  0.17124183195E+03  0.46999998093E+01 0. -1.
</event>
<event>
 5   0  0.1209831E-02  0.5002822E+03  0.7818609E-02  0.1013705E+00
        1   -1    0    0  501    0  0.00000000000E+00  0.00000000000E+00  0.18246793383E+03  0.18246793390E+03  0.50400001928E-02 0. -1.
       -1   -1    0    0    0  501  0.00000000000E+00  0.00000000000E+00 -0.34291264266E+03  0.34291264270E+03  0.50400001928E-02 0.  1.
    10030    2    1    2    0    0  0.00000000000E+00  0.00000000000E+00 -0.16044470883E+03  0.52538057660E+03  0.50028216606E+03 0.  0.
        4    1    3    3  502    0  0.21191388513E+03 -0.51156633066E+02 -0.20903164487E+03  0.30202704726E+03  0.12699999809E+01 0.  1.
       -4    1    3    3    0  502 -0.21191388513E+03  0.51156633066E+02  0.48586936034E+02  0.22335352935E+03  0.12699999809E+01 0. -1.
</event>
<event>
 5   0  0.1225989E-02  0.5044196E+03  0.7818609E-02  0.1012632E+00
       -1   -1    0    0    0  501  0.00000000000E+00  0.00000000000E+00  0.23498120933E+03  0.23498120938E+03  0.50400001928E-02 0.  1.
        1   -1    0    0  501    0  0.00000000000E+00  0.00000000000E+00 -0.27070159603E+03  0.27070159608E+03  0.50400001928E-02 0. -1.
    10030    2    1    2    0    0  0.00000000000E+00  0.00000000000E+00 -0.35720386706E+02  0.50568280546E+03  0.50441962067E+03 0.  0.
        3    1    3    3  502    0 -0.57171555914E+02  0.29142667786E+02  0.22666022029E+03  0.23556898683E+03  0.10100000352E+00 0.  1.
       -3    1    3    3    0  502  0.57171555914E+02 -0.29142667786E+02 -0.26238060700E+03  0.27011381864E+03  0.10100000352E+00 0. -1.
</event>
<event>
 5   0  0.1855407E-02  0.5000197E+03  0.7818609E-02  0.1013774E+00
       -2   -1    0    0    0  501  0.00000000000E+00  0.00000000000E+00  0.80136534627E+02  0.80136534667E+02  0.25500000920E-02 0.  1.
        2   -1    0    0  501    0  0.00000000000E+00  0.00000000000E+00 -0.77998038571E+03  0.77998038572E+03  0.25500000920E-02 0. -1.
    10030    2    1    2    0    0  0.00000000000E+00  0.00000000000E+00 -0.69984385108E+03  0.86011692038E+03  0.50001970044E+03 0.  0.
        1    1    3    3  502    0  0.20256901607E+03  0.14532145745E+03 -0.31763074227E+03  0.40378437405E+03  0.50400001928E-02 0.  1.
       -1    1    3    3    0  502 -0.20256901607E+03 -0.14532145745E+03 -0.38221310881E+03  0.45633254633E+03  0.50400001928E-02 0. -1.
</event>
<event>
 5   0  0.1923706E-02  0.4997929E+03  0.7818609E-02  0.1013833E+00
        2   -1    0    0  501    0  0.00000000000E+00  0.00000000000E+00  0.10413153788E+04  0.10413153788E+04  0.25500000920E-02 0.  1.
       -2   -1    0    0    0  501  0.00000000000E+00  0.00000000000E+00 -0.59970526852E+02  0.59970526906E+02  0.25500000920E-02 0. -1.
    10030    2    1    2    0    0  0.00000000000E+00  0.00000000000E+00  0.98134485197E+03  0.11012859057E+04  0.49979288478E+03 0.  0.
        3    1    3    3  502    0  0.21059130028E+03  0.11662411395E+03  0.63845943101E+03  0.68233447440E+03  0.10100000352E+00 0.  1.
       -3    1    3    3    0  502 -0.21059130028E+03 -0.11662411395E+03  0.34288542096E+03  0.41895143133E+03  0.10100000352E+00 0. -1.
</event>
<event>
 5   0  0.1967813E-02  0.5000899E+03  0.7818609E-02  0.1013755E+00
       -2   -1    0    0    0  501  0.00000000000E+00  0.00000000000E+00  0.29793864368E+03  0.29793864369E+03  0.25500000920E-02 0. -1.
        2   -1    0    0  501    0  0.00000000000E+00  0.00000000000E+00 -0.20985020222E+03  0.20985020224E+03  0.25500000920E-02 0.  1.
    10030    2    1    2    0    0  0.00000000000E+00  0.00000000000E+00  0.88088441457E+02  0.50778884593E+03  0.50008993045E+03 0.  0.
        5    1    3    3  502    0 -0.19016604396E+03 -0.64275981860E+02 -0.10726623142E+03  0.22764591039E+03  0.46999998093E+01 0.  1.
       -5    1    3    3    0  502  0.19016604396E+03  0.64275981860E+02  0.19535467288E+03  0.28014293554E+03  0.46999998093E+01 0. -1.
</event>
<event>
 5   0  0.1227864E-02  0.5003297E+03  0.7818609E-02  0.1013693E+00
        1   -1    0    0  501    0  0.00000000000E+00  0.00000000000E+00  0.68143603589E+03  0.68143603590E+03  0.50400001928E-02 0. -1.
       -1   -1    0    0    0  501  0.00000000000E+00  0.00000000000E+00 -0.91839065726E+02  0.91839065865E+02  0.50400001928E-02 0.  1.
    10030    2    1    2    0    0  0.00000000000E+00  0.00000000000E+00  0.58959697016E+03  0.77327510177E+03  0.50032968710E+03 0.  0.
        5    1    3    3  502    0  0.21932007575E+03  0.11383266335E+03  0.23491662151E+03  0.34097958873E+03  0.46999998093E+01 0. -1.
       -5    1    3    3    0  502 -0.21932007575E+03 -0.11383266335E+03  0.35468034865E+03  0.43229551304E+03  0.46999998093E+01 0.  1.
</event>
<event>
 5   0  0.1923706E-02  0.4988012E+03  0.7818609E-02  0.1014092E+00
       -2   -1    0    0    0  501  0.00000000000E+00  0.00000000000E+00  0.53109380385E+02  0.53109380446E+02  0.25500000920E-02 0.  1.
        2   -1    0    0  501    0  0.00000000000E+00  0.00000000000E+00 -0.11711800789E+04  0.11711800789E+04  0.25500000920E-02 0. -1.
    10030    2    1    2    0    0  0.00000000000E+00  0.00000000000E+00 -0.11180706985E+04  0.12242894593E+04  0.49880115616E+03 0.  0.
        3    1    3    3  502    0 -0.24751336026E+03  0.27345452377E+02 -0.59286787797E+03  0.64304196457E+03  0.10100000352E+00 0.  1.
       -3    1    3    3    0  502  0.24751336026E+03 -0.27345452377E+02 -0.52520282053E+03  0.58124749476E+03  0.10100000352E+00 0. -1.
</event>
<event>
 5   0  0.1941387E-02  0.4995965E+03  0.7818609E-02  0.1013884E+00
        2   -1    0    0  501    0  0.00000000000E+00  0.00000000000E+00  0.29478720662E+03  0.29478720663E+03  0.25500000920E-02 0.  1.
       -2   -1    0    0    0  501  0.00000000000E+00  0.00000000000E+00 -0.21167530982E+03  0.21167530984E+03  0.25500000920E-02 0. -1.
    10030    2    1    2    0    0  0.00000000000E+00  0.00000000000E+00  0.83111896800E+02  0.50646251647E+03  0.49959653041E+03 0.  0.
        4    1    3    3  502    0  0.14497719554E+03  0.94397960372E+02 -0.14110974487E+03  0.22325531381E+03  0.12699999809E+01 0. -1.
       -4    1    3    3    0  502 -0.14497719554E+03 -0.94397960372E+02  0.22422164167E+03  0.28320720266E+03  0.12699999809E+01 0.  1.
</event>
<event>
 5   0  0.1967813E-02  0.4995725E+03  0.7818609E-02  0.1013891E+00
        2   -1    0    0  501    0  0.00000000000E+00  0.00000000000E+00  0.94024210865E+03  0.94024210865E+03  0.25500000920E-02 0. -1.
       -2   -1    0    0    0  501  0.00000000000E+00  0.00000000000E+00 -0.66358632185E+02  0.66358632234E+02  0.25500000920E-02 0.  1.
    10030    2    1    2    0    0  0.00000000000E+00  0.00000000000E+00  0.87388347647E+03  0.10066007409E+04  0.49957253839E+03 0.  0.
        5    1    3    3  502    0  0.96496587026E+02  0.13860196871E+03  0.80764940393E+03  0.82513135119E+03  0.46999998093E+01 0. -1.
       -5    1    3    3    0  502 -0.96496587026E+02 -0.13860196871E+03  0.66234072532E+02  0.18146938970E+03  0.46999998093E+01 0.  1.
</event>
<event>
 5   0  0.1225989E-02  0.4996222E+03  0.7818609E-02  0.1013878E+00
        1   -1    0    0  501    0  0.00000000000E+00  0.00000000000E+00  0.87277339183E+03  0.87277339184E+03  0.50400001928E-02 0.  1.
       -1   -1    0    0    0  501  0.00000000000E+00  0.00000000000E+00 -0.71502627637E+02  0.71502627814E+02  0.50400001928E-02 0. -1.
    10030    2    1    2    0    0  0.00000000000E+00  0.00000000000E+00  0.80127076419E+03  0.94427601966E+03  0.49962222103E+03 0.  0.
        3    1    3    3  502    0 -0.23453405751E+03 -0.85602098413E+02  0.41663195594E+03  0.48571199316E+03  0.10100000352E+00 0. -1.
       -3    1    3    3    0  502  0.23453405751E+03  0.85602098413E+02  0.38463880825E+03  0.45856402650E+03  0.10100000352E+00 0.  1.
</event>
<event>
 5   0  0.1923706E-02  0.4994397E+03  0.7818609E-02  0.1013925E+00
        2   -1    0    0  501    0  0.00000000000E+00  0.00000000000E+00  0.26379857727E+03  0.26379857729E+03  0.25500000920E-02 0.  1.
       -2   -1    0    0    0  501  0.00000000000E+00  0.00000000000E+00 -0.23639250928E+03  0.23639250929E+03  0.25500000920E-02 0. -1.
    10030    2    1    2    0    0  0.00000000000E+00  0.00000000000E+00  0.27406067997E+02  0.50019108658E+03  0.49943971661E+03 0.  0.
        3    1    3    3  502    0 -0.20735218038E+02 -0.10763520488E+03  0.23841686209E+03  0.26240788275E+03  0.10100000352E+00 0.  1.
       -3    1    3    3    0  502  0.20735218038E+02  0.10763520488E+03 -0.21101079410E+03  0.23778320383E+03  0.10100000352E+00 0. -1.
</event>
<event>
 5   0  0.1855407E-02  0.5001895E+03  0.7818609E-02  0.1013729E+00
       -2   -1    0    0    0  501  0.00000000000E+00  0.00000000000E+00  0.36539109279E+02  0.36539109368E+02  0.25500000920E-02 0.  1.
        2   -1    0    0  501    0  0.00000000000E+00  0.00000000000E+00 -0.17117926302E+04  0.17117926302E+04  0.25500000920E-02 0. -1.
    10030    2    1    2    0    0  0.00000000000E+00  0.00000000000E+00 -0.16752535209E+04  0.17483317395E+04  0.50018947632E+03 0.  0.
        1    1    3    3  502    0  0.19568096560E+03  0.31500184076E+02 -0.30449789552E+03  0.36332116687E+03  0.50400001928E-02 0.  1.
       -1    1    3    3    0  502 -0.19568096560E+03 -0.31500184076E+02 -0.13707556254E+04  0.13850105727E+04  0.50400001928E-02 0. -1.
</event>
<event>
 5   0  0.1941387E-02  0.4992336E+03  0.7818609E-02  0.1013979E+00
       -2   -1    0    0    0  501  0.00000000000E+00  0.00000000000E+00  0.70712092579E+02  0.70712092625E+02  0.25500000920E-02 0. -1.
        2   -1    0    0  501    0  0.00000000000E+00  0.00000000000E+00 -0.88115822406E+03  0.88115822406E+03  0.25500000920E-02 0.  1.
    10030    2    1    2    0    0  0.00000000000E+00  0.00000000000E+00 -0.81044613148E+03  0.95187031669E+03  0.49923358036E+03 0.  0.
        4    1    3    3  502    0  0.97982808580E+01 -0.14866613127E+03 -0.78707637412E+03  0.80105459021E+03  0.12699999809E+01 0.  1.
       -4    1    3    3    0  502 -0.97982808580E+01  0.14866613127E+03 -0.23369757365E+02  0.15081572648E+03  0.12699999809E+01 0. -1.
</event>
<event>
 5   0  0.1855407E-02  0.4986874E+03  0.7818609E-02  0.1014122E+00
        2   -1    0    0  501    0  0.00000000000E+00  0.00000000000E+00  0.16538544396E+04  0.16538544396E+04  0.25500000920E-02 0.  1.
       -2   -1    0    0    0  501  0.00000000000E+00  0.00000000000E+00 -0.37592349764E+02  0.37592349851E+02  0.25500000920E-02 0. -1.
    10030    2    1    2    0    0  0.00000000000E+00  0.00000000000E+00  0.16162620898E+04  0.16914467894E+04  0.49868737552E+03 0.  0.
        1    1    3    3  502    0  0.11109799095E+03  0.46989272746E+02  0.67960856361E+02  0.13845372284E+03  0.50400001928E-02 0. -1.
       -1    1    3    3    0  502 -0.11109799095E+03 -0.46989272746E+02  0.15483012335E+04  0.15529930666E+04  0.50400001928E-02 0.  1.
</event>
<event>
 5   0  0.1923706E-02  0.5041237E+03  0.7818609E-02  0.1012708E+00
       -2   -1    0    0    0  501  0.00000000000E+00  0.00000000000E+00  0.94355597028E+02  0.94355597063E+02  0.25500000920E-02 0. -1.
        2   -1    0    0  501    0  0.00000000000E+00  0.00000000000E+00 -0.67335872111E+03  0.67335872111E+03  0.25500000920E-02 0.  1.
    10030    2    1    2    0    0  0.00000000000E+00  0.00000000000E+00 -0.57900312408E+03  0.76771431817E+03  0.50412365213E+03 0.  0.
        3    1    3    3  502    0  0.49982232156E+02  0.84870669474E+02 -0.64283967708E+03  0.65034153696E+03  0.10100000352E+00 0.  1.
       -3    1    3    3    0  502 -0.49982232156E+02 -0.84870669474E+02  0.63836553005E+02  0.11737278121E+03  0.10100000352E+00 0. -1.
</event>
<event>
 5   0  0.1982847E-02  0.4994408E+03  0.7818609E-02  0.1013925E+00
        2   -1    0    0  501    0  0.00000000000E+00  0.00000000000E+00  0.65701322643E+02  0.65701322692E+02  0.25500000920E-02 0.  1.
       -2   -1    0    0    0  501  0.00000000000E+00  0.00000000000E+00 -0.94914804879E+03  0.94914804880E+03  0.25500000920E-02 0. -1.
    10030    2    1    2    0    0  0.00000000000E+00  0.00000000000E+00 -0.88344672615E+03  0.10148493715E+04  0.49944081618E+03 0.  0.
        2    1    3    3  502    0  0.75794704809E+02  0.10133902246E+03 -0.42788541261E+01  0.12662046971E+03  0.25500000920E-02 0.  1.
       -2    1    3    3    0  502 -0.75794704809E+02 -0.10133902246E+03 -0.87916787202E+03  0.88822890178E+03  0.25500000920E-02 0. -1.
</event>
<event>
 5   0  0.1855407E-02  0.5050616E+03  0.7818609E-02  0.1012466E+00
       -2   -1    0    0    0  501  0.00000000000E+00  0.00000000000E+00  0.81553035642E+02  0.81553035681E+02  0.25500000920E-02 0. -1.
        2   -1    0    0  501    0  0.00000000000E+00  0.00000000000E+00 -0.78196719798E+03  0.78196719799E+03  0.25500000920E-02 0.  1.
    10030    2    1    2    0    0  0.00000000000E+00  0.00000000000E+00 -0.70041416234E+03  0.86352023367E+03  0.50506157560E+03 0.  0.
        1    1    3    3  502    0  0.45874670646E+02 -0.82253404399E+02 -0.75081640128E+03  0.75670032140E+03  0.50400001928E-02 0.  1.
       -1    1    3    3    0  502 -0.45874670646E+02  0.82253404399E+02  0.50402238941E+02  0.10681991227E+03  0.50400001928E-02 0. -1.
</event>
<event>
 5   0  0.1982847E-02  0.5010480E+03  0.7818609E-02  0.1013506E+00
       -2   -1    0    0    0  501  0.00000000000E+00  0.00000000000E+00  0.83630695539E+02  0.83630695578E+02  0.25500000920E-02 0. -1.
        2   -1    0    0  501    0  0.00000000000E+00  0.00000000000E+00 -0.75046930250E+03  0.75046930251E+03  0.25500000920E-02 0.  1.
    10030    2    1    2    0    0  0.00000000000E+00  0.00000000000E+00 -0.66683860696E+03  0.83409999808E+03  0.50104798080E+03 0.  0.
        2    1    3    3  502    0  0.22091366079E+03  0.95447991768E+02 -0.21749630594E+03  0.32437294549E+03  0.25500000920E-02 0. -1.
       -2    1    3    3    0  502 -0.22091366079E+03 -0.95447991768E+02 -0.44934230102E+03  0.50972705260E+03  0.25500000920E-02 0.  1.
</event>
<event>
 5   0  0.1209831E-02  0.5001549E+03  0.7818609E-02  0.1013739E+00
       -1   -1    0    0    0  501  0.00000000000E+00  0.00000000000E+00  0.40086872161E+03  0.40086872165E+03  0.50400001928E-02 0. -1.
        1   -1    0    0  501    0  0.00000000000E+00  0.00000000000E+00 -0.15600798370E+03  0.15600798378E+03  0.50400001928E-02 0.  1.
    10030    2    1    2    0    0  0.00000000000E+00  0.00000000000E+00  0.24486073791E+03  0.55687670543E+03  0.50015486009E+03 0.  0.
        4    1    3    3  502    0  0.89328396631E+02 -0.14935767867E+03  0.32237892380E+03  0.36635646853E+03  0.12699999809E+01 0. -1.
       -4    1    3    3    0  502 -0.89328396631E+02  0.14935767867E+03 -0.77518185890E+02  0.19052023689E+03  0.12699999809E+01 0.  1.
</event>
<event>
 5   0  0.1217270E-02  0.4992884E+03  0.7818609E-02  0.1013965E+00
       -1   -1    0    0    0  501  0.00000000000E+00  0.00000000000E+00  0.89272214542E+03  0.89272214543E+03  0.50400001928E-02 0.  1.
        1   -1    0    0  501    0  0.00000000000E+00  0.00000000000E+00 -0.69811459269E+02  0.69811459451E+02  0.50400001928E-02 0. -1.
    10030    2    1    2    0    0  0.00000000000E+00  0.00000000000E+00  0.82291068615E+03  0.96253360488E+03  0.49928843683E+03 0.  0.
        2    1    3    3  502    0  0.21523538351E+03  0.43859237334E+01  0.16778182758E+03  0.27294000864E+03  0.25500000920E-02 0. -1.
       -2    1    3    3    0  502 -0.21523538351E+03 -0.43859237334E+01  0.65512885857E+03  0.68959359625E+03  0.25500000920E-02 0.  1.
</event>
<event>
 5   0  0.1217270E-02  0.4991491E+03  0.7818609E-02  0.1014001E+00
       -1   -1    0    0    0  501  0.00000000000E+00  0.00000000000E+00  0.11300199516E+03  0.11300199528E+03  0.50400001928E-02 0.  1.
        1   -1    0    0  501    0  0.00000000000E+00  0.00000000000E+00 -0.55120665072E+03  0.55120665074E+03  0.50400001928E-02 0. -1.
    10030    2    1    2    0    0  0.00000000000E+00  0.00000000000E+00 -0.43820465556E+03  0.66420864602E+03  0.49914908123E+03 0.  0.
        2    1    3    3  502    0  0.21450437387E+03  0.12611536839E+03 -0.24470676244E+03  0.34899657899E+03  0.25500000920E-02 0. -1.
       -2    1    3    3    0  502 -0.21450437387E+03 -0.12611536839E+03 -0.19349789311E+03  0.31521206703E+03  0.25500000920E-02 0.  1.
</event>
<event>
 5   0  0.8012875E-03  0.4993938E+03  0.7818609E-02  0.1013937E+00
       -3   -1    0    0    0  501  0.00000000000E+00  0.00000000000E+00  0.34296440546E+03  0.34296442034E+03  0.10100000352E+00 0. -1.
        3   -1    0    0  501    0  0.00000000000E+00  0.00000000000E+00 -0.18179300348E+03  0.18179303154E+03  0.10100000352E+00 0.  1.
    10030    2    1    2    0    0  0.00000000000E+00  0.00000000000E+00  0.16117140198E+03  0.52475745187E+03  0.49939379499E+03 0.  0.
        1    1    3    3  502    0  0.74184473070E+02 -0.85410436390E+02  0.31449013243E+03  0.33421897329E+03  0.50400001928E-02 0. -1.
       -1    1    3    3    0  502 -0.74184473070E+02  0.85410436390E+02 -0.15331873044E+03  0.19053847858E+03  0.50400001928E-02 0.  1.
</event>
<event>
 5   0  0.1227864E-02  0.4987078E+03  0.7818609E-02  0.1014117E+00
       -1   -1    0    0    0  501  0.00000000000E+00  0.00000000000E+00  0.37811708950E+02  0.37811709286E+02  0.50400001928E-02 0.  1.
        1   -1    0    0  501    0  0.00000000000E+00  0.00000000000E+00 -0.16443946784E+04  0.16443946784E+04  0.50400001928E-02 0. -1.
    10030    2    1    2    0    0  0.00000000000E+00  0.00000000000E+00 -0.16065829694E+04  0.16822063877E+04  0.49870782335E+03 0.  0.
        5    1    3    3  502    0  0.76449343963E+02  0.10987310914E+03 -0.15127617221E+04  0.15186792684E+04  0.46999998093E+01 0. -1.
       -5    1    3    3    0  502 -0.76449343963E+02 -0.10987310914E+03 -0.93821247344E+02  0.16352711933E+03  0.46999998093E+01 0.  1.
</event>
<event>
 5   0  0.1923706E-02  0.5012100E+03  0.7818609E-02  0.1013464E+00
       -2   -1    0    0    0  501  0.00000000000E+00  0.00000000000E+00  0.50872127284E+02  0.50872127348E+02  0.25500000920E-02 0.  1.
        2   -1    0    0  501    0  0.00000000000E+00  0.00000000000E+00 -0.12345242135E+04  0.12345242135E+04  0.25500000920E-02 0. -1.
    10030    2    1    2    0    0  0.00000000000E+00  0.00000000000E+00 -0.11836520862E+04  0.12853963409E+04  0.50121002771E+03 0.  0.
        3    1    3    3  502    0  0.20501103824E+03  0.15092539203E+02 -0.22422543825E+03  0.30419462175E+03  0.10100000352E+00 0.  1.
       -3    1    3    3    0  502 -0.20501103824E+03 -0.15092539203E+02 -0.95942664799E+03  0.98120171913E+03  0.10100000352E+00 0. -1.
</event>
<event>
 5   0  0.1227864E-02  0.5000496E+03  0.7818609E-02  0.1013766E+00
        1   -1    0    0  501    0  0.00000000000E+00  0.00000000000E+00  0.99549189720E+02  0.99549189848E+02  0.50400001928E-02 0. -1.
       -1   -1    0    0    0  501  0.00000000000E+00  0.00000000000E+00 -0.62795476716E+03  0.62795476718E+03  0.50400001928E-02 0.  1.
    10030    2    1    2    0    0  0.00000000000E+00  0.00000000000E+00 -0.52840557744E+03  0.72750395703E+03  0.50004955077E+03 0.  0.
        5    1    3    3  502    0  0.60499726639E+02  0.51142383401E+02  0.80739659405E+02  0.11321105468E+03  0.46999998093E+01 0. -1.
       -5    1    3    3    0  502 -0.60499726639E+02 -0.51142383401E+02 -0.60914523684E+03  0.61429290234E+03  0.46999998093E+01 0.  1.
</event>
<event>
 5   0  0.1923706E-02  0.5003606E+03  0.7818609E-02  0.1013685E+00
       -2   -1    0    0    0  501  0.00000000000E+00  0.00000000000E+00  0.48605365128E+02  0.48605365195E+02  0.25500000920E-02 0. -1.
        2   -1    0    0  501    0  0.00000000000E+00  0.00000000000E+00 -0.12877215946E+04  0.12877215946E+04  0.25500000920E-02 0.  1.
    10030    2    1    2    0    0  0.00000000000E+00  0.00000000000E+00 -0.12391162295E+04  0.13363269598E+04  0.50036058333E+03 0.  0.
        3    1    3    3  502    0  0.10313757342E+03 -0.13204057912E+03 -0.11157538726E+04  0.11282636164E+04  0.10100000352E+00 0.  1.
       -3    1    3    3    0  502 -0.10313757342E+03  0.13204057912E+03 -0.12336235687E+03  0.20806334344E+03  0.10100000352E+00 0. -1.
</event>
<event>
 5   0  0.1180937E-02  0.4995497E+03  0.7818609E-02  0.1013897E+00
       -1   -1    0    0    0  501  0.00000000000E+00  0.00000000000E+00  0.47316004794E+02  0.47316005062E+02  0.50400001928E-02 0. -1.
        1   -1    0    0  501    0  0.00000000000E+00  0.00000000000E+00 -0.13185280705E+04  0.13185280705E+04  0.50400001928E-02 0.  1.
    10030    2    1    2    0    0  0.00000000000E+00  0.00000000000E+00 -0.12712120657E+04  0.13658440755E+04  0.49954972002E+03 0.  0.
        1    1    3    3  502    0  0.40230518342E+02 -0.14186202597E+03 -0.84390515607E+02  0.16989728711E+03  0.50400001928E-02 0. -1.
       -1    1    3    3    0  502 -0.40230518342E+02  0.14186202597E+03 -0.11868215501E+04  0.11959467884E+04  0.50400001928E-02 0.  1.
</event>
<event>
 5   0  0.1217270E-02  0.5001901E+03  0.7818609E-02  0.1013729E+00
       -1   -1    0    0    0  501  0.00000000000E+00  0.00000000000E+00  0.95925437161E+02  0.95925437293E+02  0.50400001928E-02 0. -1.
        1   -1    0    0  501    0  0.00000000000E+00  0.00000000000E+00 -0.65204324422E+03  0.65204324424E+03  0.50400001928E-02 0.  1.
    10030    2    1    2    0    0  0.00000000000E+00  0.00000000000E+00 -0.55611780706E+03  0.74796868154E+03  0.50019009709E+03 0.  0.
        2    1    3    3  502    0 -0.19450519487E+02 -0.20432261034E+03 -0.49175271593E+03  0.53286657376E+03  0.25500000920E-02 0.  1.
       -2    1    3    3    0  502  0.19450519487E+02  0.20432261034E+03 -0.64365091137E+02  0.21510210777E+03  0.25500000920E-02 0. -1.
</event>
<event>
 5   0  0.1227864E-02  0.5004793E+03  0.7818609E-02  0.1013654E+00
        1   -1    0    0  501    0  0.00000000000E+00  0.00000000000E+00  0.39821678834E+03  0.39821678837E+03  0.50400001928E-02 0.  1.
       -1   -1    0    0    0  501  0.00000000000E+00  0.00000000000E+00 -0.15725070585E+03  0.15725070593E+03  0.50400001928E-02 0. -1.
    10030    2    1    2    0    0  0.00000000000E+00  0.00000000000E+00  0.24096608249E+03  0.55546749430E+03  0.50047925463E+03 0.  0.
        5    1    3    3  502    0 -0.19008387012E+03  0.73410664373E+02 -0.40646316920E+02  0.20783458904E+03  0.46999998093E+01 0. -1.
       -5    1    3    3    0  502  0.19008387012E+03 -0.73410664373E+02  0.28161239941E+03  0.34763290526E+03  0.46999998093E+01 0.  1.
</event>
<event>
 5   0  0.1941387E-02  0.4993251E+03  0.7818609E-02  0.1013955E+00
        2   -1    0    0  501    0  0.00000000000E+00  0.00000000000E+00  0.17490435164E+03  0.17490435165E+03  0.25500000920E-02 0. -1.
       -2   -1    0    0    0  501  0.00000000000E+00  0.00000000000E+00 -0.35637407596E+03  0.35637407596E+03  0.25500000920E-02 0.  1.
    10030    2    1    2    0    0  0.00000000000E+00  0.00000000000E+00 -0.18146972432E+03  0.53127842762E+03  0.49932505125E+03 0.  0.
        4    1    3    3  502    0  0.12315644678E+03  0.20955602106E+03 -0.15137806042E+03  0.28635321968E+03  0.12699999809E+01 0.  1.
       -4    1    3    3    0  502 -0.12315644678E+03 -0.20955602106E+03 -0.30091663894E+02  0.24492520793E+03  0.12699999809E+01 0. -1.
</event>
<event>
 5   0  0.1941387E-02  0.4986354E+03  0.7818609E-02  0.1014136E+00
        2   -1    0    0  501    0  0.00000000000E+00  0.00000000000E+00  0.69342840802E+02  0.69342840849E+02  0.25500000920E-02 0.  1.
       -2   -1    0    0    0  501  0.00000000000E+00  0.00000000000E+00 -0.89640554629E+03  0.89640554630E+03  0.25500000920E-02 0. -1.
    10030    2    1    2    0    0  0.00000000000E+00  0.00000000000E+00 -0.82706270549E+03  0.96574838715E+03  0.49863536624E+03 0.  0.
        4    1    3    3  502    0 -0.14049195691E+03  0.11564620991E+03 -0.83449592883E+02  0.20019361447E+03  0.12699999809E+01 0.  1.
       -4    1    3    3    0  502  0.14049195691E+03 -0.11564620991E+03 -0.74361311261E+03  0.76555477267E+03  0.12699999809E+01 0. -1.
</event>
<event>
 5   0  0.1923706E-02  0.5000941E+03  0.7818609E-02  0.1013754E+00
        2   -1    0    0  501    0  0.00000000000E+00  0.00000000000E+00  0.16849878200E+04  0.16849878200E+04  0.25500000920E-02 0. -1.
       -2   -1    0    0    0  501  0.00000000000E+00  0.00000000000E+00 -0.37106217872E+02  0.37106217960E+02  0.25500000920E-02 0.  1.
    10030    2    1    2    0    0  0.00000000000E+00  0.00000000000E+00  0.16478816021E+04  0.17220940379E+04  0.50009409209E+03 0.  0.
        3    1    3    3  502    0 -0.14578869347E+03  0.20202789064E+03  0.89730544370E+03  0.93125006375E+03  0.10100000352E+00 0. -1.
       -3    1    3    3    0  502  0.14578869347E+03 -0.20202789064E+03  0.75057615841E+03  0.79084397419E+03  0.10100000352E+00 0.  1.
</event>
<event>
 5   0  0.8012875E-03  0.4996285E+03  0.7818609E-02  0.1013876E+00
        3   -1    0    0  501    0  0.00000000000E+00  0.00000000000E+00  0.28030175844E+03  0.28030177664E+03  0.10100000352E+00 0.  1.
       -3   -1    0    0    0  501  0.00000000000E+00  0.00000000000E+00 -0.22264276221E+03  0.22264278511E+03  0.10100000352E+00 0. -1.
    10030    2    1    2    0    0  0.00000000000E+00  0.00000000000E+00  0.57658996238E+02  0.50294456175E+03  0.49962853436E+03 0.  0.
        3    1    3    3  502    0  0.16744056032E+03 -0.91537578668E+02  0.19111888835E+03  0.27007759855E+03  0.10100000352E+00 0.  1.
       -3    1    3    3    0  502 -0.16744056032E+03  0.91537578668E+02 -0.13345989212E+03  0.23286696321E+03  0.10100000352E+00 0. -1.
</event>
<event>
 5   0  0.1209831E-02  0.4998608E+03  0.7818609E-02  0.1013815E+00
       -1   -1    0    0    0  501  0.00000000000E+00  0.00000000000E+00  0.66639644728E+02  0.66639644919E+02  0.50400001928E-02 0. -1.
        1   -1    0    0  501    0  0.00000000000E+00  0.00000000000E+00 -0.93735817993E+03  0.93735817995E+03  0.50400001928E-02 0.  1.
    10030    2    1    2    0    0  0.00000000000E+00  0.00000000000E+00 -0.87071853520E+03  0.10039978249E+04  0.49986084542E+03 0.  0.
        4    1    3    3  502    0 -0.17836191612E+03  0.25280414873E+01 -0.78696672224E+03  0.80693097532E+03  0.12699999809E+01 0.  1.
       -4    1    3    3    0  502  0.17836191612E+03 -0.25280414873E+01 -0.83751812962E+02  0.19706684954E+03  0.12699999809E+01 0. -1.
</event>
<event>
 5   0  0.1941387E-02  0.4994252E+03  0.7818609E-02  0.1013929E+00
       -2   -1    0    0    0  501  0.00000000000E+00  0.00000000000E+00  0.86246809365E+02  0.86246809402E+02  0.25500000920E-02 0.  1.
        2   -1    0    0  501    0  0.00000000000E+00  0.00000000000E+00 -0.72299942408E+03  0.72299942408E+03  0.25500000920E-02 0. -1.
    10030    2    1    2    0    0  0.00000000000E+00  0.00000000000E+00 -0.63675261471E+03  0.80924623348E+03  0.49942524372E+03 0.  0.
        4    1    3    3  502    0  0.39293183390E+02 -0.19600911686E+02 -0.71668922010E+03  0.71803426179E+03  0.12699999809E+01 0. -1.
       -4    1    3    3    0  502 -0.39293183390E+02  0.19600911686E+02  0.79936605385E+02  0.91211971694E+02  0.12699999809E+01 0.  1.
</event>
<event>
 5   0  0.1217270E-02  0.5006246E+03  0.7818609E-02  0.1013616E+00
        1   -1    0    0  501    0  0.00000000000E+00  0.00000000000E+00  0.90224374128E+03  0.90224374129E+03  0.50400001928E-02 0.  1.
       -1   -1    0    0    0  501  0.00000000000E+00  0.00000000000E+00 -0.69444917794E+02  0.69444917977E+02  0.50400001928E-02 0. -1.
    10030    2    1    2    0    0  0.00000000000E+00  0.00000000000E+00  0.83279882349E+03  0.97168865927E+03  0.50062458005E+03 0.  0.
        2    1    3    3  502    0  0.22386794637E+03  0.72650087591E+01  0.63328822259E+03  0.67173179964E+03  0.25500000920E-02 0.  1.
       -2    1    3    3    0  502 -0.22386794637E+03 -0.72650087591E+01  0.19951060090E+03  0.29995685963E+03  0.25500000920E-02 0. -1.
</event>
<event>
 5   0  0.1855407E-02  0.4992764E+03  0.7818609E-02  0.1013968E+00
       -2   -1    0    0    0  501  0.00000000000E+00  0.00000000000E+00  0.66265607751E+02  0.66265607800E+02  0.25500000920E-02 0.  1.
        2   -1    0    0  501    0  0.00000000000E+00  0.00000000000E+00 -0.94044605120E+03  0.94044605120E+03  0.25500000920E-02 0. -1.
    10030    2    1    2    0    0  0.00000000000E+00  0.00000000000E+00 -0.87418044345E+03  0.10067116590E+04  0.49927639306E+03 0.  0.
        1    1    3    3  502    0 -0.18440540669E+02 -0.14326581634E+03 -0.84762288296E+03  0.85984283414E+03  0.50400001928E-02 0. -1.
       -1    1    3    3    0  502  0.18440540669E+02  0.14326581634E+03 -0.26557560487E+02  0.14686882487E+03  0.50400001928E-02 0.  1.
</event>
<event>
 5   0  0.1967813E-02  0.5006888E+03  0.7818609E-02  0.1013599E+00
       -2   -1    0    0    0  501  0.00000000000E+00  0.00000000000E+00  0.12081167402E+03  0.12081167405E+03  0.25500000920E-02 0.  1.
        2   -1    0    0  501    0  0.00000000000E+00  0.00000000000E+00 -0.51876051195E+03  0.51876051196E+03  0.25500000920E-02 0. -1.
    10030    2    1    2    0    0  0.00000000000E+00  0.00000000000E+00 -0.39794883793E+03  0.63957218600E+03  0.50068882901E+03 0.  0.
        5    1    3    3  502    0 -0.21127813005E+03  0.12542482486E+03 -0.25997405917E+03  0.35774073903E+03  0.46999998093E+01 0.  1.
       -5    1    3    3    0  502  0.21127813005E+03 -0.12542482486E+03 -0.13797477877E+03  0.28183144697E+03  0.46999998093E+01 0. -1.
</event>
<event>
 5   0  0.1209831E-02  0.5004185E+03  0.7818609E-02  0.1013670E+00
       -1   -1    0    0    0  501  0.00000000000E+00  0.00000000000E+00  0.82220190620E+02  0.82220190774E+02  0.50400001928E-02 0. -1.
        1   -1    0    0  501    0  0.00000000000E+00  0.00000000000E+00 -0.76142706546E+03  0.76142706548E+03  0.50400001928E-02 0.  1.
    10030    2    1    2    0    0  0.00000000000E+00  0.00000000000E+00 -0.67920687484E+03  0.84364725625E+03  0.50041853897E+03 0.  0.
        4    1    3    3  502    0 -0.18602403742E+03  0.15611951852E+03 -0.23810235461E+03  0.34010673432E+03  0.12699999809E+01 0.  1.
       -4    1    3    3    0  502  0.18602403742E+03 -0.15611951852E+03 -0.44110452023E+03  0.50354052193E+03  0.12699999809E+01 0. -1.
</event>
<event>
 5   0  0.1209831E-02  0.5003137E+03  0.7818609E-02  0.1013697E+00
       -1   -1    0    0    0  501  0.00000000000E+00  0.00000000000E+00  0.17948658881E+03  0.17948658888E+03  0.50400001928E-02 0.  1.
        1   -1    0    0  501    0  0.00000000000E+00  0.00000000000E+00 -0.34865245158E+03  0.34865245162E+03  0.50400001928E-02 0. -1.
    10030    2    1    2    0    0  0.00000000000E+00  0.00000000000E+00 -0.16916586278E+03  0.52813904050E+03  0.50031365859E+03 0.  0.
        4    1    3    3  502    0 -0.16934823683E+03 -0.16305343112E+03  0.56804335795E+01  0.23515766401E+03  0.12699999809E+01 0. -1.
       -4    1    3    3    0  502  0.16934823683E+03  0.16305343112E+03 -0.17484629636E+03  0.29298137649E+03  0.12699999809E+01 0.  1.
</event>
<event>
 5   0  0.1209831E-02  0.4994729E+03  0.7818609E-02  0.1013917E+00
        1   -1    0    0  501    0  0.00000000000E+00  0.00000000000E+00  0.68048866011E+03  0.68048866013E+03  0.50400001928E-02 0.  1.
       -1   -1    0    0    0  501  0.00000000000E+00  0.00000000000E+00 -0.91652235313E+02  0.91652235452E+02  0.50400001928E-02 0. -1.
    10030    2    1    2    0    0  0.00000000000E+00  0.00000000000E+00  0.58883642479E+03  0.77214089558E+03  0.49947294968E+03 0.  0.
        4    1    3    3  502    0 -0.84394342711E+02  0.15912098906E+03  0.26994318335E+02  0.18213237044E+03  0.12699999809E+01 0. -1.
       -4    1    3    3    0  502  0.84394342711E+02 -0.15912098906E+03  0.56184210646E+03  0.59000852513E+03  0.12699999809E+01 0.  1.
</event>
<event>
 5   0  0.1941387E-02  0.4999934E+03  0.7818609E-02  0.1013781E+00
        2   -1    0    0  501    0  0.00000000000E+00  0.00000000000E+00  0.12927797711E+04  0.12927797711E+04  0.25500000920E-02 0. -1.
       -2   -1    0    0    0  501  0.00000000000E+00  0.00000000000E+00 -0.48344150556E+02  0.48344150624E+02  0.25500000920E-02 0.  1.
    10030    2    1    2    0    0  0.00000000000E+00  0.00000000000E+00  0.12444356206E+04  0.13411239217E+04  0.49999335971E+03 0.  0.
        4    1    3    3  502    0 -0.13461248494E+03  0.18117759198E+01  0.57197975806E+02  0.14627721959E+03  0.12699999809E+01 0.  1.
       -4    1    3    3    0  502  0.13461248494E+03 -0.18117759198E+01  0.11872376448E+04  0.11948467022E+04  0.12699999809E+01 0. -1.
</event>
<event>
 5   0  0.1180937E-02  0.4998682E+03  0.7818609E-02  0.1013813E+00
        1   -1    0    0  501    0  0.00000000000E+00  0.00000000000E+00  0.53047426262E+03  0.53047426265E+03  0.50400001928E-02 0.  1.
       -1   -1    0    0    0  501  0.00000000000E+00  0.00000000000E+00 -0.11775701097E+03  0.11775701108E+03  0.50400001928E-02 0. -1.
    10030    2    1    2    0    0  0.00000000000E+00  0.00000000000E+00  0.41271725166E+03  0.64823127372E+03  0.49986823706E+03 0.  0.
        1    1    3    3  502    0 -0.83756747967E+01  0.22681107976E+03  0.70635521689E+02  0.23770316527E+03  0.50400001928E-02 0. -1.
       -1    1    3    3    0  502  0.83756747967E+01 -0.22681107976E+03  0.34208172997E+03  0.41052810845E+03  0.50400001928E-02 0.  1.
</event>
<event>
 5   0  0.1855407E-02  0.4995624E+03  0.7818609E-02  0.1013893E+00
       -2   -1    0    0    0  501  0.00000000000E+00  0.00000000000E+00  0.79096003537E+02  0.79096003578E+02  0.25500000920E-02 0.  1.
        2   -1    0    0  501    0  0.00000000000E+00  0.00000000000E+00 -0.78879645595E+03  0.78879645595E+03  0.25500000920E-02 0. -1.
    10030    2    1    2    0    0  0.00000000000E+00  0.00000000000E+00 -0.70970045241E+03  0.86789245953E+03  0.49956239766E+03 0.  0.
        1    1    3    3  502    0 -0.10109719377E+03  0.19897201011E+03 -0.54970855686E+03  0.59328745218E+03  0.50400001928E-02 0. -1.
       -1    1    3    3    0  502  0.10109719377E+03 -0.19897201011E+03 -0.15999189555E+03  0.27460500735E+03  0.50400001928E-02 0.  1.
</event>
<event>
 5   0  0.1227864E-02  0.4988495E+03  0.7818609E-02  0.1014080E+00
       -1   -1    0    0    0  501  0.00000000000E+00  0.00000000000E+00  0.50341768073E+03  0.50341768075E+03  0.50400001928E-02 0.  1.
        1   -1    0    0  501    0  0.00000000000E+00  0.00000000000E+00 -0.12358068148E+03  0.12358068158E+03  0.50400001928E-02 0. -1.
    10030    2    1    2    0    0  0.00000000000E+00  0.00000000000E+00  0.37983699925E+03  0.62699836234E+03  0.49884947667E+03 0.  0.
        5    1    3    3  502    0 -0.12132776119E+03 -0.15003812300E+03  0.38848604496E+03  0.43379184077E+03  0.46999998093E+01 0.  1.
       -5    1    3    3    0  502  0.12132776119E+03  0.15003812300E+03 -0.86490457172E+01  0.19320652157E+03  0.46999998093E+01 0. -1.
</event>
<event>
 5   0  0.1227864E-02  0.4996803E+03  0.7818609E-02  0.1013862E+00
       -1   -1    0    0    0  501  0.00000000000E+00  0.00000000000E+00  0.61920041115E+02  0.61920041320E+02  0.50400001928E-02 0.  1.
        1   -1    0    0  501    0  0.00000000000E+00  0.00000000000E+00 -0.10080757035E+04  0.10080757035E+04  0.50400001928E-02 0. -1.
    10030    2    1    2    0    0  0.00000000000E+00  0.00000000000E+00 -0.94615566238E+03  0.10699957448E+04  0.49968025426E+03 0.  0.
        5    1    3    3  502    0 -0.24388810239E+03 -0.46500458808E+02 -0.53188928389E+03  0.58700255491E+03  0.46999998093E+01 0.  1.
       -5    1    3    3    0  502  0.24388810239E+03  0.46500458808E+02 -0.41426637849E+03  0.48299318992E+03  0.46999998093E+01 0. -1.
</event>
<event>
 5   0  0.1923706E-02  0.4998931E+03  0.7818609E-02  0.1013807E+00
       -2   -1    0    0    0  501  0.00000000000E+00  0.00000000000E+00  0.20655126472E+03  0.20655126474E+03  0.25500000920E-02 0.  1.
        2   -1    0    0  501    0  0.00000000000E+00  0.00000000000E+00 -0.30245890304E+03  0.30245890305E+03  0.25500000920E-02 0. -1.
    10030    2    1    2    0    0  0.00000000000E+00  0.00000000000E+00 -0.95907638315E+02  0.50901016778E+03  0.49989306438E+03 0.  0.
        3    1    3    3  502    0  0.19813689669E+03 -0.62067833501E+02  0.93733612739E+02  0.22780835398E+03  0.10100000352E+00 0.  1.
       -3    1    3    3    0  502 -0.19813689669E+03  0.62067833501E+02 -0.18964125105E+03  0.28120181380E+03  0.10100000352E+00 0. -1.
</event>
<event>
 5   0  0.1209831E-02  0.4998987E+03  0.7818609E-02  0.1013805E+00
       -1   -1    0    0    0  501  0.00000000000E+00  0.00000000000E+00  0.30803895287E+03  0.30803895292E+03  0.50400001928E-02 0. -1.
        1   -1    0    0  501    0  0.00000000000E+00  0.00000000000E+00 -0.20281421914E+03  0.20281421920E+03  0.50400001928E-02 0.  1.
    10030    2    1    2    0    0  0.00000000000E+00  0.00000000000E+00  0.10522473373E+03  0.51085317212E+03  0.49989870861E+03 0.  0.
        4    1    3    3  502    0 -0.29341881510E+02 -0.18258579102E+03 -0.11922275227E+03  0.22003225821E+03  0.12699999809E+01 0.  1.
       -4    1    3    3    0  502  0.29341881510E+02  0.18258579102E+03  0.22444748600E+03  0.29082091391E+03  0.12699999809E+01 0. -1.
</event>
<event>
 5   0  0.1227864E-02  0.5012550E+03  0.7818609E-02  0.1013452E+00
       -1   -1    0    0    0  501  0.00000000000E+00  0.00000000000E+00  0.70100231056E+02  0.70100231237E+02  0.50400001928E-02 0. -1.
        1   -1    0    0  501    0  0.00000000000E+00  0.00000000000E+00 -0.89606184353E+03  0.89606184355E+03  0.50400001928E-02 0.  1.
    10030    2    1    2    0    0  0.00000000000E+00  0.00000000000E+00 -0.82596161248E+03  0.96616207479E+03  0.50125499445E+03 0.  0.
        5    1    3    3  502    0  0.10295923252E+03 -0.10414356583E+03 -0.21053297972E+02  0.14802640717E+03  0.46999998093E+01 0. -1.
       -5    1    3    3    0  502 -0.10295923252E+03  0.10414356583E+03 -0.80490831451E+03  0.81813566762E+03  0.46999998093E+01 0.  1.
</event>
<event>
 5   0  0.1227864E-02  0.4994191E+03  0.7818609E-02  0.1013931E+00
       -1   -1    0    0    0  501  0.00000000000E+00  0.00000000000E+00  0.52878784829E+03  0.52878784832E+03  0.50400001928E-02 0. -1.
        1   -1    0    0  501    0  0.00000000000E+00  0.00000000000E+00 -0.11792039140E+03  0.11792039150E+03  0.50400001928E-02 0.  1.
    10030    2    1    2    0    0  0.00000000000E+00  0.00000000000E+00  0.41086745690E+03  0.64670823982E+03  0.49941914292E+03 0.  0.
        5    1    3    3  502    0  0.85148490546E+02 -0.82606021775E+02 -0.79032875349E+02  0.14262645498E+03  0.46999998093E+01 0.  1.
       -5    1    3    3    0  502 -0.85148490546E+02  0.82606021775E+02  0.48990033225E+03  0.50408178484E+03  0.46999998093E+01 0. -1.
</event>
<event>
 5   0  0.8012875E-03  0.5002008E+03  0.7818609E-02  0.1013727E+00
        3   -1    0    0  501    0  0.00000000000E+00  0.00000000000E+00  0.10930768901E+03  0.10930773567E+03  0.10100000352E+00 0.  1.
       -3   -1    0    0    0  501  0.00000000000E+00  0.00000000000E+00 -0.57223954033E+03  0.57223954924E+03  0.10100000352E+00 0. -1.
    10030    2    1    2    0    0  0.00000000000E+00  0.00000000000E+00 -0.46293185132E+03  0.68154728491E+03  0.50020076230E+03 0.  0.
        1    1    3    3  502    0 -0.24368644660E+03  0.52420343910E+02 -0.25936402818E+03  0.35972305438E+03  0.50400001928E-02 0.  1.
       -1    1    3    3    0  502  0.24368644660E+03 -0.52420343910E+02 -0.20356782315E+03  0.32182423053E+03  0.50400001928E-02 0. -1.
</event>
<event>
 5   0  0.1967813E-02  0.4981213E+03  0.7818609E-02  0.1014270E+00
        2   -1    0    0  501    0  0.00000000000E+00  0.00000000000E+00  0.69020622879E+03  0.69020622880E+03  0.25500000920E-02 0. -1.
       -2   -1    0    0    0  501  0.00000000000E+00  0.00000000000E+00 -0.89873434489E+02  0.89873434525E+02  0.25500000920E-02 0.  1.
    10030    2    1    2    0    0  0.00000000000E+00  0.00000000000E+00  0.60033279430E+03  0.78007966332E+03  0.49812128765E+03 0.  0.
        5    1    3    3  502    0 -0.21815456695E+03  0.11520623425E+03  0.35316309978E+03  0.43082497204E+03  0.46999998093E+01 0.  1.
       -5    1    3    3    0  502  0.21815456695E+03 -0.11520623425E+03  0.24716969453E+03  0.34925469128E+03  0.46999998093E+01 0. -1.
</event>
<event>
 5   0  0.1180937E-02  0.5002485E+03  0.7818609E-02  0.1013714E+00
        1   -1    0    0  501    0  0.00000000000E+00  0.00000000000E+00  0.85034417965E+02  0.85034418115E+02  0.50400001928E-02 0.  1.
       -1   -1    0    0    0  501  0.00000000000E+00  0.00000000000E+00 -0.73572735213E+03  0.73572735215E+03  0.50400001928E-02 0. -1.
    10030    2    1    2    0    0  0.00000000000E+00  0.00000000000E+00 -0.65069293417E+03  0.82076177027E+03  0.50024852719E+03 0.  0.
        1    1    3    3  502    0  0.70369559473E+02 -0.83059638589E+02 -0.69482053926E+03  0.70329677965E+03  0.50400001928E-02 0. -1.
       -1    1    3    3    0  502 -0.70369559473E+02  0.83059638589E+02  0.44127605094E+02  0.11746499061E+03  0.50400001928E-02 0.  1.
</event>
<event>
 5   0  0.1227864E-02  0.5007679E+03  0.7818609E-02  0.1013579E+00
       -1   -1    0    0    0  501  0.00000000000E+00  0.00000000000E+00  0.64214938338E+02  0.64214938536E+02  0.50400001928E-02 0.  1.
        1   -1    0    0  501    0  0.00000000000E+00  0.00000000000E+00 -0.97628552617E+03  0.97628552618E+03  0.50400001928E-02 0. -1.
    10030    2    1    2    0    0  0.00000000000E+00  0.00000000000E+00 -0.91207058783E+03  0.10405004647E+04  0.50076787027E+03 0.  0.
        5    1    3    3  502    0  0.20260497105E+02 -0.82034363081E+02 -0.94566670355E+03  0.94944601146E+03  0.46999998093E+01 0. -1.
       -5    1    3    3    0  502 -0.20260497105E+02  0.82034363081E+02  0.33596115719E+02  0.91054453261E+02  0.46999998093E+01 0.  1.
</event>
<event>
 5   0  0.1180937E-02  0.4975066E+03  0.7818609E-02  0.1014432E+00
        1   -1    0    0  501    0  0.00000000000E+00  0.00000000000E+00  0.46525182013E+03  0.46525182015E+03  0.50400001928E-02 0.  1.
       -1   -1    0    0    0  501  0.00000000000E+00  0.00000000000E+00 -0.13299937149E+03  0.13299937158E+03  0.50400001928E-02 0. -1.
    10030    2    1    2    0    0  0.00000000000E+00  0.00000000000E+00  0.33225244864E+03  0.59825119173E+03  0.49750658165E+03 0.  0.
        1    1    3    3  502    0 -0.15753886072E+03  0.12276257774E+03  0.34444129083E+03  0.39815693637E+03  0.50400001928E-02 0.  1.
       -1    1    3    3    0  502  0.15753886072E+03 -0.12276257774E+03 -0.12188842190E+02  0.20009425536E+03  0.50400001928E-02 0. -1.
</event>
<event>
 5   0  0.1941387E-02  0.5002994E+03  0.7818609E-02  0.1013701E+00
        2   -1    0    0  501    0  0.00000000000E+00  0.00000000000E+00  0.13861464276E+04  0.13861464276E+04  0.25500000920E-02 0.  1.
       -2   -1    0    0    0  501  0.00000000000E+00  0.00000000000E+00 -0.45143050659E+02  0.45143050731E+02  0.25500000920E-02 0. -1.
    10030    2    1    2    0    0  0.00000000000E+00  0.00000000000E+00  0.13410033769E+04  0.14312894783E+04  0.50029942416E+03 0.  0.
        4    1    3    3  502    0 -0.17103468603E+03 -0.17966536840E+03  0.57820796396E+03  0.62917292608E+03  0.12699999809E+01 0. -1.
       -4    1    3    3    0  502  0.17103468603E+03  0.17966536840E+03  0.76279541298E+03  0.80211655225E+03  0.12699999809E+01 0.  1.
</event>
<event>
 5   0  0.8012875E-03  0.4999363E+03  0.7818609E-02  0.1013796E+00
       -4   -1    0    0    0  501  0.00000000000E+00  0.00000000000E+00  0.13295600490E+04  0.13295606556E+04  0.12699999809E+01 0.  1.
        4   -1    0    0  501    0  0.00000000000E+00  0.00000000000E+00 -0.46986865574E+02  0.47004025747E+02  0.12699999809E+01 0. -1.
    10030    2    1    2    0    0  0.00000000000E+00  0.00000000000E+00  0.12825731834E+04  0.13765646813E+04  0.49993634691E+03 0.  0.
        1    1    3    3  502    0  0.20674261849E+03  0.11133843948E+03  0.40529988163E+03  0.46840874509E+03  0.50400001928E-02 0.  1.
       -1    1    3    3    0  502 -0.20674261849E+03 -0.11133843948E+03  0.87727330181E+03  0.90815593623E+03  0.50400001928E-02 0. -1.
</event>
<event>
 5   0  0.1227864E-02  0.4988784E+03  0.7818609E-02  0.1014072E+00
       -1   -1    0    0    0  501  0.00000000000E+00  0.00000000000E+00  0.66332266034E+02  0.66332266225E+02  0.50400001928E-02 0. -1.
        1   -1    0    0  501    0  0.00000000000E+00  0.00000000000E+00 -0.93800362243E+03  0.93800362244E+03  0.50400001928E-02 0.  1.
    10030    2    1    2    0    0  0.00000000000E+00  0.00000000000E+00 -0.87167135640E+03  0.10043358887E+04  0.49887836564E+03 0.  0.
        5    1    3    3  502    0  0.79484953710E+02 -0.91136983037E+02 -0.87494148831E+03  0.88327147893E+03  0.46999998093E+01 0.  1.
       -5    1    3    3    0  502 -0.79484953710E+02  0.91136983037E+02  0.32701319096E+01  0.12106440973E+03  0.46999998093E+01 0. -1.
</event>
<event>
 5   0  0.1855407E-02  0.4997834E+03  0.7818609E-02  0.1013835E+00
        2   -1    0    0  501    0  0.00000000000E+00  0.00000000000E+00  0.13705321511E+04  0.13705321511E+04  0.25500000920E-02 0.  1.
       -2   -1    0    0    0  501  0.00000000000E+00  0.00000000000E+00 -0.45563229125E+02  0.45563229196E+02  0.25500000920E-02 0. -1.
    10030    2    1    2    0    0  0.00000000000E+00  0.00000000000E+00  0.13249689220E+04  0.14160953803E+04  0.49978343501E+03 0.  0.
        1    1    3    3  502    0 -0.23714563694E+03  0.66041101286E+02  0.54073349931E+03  0.59413146481E+03  0.50400001928E-02 0. -1.
       -1    1    3    3    0  502  0.23714563694E+03 -0.66041101286E+02  0.78423542268E+03  0.82196391550E+03  0.50400001928E-02 0.  1.
</event>
<event>
 5   0  0.1941387E-02  0.4993151E+03  0.7818609E-02  0.1013958E+00
        2   -1    0    0  501    0  0.00000000000E+00  0.00000000000E+00  0.70940240431E+02  0.70940240476E+02  0.25500000920E-02 0.  1.
       -2   -1    0    0    0  501  0.00000000000E+00  0.00000000000E+00 -0.87861131478E+03  0.87861131478E+03  0.25500000920E-02 0. -1.
    10030    2    1    2    0    0  0.00000000000E+00  0.00000000000E+00 -0.80767107435E+03  0.94955155526E+03  0.49931512270E+03 0.  0.
        4    1    3    3  502    0  0.52292294886E+02 -0.24175460788E+03 -0.46825575143E+03  0.52957042608E+03  0.12699999809E+01 0.  1.
       -4    1    3    3    0  502 -0.52292294886E+02  0.24175460788E+03 -0.33941532292E+03  0.41998112918E+03  0.12699999809E+01 0. -1.
</event>
<event>
 5   0  0.1941387E-02  0.4995523E+03  0.7818609E-02  0.1013896E+00
        2   -1    0    0  501    0  0.00000000000E+00  0.00000000000E+00  0.10409668292E+03  0.10409668295E+03  0.25500000920E-02 0. -1.
       -2   -1    0    0    0  501  0.00000000000E+00  0.00000000000E+00 -0.59932857925E+03  0.59932857925E+03  0.25500000920E-02 0.  1.
    10030    2    1    2    0    0  0.00000000000E+00  0.00000000000E+00 -0.49523189632E+03  0.70342526221E+03  0.49955226791E+03 0.  0.
        4    1    3    3  502    0 -0.14195039206E+03  0.17286162096E+03 -0.91097217649E+02  0.24151888077E+03  0.12699999809E+01 0. -1.
       -4    1    3    3    0  502  0.14195039206E+03 -0.17286162096E+03 -0.40413467868E+03  0.46190638144E+03  0.12699999809E+01 0.  1.
</event>
<event>
 5   0  0.1982847E-02  0.5006241E+03  0.7818609E-02  0.1013616E+00
       -2   -1    0    0    0  501  0.00000000000E+00  0.00000000000E+00  0.96120369097E+02  0.96120369131E+02  0.25500000920E-02 0.  1.
        2   -1    0    0  501    0  0.00000000000E+00  0.00000000000E+00 -0.65185060915E+03  0.65185060916E+03  0.25500000920E-02 0. -1.
    10030    2    1    2    0    0  0.00000000000E+00  0.00000000000E+00 -0.55573024006E+03  0.74797097829E+03  0.50062409516E+03 0.  0.
        2    1    3    3  502    0 -0.92879301304E+02 -0.22789543100E+03 -0.34622186564E+03  0.42477343647E+03  0.25500000920E-02 0.  1.
       -2    1    3    3    0  502  0.92879301304E+02  0.22789543100E+03 -0.20950837442E+03  0.32319754182E+03  0.25500000920E-02 0. -1.
</event>
<event>
 5   0  0.1923706E-02  0.5000351E+03  0.7818609E-02  0.1013770E+00
        2   -1    0    0  501    0  0.00000000000E+00  0.00000000000E+00  0.61641160504E+03  0.61641160505E+03  0.25500000920E-02 0.  1.
       -2   -1    0    0    0  501  0.00000000000E+00  0.00000000000E+00 -0.10140753098E+03  0.10140753101E+03  0.25500000920E-02 0. -1.
    10030    2    1    2    0    0  0.00000000000E+00  0.00000000000E+00  0.51500407406E+03  0.71781913606E+03  0.50003511457E+03 0.  0.
        3    1    3    3  502    0  0.27027752300E+02  0.13793573136E+03  0.55432176573E+03  0.57186484028E+03  0.10100000352E+00 0.  1.
       -3    1    3    3    0  502 -0.27027752300E+02 -0.13793573136E+03 -0.39317691673E+02  0.14595429579E+03  0.10100000352E+00 0. -1.
</event>
<event>
 5   0  0.1180937E-02  0.4994793E+03  0.7818609E-02  0.1013915E+00
       -1   -1    0    0    0  501  0.00000000000E+00  0.00000000000E+00  0.72587639380E+02  0.72587639555E+02  0.50400001928E-02 0. -1.
        1   -1    0    0  501    0  0.00000000000E+00  0.00000000000E+00 -0.85923568470E+03  0.85923568472E+03  0.50400001928E-02 0.  1.
    10030    2    1    2    0    0  0.00000000000E+00  0.00000000000E+00 -0.78664804532E+03  0.93182332427E+03  0.49947928931E+03 0.  0.
        1    1    3    3  502    0 -0.95548388987E+02  0.21854969367E+03 -0.53138302707E+03  0.58246148776E+03  0.50400001928E-02 0.  1.
       -1    1    3    3    0  502  0.95548388987E+02 -0.21854969367E+03 -0.25526501826E+03  0.34936183651E+03  0.50400001928E-02 0. -1.
</event>
<event>
 5   0  0.1209831E-02  0.4996201E+03  0.7818609E-02  0.1013878E+00
        1   -1    0    0  501    0  0.00000000000E+00  0.00000000000E+00  0.36364703338E+03  0.36364703342E+03  0.50400001928E-02 0.  1.
       -1   -1    0    0    0  501  0.00000000000E+00  0.00000000000E+00 -0.17160891625E+03  0.17160891633E+03  0.50400001928E-02 0. -1.
    10030    2    1    2    0    0  0.00000000000E+00  0.00000000000E+00  0.19203811713E+03  0.53525594975E+03  0.49962014902E+03 0.  0.
        4    1    3    3  502    0  0.57032342619E+02 -0.14691786905E+03 -0.11162453089E+03  0.19313000064E+03  0.12699999809E+01 0. -1.
       -4    1    3    3    0  502 -0.57032342619E+02  0.14691786905E+03  0.30366264802E+03  0.34212594911E+03  0.12699999809E+01 0.  1.
</event>
<event>
 5   0  0.1923706E-02  0.4990441E+03  0.7818609E-02  0.1014029E+00
        2   -1    0    0  501    0  0.00000000000E+00  0.00000000000E+00  0.32448096428E+03  0.32448096429E+03  0.25500000920E-02 0.  1.
       -2   -1    0    0    0  501  0.00000000000E+00  0.00000000000E+00 -0.19187956289E+03  0.19187956291E+03  0.25500000920E-02 0. -1.
    10030    2    1    2    0    0  0.00000000000E+00  0.00000000000E+00  0.13260140139E+03  0.51636052720E+03  0.49904414875E+03 0.  0.
        3    1    3    3  502    0 -0.13403996290E+03 -0.44794954765E+01 -0.15141552246E+03  0.20227072990E+03  0.10100000352E+00 0. -1.
       -3    1    3    3    0  502  0.13403996290E+03  0.44794954765E+01  0.28401692385E+03  0.31408979730E+03  0.10100000352E+00 0.  1.
</event>
<event>
 5   0  0.1982847E-02  0.4995178E+03  0.7818609E-02  0.1013905E+00
        2   -1    0    0  501    0  0.00000000000E+00  0.00000000000E+00  0.27413330474E+03  0.27413330475E+03  0.25500000920E-02 0. -1.
       -2   -1    0    0    0  501  0.00000000000E+00  0.00000000000E+00 -0.22755170045E+03  0.22755170046E+03  0.25500000920E-02 0.  1.
    10030    2    1    2    0    0  0.00000000000E+00  0.00000000000E+00  0.46581604289E+02  0.50168500521E+03  0.49951776605E+03 0.  0.
        2    1    3    3  502    0  0.52037109138E+01  0.23985971113E+03  0.93016358395E+02  0.25731654157E+03  0.25500000920E-02 0. -1.
       -2    1    3    3    0  502 -0.52037109138E+01 -0.23985971113E+03 -0.46434754106E+02  0.24436846364E+03  0.25500000920E-02 0.  1.
</event>
<event>
 5   0  0.1180937E-02  0.4978730E+03  0.7818609E-02  0.1014336E+00
        1   -1    0    0  501    0  0.00000000000E+00  0.00000000000E+00  0.73068390746E+02  0.73068390920E+02  0.50400001928E-02 0.  1.
       -1   -1    0    0    0  501  0.00000000000E+00  0.00000000000E+00 -0.84810113774E+03  0.84810113776E+03  0.50400001928E-02 0. -1.
    10030    2    1    2    0    0  0.00000000000E+00  0.00000000000E+00 -0.77503274700E+03  0.92116952868E+03  0.49787301759E+03 0.  0.
        1    1    3    3  502    0  0.19387882127E+03  0.75408161858E+02 -0.13454460335E+03  0.24774510798E+03  0.50400001928E-02 0.  1.
       -1    1    3    3    0  502 -0.19387882127E+03 -0.75408161858E+02 -0.64048814365E+03  0.67342442070E+03  0.50400001928E-02 0. -1.
</event>
<event>
 5   0  0.1855407E-02  0.4997195E+03  0.7818609E-02  0.1013852E+00
        2   -1    0    0  501    0  0.00000000000E+00  0.00000000000E+00  0.90678763599E+03  0.90678763599E+03  0.25500000920E-02 0. -1.
       -2   -1    0    0    0  501  0.00000000000E+00  0.00000000000E+00 -0.68847324860E+02  0.68847324908E+02  0.25500000920E-02 0.  1.
    10030    2    1    2    0    0  0.00000000000E+00  0.00000000000E+00  0.83794031113E+03  0.97563496090E+03  0.49971953326E+03 0.  0.
        1    1    3    3  502    0  0.22188734031E+03  0.11477024265E+03  0.42847529999E+03  0.49598113181E+03  0.50400001928E-02 0. -1.
       -1    1    3    3    0  502 -0.22188734031E+03 -0.11477024265E+03  0.40946501114E+03  0.47965382909E+03  0.50400001928E-02 0.  1.
</event>
<event>
 5   0  0.1217270E-02  0.5122459E+03  0.7818609E-02  0.1010631E+00
        1   -1    0    0  501    0  0.00000000000E+00  0.00000000000E+00  0.23178297282E+03  0.23178297287E+03  0.50400001928E-02 0. -1.
       -1   -1    0    0    0  501  0.00000000000E+00  0.00000000000E+00 -0.28301893602E+03  0.28301893607E+03  0.50400001928E-02 0.  1.
    10030    2    1    2    0    0  0.00000000000E+00  0.00000000000E+00 -0.51235963204E+02  0.51480190894E+03  0.51224591899E+03 0.  0.
        2    1    3    3  502    0 -0.13794876852E+03 -0.10178435282E+02  0.19101619965E+03  0.23584030998E+03  0.25500000920E-02 0. -1.
       -2    1    3    3    0  502  0.13794876852E+03  0.10178435282E+02 -0.24225216285E+03  0.27896159895E+03  0.25500000920E-02 0.  1.
</event>
<event>
 5   0  0.1967813E-02  0.5001536E+03  0.7818609E-02  0.1013739E+00
        2   -1    0    0  501    0  0.00000000000E+00  0.00000000000E+00  0.62371358885E+03  0.62371358885E+03  0.25500000920E-02 0. -1.
       -2   -1    0    0    0  501  0.00000000000E+00  0.00000000000E+00 -0.10026784421E+03  0.10026784425E+03  0.25500000920E-02 0.  1.
    10030    2    1    2    0    0  0.00000000000E+00  0.00000000000E+00  0.52344574463E+03  0.72398143310E+03  0.50015364429E+03 0.  0.
        5    1    3    3  502    0  0.21811416582E+03 -0.99165716771E+02  0.15826128975E+03  0.28718696792E+03  0.46999998093E+01 0. -1.
       -5    1    3    3    0  502 -0.21811416582E+03  0.99165716771E+02  0.36518445489E+03  0.43679446517E+03  0.46999998093E+01 0.  1.
</event>
<event>
 5   0  0.8012875E-03  0.4997119E+03  0.7818609E-02  0.1013854E+00
        4   -1    0    0  501    0  0.00000000000E+00  0.00000000000E+00  0.20429406333E+03  0.20429801079E+03  0.12699999809E+01 0.  1.
       -4   -1    0    0    0  501  0.00000000000E+00  0.00000000000E+00 -0.30557085910E+03  0.30557349825E+03  0.12699999809E+01 0. -1.
    10030    2    1    2    0    0  0.00000000000E+00  0.00000000000E+00 -0.10127679577E+03  0.50987150903E+03  0.49971188335E+03 0.  0.
        1    1    3    3  502    0  0.16740272259E+03 -0.17577441180E+03 -0.11106815034E+03  0.26693903689E+03  0.50400001928E-02 0. -1.
       -1    1    3    3    0  502 -0.16740272259E+03  0.17577441180E+03  0.97913545646E+01  0.24293247214E+03  0.50400001928E-02 0.  1.
</event>
<event>
 5   0  0.1180937E-02  0.4996985E+03  0.7818609E-02  0.1013858E+00
        1   -1    0    0  501    0  0.00000000000E+00  0.00000000000E+00  0.13777036424E+04  0.13777036424E+04  0.50400001928E-02 0. -1.
       -1   -1    0    0    0  501  0.00000000000E+00  0.00000000000E+00 -0.45310656275E+02  0.45310656555E+02  0.50400001928E-02 0.  1.
    10030    2    1    2    0    0  0.00000000000E+00  0.00000000000E+00  0.13323929861E+04  0.14230142990E+04  0.49969853470E+03 0.  0.
        1    1    3    3  502    0 -0.94822997806E+02  0.39373591072E+02  0.17541707061E+02  0.10416041522E+03  0.50400001928E-02 0.  1.
       -1    1    3    3    0  502  0.94822997806E+02 -0.39373591072E+02  0.13148512791E+04  0.13188538838E+04  0.50400001928E-02 0. -1.
</event>
<event>
 5   0  0.1227864E-02  0.4993064E+03  0.7818609E-02  0.1013960E+00
       -1   -1    0    0    0  501  0.00000000000E+00  0.00000000000E+00  0.11151903444E+03  0.11151903455E+03  0.50400001928E-02 0.  1.
        1   -1    0    0  501    0  0.00000000000E+00  0.00000000000E+00 -0.55888870695E+03  0.55888870697E+03  0.50400001928E-02 0. -1.
    10030    2    1    2    0    0  0.00000000000E+00  0.00000000000E+00 -0.44736967251E+03  0.67040774153E+03  0.49930643499E+03 0.  0.
        5    1    3    3  502    0  0.14939084960E+03 -0.15432866347E+03 -0.39441982318E+03  0.44913700497E+03  0.46999998093E+01 0. -1.
       -5    1    3    3    0  502 -0.14939084960E+03  0.15432866347E+03 -0.52949849325E+02  0.22127073656E+03  0.46999998093E+01 0.  1.
</event>
<event>
 5   0  0.1855407E-02  0.5028510E+03  0.7818609E-02  0.1013037E+00
       -2   -1    0    0    0  501  0.00000000000E+00  0.00000000000E+00  0.61617468600E+02  0.61617468653E+02  0.25500000920E-02 0.  1.
        2   -1    0    0  501    0  0.00000000000E+00  0.00000000000E+00 -0.10259229414E+04  0.10259229414E+04  0.25500000920E-02 0. -1.
    10030    2    1    2    0    0  0.00000000000E+00  0.00000000000E+00 -0.96430547283E+03  0.10875404101E+04  0.50285097061E+03 0.  0.
        1    1    3    3  502    0 -0.12728251463E+03  0.84504407374E+02 -0.91401499005E+03  0.92669586999E+03  0.50400001928E-02 0. -1.
       -1    1    3    3    0  502  0.12728251463E+03 -0.84504407374E+02 -0.50290482787E+02  0.16084454010E+03  0.50400001928E-02 0.  1.
</event>
<event>
 5   0  0.1225989E-02  0.4993761E+03  0.7818609E-02  0.1013942E+00
       -1   -1    0    0    0  501  0.00000000000E+00  0.00000000000E+00  0.78295483486E+02  0.78295483648E+02  0.50400001928E-02 0.  1.
        1   -1    0    0  501    0  0.00000000000E+00  0.00000000000E+00 -0.79626706047E+03  0.79626706048E+03  0.50400001928E-02 0. -1.
    10030    2    1    2    0    0  0.00000000000E+00  0.00000000000E+00 -0.71797157698E+03  0.87456254413E+03  0.49937606895E+03 0.  0.
        3    1    3    3  502    0  0.44087598433E+02  0.11547799627E+03 -0.73892419373E+03  0.74919146968E+03  0.10100000352E+00 0. -1.
       -3    1    3    3    0  502 -0.44087598433E+02 -0.11547799627E+03  0.20952616751E+02  0.12537107445E+03  0.10100000352E+00 0.  1.
</event>
<event>
 5   0  0.1982847E-02  0.5012784E+03  0.7818609E-02  0.1013446E+00
        2   -1    0    0  501    0  0.00000000000E+00  0.00000000000E+00  0.59476409242E+03  0.59476409243E+03  0.25500000920E-02 0. -1.
       -2   -1    0    0    0  501  0.00000000000E+00  0.00000000000E+00 -0.10562171617E+03  0.10562171620E+03  0.25500000920E-02 0.  1.
    10030    2    1    2    0    0  0.00000000000E+00  0.00000000000E+00  0.48914237625E+03  0.70038580863E+03  0.50127838243E+03 0.  0.
        2    1    3    3  502    0 -0.23525164900E+03 -0.67521225229E+02  0.32003999984E+03  0.40289956033E+03  0.25500000920E-02 0. -1.
       -2    1    3    3    0  502  0.23525164900E+03  0.67521225229E+02  0.16910237641E+03  0.29748624830E+03  0.25500000920E-02 0.  1.
</event>
<event>
 5   0  0.1209831E-02  0.5011896E+03  0.7818609E-02  0.1013469E+00
       -1   -1    0    0    0  501  0.00000000000E+00  0.00000000000E+00  0.93243332947E+02  0.93243333084E+02  0.50400001928E-02 0. -1.
        1   -1    0    0  501    0  0.00000000000E+00  0.00000000000E+00 -0.67348257758E+03  0.67348257760E+03  0.50400001928E-02 0.  1.
    10030    2    1    2    0    0  0.00000000000E+00  0.00000000000E+00 -0.58023924464E+03  0.76672591069E+03  0.50118962589E+03 0.  0.
        4    1    3    3  502    0  0.97458895102E+02  0.21963045129E+03 -0.18129442557E+03  0.30100673250E+03  0.12699999809E+01 0. -1.
       -4    1    3    3    0  502 -0.97458895102E+02 -0.21963045129E+03 -0.39894481907E+03  0.46571917819E+03  0.12699999809E+01 0.  1.
</event>
<event>
 5   0  0.1225989E-02  0.4986682E+03  0.7818609E-02  0.1014127E+00
        1   -1    0    0  501    0  0.00000000000E+00  0.00000000000E+00  0.32066547680E+03  0.32066547684E+03  0.50400001928E-02 0.  1.
       -1   -1    0    0    0  501  0.00000000000E+00  0.00000000000E+00 -0.19387024333E+03  0.19387024340E+03  0.50400001928E-02 0. -1.
    10030    2    1    2    0    0  0.00000000000E+00  0.00000000000E+00  0.12679523347E+03  0.51453572024E+03  0.49866820248E+03 0.  0.
        3    1    3    3  502    0  0.22826791305E+03  0.89845661158E+02  0.10941493877E+03  0.26860774744E+03  0.10100000352E+00 0.  1.
       -3    1    3    3    0  502 -0.22826791305E+03 -0.89845661158E+02  0.17380294702E+02  0.24592797280E+03  0.10100000352E+00 0. -1.
</event>
<event>
 5   0  0.1967813E-02  0.5005785E+03  0.7818609E-02  0.1013628E+00
        2   -1    0    0  501    0  0.00000000000E+00  0.00000000000E+00  0.44546786118E+03  0.44546786119E+03  0.25500000920E-02 0.  1.
       -2   -1    0    0    0  501  0.00000000000E+00  0.00000000000E+00 -0.14062678391E+03  0.14062678393E+03  0.25500000920E-02 0. -1.
    10030    2    1    2    0    0  0.00000000000E+00  0.00000000000E+00  0.30484107727E+03  0.58609464512E+03  0.50057851596E+03 0.  0.
        5    1    3    3  502    0  0.75975151859E+02 -0.22214807069E+03  0.25382207239E+03  0.34578855308E+03  0.46999998093E+01 0.  1.
       -5    1    3    3    0  502 -0.75975151859E+02  0.22214807069E+03  0.51019004885E+02  0.24030609204E+03  0.46999998093E+01 0. -1.
</event>
<event>
 5   0  0.1227864E-02  0.4955745E+03  0.7818609E-02  0.1014941E+00
       -1   -1    0    0    0  501  0.00000000000E+00  0.00000000000E+00  0.76219217499E+02  0.76219217665E+02  0.50400001928E-02 0.  1.
        1   -1    0    0  501    0  0.00000000000E+00  0.00000000000E+00 -0.80555179021E+03  0.80555179023E+03  0.50400001928E-02 0. -1.
    10030    2    1    2    0    0  0.00000000000E+00  0.00000000000E+00 -0.72933257272E+03  0.88177100790E+03  0.49557452390E+03 0.  0.
        5    1    3    3  502    0  0.18023045287E+03  0.12928767405E+03 -0.16831355867E+03  0.27847776003E+03  0.46999998093E+01 0.  1.
       -5    1    3    3    0  502 -0.18023045287E+03 -0.12928767405E+03 -0.56101901405E+03  0.60329324787E+03  0.46999998093E+01 0. -1.
</event>
<event>
 5   0  0.8012875E-03  0.5003491E+03  0.7818609E-02  0.1013688E+00
        4   -1    0    0  501    0  0.00000000000E+00  0.00000000000E+00  0.11752610290E+03  0.11753296458E+03  0.12699999809E+01 0. -1.
       -4   -1    0    0    0  501  0.00000000000E+00  0.00000000000E+00 -0.53251648677E+03  0.53251800119E+03  0.12699999809E+01 0.  1.
    10030    2    1    2    0    0  0.00000000000E+00  0.00000000000E+00 -0.41499038387E+03  0.65005096577E+03  0.50034911751E+03 0.  0.
        4    1    3    3  502    0 -0.17250329458E+03 -0.70093434643E+02 -0.42456269112E+03  0.46360065554E+03  0.12699999809E+01 0.  1.
       -4    1    3    3    0  502  0.17250329458E+03  0.70093434643E+02  0.95723072516E+01  0.18645031023E+03  0.12699999809E+01 0. -1.
</event>
<event>
 5   0  0.1855407E-02  0.5000404E+03  0.7818609E-02  0.1013768E+00
        2   -1    0    0  501    0  0.00000000000E+00  0.00000000000E+00  0.84463492954E+03  0.84463492955E+03  0.25500000920E-02 0. -1.
       -2   -1    0    0    0  501  0.00000000000E+00  0.00000000000E+00 -0.74008433110E+02  0.74008433154E+02  0.25500000920E-02 0.  1.
    10030    2    1    2    0    0  0.00000000000E+00  0.00000000000E+00  0.77062649643E+03  0.91864336270E+03  0.50004042920E+03 0.  0.
        1    1    3    3  502    0 -0.79853073456E+02 -0.25255093769E+02  0.81809783063E+03  0.82237363383E+03  0.50400001928E-02 0. -1.
       -1    1    3    3    0  502  0.79853073456E+02  0.25255093769E+02 -0.47471334199E+02  0.96269728875E+02  0.50400001928E-02 0.  1.
</event>
<event>
 5   0  0.1209831E-02  0.4981483E+03  0.7818609E-02  0.1014263E+00
       -1   -1    0    0    0  501  0.00000000000E+00  0.00000000000E+00  0.39232717517E+03  0.39232717521E+03  0.50400001928E-02 0. -1.
        1   -1    0    0  501    0  0.00000000000E+00  0.00000000000E+00 -0.15812807953E+03  0.15812807961E+03  0.50400001928E-02 0.  1.
    10030    2    1    2    0    0  0.00000000000E+00  0.00000000000E+00  0.23419909565E+03  0.55045525481E+03  0.49814834251E+03 0.  0.
        4    1    3    3  502    0 -0.21529364176E+03  0.90293561614E+02  0.21299984260E+03  0.31602978546E+03  0.12699999809E+01 0. -1.
       -4    1    3    3    0  502  0.21529364176E+03 -0.90293561614E+02  0.21199253046E+02  0.23442546935E+03  0.12699999809E+01 0.  1.
</event>
<event>
 5   0  0.1855407E-02  0.5000526E+03  0.7818609E-02  0.1013765E+00
       -2   -1    0    0    0  501  0.00000000000E+00  0.00000000000E+00  0.71474392567E+03  0.71474392568E+03  0.25500000920E-02 0.  1.
        2   -1    0    0  501    0  0.00000000000E+00  0.00000000000E+00 -0.87462319744E+02  0.87462319781E+02  0.25500000920E-02 0. -1.
    10030    2    1    2    0    0  0.00000000000E+00  0.00000000000E+00  0.62728160593E+03  0.80220624546E+03  0.50005264434E+03 0.  0.
        1    1    3    3  502    0  0.14015982618E+03 -0.13807848685E+03  0.66136034120E+02  0.20756786948E+03  0.50400001928E-02 0. -1.
       -1    1    3    3    0  502 -0.14015982618E+03  0.13807848685E+03  0.56114557181E+03  0.59463837598E+03  0.50400001928E-02 0.  1.
</event>
<event>
 5   0  0.1855407E-02  0.4998178E+03  0.7818609E-02  0.1013826E+00
        2   -1    0    0  501    0  0.00000000000E+00  0.00000000000E+00  0.22395080889E+04  0.22395080889E+04  0.25500000920E-02 0. -1.
       -2   -1    0    0    0  501  0.00000000000E+00  0.00000000000E+00 -0.27887582807E+02  0.27887582924E+02  0.25500000920E-02 0.  1.
    10030    2    1    2    0    0  0.00000000000E+00  0.00000000000E+00  0.22116205061E+04  0.22673956718E+04  0.49981783646E+03 0.  0.
        1    1    3    3  502    0  0.23421823538E+02  0.18514014320E+03  0.18598569605E+04  0.18691959148E+04  0.50400001928E-02 0. -1.
       -1    1    3    3    0  502 -0.23421823538E+02 -0.18514014320E+03  0.35176354557E+03  0.39819975698E+03  0.50400001928E-02 0.  1.
</event>
<event>
 5   0  0.1209831E-02  0.4993860E+03  0.7818609E-02  0.1013939E+00
       -1   -1    0    0    0  501  0.00000000000E+00  0.00000000000E+00  0.62764087755E+02  0.62764087957E+02  0.50400001928E-02 0. -1.
        1   -1    0    0  501    0  0.00000000000E+00  0.00000000000E+00 -0.99334805255E+03  0.99334805256E+03  0.50400001928E-02 0.  1.
    10030    2    1    2    0    0  0.00000000000E+00  0.00000000000E+00 -0.93058396479E+03  0.10561121405E+04  0.49938596077E+03 0.  0.
        4    1    3    3  502    0  0.16574200277E+03  0.14664949287E+03 -0.22077173639E+03  0.31259919663E+03  0.12699999809E+01 0. -1.
       -4    1    3    3    0  502 -0.16574200277E+03 -0.14664949287E+03 -0.70981222840E+03  0.74351294389E+03  0.12699999809E+01 0.  1.
</event>
<event>
 5   0  0.1225989E-02  0.4998085E+03  0.7818609E-02  0.1013829E+00
        1   -1    0    0  501    0  0.00000000000E+00  0.00000000000E+00  0.41611552593E+03  0.41611552596E+03  0.50400001928E-02 0.  1.
       -1   -1    0    0    0  501  0.00000000000E+00  0.00000000000E+00 -0.15008363158E+03  0.15008363167E+03  0.50400001928E-02 0. -1.
    10030    2    1    2    0    0  0.00000000000E+00  0.00000000000E+00  0.26603189435E+03  0.56619915763E+03  0.49980848061E+03 0.  0.
        3    1    3    3  502    0  0.13232889369E+03  0.28553185432E+02  0.37098056031E+03  0.39490860567E+03  0.10100000352E+00 0.  1.
       -3    1    3    3    0  502 -0.13232889369E+03 -0.28553185432E+02 -0.10494866596E+03  0.17129055196E+03  0.10100000352E+00 0. -1.
</event>
<event>
 5   0  0.8012875E-03  0.4989783E+03  0.7818609E-02  0.1014046E+00
        3   -1    0    0  501    0  0.00000000000E+00  0.00000000000E+00  0.71166256222E+03  0.71166256938E+03  0.10100000352E+00 0.  1.
       -3   -1    0    0    0  501  0.00000000000E+00  0.00000000000E+00 -0.87463954071E+02  0.87464012386E+02  0.10100000352E+00 0. -1.
    10030    2    1    2    0    0  0.00000000000E+00  0.00000000000E+00  0.62419860814E+03  0.79912658177E+03  0.49897834751E+03 0.  0.
        2    1    3    3  502    0 -0.24192909559E+03 -0.55637316871E+02  0.27223291275E+03  0.36842361096E+03  0.25500000920E-02 0.  1.
       -2    1    3    3    0  502  0.24192909559E+03  0.55637316871E+02  0.35196569540E+03  0.43070297081E+03  0.25500000920E-02 0. -1.
</event>
<event>
 5   0  0.1941387E-02  0.5008398E+03  0.7818609E-02  0.1013560E+00
       -2   -1    0    0    0  501  0.00000000000E+00  0.00000000000E+00  0.23966416184E+03  0.23966416186E+03  0.25500000920E-02 0.  1.
        2   -1    0    0  501    0  0.00000000000E+00  0.00000000000E+00 -0.26165836356E+03  0.26165836357E+03  0.25500000920E-02 0. -1.
    10030    2    1    2    0    0  0.00000000000E+00  0.00000000000E+00 -0.21994201718E+02  0.50132252543E+03  0.50083982429E+03 0.  0.
        4    1    3    3  502    0  0.21080904141E+03  0.12718334845E+03 -0.56784640029E+02  0.25267007006E+03  0.12699999809E+01 0. -1.
       -4    1    3    3    0  502 -0.21080904141E+03 -0.12718334845E+03  0.34790438311E+02  0.24865245537E+03  0.12699999809E+01 0.  1.
</event>
<event>
 5   0  0.1209831E-02  0.4995689E+03  0.7818609E-02  0.1013891E+00
       -1   -1    0    0    0  501  0.00000000000E+00  0.00000000000E+00  0.11038678532E+03  0.11038678543E+03  0.50400001928E-02 0. -1.
        1   -1    0    0  501    0  0.00000000000E+00  0.00000000000E+00 -0.56521506168E+03  0.56521506170E+03  0.50400001928E-02 0.  1.
    10030    2    1    2    0    0  0.00000000000E+00  0.00000000000E+00 -0.45482827636E+03  0.67560184713E+03  0.49956890904E+03 0.  0.
        4    1    3    3  502    0  0.24788885071E+03  0.22317230649E+02 -0.25590134018E+03  0.35697906086E+03  0.12699999809E+01 0. -1.
       -4    1    3    3    0  502 -0.24788885071E+03 -0.22317230649E+02 -0.19892693618E+03  0.31862278627E+03  0.12699999809E+01 0.  1.
</event>
<event>
 5   0  0.1180937E-02  0.4990332E+03  0.7818609E-02  0.1014032E+00
        1   -1    0    0  501    0  0.00000000000E+00  0.00000000000E+00  0.43329207371E+03  0.43329207374E+03  0.50400001928E-02 0.  1.
       -1   -1    0    0    0  501  0.00000000000E+00  0.00000000000E+00 -0.14368719982E+03  0.14368719991E+03  0.50400001928E-02 0. -1.
    10030    2    1    2    0    0  0.00000000000E+00  0.00000000000E+00  0.28960487389E+03  0.57697927365E+03  0.49903316447E+03 0.  0.
        1    1    3    3  502    0  0.62541541055E+02 -0.10399014556E+03  0.39687699283E+03  0.41501414698E+03  0.50400001928E-02 0.  1.
       -1    1    3    3    0  502 -0.62541541055E+02  0.10399014556E+03 -0.10727211893E+03  0.16196512667E+03  0.50400001928E-02 0. -1.
</event>
<event>
 5   0  0.1227864E-02  0.5002655E+03  0.7818609E-02  0.1013710E+00
       -1   -1    0    0    0  501  0.00000000000E+00  0.00000000000E+00  0.95781172950E+02  0.95781173082E+02  0.50400001928E-02 0. -1.
        1   -1    0    0  501    0  0.00000000000E+00  0.00000000000E+00 -0.65322219091E+03  0.65322219093E+03  0.50400001928E-02 0.  1.
    10030    2    1    2    0    0  0.00000000000E+00  0.00000000000E+00 -0.55744101796E+03  0.74900336401E+03  0.50026548032E+03 0.  0.
        5    1    3    3  502    0 -0.10801184883E+03 -0.21560723695E+02  0.57445623538E+02  0.12431216335E+03  0.46999998093E+01 0. -1.
       -5    1    3    3    0  502  0.10801184883E+03  0.21560723695E+02 -0.61488664150E+03  0.62469120067E+03  0.46999998093E+01 0.  1.
</event>
<event>
 5   0  0.1941387E-02  0.4940069E+03  0.7818609E-02  0.1015355E+00
       -2   -1    0    0    0  501  0.00000000000E+00  0.00000000000E+00  0.56229947751E+03  0.56229947752E+03  0.25500000920E-02 0. -1.
        2   -1    0    0  501    0  0.00000000000E+00  0.00000000000E+00 -0.10850217116E+03  0.10850217119E+03  0.25500000920E-02 0.  1.
    10030    2    1    2    0    0  0.00000000000E+00  0.00000000000E+00  0.45379730636E+03  0.67080164870E+03  0.49400693988E+03 0.  0.
        4    1    3    3  502    0  0.22478575539E+03 -0.10235010593E+03  0.22991095803E+03  0.33743864854E+03  0.12699999809E+01 0. -1.
       -4    1    3    3    0  502 -0.22478575539E+03  0.10235010593E+03  0.22388634833E+03  0.33336300016E+03  0.12699999809E+01 0.  1.
</event>
<event>
 5   0  0.1982847E-02  0.4998586E+03  0.7818609E-02  0.1013816E+00
        2   -1    0    0  501    0  0.00000000000E+00  0.00000000000E+00  0.28602028556E+03  0.28602028558E+03  0.25500000920E-02 0. -1.
       -2   -1    0    0    0  501  0.00000000000E+00  0.00000000000E+00 -0.21839243301E+03  0.21839243303E+03  0.25500000920E-02 0.  1.
    10030    2    1    2    0    0  0.00000000000E+00  0.00000000000E+00  0.67627852549E+02  0.50441271861E+03  0.49985864427E+03 0.  0.
        2    1    3    3  502    0 -0.77140864722E+02 -0.19101074491E+03 -0.10899876753E+03  0.23305911055E+03  0.25500000920E-02 0.  1.
       -2    1    3    3    0  502  0.77140864722E+02  0.19101074491E+03  0.17662662008E+03  0.27135360806E+03  0.25500000920E-02 0. -1.
</event>
<event>
 5   0  0.1227864E-02  0.5004895E+03  0.7818609E-02  0.1013651E+00
       -1   -1    0    0    0  501  0.00000000000E+00  0.00000000000E+00  0.55130359057E+03  0.55130359059E+03  0.50400001928E-02 0.  1.
        1   -1    0    0  501    0  0.00000000000E+00  0.00000000000E+00 -0.11358974550E+03  0.11358974561E+03  0.50400001928E-02 0. -1.
    10030    2    1    2    0    0  0.00000000000E+00  0.00000000000E+00  0.43771384507E+03  0.66489333621E+03  0.50048949875E+03 0.  0.
        5    1    3    3  502    0 -0.30668588383E+02 -0.12412185786E+03  0.50456961285E+03  0.52053758954E+03  0.46999998093E+01 0.  1.
       -5    1    3    3    0  502  0.30668588383E+02  0.12412185786E+03 -0.66855767781E+02  0.14435574667E+03  0.46999998093E+01 0. -1.
</event>
<event>
 5   0  0.1180937E-02  0.4998394E+03  0.7818609E-02  0.1013821E+00
        1   -1    0    0  501    0  0.00000000000E+00  0.00000000000E+00  0.80950577747E+03  0.80950577748E+03  0.50400001928E-02 0.  1.
       -1   -1    0    0    0  501  0.00000000000E+00  0.00000000000E+00 -0.77158008386E+02  0.77158008551E+02  0.50400001928E-02 0. -1.
    10030    2    1    2    0    0  0.00000000000E+00  0.00000000000E+00  0.73234776908E+03  0.88666378604E+03  0.49983938879E+03 0.  0.
        1    1    3    3  502    0 -0.14013156952E+03 -0.15045787998E+03  0.11414667921E+03  0.23516780142E+03  0.50400001928E-02 0. -1.
       -1    1    3    3    0  502  0.14013156952E+03  0.15045787998E+03  0.61820108988E+03  0.65149598462E+03  0.50400001928E-02 0.  1.
</event>
<event>
 5   0  0.1923706E-02  0.4995523E+03  0.7818609E-02  0.1013896E+00
       -2   -1    0    0    0  501  0.00000000000E+00  0.00000000000E+00  0.23947043329E+03  0.23947043331E+03  0.25500000920E-02 0.  1.
        2   -1    0    0  501    0  0.00000000000E+00  0.00000000000E+00 -0.26052537849E+03  0.26052537850E+03  0.25500000920E-02 0. -1.
    10030    2    1    2    0    0  0.00000000000E+00  0.00000000000E+00 -0.21054945192E+02  0.49999581181E+03  0.49955230067E+03 0.  0.
        3    1    3    3  502    0 -0.88066657916E+02  0.22210809936E+03  0.62340810868E+02  0.24692940477E+03  0.10100000352E+00 0. -1.
       -3    1    3    3    0  502  0.88066657916E+02 -0.22210809936E+03 -0.83395756060E+02  0.25306640703E+03  0.10100000352E+00 0.  1.
</event>
<event>
 5   0  0.1941387E-02  0.5024388E+03  0.7818609E-02  0.1013144E+00
       -2   -1    0    0    0  501  0.00000000000E+00  0.00000000000E+00  0.10067932520E+03  0.10067932523E+03  0.25500000920E-02 0.  1.
        2   -1    0    0  501    0  0.00000000000E+00  0.00000000000E+00 -0.62685346462E+03  0.62685346463E+03  0.25500000920E-02 0. -1.
    10030    2    1    2    0    0  0.00000000000E+00  0.00000000000E+00 -0.52617413942E+03  0.72753278986E+03  0.50243878764E+03 0.  0.
        4    1    3    3  502    0 -0.75201417474E+02 -0.11563260746E+03  0.40936351547E+02  0.14388728532E+03  0.12699999809E+01 0. -1.
       -4    1    3    3    0  502  0.75201417474E+02  0.11563260746E+03 -0.56711049097E+03  0.58364550454E+03  0.12699999809E+01 0.  1.
</event>
<event>
 5   0  0.1941387E-02  0.4981372E+03  0.7818609E-02  0.1014266E+00
       -2   -1    0    0    0  501  0.00000000000E+00  0.00000000000E+00  0.14003936907E+03  0.14003936910E+03  0.25500000920E-02 0. -1.
        2   -1    0    0  501    0  0.00000000000E+00  0.00000000000E+00 -0.44298384537E+03  0.44298384538E+03  0.25500000920E-02 0.  1.
    10030    2    1    2    0    0  0.00000000000E+00  0.00000000000E+00 -0.30294447630E+03  0.58302321448E+03  0.49813724304E+03 0.  0.
        4    1    3    3  502    0 -0.81379744600E+02 -0.10670638539E+03 -0.39704759841E+03  0.41911492913E+03  0.12699999809E+01 0.  1.
       -4    1    3    3    0  502  0.81379744600E+02  0.10670638539E+03  0.94103122112E+02  0.16390828535E+03  0.12699999809E+01 0. -1.
</event>
<event>
 5   0  0.1180937E-02  0.4999881E+03  0.7818609E-02  0.1013782E+00
       -1   -1    0    0    0  501  0.00000000000E+00  0.00000000000E+00  0.86862872712E+02  0.86862872858E+02  0.50400001928E-02 0.  1.
        1   -1    0    0  501    0  0.00000000000E+00  0.00000000000E+00 -0.71949054097E+03  0.71949054099E+03  0.50400001928E-02 0. -1.
    10030    2    1    2    0    0  0.00000000000E+00  0.00000000000E+00 -0.63262766826E+03  0.80635341385E+03  0.49998806123E+03 0.  0.
        1    1    3    3  502    0  0.52434029620E+02 -0.13889670036E+03  0.80661250552E+01  0.14868316391E+03  0.50400001928E-02 0.  1.
       -1    1    3    3    0  502 -0.52434029620E+02  0.13889670036E+03 -0.64069379332E+03  0.65767024994E+03  0.50400001928E-02 0. -1.
</event>
<event>
 5   0  0.1225989E-02  0.5003006E+03  0.7818609E-02  0.1013700E+00
       -1   -1    0    0    0  501  0.00000000000E+00  0.00000000000E+00  0.33661467092E+02  0.33661467469E+02  0.50400001928E-02 0.  1.
        1   -1    0    0  501    0  0.00000000000E+00  0.00000000000E+00 -0.18589555321E+04  0.18589555321E+04  0.50400001928E-02 0. -1.
    10030    2    1    2    0    0  0.00000000000E+00  0.00000000000E+00 -0.18252940650E+04  0.18926169996E+04  0.50030059298E+03 0.  0.
        3    1    3    3  502    0  0.55544516011E+02  0.14059108138E+03 -0.16666253128E+04  0.16734667576E+04  0.10100000352E+00 0. -1.
       -3    1    3    3    0  502 -0.55544516011E+02 -0.14059108138E+03 -0.15866875226E+03  0.21915024200E+03  0.10100000352E+00 0.  1.
</event>
<event>
 5   0  0.1180937E-02  0.5008221E+03  0.7818609E-02  0.1013565E+00
       -1   -1    0    0    0  501  0.00000000000E+00  0.00000000000E+00  0.15937731891E+03  0.15937731899E+03  0.50400001928E-02 0.  1.
        1   -1    0    0  501    0  0.00000000000E+00  0.00000000000E+00 -0.39344173424E+03  0.39344173427E+03  0.50400001928E-02 0. -1.
    10030    2    1    2    0    0  0.00000000000E+00  0.00000000000E+00 -0.23406441533E+03  0.55281905325E+03  0.50082207930E+03 0.  0.
        1    1    3    3  502    0 -0.18518968655E+03  0.16317617606E+03 -0.70409500658E+02  0.25666940263E+03  0.50400001928E-02 0. -1.
       -1    1    3    3    0  502  0.18518968655E+03 -0.16317617606E+03 -0.16365491467E+03  0.29614965062E+03  0.50400001928E-02 0.  1.
</event>
<event>
 5   0  0.8012875E-03  0.5006285E+03  0.7818609E-02  0.1013615E+00
        4   -1    0    0  501    0  0.00000000000E+00  0.00000000000E+00  0.27261470416E+03  0.27261766234E+03  0.12699999809E+01 0.  1.
       -4   -1    0    0    0  501  0.00000000000E+00  0.00000000000E+00 -0.22983205216E+03  0.22983556100E+03  0.12699999809E+01 0. -1.
    10030    2    1    2    0    0  0.00000000000E+00  0.00000000000E+00  0.42782651997E+02  0.50245322334E+03  0.50062849133E+03 0.  0.
        4    1    3    3  502    0  0.23628047204E+03  0.79250641630E+02 -0.20708565371E+01  0.24922886473E+03  0.12699999809E+01 0. -1.
       -4    1    3    3    0  502 -0.23628047204E+03 -0.79250641630E+02  0.44853508534E+02  0.25322435861E+03  0.12699999809E+01 0.  1.
</event>
<event>
 5   0  0.1923706E-02  0.5001612E+03  0.7818609E-02  0.1013737E+00
       -2   -1    0    0    0  501  0.00000000000E+00  0.00000000000E+00  0.13153421224E+03  0.13153421226E+03  0.25500000920E-02 0.  1.
        2   -1    0    0  501    0  0.00000000000E+00  0.00000000000E+00 -0.47546788818E+03  0.47546788818E+03  0.25500000920E-02 0. -1.
    10030    2    1    2    0    0  0.00000000000E+00  0.00000000000E+00 -0.34393367594E+03  0.60700210045E+03  0.50016115053E+03 0.  0.
        3    1    3    3  502    0  0.18643521165E+03 -0.14628959507E+03 -0.75017838365E+02  0.24856874309E+03  0.10100000352E+00 0.  1.
       -3    1    3    3    0  502 -0.18643521165E+03  0.14628959507E+03 -0.26891583757E+03  0.35843335736E+03  0.10100000352E+00 0. -1.
</event>
<event>
 5   0  0.1923706E-02  0.4998648E+03  0.7818609E-02  0.1013814E+00
       -2   -1    0    0    0  501  0.00000000000E+00  0.00000000000E+00  0.14137576241E+03  0.14137576243E+03  0.25500000920E-02 0. -1.
        2   -1    0    0  501    0  0.00000000000E+00  0.00000000000E+00 -0.44184528330E+03  0.44184528331E+03  0.25500000920E-02 0.  1.
    10030    2    1    2    0    0  0.00000000000E+00  0.00000000000E+00 -0.30046952089E+03  0.58322104574E+03  0.49986483695E+03 0.  0.
        3    1    3    3  502    0 -0.13208982271E+03  0.13831717342E+03  0.37489384733E+02  0.19489696225E+03  0.10100000352E+00 0. -1.
       -3    1    3    3    0  502  0.13208982271E+03 -0.13831717342E+03 -0.33795890563E+03  0.38832408349E+03  0.10100000352E+00 0.  1.
</event>
<event>
 5   0  0.8012875E-03  0.4986698E+03  0.7818609E-02  0.1014127E+00
        3   -1    0    0  501    0  0.00000000000E+00  0.00000000000E+00  0.95306922975E+02  0.95306976492E+02  0.10100000352E+00 0.  1.
       -3   -1    0    0    0  501  0.00000000000E+00  0.00000000000E+00 -0.65229119754E+03  0.65229120536E+03  0.10100000352E+00 0. -1.
    10030    2    1    2    0    0  0.00000000000E+00  0.00000000000E+00 -0.55698427457E+03  0.74759818186E+03  0.49866978994E+03 0.  0.
        4    1    3    3  502    0  0.21779529944E+03  0.70374488778E+02 -0.42674412721E+03  0.48425150918E+03  0.12699999809E+01 0. -1.
       -4    1    3    3    0  502 -0.21779529944E+03 -0.70374488778E+02 -0.13024014736E+03  0.26334667268E+03  0.12699999809E+01 0.  1.
</event>
<event>
 5   0  0.1225989E-02  0.5001148E+03  0.7818609E-02  0.1013749E+00
       -1   -1    0    0    0  501  0.00000000000E+00  0.00000000000E+00  0.43519960895E+02  0.43519961187E+02  0.50400001928E-02 0.  1.
        1   -1    0    0  501    0  0.00000000000E+00  0.00000000000E+00 -0.14367824008E+04  0.14367824009E+04  0.50400001928E-02 0. -1.
    10030    2    1    2    0    0  0.00000000000E+00  0.00000000000E+00 -0.13932624399E+04  0.14803023620E+04  0.50011484330E+03 0.  0.
        3    1    3    3  502    0  0.97447950621E+01 -0.12889003587E+03 -0.63033726728E+02  0.14380842563E+03  0.10100000352E+00 0.  1.
       -3    1    3    3    0  502 -0.97447950621E+01  0.12889003587E+03 -0.13302287132E+04  0.13364939364E+04  0.10100000352E+00 0. -1.
</event>
<event>
 5   0  0.1982847E-02  0.5002481E+03  0.7818609E-02  0.1013714E+00
       -2   -1    0    0    0  501  0.00000000000E+00  0.00000000000E+00  0.34031503675E+02  0.34031503771E+02  0.25500000920E-02 0. -1.
        2   -1    0    0  501    0  0.00000000000E+00  0.00000000000E+00 -0.18383565368E+04  0.18383565368E+04  0.25500000920E-02 0.  1.
    10030    2    1    2    0    0  0.00000000000E+00  0.00000000000E+00 -0.18043250331E+04  0.18723880406E+04  0.50024808777E+03 0.  0.
        2    1    3    3  502    0  0.14475267755E+03  0.16306085333E+03 -0.44344710496E+03  0.49415333091E+03  0.25500000920E-02 0.  1.
       -2    1    3    3    0  502 -0.14475267755E+03 -0.16306085333E+03 -0.13608779282E+04  0.13782347097E+04  0.25500000920E-02 0. -1.
</event>
<event>
 5   0  0.1855407E-02  0.4997078E+03  0.7818609E-02  0.1013855E+00
       -2   -1    0    0    0  501  0.00000000000E+00  0.00000000000E+00  0.12411946446E+03  0.12411946449E+03  0.25500000920E-02 0.  1.
        2   -1    0    0  501    0  0.00000000000E+00  0.00000000000E+00 -0.50295870594E+03  0.50295870595E+03  0.25500000920E-02 0. -1.
    10030    2    1    2    0    0  0.00000000000E+00  0.00000000000E+00 -0.37883924148E+03  0.62707817043E+03  0.49970777556E+03 0.  0.
        1    1    3    3  502    0 -0.21284274685E+03  0.44596540069E+02 -0.35032073576E+02  0.22026831928E+03  0.50400001928E-02 0.  1.
       -1    1    3    3    0  502  0.21284274685E+03 -0.44596540069E+02 -0.34380716790E+03  0.40680985116E+03  0.50400001928E-02 0. -1.
</event>
<event>
 5   0  0.1941387E-02  0.5007134E+03  0.7818609E-02  0.1013593E+00
       -2   -1    0    0    0  501  0.00000000000E+00  0.00000000000E+00  0.76550738494E+02  0.76550738537E+02  0.25500000920E-02 0. -1.
        2   -1    0    0  501    0  0.00000000000E+00  0.00000000000E+00 -0.81878350295E+03  0.81878350296E+03  0.25500000920E-02 0.  1.
    10030    2    1    2    0    0  0.00000000000E+00  0.00000000000E+00 -0.74223276446E+03  0.89533424149E+03  0.50071341839E+03 0.  0.
        4    1    3    3  502    0  0.10591062254E+03 -0.99663804206E+02 -0.67310358193E+01  0.14559139253E+03  0.12699999809E+01 0. -1.
       -4    1    3    3    0  502 -0.10591062254E+03  0.99663804206E+02 -0.73550172864E+03  0.74974284896E+03  0.12699999809E+01 0.  1.
</event>
<event>
 5   0  0.8012875E-03  0.4999664E+03  0.7818609E-02  0.1013788E+00
       -3   -1    0    0    0  501  0.00000000000E+00  0.00000000000E+00  0.10646676626E+03  0.10646681416E+03  0.10100000352E+00 0.  1.
        3   -1    0    0  501    0  0.00000000000E+00  0.00000000000E+00 -0.58695853877E+03  0.58695854746E+03  0.10100000352E+00 0. -1.
    10030    2    1    2    0    0  0.00000000000E+00  0.00000000000E+00 -0.48049177252E+03  0.69342536163E+03  0.49996638756E+03 0.  0.
        4    1    3    3  502    0  0.15459226226E+02  0.24813412034E+03 -0.27642505572E+03  0.37178213201E+03  0.12699999809E+01 0. -1.
       -4    1    3    3    0  502 -0.15459226226E+02 -0.24813412034E+03 -0.20406671680E+03  0.32164322961E+03  0.12699999809E+01 0.  1.
</event>
<event>
 5   0  0.1227864E-02  0.4999828E+03  0.7818609E-02  0.1013783E+00
        1   -1    0    0  501    0  0.00000000000E+00  0.00000000000E+00  0.18729700947E+04  0.18729700947E+04  0.50400001928E-02 0. -1.
       -1   -1    0    0    0  501  0.00000000000E+00  0.00000000000E+00 -0.33367166544E+02  0.33367166924E+02  0.50400001928E-02 0.  1.
    10030    2    1    2    0    0  0.00000000000E+00  0.00000000000E+00  0.18396029282E+04  0.19063372617E+04  0.49998282151E+03 0.  0.
        5    1    3    3  502    0 -0.20013920911E+03 -0.50961752605E+02  0.14565926512E+04  0.14711685983E+04  0.46999998093E+01 0. -1.
       -5    1    3    3    0  502  0.20013920911E+03  0.50961752605E+02  0.38301027701E+03  0.43516866333E+03  0.46999998093E+01 0.  1.
</event>
<event>
 5   0  0.1855407E-02  0.4992500E+03  0.7818609E-02  0.1013975E+00
       -2   -1    0    0    0  501  0.00000000000E+00  0.00000000000E+00  0.89502372315E+02  0.89502372351E+02  0.25500000920E-02 0.  1.
        2   -1    0    0  501    0  0.00000000000E+00  0.00000000000E+00 -0.69621218798E+03  0.69621218799E+03  0.25500000920E-02 0. -1.
    10030    2    1    2    0    0  0.00000000000E+00  0.00000000000E+00 -0.60670981567E+03  0.78571456034E+03  0.49925000741E+03 0.  0.
        1    1    3    3  502    0  0.14736660956E+03 -0.21947408510E+02  0.11851401353E+02  0.14946257757E+03  0.50400001928E-02 0.  1.
       -1    1    3    3    0  502 -0.14736660956E+03  0.21947408510E+02 -0.61856121702E+03  0.63625198277E+03  0.50400001928E-02 0. -1.
</event>
<event>
 5   0  0.1923706E-02  0.4994013E+03  0.7818609E-02  0.1013935E+00
        2   -1    0    0  501    0  0.00000000000E+00  0.00000000000E+00  0.48083820480E+02  0.48083820548E+02  0.25500000920E-02 0.  1.
       -2   -1    0    0    0  501  0.00000000000E+00  0.00000000000E+00 -0.12967026347E+04  0.12967026347E+04  0.25500000920E-02 0. -1.
    10030    2    1    2    0    0  0.00000000000E+00  0.00000000000E+00 -0.12486188143E+04  0.13447864553E+04  0.49940130858E+03 0.  0.
        3    1    3    3  502    0  0.54681669887E+02  0.11317477797E+03 -0.43315138531E+02  0.13294670668E+03  0.10100000352E+00 0.  1.
       -3    1    3    3    0  502 -0.54681669887E+02 -0.11317477797E+03 -0.12053036757E+04  0.12118397486E+04  0.10100000352E+00 0. -1.
</event>
<event>
 5   0  0.1209831E-02  0.5007320E+03  0.7818609E-02  0.1013588E+00
        1   -1    0    0  501    0  0.00000000000E+00  0.00000000000E+00  0.35834129874E+03  0.35834129878E+03  0.50400001928E-02 0. -1.
       -1   -1    0    0    0  501  0.00000000000E+00  0.00000000000E+00 -0.17492580842E+03  0.17492580849E+03  0.50400001928E-02 0.  1.
    10030    2    1    2    0    0  0.00000000000E+00  0.00000000000E+00  0.18341549033E+03  0.53326710727E+03  0.50073202973E+03 0.  0.
        4    1    3    3  502    0  0.16618034781E+03 -0.15922733979E+03 -0.13246474594E+02  0.23053489047E+03  0.12699999809E+01 0.  1.
       -4    1    3    3    0  502 -0.16618034781E+03  0.15922733979E+03  0.19666196492E+03  0.30273221679E+03  0.12699999809E+01 0. -1.
</event>
<event>
 5   0  0.8012875E-03  0.5004276E+03  0.7818609E-02  0.1013667E+00
        3   -1    0    0  501    0  0.00000000000E+00  0.00000000000E+00  0.12843831618E+03  0.12843835589E+03  0.10100000352E+00 0.  1.
       -3   -1    0    0    0  501  0.00000000000E+00  0.00000000000E+00 -0.48744748047E+03  0.48744749093E+03  0.10100000352E+00 0. -1.
    10030    2    1    2    0    0  0.00000000000E+00  0.00000000000E+00 -0.35900916429E+03  0.61588584683E+03  0.50042761342E+03 0.  0.
        1    1    3    3  502    0 -0.10511319915E+03 -0.93055453351E+01 -0.45872210578E+03  0.47070303608E+03  0.50400001928E-02 0. -1.
       -1    1    3    3    0  502  0.10511319915E+03  0.93055453351E+01  0.99712941495E+02  0.14518281075E+03  0.50400001928E-02 0.  1.
</event>
<event>
 5   0  0.1967813E-02  0.5000804E+03  0.7818609E-02  0.1013758E+00
       -2   -1    0    0    0  501  0.00000000000E+00  0.00000000000E+00  0.74729151893E+02  0.74729151936E+02  0.25500000920E-02 0. -1.
        2   -1    0    0  501    0  0.00000000000E+00  0.00000000000E+00 -0.83662266005E+03  0.83662266006E+03  0.25500000920E-02 0.  1.
    10030    2    1    2    0    0  0.00000000000E+00  0.00000000000E+00 -0.76189350816E+03  0.91135181199E+03  0.50008040098E+03 0.  0.
        5    1    3    3  502    0 -0.11885665065E+03  0.44418519818E+02  0.11604475662E+02  0.12750161630E+03  0.46999998093E+01 0. -1.
       -5    1    3    3    0  502  0.11885665065E+03 -0.44418519818E+02 -0.77349798382E+03  0.78385019569E+03  0.46999998093E+01 0.  1.
</event>
<event>
 5   0  0.1982847E-02  0.4997690E+03  0.7818609E-02  0.1013839E+00
        2   -1    0    0  501    0  0.00000000000E+00  0.00000000000E+00  0.32429990537E+03  0.32429990538E+03  0.25500000920E-02 0.  1.
       -2   -1    0    0    0  501  0.00000000000E+00  0.00000000000E+00 -0.19254480303E+03  0.19254480305E+03  0.25500000920E-02 0. -1.
    10030    2    1    2    0    0  0.00000000000E+00  0.00000000000E+00  0.13175510235E+03  0.51684470843E+03  0.49976899227E+03 0.  0.
        2    1    3    3  502    0 -0.14456338149E+01 -0.32325061412E+02  0.32212420055E+03  0.32374527029E+03  0.25500000920E-02 0.  1.
       -2    1    3    3    0  502  0.14456338149E+01  0.32325061412E+02 -0.19036909820E+03  0.19309943814E+03  0.25500000920E-02 0. -1.
</event>
<event>
 5   0  0.1982847E-02  0.5000864E+03  0.7818609E-02  0.1013756E+00
        2   -1    0    0  501    0  0.00000000000E+00  0.00000000000E+00  0.78766269844E+03  0.78766269845E+03  0.25500000920E-02 0.  1.
       -2   -1    0    0    0  501  0.00000000000E+00  0.00000000000E+00 -0.79376102338E+02  0.79376102379E+02  0.25500000920E-02 0. -1.
    10030    2    1    2    0    0  0.00000000000E+00  0.00000000000E+00  0.70828659611E+03  0.86703880083E+03  0.50008637245E+03 0.  0.
        2    1    3    3  502    0  0.10342628280E+03  0.22501793627E+03  0.41399073032E+03  0.48240894727E+03  0.25500000920E-02 0.  1.
       -2    1    3    3    0  502 -0.10342628280E+03 -0.22501793627E+03  0.29429586579E+03  0.38462985355E+03  0.25500000920E-02 0. -1.
</event>
<event>
 5   0  0.1225989E-02  0.4993206E+03  0.7818609E-02  0.1013956E+00
       -1   -1    0    0    0  501  0.00000000000E+00  0.00000000000E+00  0.12729221754E+03  0.12729221764E+03  0.50400001928E-02 0. -1.
        1   -1    0    0  501    0  0.00000000000E+00  0.00000000000E+00 -0.48966289965E+03  0.48966289968E+03  0.50400001928E-02 0.  1.
    10030    2    1    2    0    0  0.00000000000E+00  0.00000000000E+00 -0.36237068211E+03  0.61695511732E+03  0.49932064401E+03 0.  0.
        3    1    3    3  502    0 -0.17278796830E+02  0.17345522693E+03  0.39653496102E+02  0.17876711813E+03  0.10100000352E+00 0. -1.
       -3    1    3    3    0  502  0.17278796830E+02 -0.17345522693E+03 -0.40202417821E+03  0.43818799920E+03  0.10100000352E+00 0.  1.
</event>
<event>
 5   0  0.1217270E-02  0.5011530E+03  0.7818609E-02  0.1013478E+00
       -1   -1    0    0    0  501  0.00000000000E+00  0.00000000000E+00  0.10967873633E+03  0.10967873644E+03  0.50400001928E-02 0.  1.
        1   -1    0    0  501    0  0.00000000000E+00  0.00000000000E+00 -0.57247718830E+03  0.57247718832E+03  0.50400001928E-02 0. -1.
    10030    2    1    2    0    0  0.00000000000E+00  0.00000000000E+00 -0.46279845197E+03  0.68215592476E+03  0.50115296921E+03 0.  0.
        2    1    3    3  502    0 -0.22744055255E+02 -0.14043688977E+03  0.49374725951E+02  0.15059108747E+03  0.25500000920E-02 0.  1.
       -2    1    3    3    0  502  0.22744055255E+02  0.14043688977E+03 -0.51217317792E+03  0.53156483729E+03  0.25500000920E-02 0. -1.
</event>
<event>
 5   0  0.1855407E-02  0.4947266E+03  0.7818609E-02  0.1015165E+00
       -2   -1    0    0    0  501  0.00000000000E+00  0.00000000000E+00  0.89225206316E+02  0.89225206353E+02  0.25500000920E-02 0.  1.
        2   -1    0    0  501    0  0.00000000000E+00  0.00000000000E+00 -0.68577710534E+03  0.68577710535E+03  0.25500000920E-02 0. -1.
    10030    2    1    2    0    0  0.00000000000E+00  0.00000000000E+00 -0.59655189903E+03  0.77500231170E+03  0.49472660623E+03 0.  0.
        1    1    3    3  502    0 -0.20113981144E+03 -0.69120198511E+01 -0.52357057796E+03  0.56091991398E+03  0.50400001928E-02 0. -1.
       -1    1    3    3    0  502  0.20113981144E+03  0.69120198511E+01 -0.72981321063E+02  0.21408239772E+03  0.50400001928E-02 0.  1.
</event>
<event>
 5   0  0.8012875E-03  0.4993776E+03  0.7818609E-02  0.1013941E+00
       -4   -1    0    0    0  501  0.00000000000E+00  0.00000000000E+00  0.42548967416E+03  0.42549156950E+03  0.12699999809E+01 0. -1.
        4   -1    0    0  501    0  0.00000000000E+00  0.00000000000E+00 -0.14651916302E+03  0.14652466697E+03  0.12699999809E+01 0.  1.
    10030    2    1    2    0    0  0.00000000000E+00  0.00000000000E+00  0.27897051114E+03  0.57201623647E+03  0.49937764137E+03 0.  0.
        2    1    3    3  502    0  0.91965973993E+02 -0.50142216618E+02  0.39910918467E+03  0.41262588813E+03  0.25500000920E-02 0. -1.
       -2    1    3    3    0  502 -0.91965973993E+02  0.50142216618E+02 -0.12013867353E+03  0.15939034834E+03  0.25500000920E-02 0.  1.
</event>
<event>
 5   0  0.1225989E-02  0.4998252E+03  0.7818609E-02  0.1013825E+00
        1   -1    0    0  501    0  0.00000000000E+00  0.00000000000E+00  0.78986318771E+03  0.78986318772E+03  0.50400001928E-02 0.  1.
       -1   -1    0    0    0  501  0.00000000000E+00  0.00000000000E+00 -0.79072321698E+02  0.79072321859E+02  0.50400001928E-02 0. -1.
    10030    2    1    2    0    0  0.00000000000E+00  0.00000000000E+00  0.71079086601E+03  0.86893550958E+03  0.49982523407E+03 0.  0.
        3    1    3    3  502    0 -0.23187812303E+03  0.23790760465E+02  0.51207896859E+03  0.56263517886E+03  0.10100000352E+00 0.  1.
       -3    1    3    3    0  502  0.23187812303E+03 -0.23790760465E+02  0.19871189742E+03  0.30630033072E+03  0.10100000352E+00 0. -1.
</event>
<event>
 5   0  0.1967813E-02  0.5008648E+03  0.7818609E-02  0.1013553E+00
        2   -1    0    0  501    0  0.00000000000E+00  0.00000000000E+00  0.92031714421E+03  0.92031714421E+03  0.25500000920E-02 0. -1.
       -2   -1    0    0    0  501  0.00000000000E+00  0.00000000000E+00 -0.68146504264E+02  0.68146504311E+02  0.25500000920E-02 0.  1.
    10030    2    1    2    0    0  0.00000000000E+00  0.00000000000E+00  0.85217063995E+03  0.98846364852E+03  0.50086483693E+03 0.  0.
        5    1    3    3  502    0  0.15615524289E+03  0.15491195341E+03  0.18998730195E+03  0.29068787056E+03  0.46999998093E+01 0.  1.
       -5    1    3    3    0  502 -0.15615524289E+03 -0.15491195341E+03  0.66218333799E+03  0.69777577796E+03  0.46999998093E+01 0. -1.
</event>
<event>
 5   0  0.8012875E-03  0.5021596E+03  0.7818609E-02  0.1013217E+00
       -4   -1    0    0    0  501  0.00000000000E+00  0.00000000000E+00  0.92426326435E+03  0.92426413688E+03  0.12699999809E+01 0.  1.
        4   -1    0    0  501    0  0.00000000000E+00  0.00000000000E+00 -0.68200016019E+02  0.68211839771E+02  0.12699999809E+01 0. -1.
    10030    2    1    2    0    0  0.00000000000E+00  0.00000000000E+00  0.85606324833E+03  0.99247597665E+03  0.50215961515E+03 0.  0.
        4    1    3    3  502    0 -0.11387116021E+03 -0.56654222943E+02  0.17939821039E+00  0.12719271673E+03  0.12699999809E+01 0. -1.
       -4    1    3    3    0  502  0.11387116021E+03  0.56654222943E+02  0.85588385012E+03  0.86528325992E+03  0.12699999809E+01 0.  1.
</event>
<event>
 5   0  0.1180937E-02  0.4997209E+03  0.7818609E-02  0.1013852E+00
       -1   -1    0    0    0  501  0.00000000000E+00  0.00000000000E+00  0.94554177946E+02  0.94554178081E+02  0.50400001928E-02 0.  1.
        1   -1    0    0  501    0  0.00000000000E+00  0.00000000000E+00 -0.66025887454E+03  0.66025887456E+03  0.50400001928E-02 0. -1.
    10030    2    1    2    0    0  0.00000000000E+00  0.00000000000E+00 -0.56570469659E+03  0.75481305264E+03  0.49972086277E+03 0.  0.
        1    1    3    3  502    0  0.79002389584E+02 -0.20866760505E+01  0.75178290752E+02  0.10907569483E+03  0.50400001928E-02 0.  1.
       -1    1    3    3    0  502 -0.79002389584E+02  0.20866760505E+01 -0.64088298734E+03  0.64573735781E+03  0.50400001928E-02 0. -1.
</event>
<event>
 5   0  0.1225989E-02  0.4998122E+03  0.7818609E-02  0.1013828E+00
        1   -1    0    0  501    0  0.00000000000E+00  0.00000000000E+00  0.18330906321E+03  0.18330906328E+03  0.50400001928E-02 0. -1.
       -1   -1    0    0    0  501  0.00000000000E+00  0.00000000000E+00 -0.34069813323E+03  0.34069813327E+03  0.50400001928E-02 0.  1.
    10030    2    1    2    0    0  0.00000000000E+00  0.00000000000E+00 -0.15738907002E+03  0.52400719655E+03  0.49981218740E+03 0.  0.
        3    1    3    3  502    0  0.20364417998E+03  0.10460941331E+02  0.72772921056E+02  0.21650933368E+03  0.10100000352E+00 0. -1.
       -3    1    3    3    0  502 -0.20364417998E+03 -0.10460941331E+02 -0.23016199108E+03  0.30749786287E+03  0.10100000352E+00 0.  1.
</event>
<event>
 5   0  0.1982847E-02  0.5004130E+03  0.7818609E-02  0.1013671E+00
       -2   -1    0    0    0  501  0.00000000000E+00  0.00000000000E+00  0.14016592740E+03  0.14016592742E+03  0.25500000920E-02 0. -1.
        2   -1    0    0  501    0  0.00000000000E+00  0.00000000000E+00 -0.44663699094E+03  0.44663699094E+03  0.25500000920E-02 0.  1.
    10030    2    1    2    0    0  0.00000000000E+00  0.00000000000E+00 -0.30647106354E+03  0.58680291837E+03  0.50041298166E+03 0.  0.
        2    1    3    3  502    0 -0.12760210941E+03  0.19040599324E+03 -0.35582270468E+02  0.23195438898E+03  0.25500000920E-02 0. -1.
       -2    1    3    3    0  502  0.12760210941E+03 -0.19040599324E+03 -0.27088879307E+03  0.35484852938E+03  0.25500000920E-02 0.  1.
</event>
<event>
 5   0  0.1855407E-02  0.4996214E+03  0.7818609E-02  0.1013878E+00
       -2   -1    0    0    0  501  0.00000000000E+00  0.00000000000E+00  0.36824113820E+03  0.36824113821E+03  0.25500000920E-02 0.  1.
        2   -1    0    0  501    0  0.00000000000E+00  0.00000000000E+00 -0.16946877635E+03  0.16946877637E+03  0.25500000920E-02 0. -1.
    10030    2    1    2    0    0  0.00000000000E+00  0.00000000000E+00  0.19877236185E+03  0.53770991458E+03  0.49962135703E+03 0.  0.
        1    1    3    3  502    0  0.18864670655E+03  0.11306632975E+03 -0.28109271733E+02  0.22172439198E+03  0.50400001928E-02 0. -1.
       -1    1    3    3    0  502 -0.18864670655E+03 -0.11306632975E+03  0.22688163359E+03  0.31598552261E+03  0.50400001928E-02 0.  1.
</event>
<event>
 5   0  0.1180937E-02  0.4994256E+03  0.7818609E-02  0.1013929E+00
       -1   -1    0    0    0  501  0.00000000000E+00  0.00000000000E+00  0.53532375383E+02  0.53532375620E+02  0.50400001928E-02 0.  1.
        1   -1    0    0  501    0  0.00000000000E+00  0.00000000000E+00 -0.11648368456E+04  0.11648368456E+04  0.50400001928E-02 0. -1.
    10030    2    1    2    0    0  0.00000000000E+00  0.00000000000E+00 -0.11113044702E+04  0.12183692212E+04  0.49942560378E+03 0.  0.
        1    1    3    3  502    0 -0.13910977555E+03  0.11092715616E+03 -0.98309517753E+03  0.99906580951E+03  0.50400001928E-02 0. -1.
       -1    1    3    3    0  502  0.13910977555E+03 -0.11092715616E+03 -0.12820929264E+03  0.21930341168E+03  0.50400001928E-02 0.  1.
</event>
<event>
 5   0  0.1855407E-02  0.4999515E+03  0.7818609E-02  0.1013792E+00
       -2   -1    0    0    0  501  0.00000000000E+00  0.00000000000E+00  0.63385067149E+02  0.63385067200E+02  0.25500000920E-02 0. -1.
        2   -1    0    0  501    0  0.00000000000E+00  0.00000000000E+00 -0.98584519812E+03  0.98584519813E+03  0.25500000920E-02 0.  1.
    10030    2    1    2    0    0  0.00000000000E+00  0.00000000000E+00 -0.92246013098E+03  0.10492302653E+04  0.49995145408E+03 0.  0.
        1    1    3    3  502    0  0.18644631658E+03  0.84905932727E+02 -0.76183482785E+03  0.78890021634E+03  0.50400001928E-02 0.  1.
       -1    1    3    3    0  502 -0.18644631658E+03 -0.84905932727E+02 -0.16062530312E+03  0.26033004899E+03  0.50400001928E-02 0. -1.
</event>
<event>
 5   0  0.1855407E-02  0.4987348E+03  0.7818609E-02  0.1014110E+00
        2   -1    0    0  501    0  0.00000000000E+00  0.00000000000E+00  0.93796266803E+03  0.93796266804E+03  0.25500000920E-02 0. -1.
       -2   -1    0    0    0  501  0.00000000000E+00  0.00000000000E+00 -0.66296996105E+02  0.66296996154E+02  0.25500000920E-02 0.  1.
    10030    2    1    2    0    0  0.00000000000E+00  0.00000000000E+00  0.87166567193E+03  0.10042596642E+04  0.49873482885E+03 0.  0.
        1    1    3    3  502    0 -0.13510599323E+03 -0.19538266616E+03  0.58860357307E+03  0.63473000709E+03  0.50400001928E-02 0. -1.
       -1    1    3    3    0  502  0.13510599323E+03  0.19538266616E+03  0.28306209886E+03  0.36952965710E+03  0.50400001928E-02 0.  1.
</event>
<event>
 5   0  0.1967813E-02  0.4998656E+03  0.7818609E-02  0.1013814E+00
        2   -1    0    0  501    0  0.00000000000E+00  0.00000000000E+00  0.47084103211E+03  0.47084103212E+03  0.25500000920E-02 0. -1.
       -2   -1    0    0    0  501  0.00000000000E+00  0.00000000000E+00 -0.13266985795E+03  0.13266985797E+03  0.25500000920E-02 0.  1.
    10030    2    1    2    0    0  0.00000000000E+00  0.00000000000E+00  0.33817117417E+03  0.60351089009E+03  0.49986563337E+03 0.  0.
        5    1    3    3  502    0  0.13814387732E+03  0.89224928048E+02 -0.58073660637E+02  0.17446907659E+03  0.46999998093E+01 0.  1.
       -5    1    3    3    0  502 -0.13814387732E+03 -0.89224928048E+02  0.39624483481E+03  0.42904181350E+03  0.46999998093E+01 0. -1.
</event>
<event>
 5   0  0.1855407E-02  0.5007236E+03  0.7818609E-02  0.1013590E+00
        2   -1    0    0  501    0  0.00000000000E+00  0.00000000000E+00  0.18576919715E+04  0.18576919715E+04  0.25500000920E-02 0.  1.
       -2   -1    0    0    0  501  0.00000000000E+00  0.00000000000E+00 -0.33741345518E+02  0.33741345615E+02  0.25500000920E-02 0. -1.
    10030    2    1    2    0    0  0.00000000000E+00  0.00000000000E+00  0.18239506259E+04  0.18914333171E+04  0.50072358350E+03 0.  0.
        1    1    3    3  502    0 -0.24607874268E+03 -0.32649314612E+02  0.10349760334E+04  0.10643289506E+04  0.50400001928E-02 0. -1.
       -1    1    3    3    0  502  0.24607874268E+03  0.32649314612E+02  0.78897459255E+03  0.82710436649E+03  0.50400001928E-02 0.  1.
</event>
<event>
 5   0  0.1209831E-02  0.5004974E+03  0.7818609E-02  0.1013649E+00
        1   -1    0    0  501    0  0.00000000000E+00  0.00000000000E+00  0.26338516605E+03  0.26338516610E+03  0.50400001928E-02 0. -1.
       -1   -1    0    0    0  501  0.00000000000E+00  0.00000000000E+00 -0.23776744858E+03  0.23776744864E+03  0.50400001928E-02 0.  1.
    10030    2    1    2    0    0  0.00000000000E+00  0.00000000000E+00  0.25617717467E+02  0.50115261473E+03  0.50049742837E+03 0.  0.
        4    1    3    3  502    0 -0.11809296538E+03 -0.16476515069E+03 -0.13411188975E+03  0.24306607173E+03  0.12699999809E+01 0.  1.
       -4    1    3    3    0  502  0.11809296538E+03  0.16476515069E+03  0.15972960722E+03  0.25808654300E+03  0.12699999809E+01 0. -1.
</event>
<event>
 5   0  0.1180937E-02  0.5004084E+03  0.7818609E-02  0.1013672E+00
        1   -1    0    0  501    0  0.00000000000E+00  0.00000000000E+00  0.48500779289E+02  0.48500779551E+02  0.50400001928E-02 0.  1.
       -1   -1    0    0    0  501  0.00000000000E+00  0.00000000000E+00 -0.12907450019E+04  0.12907450019E+04  0.50400001928E-02 0. -1.
    10030    2    1    2    0    0  0.00000000000E+00  0.00000000000E+00 -0.12422442226E+04  0.13392457815E+04  0.50040838777E+03 0.  0.
        1    1    3    3  502    0  0.17459956516E+03 -0.17886766483E+03 -0.65086271194E+03  0.69720937995E+03  0.50400001928E-02 0. -1.
       -1    1    3    3    0  502 -0.17459956516E+03  0.17886766483E+03 -0.59138151067E+03  0.64203640151E+03  0.50400001928E-02 0.  1.
</event>
<event>
 5   0  0.1180937E-02  0.5017721E+03  0.7818609E-02  0.1013317E+00
        1   -1    0    0  501    0  0.00000000000E+00  0.00000000000E+00  0.28113889643E+03  0.28113889647E+03  0.50400001928E-02 0. -1.
       -1   -1    0    0    0  501  0.00000000000E+00  0.00000000000E+00 -0.22388864085E+03  0.22388864090E+03  0.50400001928E-02 0.  1.
    10030    2    1    2    0    0  0.00000000000E+00  0.00000000000E+00  0.57250255582E+02  0.50502753737E+03  0.50177208147E+03 0.  0.
        1    1    3    3  502    0 -0.17228100315E+03 -0.17526929452E+03  0.79387810258E+02  0.25826825994E+03  0.50400001928E-02 0.  1.
       -1    1    3    3    0  502  0.17228100315E+03  0.17526929452E+03 -0.22137554675E+02  0.24675927744E+03  0.50400001928E-02 0. -1.
</event>
<event>
 5   0  0.1967813E-02  0.4985574E+03  0.7818609E-02  0.1014156E+00
        2   -1    0    0  501    0  0.00000000000E+00  0.00000000000E+00  0.69846335174E+03  0.69846335174E+03  0.25500000920E-02 0.  1.
       -2   -1    0    0    0  501  0.00000000000E+00  0.00000000000E+00 -0.88966554821E+02  0.88966554858E+02  0.25500000920E-02 0. -1.
    10030    2    1    2    0    0  0.00000000000E+00  0.00000000000E+00  0.60949679691E+03  0.78742990660E+03  0.49855743135E+03 0.  0.
        5    1    3    3  502    0 -0.88551181797E+02  0.18777457894E+03  0.52255438532E+03  0.56230399244E+03  0.46999998093E+01 0.  1.
       -5    1    3    3    0  502  0.88551181797E+02 -0.18777457894E+03  0.86942411595E+02  0.22512591416E+03  0.46999998093E+01 0. -1.
</event>
<event>
 5   0  0.1855407E-02  0.5003541E+03  0.7818609E-02  0.1013687E+00
        2   -1    0    0  501    0  0.00000000000E+00  0.00000000000E+00  0.21985485494E+03  0.21985485496E+03  0.25500000920E-02 0. -1.
       -2   -1    0    0    0  501  0.00000000000E+00  0.00000000000E+00 -0.28468126453E+03  0.28468126454E+03  0.25500000920E-02 0.  1.
    10030    2    1    2    0    0  0.00000000000E+00  0.00000000000E+00 -0.64826409586E+02  0.50453611950E+03  0.50035410711E+03 0.  0.
        1    1    3    3  502    0 -0.19725657504E+03  0.21354441405E+02 -0.18607582928E+03  0.27201173289E+03  0.50400001928E-02 0.  1.
       -1    1    3    3    0  502  0.19725657504E+03 -0.21354441405E+02  0.12124941969E+03  0.23252438661E+03  0.50400001928E-02 0. -1.
</event>
<event>
 5   0  0.8012875E-03  0.5008013E+03  0.7818609E-02  0.1013570E+00
        3   -1    0    0  501    0  0.00000000000E+00  0.00000000000E+00  0.49007447380E+03  0.49007448421E+03  0.10100000352E+00 0.  1.
       -3   -1    0    0    0  501  0.00000000000E+00  0.00000000000E+00 -0.12794070735E+03  0.12794074722E+03  0.10100000352E+00 0. -1.
    10030    2    1    2    0    0  0.00000000000E+00  0.00000000000E+00  0.36213376645E+03  0.61801523143E+03  0.50080131936E+03 0.  0.
        5    1    3    3  502    0 -0.14620162029E+03 -0.62202587965E+02 -0.57697045075E+02  0.16910090104E+03  0.46999998093E+01 0. -1.
       -5    1    3    3    0  502  0.14620162029E+03  0.62202587965E+02  0.41983081152E+03  0.44891433038E+03  0.46999998093E+01 0.  1.
</event>
<event>
 5   0  0.1225989E-02  0.4997180E+03  0.7818609E-02  0.1013853E+00
        1   -1    0    0  501    0  0.00000000000E+00  0.00000000000E+00  0.72136620515E+03  0.72136620517E+03  0.50400001928E-02 0. -1.
       -1   -1    0    0    0  501  0.00000000000E+00  0.00000000000E+00 -0.86543463154E+02  0.86543463301E+02  0.50400001928E-02 0.  1.
    10030    2    1    2    0    0  0.00000000000E+00  0.00000000000E+00  0.63482274200E+03  0.80790966847E+03  0.49971803915E+03 0.  0.
        3    1    3    3  502    0 -0.51380878267E+02  0.17334429452E+03  0.38595424619E+02  0.18487254014E+03  0.10100000352E+00 0.  1.
       -3    1    3    3    0  502  0.51380878267E+02 -0.17334429452E+03  0.59622731738E+03  0.62303712834E+03  0.10100000352E+00 0. -1.
</event>
<event>
 5   0  0.1225989E-02  0.4998944E+03  0.7818609E-02  0.1013806E+00
        1   -1    0    0  501    0  0.00000000000E+00  0.00000000000E+00  0.70561959629E+03  0.70561959631E+03  0.50400001928E-02 0.  1.
       -1   -1    0    0    0  501  0.00000000000E+00  0.00000000000E+00 -0.88537230404E+02  0.88537230548E+02  0.50400001928E-02 0. -1.
    10030    2    1    2    0    0  0.00000000000E+00  0.00000000000E+00  0.61708236589E+03  0.79415682686E+03  0.49989440821E+03 0.  0.
        3    1    3    3  502    0  0.53626524111E+02 -0.23454906163E+03  0.41610725772E+03  0.48066030263E+03  0.10100000352E+00 0.  1.
       -3    1    3    3    0  502 -0.53626524111E+02  0.23454906163E+03  0.20097510817E+03  0.31349652423E+03  0.10100000352E+00 0. -1.
</event>
<event>
 5   0  0.1855407E-02  0.4993169E+03  0.7818609E-02  0.1013957E+00
        2   -1    0    0  501    0  0.00000000000E+00  0.00000000000E+00  0.18258165601E+04  0.18258165601E+04  0.25500000920E-02 0.  1.
       -2   -1    0    0    0  501  0.00000000000E+00  0.00000000000E+00 -0.34137784805E+02  0.34137784900E+02  0.25500000920E-02 0. -1.
    10030    2    1    2    0    0  0.00000000000E+00  0.00000000000E+00  0.17916787753E+04  0.18599543450E+04  0.49931686497E+03 0.  0.
        1    1    3    3  502    0 -0.37697790685E+02  0.31377907769E+01  0.18150792750E+04  0.18154734213E+04  0.50400001928E-02 0.  1.
       -1    1    3    3    0  502  0.37697790685E+02 -0.31377907769E+01 -0.23400499717E+02  0.44480923617E+02  0.50400001928E-02 0. -1.
</event>
<event>
 5   0  0.8012875E-03  0.5002519E+03  0.7818609E-02  0.1013713E+00
        3   -1    0    0  501    0  0.00000000000E+00  0.00000000000E+00  0.70984984897E+02  0.70985056750E+02  0.10100000352E+00 0. -1.
       -3   -1    0    0    0  501  0.00000000000E+00  0.00000000000E+00 -0.88135477905E+03  0.88135478484E+03  0.10100000352E+00 0.  1.
    10030    2    1    2    0    0  0.00000000000E+00  0.00000000000E+00 -0.81036979416E+03  0.95233984159E+03  0.50025190714E+03 0.  0.
        3    1    3    3  502    0  0.24005846317E+03  0.13124449444E+02 -0.53656459002E+03  0.58796418801E+03  0.10100000352E+00 0.  1.
       -3    1    3    3    0  502 -0.24005846317E+03 -0.13124449444E+02 -0.27380520414E+03  0.36437565358E+03  0.10100000352E+00 0. -1.
</event>
<event>
 5   0  0.1180937E-02  0.4999007E+03  0.7818609E-02  0.1013805E+00
       -1   -1    0    0    0  501  0.00000000000E+00  0.00000000000E+00  0.23075583598E+03  0.23075583603E+03  0.50400001928E-02 0.  1.
        1   -1    0    0  501    0  0.00000000000E+00  0.00000000000E+00 -0.27074147538E+03  0.27074147543E+03  0.50400001928E-02 0. -1.
    10030    2    1    2    0    0  0.00000000000E+00  0.00000000000E+00 -0.39985639400E+02  0.50149731146E+03  0.49990069218E+03 0.  0.
        1    1    3    3  502    0  0.16221320526E+03  0.12498625108E+03  0.12378445777E+03  0.23928493252E+03  0.50400001928E-02 0.  1.
       -1    1    3    3    0  502 -0.16221320526E+03 -0.12498625108E+03 -0.16377009717E+03  0.26221237894E+03  0.50400001928E-02 0. -1.
</event>
<event>
 5   0  0.1217270E-02  0.4979430E+03  0.7818609E-02  0.1014317E+00
        1   -1    0    0  501    0  0.00000000000E+00  0.00000000000E+00  0.14214632009E+04  0.14214632009E+04  0.50400001928E-02 0. -1.
       -1   -1    0    0    0  501  0.00000000000E+00  0.00000000000E+00 -0.43607747300E+02  0.43607747591E+02  0.50400001928E-02 0.  1.
    10030    2    1    2    0    0  0.00000000000E+00  0.00000000000E+00  0.13778554536E+04  0.14650709485E+04  0.49794300188E+03 0.  0.
        2    1    3    3  502    0 -0.18308806107E+03 -0.16284171472E+03  0.81879202913E+03  0.85466897050E+03  0.25500000920E-02 0.  1.
       -2    1    3    3    0  502  0.18308806107E+03  0.16284171472E+03  0.55906342447E+03  0.61040197800E+03  0.25500000920E-02 0. -1.
</event>
<event>
 5   0  0.1209831E-02  0.4995440E+03  0.7818609E-02  0.1013898E+00
        1   -1    0    0  501    0  0.00000000000E+00  0.00000000000E+00  0.13431332327E+03  0.13431332337E+03  0.50400001928E-02 0. -1.
       -1   -1    0    0    0  501  0.00000000000E+00  0.00000000000E+00 -0.46448143255E+03  0.46448143258E+03  0.50400001928E-02 0.  1.
    10030    2    1    2    0    0  0.00000000000E+00  0.00000000000E+00 -0.33016810927E+03  0.59879475594E+03  0.49954397140E+03 0.  0.
        4    1    3    3  502    0 -0.23009697031E+02  0.83085885587E+02  0.11590856739E+03  0.14446148080E+03  0.12699999809E+01 0. -1.
       -4    1    3    3    0  502  0.23009697031E+02 -0.83085885587E+02 -0.44607667666E+03  0.45433327514E+03  0.12699999809E+01 0.  1.
</event>
<event>
 5   0  0.1217270E-02  0.5009188E+03  0.7818609E-02  0.1013539E+00
       -1   -1    0    0    0  501  0.00000000000E+00  0.00000000000E+00  0.35848442647E+03  0.35848442651E+03  0.50400001928E-02 0.  1.
        1   -1    0    0  501    0  0.00000000000E+00  0.00000000000E+00 -0.17498646557E+03  0.17498646564E+03  0.50400001928E-02 0. -1.
    10030    2    1    2    0    0  0.00000000000E+00  0.00000000000E+00  0.18349796090E+03  0.53347089215E+03  0.50091884684E+03 0.  0.
        2    1    3    3  502    0  0.20383642523E+03 -0.44236946247E+02 -0.55910777519E+02  0.21594492518E+03  0.25500000920E-02 0. -1.
       -2    1    3    3    0  502 -0.20383642523E+03  0.44236946247E+02  0.23940873842E+03  0.31752596697E+03  0.25500000920E-02 0.  1.
</event>
<event>
 5   0  0.1209831E-02  0.5041181E+03  0.7818609E-02  0.1012710E+00
       -1   -1    0    0    0  501  0.00000000000E+00  0.00000000000E+00  0.19929583107E+03  0.19929583113E+03  0.50400001928E-02 0. -1.
        1   -1    0    0  501    0  0.00000000000E+00  0.00000000000E+00 -0.31879121889E+03  0.31879121893E+03  0.50400001928E-02 0.  1.
    10030    2    1    2    0    0  0.00000000000E+00  0.00000000000E+00 -0.11949538783E+03  0.51808705006E+03  0.50411808510E+03 0.  0.
        4    1    3    3  502    0 -0.22938521334E+03 -0.32815857324E+02 -0.16168122232E+03  0.28255421982E+03  0.12699999809E+01 0. -1.
       -4    1    3    3    0  502  0.22938521334E+03  0.32815857324E+02  0.42185834490E+02  0.23553283024E+03  0.12699999809E+01 0.  1.
</event>
<event>
 5   0  0.1225989E-02  0.5003747E+03  0.7818609E-02  0.1013681E+00
        1   -1    0    0  501    0  0.00000000000E+00  0.00000000000E+00  0.21201827516E+04  0.21201827517E+04  0.50400001928E-02 0.  1.
       -1   -1    0    0    0  501  0.00000000000E+00  0.00000000000E+00 -0.29522784317E+02  0.29522784747E+02  0.50400001928E-02 0. -1.
    10030    2    1    2    0    0  0.00000000000E+00  0.00000000000E+00  0.20906599673E+04  0.21497055364E+04  0.50037465387E+03 0.  0.
        3    1    3    3  502    0 -0.13271983901E+03  0.62380180623E+02  0.17448599537E+03  0.22792809257E+03  0.10100000352E+00 0. -1.
       -3    1    3    3    0  502  0.13271983901E+03 -0.62380180623E+02  0.19161739720E+04  0.19217774438E+04  0.10100000352E+00 0.  1.
</event>
<event>
 5   0  0.1209831E-02  0.5036395E+03  0.7818609E-02  0.1012833E+00
       -1   -1    0    0    0  501  0.00000000000E+00  0.00000000000E+00  0.55588215783E+02  0.55588216011E+02  0.50400001928E-02 0.  1.
        1   -1    0    0  501    0  0.00000000000E+00  0.00000000000E+00 -0.11407667410E+04  0.11407667410E+04  0.50400001928E-02 0. -1.
    10030    2    1    2    0    0  0.00000000000E+00  0.00000000000E+00 -0.10851785252E+04  0.11963549570E+04  0.50363950560E+03 0.  0.
        4    1    3    3  502    0  0.17720705895E+02 -0.56076509261E+02  0.39039185106E+02  0.70599356810E+02  0.12699999809E+01 0.  1.
       -4    1    3    3    0  502 -0.17720705895E+02  0.56076509261E+02 -0.11242177103E+04  0.11257556002E+04  0.12699999809E+01 0. -1.
</event>
<event>
 5   0  0.1923706E-02  0.5000972E+03  0.7818609E-02  0.1013754E+00
        2   -1    0    0  501    0  0.00000000000E+00  0.00000000000E+00  0.62440914890E+03  0.62440914890E+03  0.25500000920E-02 0. -1.
       -2   -1    0    0    0  501  0.00000000000E+00  0.00000000000E+00 -0.10013356452E+03  0.10013356455E+03  0.25500000920E-02 0.  1.
    10030    2    1    2    0    0  0.00000000000E+00  0.00000000000E+00  0.52427558438E+03  0.72454271346E+03  0.50009724579E+03 0.  0.
        3    1    3    3  502    0 -0.21834718226E+03 -0.19682367952E+02  0.87911000169E+02  0.23620169720E+03  0.10100000352E+00 0. -1.
       -3    1    3    3    0  502  0.21834718226E+03  0.19682367952E+02  0.43636458421E+03  0.48834101626E+03  0.10100000352E+00 0.  1.
</event>
<event>
 5   0  0.1217270E-02  0.5005014E+03  0.7818609E-02  0.1013648E+00
        1   -1    0    0  501    0  0.00000000000E+00  0.00000000000E+00  0.66231002509E+03  0.66231002511E+03  0.50400001928E-02 0.  1.
       -1   -1    0    0    0  501  0.00000000000E+00  0.00000000000E+00 -0.94556055756E+02  0.94556055890E+02  0.50400001928E-02 0. -1.
    10030    2    1    2    0    0  0.00000000000E+00  0.00000000000E+00  0.56775396933E+03  0.75686608100E+03  0.50050144343E+03 0.  0.
        2    1    3    3  502    0  0.21083284271E+03  0.11936182261E+03  0.18910447311E+03  0.30734058310E+03  0.25500000920E-02 0. -1.
       -2    1    3    3    0  502 -0.21083284271E+03 -0.11936182261E+03  0.37864949622E+03  0.44952549789E+03  0.25500000920E-02 0.  1.
</event>
<event>
 5   0  0.1180937E-02  0.5001146E+03  0.7818609E-02  0.1013749E+00
       -1   -1    0    0    0  501  0.00000000000E+00  0.00000000000E+00  0.22222262264E+03  0.22222262270E+03  0.50400001928E-02 0. -1.
        1   -1    0    0  501    0  0.00000000000E+00  0.00000000000E+00 -0.28137837829E+03  0.28137837833E+03  0.50400001928E-02 0.  1.
    10030    2    1    2    0    0  0.00000000000E+00  0.00000000000E+00 -0.59155755648E+02  0.50360100103E+03  0.50011455169E+03 0.  0.
        1    1    3    3  502    0 -0.24408586258E+03 -0.38325748380E+02  0.91855458637E+01  0.24724713463E+03  0.50400001928E-02 0. -1.
       -1    1    3    3    0  502  0.24408586258E+03  0.38325748380E+02 -0.68341301512E+02  0.25635386640E+03  0.50400001928E-02 0.  1.
</event>
<event>
 5   0  0.8012875E-03  0.4996466E+03  0.7818609E-02  0.1013871E+00
       -4   -1    0    0    0  501  0.00000000000E+00  0.00000000000E+00  0.99611406568E+02  0.99619502199E+02  0.12699999809E+01 0.  1.
        4   -1    0    0  501    0  0.00000000000E+00  0.00000000000E+00 -0.62651733105E+03  0.62651861824E+03  0.12699999809E+01 0. -1.
    10030    2    1    2    0    0  0.00000000000E+00  0.00000000000E+00 -0.52690592448E+03  0.72613812044E+03  0.49964659181E+03 0.  0.
        4    1    3    3  502    0 -0.85354582989E+02  0.17437012430E+02 -0.60372655557E+03  0.60998100056E+03  0.12699999809E+01 0. -1.
       -4    1    3    3    0  502  0.85354582989E+02 -0.17437012430E+02  0.76820631088E+02  0.11615711989E+03  0.12699999809E+01 0.  1.
</event>
<event>
 5   0  0.1855407E-02  0.4986018E+03  0.7818609E-02  0.1014145E+00
       -2   -1    0    0    0  501  0.00000000000E+00  0.00000000000E+00  0.20830670456E+03  0.20830670458E+03  0.25500000920E-02 0. -1.
        2   -1    0    0  501    0  0.00000000000E+00  0.00000000000E+00 -0.29836265729E+03  0.29836265730E+03  0.25500000920E-02 0.  1.
    10030    2    1    2    0    0  0.00000000000E+00  0.00000000000E+00 -0.90055952729E+02  0.50666936188E+03  0.49860181272E+03 0.  0.
        1    1    3    3  502    0  0.15279748915E+03  0.11863551079E+03 -0.20482854650E+03  0.28173780470E+03  0.50400001928E-02 0.  1.
       -1    1    3    3    0  502 -0.15279748915E+03 -0.11863551079E+03  0.11477259377E+03  0.22493155718E+03  0.50400001928E-02 0. -1.
</event>
<event>
 5   0  0.8012875E-03  0.4996042E+03  0.7818609E-02  0.1013882E+00
       -3   -1    0    0    0  501  0.00000000000E+00  0.00000000000E+00  0.60995938580E+03  0.60995939416E+03  0.10100000352E+00 0.  1.
        3   -1    0    0  501    0  0.00000000000E+00  0.00000000000E+00 -0.10230366214E+03  0.10230371200E+03  0.10100000352E+00 0. -1.
    10030    2    1    2    0    0  0.00000000000E+00  0.00000000000E+00  0.50765572365E+03  0.71226310616E+03  0.49960424202E+03 0.  0.
        2    1    3    3  502    0 -0.13948979462E+03 -0.54258741644E+02  0.53895767014E+03  0.55935389876E+03  0.25500000920E-02 0.  1.
       -2    1    3    3    0  502  0.13948979462E+03  0.54258741644E+02 -0.31301946483E+02  0.15290920740E+03  0.25500000920E-02 0. -1.
</event>
<event>
 5   0  0.1180937E-02  0.5003862E+03  0.7818609E-02  0.1013678E+00
        1   -1    0    0  501    0  0.00000000000E+00  0.00000000000E+00  0.12797435739E+04  0.12797435739E+04  0.50400001928E-02 0. -1.
       -1   -1    0    0    0  501  0.00000000000E+00  0.00000000000E+00 -0.48913380541E+02  0.48913380800E+02  0.50400001928E-02 0.  1.
    10030    2    1    2    0    0  0.00000000000E+00  0.00000000000E+00  0.12308301933E+04  0.13286569547E+04  0.50038618927E+03 0.  0.
        1    1    3    3  502    0 -0.18949151691E+03 -0.10402663518E+03  0.94989402759E+03  0.97418029106E+03  0.50400001928E-02 0. -1.
       -1    1    3    3    0  502  0.18949151691E+03  0.10402663518E+03  0.28093616576E+03  0.35447666364E+03  0.50400001928E-02 0.  1.
</event>
<event>
 5   0  0.1982847E-02  0.5015736E+03  0.7818609E-02  0.1013369E+00
       -2   -1    0    0    0  501  0.00000000000E+00  0.00000000000E+00  0.80298112299E+02  0.80298112339E+02  0.25500000920E-02 0.  1.
        2   -1    0    0  501    0  0.00000000000E+00  0.00000000000E+00 -0.78325665217E+03  0.78325665218E+03  0.25500000920E-02 0. -1.
    10030    2    1    2    0    0  0.00000000000E+00  0.00000000000E+00 -0.70295853987E+03  0.86355476451E+03  0.50157364617E+03 0.  0.
        2    1    3    3  502    0  0.94902950271E+02  0.11479983520E+02 -0.75065793111E+03  0.75672035095E+03  0.25500000920E-02 0. -1.
       -2    1    3    3    0  502 -0.94902950271E+02 -0.11479983520E+02  0.47699391236E+02  0.10683441357E+03  0.25500000920E-02 0.  1.
</event>
<event>
 5   0  0.1227864E-02  0.4966282E+03  0.7818609E-02  0.1014663E+00
        1   -1    0    0  501    0  0.00000000000E+00  0.00000000000E+00  0.56227456609E+03  0.56227456611E+03  0.50400001928E-02 0. -1.
       -1   -1    0    0    0  501  0.00000000000E+00  0.00000000000E+00 -0.10966153624E+03  0.10966153635E+03  0.50400001928E-02 0.  1.
    10030    2    1    2    0    0  0.00000000000E+00  0.00000000000E+00  0.45261302985E+03  0.67193610246E+03  0.49662820198E+03 0.  0.
        5    1    3    3  502    0 -0.90527639831E+02  0.22143208622E+03  0.31615993683E+03  0.39649289784E+03  0.46999998093E+01 0. -1.
       -5    1    3    3    0  502  0.90527639831E+02 -0.22143208622E+03  0.13645309302E+03  0.27544320462E+03  0.46999998093E+01 0.  1.
</event>
<event>
 5   0  0.1209831E-02  0.4997125E+03  0.7818609E-02  0.1013854E+00
        1   -1    0    0  501    0  0.00000000000E+00  0.00000000000E+00  0.80451478351E+03  0.80451478353E+03  0.50400001928E-02 0. -1.
       -1   -1    0    0    0  501  0.00000000000E+00  0.00000000000E+00 -0.77597259427E+02  0.77597259591E+02  0.50400001928E-02 0.  1.
    10030    2    1    2    0    0  0.00000000000E+00  0.00000000000E+00  0.72691752408E+03  0.88211204312E+03  0.49971248713E+03 0.  0.
        4    1    3    3  502    0 -0.30845225700E+02  0.23105890228E+02 -0.72313035004E+02  0.81951803172E+02  0.12699999809E+01 0.  1.
       -4    1    3    3    0  502  0.30845225700E+02 -0.23105890228E+02  0.79923055909E+03  0.80016023995E+03  0.12699999809E+01 0. -1.
</event>
<event>
 5   0  0.1180937E-02  0.5006841E+03  0.7818609E-02  0.1013601E+00
        1   -1    0    0  501    0  0.00000000000E+00  0.00000000000E+00  0.40961728631E+03  0.40961728634E+03  0.50400001928E-02 0.  1.
       -1   -1    0    0    0  501  0.00000000000E+00  0.00000000000E+00 -0.15299924322E+03  0.15299924330E+03  0.50400001928E-02 0. -1.
    10030    2    1    2    0    0  0.00000000000E+00  0.00000000000E+00  0.25661804309E+03  0.56261652964E+03  0.50068407143E+03 0.  0.
        1    1    3    3  502    0  0.23160169630E+03  0.33865665443E+02  0.28528224926E+02  0.23579671047E+03  0.50400001928E-02 0. -1.
       -1    1    3    3    0  502 -0.23160169630E+03 -0.33865665443E+02  0.22808981816E+03  0.32681981917E+03  0.50400001928E-02 0.  1.
</event>
<event>
 5   0  0.1227864E-02  0.5005651E+03  0.7818609E-02  0.1013632E+00
       -1   -1    0    0    0  501  0.00000000000E+00  0.00000000000E+00  0.37775111778E+03  0.37775111781E+03  0.50400001928E-02 0.  1.
        1   -1    0    0  501    0  0.00000000000E+00  0.00000000000E+00 -0.16582706585E+03  0.16582706592E+03  0.50400001928E-02 0. -1.
    10030    2    1    2    0    0  0.00000000000E+00  0.00000000000E+00  0.21192405193E+03  0.54357818373E+03  0.50056511869E+03 0.  0.
        5    1    3    3  502    0 -0.14073293309E+03  0.14270911057E+03 -0.56737614795E+02  0.20835761476E+03  0.46999998093E+01 0. -1.
       -5    1    3    3    0  502  0.14073293309E+03 -0.14270911057E+03  0.26866166673E+03  0.33522056898E+03  0.46999998093E+01 0.  1.
</event>
<event>
 5   0  0.1923706E-02  0.5003587E+03  0.7818609E-02  0.1013685E+00
       -2   -1    0    0    0  501  0.00000000000E+00  0.00000000000E+00  0.17230341439E+03  0.17230341441E+03  0.25500000920E-02 0.  1.
        2   -1    0    0  501    0  0.00000000000E+00  0.00000000000E+00 -0.36325292103E+03  0.36325292104E+03  0.25500000920E-02 0. -1.
    10030    2    1    2    0    0  0.00000000000E+00  0.00000000000E+00 -0.19094950665E+03  0.53555633545E+03  0.50035874566E+03 0.  0.
        3    1    3    3  502    0  0.13754102772E+02 -0.49799073986E+02 -0.35748102636E+03  0.36119498546E+03  0.10100000352E+00 0. -1.
       -3    1    3    3    0  502 -0.13754102772E+02  0.49799073986E+02  0.16653151971E+03  0.17436134999E+03  0.10100000352E+00 0.  1.
</event>
<event>
 5   0  0.1941387E-02  0.5000774E+03  0.7818609E-02  0.1013759E+00
       -2   -1    0    0    0  501  0.00000000000E+00  0.00000000000E+00  0.91697547471E+02  0.91697547506E+02  0.25500000920E-02 0. -1.
        2   -1    0    0  501    0  0.00000000000E+00  0.00000000000E+00 -0.68179971762E+03  0.68179971763E+03  0.25500000920E-02 0.  1.
    10030    2    1    2    0    0  0.00000000000E+00  0.00000000000E+00 -0.59010217015E+03  0.77349726513E+03  0.50007744195E+03 0.  0.
        4    1    3    3  502    0 -0.28768569772E+02  0.21311818562E+03 -0.49235032108E+03  0.53726850197E+03  0.12699999809E+01 0.  1.
       -4    1    3    3    0  502  0.28768569772E+02 -0.21311818562E+03 -0.97751849074E+02  0.23622876316E+03  0.12699999809E+01 0. -1.
</event>
<event>
 5   0  0.1209831E-02  0.4997095E+03  0.7818609E-02  0.1013855E+00
       -1   -1    0    0    0  501  0.00000000000E+00  0.00000000000E+00  0.29256077876E+03  0.29256077881E+03  0.50400001928E-02 0.  1.
        1   -1    0    0  501    0  0.00000000000E+00  0.00000000000E+00 -0.21338269377E+03  0.21338269383E+03  0.50400001928E-02 0. -1.
    10030    2    1    2    0    0  0.00000000000E+00  0.00000000000E+00  0.79178084999E+02  0.50594347263E+03  0.49970954399E+03 0.  0.
        4    1    3    3  502    0  0.23269446711E+03 -0.72800063854E+02 -0.15674199588E+02  0.24432326487E+03  0.12699999809E+01 0. -1.
       -4    1    3    3    0  502 -0.23269446711E+03  0.72800063854E+02  0.94852284587E+02  0.26162020777E+03  0.12699999809E+01 0.  1.
</event>
<event>
 5   0  0.1225989E-02  0.5001939E+03  0.7818609E-02  0.1013728E+00
        1   -1    0    0  501    0  0.00000000000E+00  0.00000000000E+00  0.20296786065E+03  0.20296786071E+03  0.50400001928E-02 0. -1.
       -1   -1    0    0    0  501  0.00000000000E+00  0.00000000000E+00 -0.30816935125E+03  0.30816935129E+03  0.50400001928E-02 0.  1.
    10030    2    1    2    0    0  0.00000000000E+00  0.00000000000E+00 -0.10520149060E+03  0.51113721200E+03  0.50019385828E+03 0.  0.
        3    1    3    3  502    0 -0.21721302889E+03 -0.10683115421E+03  0.11656370797E+02  0.24234330321E+03  0.10100000352E+00 0. -1.
       -3    1    3    3    0  502  0.21721302889E+03  0.10683115421E+03 -0.11685786140E+03  0.26879390879E+03  0.10100000352E+00 0.  1.
</event>
<event>
 5   0  0.1923706E-02  0.4991080E+03  0.7818609E-02  0.1014012E+00
       -2   -1    0    0    0  501  0.00000000000E+00  0.00000000000E+00  0.24372583008E+03  0.24372583009E+03  0.25500000920E-02 0. -1.
        2   -1    0    0  501    0  0.00000000000E+00  0.00000000000E+00 -0.25552152458E+03  0.25552152459E+03  0.25500000920E-02 0.  1.
    10030    2    1    2    0    0  0.00000000000E+00  0.00000000000E+00 -0.11795694503E+02  0.49924735468E+03  0.49910798706E+03 0.  0.
        3    1    3    3  502    0  0.21833766249E+03 -0.59460692557E+02 -0.11114260916E+03  0.25211029054E+03  0.10100000352E+00 0.  1.
       -3    1    3    3    0  502 -0.21833766249E+03  0.59460692557E+02  0.99346914655E+02  0.24713706415E+03  0.10100000352E+00 0. -1.
</event>
<event>
 5   0  0.1217270E-02  0.4991029E+03  0.7818609E-02  0.1014013E+00
        1   -1    0    0  501    0  0.00000000000E+00  0.00000000000E+00  0.67838250150E+03  0.67838250152E+03  0.50400001928E-02 0. -1.
       -1   -1    0    0    0  501  0.00000000000E+00  0.00000000000E+00 -0.91800619378E+02  0.91800619517E+02  0.50400001928E-02 0.  1.
    10030    2    1    2    0    0  0.00000000000E+00  0.00000000000E+00  0.58658188212E+03  0.77018312103E+03  0.49910293076E+03 0.  0.
        2    1    3    3  502    0  0.44002739157E+02 -0.29313836714E+02 -0.83058076596E+02  0.98459058347E+02  0.25500000920E-02 0.  1.
       -2    1    3    3    0  502 -0.44002739157E+02  0.29313836714E+02  0.66963995872E+03  0.67172406269E+03  0.25500000920E-02 0. -1.
</event>
<event>
 5   0  0.1923706E-02  0.4999675E+03  0.7818609E-02  0.1013787E+00
       -2   -1    0    0    0  501  0.00000000000E+00  0.00000000000E+00  0.72601022726E+03  0.72601022726E+03  0.25500000920E-02 0.  1.
        2   -1    0    0  501    0  0.00000000000E+00  0.00000000000E+00 -0.86075757082E+02  0.86075757120E+02  0.25500000920E-02 0. -1.
    10030    2    1    2    0    0  0.00000000000E+00  0.00000000000E+00  0.63993447018E+03  0.81208598438E+03  0.49996751886E+03 0.  0.
        3    1    3    3  502    0 -0.14819331691E+01  0.19219498763E+03  0.57960157872E+03  0.61063828053E+03  0.10100000352E+00 0.  1.
       -3    1    3    3    0  502  0.14819331691E+01 -0.19219498763E+03  0.60332891462E+02  0.20144770386E+03  0.10100000352E+00 0. -1.
</event>
<event>
 5   0  0.1227864E-02  0.5001960E+03  0.7818609E-02  0.1013728E+00
        1   -1    0    0  501    0  0.00000000000E+00  0.00000000000E+00  0.83975466196E+02  0.83975466347E+02  0.50400001928E-02 0. -1.
       -1   -1    0    0    0  501  0.00000000000E+00  0.00000000000E+00 -0.74484857097E+03  0.74484857098E+03  0.50400001928E-02 0.  1.
    10030    2    1    2    0    0  0.00000000000E+00  0.00000000000E+00 -0.66087310477E+03  0.82882403733E+03  0.50019598584E+03 0.  0.
        5    1    3    3  502    0  0.16339470305E+03 -0.70961640419E+02 -0.62120808999E+03  0.64626230314E+03  0.46999998093E+01 0.  1.
       -5    1    3    3    0  502 -0.16339470305E+03  0.70961640419E+02 -0.39665014779E+02  0.18256173419E+03  0.46999998093E+01 0. -1.
</event>
<event>
 5   0  0.1217270E-02  0.5021304E+03  0.7818609E-02  0.1013224E+00
        1   -1    0    0  501    0  0.00000000000E+00  0.00000000000E+00  0.91457902025E+03  0.91457902027E+03  0.50400001928E-02 0.  1.
       -1   -1    0    0    0  501  0.00000000000E+00  0.00000000000E+00 -0.68921028312E+02  0.68921028496E+02  0.50400001928E-02 0. -1.
    10030    2    1    2    0    0  0.00000000000E+00  0.00000000000E+00  0.84565799194E+03  0.98350004876E+03  0.50213036811E+03 0.  0.
        2    1    3    3  502    0 -0.78675954536E+02 -0.81337151432E+02  0.86179534027E+03  0.86919321588E+03  0.25500000920E-02 0.  1.
       -2    1    3    3    0  502  0.78675954536E+02  0.81337151432E+02 -0.16137348327E+02  0.11430683288E+03  0.25500000920E-02 0. -1.
</event>
<event>
 5   0  0.1967813E-02  0.4970447E+03  0.7818609E-02  0.1014553E+00
        2   -1    0    0  501    0  0.00000000000E+00  0.00000000000E+00  0.42341433580E+03  0.42341433581E+03  0.25500000920E-02 0. -1.
       -2   -1    0    0    0  501  0.00000000000E+00  0.00000000000E+00 -0.14586976633E+03  0.14586976635E+03  0.25500000920E-02 0.  1.
    10030    2    1    2    0    0  0.00000000000E+00  0.00000000000E+00  0.27754456948E+03  0.56928410216E+03  0.49704466693E+03 0.  0.
        5    1    3    3  502    0  0.22989110777E+03 -0.88533794299E+02  0.17594032773E+03  0.30276268444E+03  0.46999998093E+01 0. -1.
       -5    1    3    3    0  502 -0.22989110777E+03  0.88533794299E+02  0.10160424174E+03  0.26652141772E+03  0.46999998093E+01 0.  1.
</event>
<event>
 5   0  0.1180937E-02  0.5006659E+03  0.7818609E-02  0.1013605E+00
        1   -1    0    0  501    0  0.00000000000E+00  0.00000000000E+00  0.11523144114E+03  0.11523144125E+03  0.50400001928E-02 0.  1.
       -1   -1    0    0    0  501  0.00000000000E+00  0.00000000000E+00 -0.54383226556E+03  0.54383226558E+03  0.50400001928E-02 0. -1.
    10030    2    1    2    0    0  0.00000000000E+00  0.00000000000E+00 -0.42860082442E+03  0.65906370684E+03  0.50066585961E+03 0.  0.
        1    1    3    3  502    0 -0.32375789458E+02  0.42029138174E+02 -0.53634686392E+03  0.53896437606E+03  0.50400001928E-02 0. -1.
       -1    1    3    3    0  502  0.32375789458E+02 -0.42029138174E+02  0.10774603951E+03  0.12009933078E+03  0.50400001928E-02 0.  1.
</event>
<event>
 5   0  0.1180937E-02  0.4997639E+03  0.7818609E-02  0.1013841E+00
       -1   -1    0    0    0  501  0.00000000000E+00  0.00000000000E+00  0.68930764859E+02  0.68930765043E+02  0.50400001928E-02 0. -1.
        1   -1    0    0  501    0  0.00000000000E+00  0.00000000000E+00 -0.90585069615E+03  0.90585069617E+03  0.50400001928E-02 0.  1.
    10030    2    1    2    0    0  0.00000000000E+00  0.00000000000E+00 -0.83691993129E+03  0.97478146121E+03  0.49976386996E+03 0.  0.
        1    1    3    3  502    0 -0.18546150407E+03 -0.15851658603E+03 -0.52381326120E+03  0.57784410542E+03  0.50400001928E-02 0. -1.
       -1    1    3    3    0  502  0.18546150407E+03  0.15851658603E+03 -0.31310667010E+03  0.39693735579E+03  0.50400001928E-02 0.  1.
</event>
<event>
 5   0  0.1923706E-02  0.5000136E+03  0.7818609E-02  0.1013775E+00
        2   -1    0    0  501    0  0.00000000000E+00  0.00000000000E+00  0.69487995475E+03  0.69487995475E+03  0.25500000920E-02 0.  1.
       -2   -1    0    0    0  501  0.00000000000E+00  0.00000000000E+00 -0.89948491075E+02  0.89948491111E+02  0.25500000920E-02 0. -1.
    10030    2    1    2    0    0  0.00000000000E+00  0.00000000000E+00  0.60493146367E+03  0.78482844587E+03  0.50001361351E+03 0.  0.
        3    1    3    3  502    0  0.16169667907E+01 -0.52372691952E+02  0.68616458128E+03  0.68816230371E+03  0.10100000352E+00 0.  1.
       -3    1    3    3    0  502 -0.16169667907E+01  0.52372691952E+02 -0.81233117601E+02  0.96666142160E+02  0.10100000352E+00 0. -1.
</event>
<event>
 5   0  0.1217270E-02  0.5002048E+03  0.7818609E-02  0.1013725E+00
        1   -1    0    0  501    0  0.00000000000E+00  0.00000000000E+00  0.10736936180E+04  0.10736936180E+04  0.50400001928E-02 0. -1.
       -1   -1    0    0    0  501  0.00000000000E+00  0.00000000000E+00 -0.58257977400E+02  0.58257977618E+02  0.50400001928E-02 0.  1.
    10030    2    1    2    0    0  0.00000000000E+00  0.00000000000E+00  0.10154356406E+04  0.11319515956E+04  0.50020483269E+03 0.  0.
        2    1    3    3  502    0  0.21021716564E+03 -0.20546148581E+01  0.81431342680E+03  0.84101238709E+03  0.25500000920E-02 0. -1.
       -2    1    3    3    0  502 -0.21021716564E+03  0.20546148581E+01  0.20112221380E+03  0.29093920854E+03  0.25500000920E-02 0.  1.
</event>
<event>
 5   0  0.1209831E-02  0.5047443E+03  0.7818609E-02  0.1012548E+00
        1   -1    0    0  501    0  0.00000000000E+00  0.00000000000E+00  0.42888508121E+03  0.42888508124E+03  0.50400001928E-02 0.  1.
       -1   -1    0    0    0  501  0.00000000000E+00  0.00000000000E+00 -0.14850529714E+03  0.14850529722E+03  0.50400001928E-02 0. -1.
    10030    2    1    2    0    0  0.00000000000E+00  0.00000000000E+00  0.28037978408E+03  0.57739037846E+03  0.50474431728E+03 0.  0.
        4    1    3    3  502    0 -0.20669592806E+03  0.64341835424E+02 -0.81990869537E+01  0.21663775384E+03  0.12699999809E+01 0. -1.
       -4    1    3    3    0  502  0.20669592806E+03 -0.64341835424E+02  0.28857887103E+03  0.36075262462E+03  0.12699999809E+01 0.  1.
</event>
<event>
 5   0  0.1967813E-02  0.5017705E+03  0.7818609E-02  0.1013318E+00
        2   -1    0    0  501    0  0.00000000000E+00  0.00000000000E+00  0.14166484912E+04  0.14166484912E+04  0.25500000920E-02 0.  1.
       -2   -1    0    0    0  501  0.00000000000E+00  0.00000000000E+00 -0.44431211327E+02  0.44431211400E+02  0.25500000920E-02 0. -1.
    10030    2    1    2    0    0  0.00000000000E+00  0.00000000000E+00  0.13722172798E+04  0.14610797026E+04  0.50177049950E+03 0.  0.
        5    1    3    3  502    0 -0.46191484621E+02  0.23519005885E+03  0.90153233443E+03  0.93286154227E+03  0.46999998093E+01 0.  1.
       -5    1    3    3    0  502  0.46191484621E+02 -0.23519005885E+03  0.47068494542E+03  0.52821816031E+03  0.46999998093E+01 0. -1.
</event>
<event>
 5   0  0.1227864E-02  0.5007532E+03  0.7818609E-02  0.1013582E+00
        1   -1    0    0  501    0  0.00000000000E+00  0.00000000000E+00  0.48602050290E+03  0.48602050293E+03  0.50400001928E-02 0. -1.
       -1   -1    0    0    0  501  0.00000000000E+00  0.00000000000E+00 -0.12898313752E+03  0.12898313762E+03  0.50400001928E-02 0.  1.
    10030    2    1    2    0    0  0.00000000000E+00  0.00000000000E+00  0.35703736539E+03  0.61500364055E+03  0.50075323025E+03 0.  0.
        5    1    3    3  502    0  0.10465126511E+03 -0.78248879558E+01  0.45764624633E+03  0.46954796660E+03  0.46999998093E+01 0. -1.
       -5    1    3    3    0  502 -0.10465126511E+03  0.78248879558E+01 -0.10060888094E+03  0.14545567395E+03  0.46999998093E+01 0.  1.
</event>
<event>
 5   0  0.1923706E-02  0.5021282E+03  0.7818609E-02  0.1013225E+00
       -2   -1    0    0    0  501  0.00000000000E+00  0.00000000000E+00  0.73229717248E+02  0.73229717292E+02  0.25500000920E-02 0. -1.
        2   -1    0    0  501    0  0.00000000000E+00  0.00000000000E+00 -0.86075961628E+03  0.86075961628E+03  0.25500000920E-02 0.  1.
    10030    2    1    2    0    0  0.00000000000E+00  0.00000000000E+00 -0.78752989903E+03  0.93398933358E+03  0.50212820411E+03 0.  0.
        3    1    3    3  502    0 -0.21342212807E+03 -0.87465173630E+02 -0.20930900205E+03  0.31146336845E+03  0.10100000352E+00 0. -1.
       -3    1    3    3    0  502  0.21342212807E+03  0.87465173630E+02 -0.57822089698E+03  0.62252596512E+03  0.10100000352E+00 0.  1.
</event>
<event>
 5   0  0.1217270E-02  0.5006725E+03  0.7818609E-02  0.1013604E+00
       -1   -1    0    0    0  501  0.00000000000E+00  0.00000000000E+00  0.47184523369E+03  0.47184523372E+03  0.50400001928E-02 0.  1.
        1   -1    0    0  501    0  0.00000000000E+00  0.00000000000E+00 -0.13281526230E+03  0.13281526239E+03  0.50400001928E-02 0. -1.
    10030    2    1    2    0    0  0.00000000000E+00  0.00000000000E+00  0.33902997139E+03  0.60466049611E+03  0.50067254174E+03 0.  0.
        2    1    3    3  502    0  0.11150772269E+03 -0.19879785729E+03  0.29451996827E+03  0.37241988668E+03  0.25500000920E-02 0.  1.
       -2    1    3    3    0  502 -0.11150772269E+03  0.19879785729E+03  0.44510003126E+02  0.23224060943E+03  0.25500000920E-02 0. -1.
</event>
<event>
 5   0  0.1217270E-02  0.5003836E+03  0.7818609E-02  0.1013679E+00
       -1   -1    0    0    0  501  0.00000000000E+00  0.00000000000E+00  0.40647661093E+03  0.40647661096E+03  0.50400001928E-02 0. -1.
        1   -1    0    0  501    0  0.00000000000E+00  0.00000000000E+00 -0.15399640456E+03  0.15399640464E+03  0.50400001928E-02 0.  1.
    10030    2    1    2    0    0  0.00000000000E+00  0.00000000000E+00  0.25248020638E+03  0.56047301560E+03  0.50038359946E+03 0.  0.
        2    1    3    3  502    0  0.76566511859E+00  0.23608208449E+03  0.33464735569E+02  0.23844333791E+03  0.25500000920E-02 0.  1.
       -2    1    3    3    0  502 -0.76566511859E+00 -0.23608208449E+03  0.21901547081E+03  0.32202967770E+03  0.25500000920E-02 0. -1.
</event>
<event>
 5   0  0.1209831E-02  0.4995520E+03  0.7818609E-02  0.1013896E+00
        1   -1    0    0  501    0  0.00000000000E+00  0.00000000000E+00  0.29720463368E+03  0.29720463373E+03  0.50400001928E-02 0.  1.
       -1   -1    0    0    0  501  0.00000000000E+00  0.00000000000E+00 -0.20991615079E+03  0.20991615085E+03  0.50400001928E-02 0. -1.
    10030    2    1    2    0    0  0.00000000000E+00  0.00000000000E+00  0.87288482893E+02  0.50712078458E+03  0.49955201021E+03 0.  0.
        4    1    3    3  502    0  0.58695175263E+02  0.22839673686E+03 -0.39920929898E+02  0.23917668479E+03  0.12699999809E+01 0. -1.
       -4    1    3    3    0  502 -0.58695175263E+02 -0.22839673686E+03  0.12720941279E+03  0.26794409978E+03  0.12699999809E+01 0.  1.
</event>
<event>
 5   0  0.1217270E-02  0.4999126E+03  0.7818609E-02  0.1013802E+00
       -1   -1    0    0    0  501  0.00000000000E+00  0.00000000000E+00  0.81578447871E+02  0.81578448026E+02  0.50400001928E-02 0. -1.
        1   -1    0    0  501    0  0.00000000000E+00  0.00000000000E+00 -0.76586595441E+03  0.76586595443E+03  0.50400001928E-02 0.  1.
    10030    2    1    2    0    0  0.00000000000E+00  0.00000000000E+00 -0.68428750654E+03  0.84744440246E+03  0.49991261601E+03 0.  0.
        2    1    3    3  502    0  0.16174631223E+03 -0.33107973864E+02 -0.24007831431E+02  0.16683639720E+03  0.25500000920E-02 0. -1.
       -2    1    3    3    0  502 -0.16174631223E+03  0.33107973864E+02 -0.66027967511E+03  0.68060800526E+03  0.25500000920E-02 0.  1.
</event>
<event>
 5   0  0.1982847E-02  0.5006421E+03  0.7818609E-02  0.1013611E+00
       -2   -1    0    0    0  501  0.00000000000E+00  0.00000000000E+00  0.12835236451E+03  0.12835236454E+03  0.25500000920E-02 0.  1.
        2   -1    0    0  501    0  0.00000000000E+00  0.00000000000E+00 -0.48819217183E+03  0.48819217183E+03  0.25500000920E-02 0. -1.
    10030    2    1    2    0    0  0.00000000000E+00  0.00000000000E+00 -0.35983980731E+03  0.61654453637E+03  0.50064206615E+03 0.  0.
        2    1    3    3  502    0  0.18589066384E+03 -0.30837658703E+02 -0.38285472672E+03  0.42671306739E+03  0.25500000920E-02 0.  1.
       -2    1    3    3    0  502 -0.18589066384E+03  0.30837658703E+02  0.23014919412E+02  0.18983146899E+03  0.25500000920E-02 0. -1.
</event>
<event>
 5   0  0.1855407E-02  0.4955626E+03  0.7818609E-02  0.1014944E+00
        2   -1    0    0  501    0  0.00000000000E+00  0.00000000000E+00  0.50721657018E+03  0.50721657019E+03  0.25500000920E-02 0.  1.
       -2   -1    0    0    0  501  0.00000000000E+00  0.00000000000E+00 -0.12104411639E+03  0.12104411641E+03  0.25500000920E-02 0. -1.
    10030    2    1    2    0    0  0.00000000000E+00  0.00000000000E+00  0.38617245380E+03  0.62826068660E+03  0.49556263606E+03 0.  0.
        1    1    3    3  502    0 -0.19071626097E+03 -0.28731535905E+02 -0.41222486846E+01  0.19291237988E+03  0.50400001928E-02 0. -1.
       -1    1    3    3    0  502  0.19071626097E+03  0.28731535905E+02  0.39029470248E+03  0.43534830672E+03  0.50400001928E-02 0.  1.
</event>
<event>
 5   0  0.1923706E-02  0.5006098E+03  0.7818609E-02  0.1013620E+00
        2   -1    0    0  501    0  0.00000000000E+00  0.00000000000E+00  0.13712911022E+04  0.13712911022E+04  0.25500000920E-02 0.  1.
       -2   -1    0    0    0  501  0.00000000000E+00  0.00000000000E+00 -0.45688722809E+02  0.45688722880E+02  0.25500000920E-02 0. -1.
    10030    2    1    2    0    0  0.00000000000E+00  0.00000000000E+00  0.13256023794E+04  0.14169798251E+04  0.50060978461E+03 0.  0.
        3    1    3    3  502    0 -0.43982666022E+02  0.31408272496E+02 -0.28976121645E+02  0.61323570658E+02  0.10100000352E+00 0. -1.
       -3    1    3    3    0  502  0.43982666022E+02 -0.31408272496E+02  0.13545785011E+04  0.13556562545E+04  0.10100000352E+00 0.  1.
</event>
<event>
 5   0  0.1855407E-02  0.4995879E+03  0.7818609E-02  0.1013887E+00
       -2   -1    0    0    0  501  0.00000000000E+00  0.00000000000E+00  0.94973322107E+02  0.94973322141E+02  0.25500000920E-02 0.  1.
        2   -1    0    0  501    0  0.00000000000E+00  0.00000000000E+00 -0.65699523067E+03  0.65699523068E+03  0.25500000920E-02 0. -1.
    10030    2    1    2    0    0  0.00000000000E+00  0.00000000000E+00 -0.56202190856E+03  0.75196855282E+03  0.49958790890E+03 0.  0.
        1    1    3    3  502    0  0.10173929184E+03 -0.95766879949E+02  0.30654753793E+02  0.14304507246E+03  0.50400001928E-02 0.  1.
       -1    1    3    3    0  502 -0.10173929184E+03  0.95766879949E+02 -0.59267666236E+03  0.60892348036E+03  0.50400001928E-02 0. -1.
</event>
<event>
 5   0  0.1941387E-02  0.4996143E+03  0.7818609E-02  0.1013880E+00
        2   -1    0    0  501    0  0.00000000000E+00  0.00000000000E+00  0.45763772134E+03  0.45763772135E+03  0.25500000920E-02 0.  1.
       -2   -1    0    0    0  501  0.00000000000E+00  0.00000000000E+00 -0.13636026560E+03  0.13636026562E+03  0.25500000920E-02 0. -1.
    10030    2    1    2    0    0  0.00000000000E+00  0.00000000000E+00  0.32127745574E+03  0.59399798697E+03  0.49961425616E+03 0.  0.
        4    1    3    3  502    0  0.18343516550E+03 -0.12676491433E+03  0.26738463968E+02  0.22457595998E+03  0.12699999809E+01 0. -1.
       -4    1    3    3    0  502 -0.18343516550E+03  0.12676491433E+03  0.29453899177E+03  0.36942202698E+03  0.12699999809E+01 0.  1.
</event>
<event>
 5   0  0.1180937E-02  0.4999177E+03  0.7818609E-02  0.1013800E+00
       -1   -1    0    0    0  501  0.00000000000E+00  0.00000000000E+00  0.60319527081E+02  0.60319527292E+02  0.50400001928E-02 0. -1.
        1   -1    0    0  501    0  0.00000000000E+00  0.00000000000E+00 -0.10358078251E+04  0.10358078251E+04  0.50400001928E-02 0.  1.
    10030    2    1    2    0    0  0.00000000000E+00  0.00000000000E+00 -0.97548829797E+03  0.10961273524E+04  0.49991774634E+03 0.  0.
        1    1    3    3  502    0 -0.18505688438E+03  0.21600412870E+02 -0.12238039975E+03  0.22291162052E+03  0.50400001928E-02 0. -1.
       -1    1    3    3    0  502  0.18505688438E+03 -0.21600412870E+02 -0.85310789823E+03  0.87321573184E+03  0.50400001928E-02 0.  1.
</event>
<event>
 5   0  0.1180937E-02  0.4989908E+03  0.7818609E-02  0.1014043E+00
        1   -1    0    0  501    0  0.00000000000E+00  0.00000000000E+00  0.40152389072E+03  0.40152389075E+03  0.50400001928E-02 0.  1.
       -1   -1    0    0    0  501  0.00000000000E+00  0.00000000000E+00 -0.15502927652E+03  0.15502927660E+03  0.50400001928E-02 0. -1.
    10030    2    1    2    0    0  0.00000000000E+00  0.00000000000E+00  0.24649461420E+03  0.55655316735E+03  0.49899081480E+03 0.  0.
        1    1    3    3  502    0  0.22118943416E+03 -0.91226866320E+02  0.44372904913E+02  0.24334350544E+03  0.50400001928E-02 0. -1.
       -1    1    3    3    0  502 -0.22118943416E+03  0.91226866320E+02  0.20212170929E+03  0.31320966191E+03  0.50400001928E-02 0.  1.
</event>
<event>
 5   0  0.1227864E-02  0.5004518E+03  0.7818609E-02  0.1013661E+00
        1   -1    0    0  501    0  0.00000000000E+00  0.00000000000E+00  0.10094520099E+03  0.10094520111E+03  0.50400001928E-02 0. -1.
       -1   -1    0    0    0  501  0.00000000000E+00  0.00000000000E+00 -0.62026717628E+03  0.62026717630E+03  0.50400001928E-02 0.  1.
    10030    2    1    2    0    0  0.00000000000E+00  0.00000000000E+00 -0.51932197530E+03  0.72121237742E+03  0.50045177521E+03 0.  0.
        5    1    3    3  502    0  0.22276515294E+03  0.57810496519E+02 -0.11828004200E+03  0.25880228979E+03  0.46999998093E+01 0.  1.
       -5    1    3    3    0  502 -0.22276515294E+03 -0.57810496519E+02 -0.40104193330E+03  0.46241008762E+03  0.46999998093E+01 0. -1.
</event>
<event>
 5   0  0.1209831E-02  0.4988035E+03  0.7818609E-02  0.1014092E+00
        1   -1    0    0  501    0  0.00000000000E+00  0.00000000000E+00  0.10446708365E+04  0.10446708365E+04  0.50400001928E-02 0.  1.
       -1   -1    0    0    0  501  0.00000000000E+00  0.00000000000E+00 -0.59541457731E+02  0.59541457945E+02  0.50400001928E-02 0. -1.
    10030    2    1    2    0    0  0.00000000000E+00  0.00000000000E+00  0.98512937879E+03  0.11042122945E+04  0.49880346663E+03 0.  0.
        4    1    3    3  502    0  0.58652538639E+02 -0.83464061455E+02  0.99636642905E+03  0.10015757803E+04  0.12699999809E+01 0.  1.
       -4    1    3    3    0  502 -0.58652538639E+02  0.83464061455E+02 -0.11237050264E+02  0.10263651417E+03  0.12699999809E+01 0. -1.
</event>
<event>
 5   0  0.1209831E-02  0.4980994E+03  0.7818609E-02  0.1014276E+00
       -1   -1    0    0    0  501  0.00000000000E+00  0.00000000000E+00  0.22073877135E+03  0.22073877140E+03  0.50400001928E-02 0. -1.
        1   -1    0    0  501    0  0.00000000000E+00  0.00000000000E+00 -0.28099161017E+03  0.28099161021E+03  0.50400001928E-02 0.  1.
    10030    2    1    2    0    0  0.00000000000E+00  0.00000000000E+00 -0.60252838823E+02  0.50173038162E+03  0.49809935881E+03 0.  0.
        4    1    3    3  502    0  0.16504588152E+03 -0.99558457069E+02 -0.18898498965E+03  0.26994252832E+03  0.12699999809E+01 0.  1.
       -4    1    3    3    0  502 -0.16504588152E+03  0.99558457069E+02  0.12873215082E+03  0.23178785330E+03  0.12699999809E+01 0. -1.
</event>
<event>
 5   0  0.1180937E-02  0.5022463E+03  0.7818609E-02  0.1013194E+00
        1   -1    0    0  501    0  0.00000000000E+00  0.00000000000E+00  0.38279975667E+03  0.38279975670E+03  0.50400001928E-02 0. -1.
       -1   -1    0    0    0  501  0.00000000000E+00  0.00000000000E+00 -0.16474107653E+03  0.16474107661E+03  0.50400001928E-02 0.  1.
    10030    2    1    2    0    0  0.00000000000E+00  0.00000000000E+00  0.21805868014E+03  0.54754083331E+03  0.50224633016E+03 0.  0.
        1    1    3    3  502    0 -0.16850670461E+03  0.16198749643E+03  0.89436618265E+01  0.23391119599E+03  0.50400001928E-02 0.  1.
       -1    1    3    3    0  502  0.16850670461E+03 -0.16198749643E+03  0.20911501831E+03  0.31362963732E+03  0.50400001928E-02 0. -1.
</event>
<event>
 5   0  0.1941387E-02  0.5000271E+03  0.7818609E-02  0.1013772E+00
       -2   -1    0    0    0  501  0.00000000000E+00  0.00000000000E+00  0.91576520035E+02  0.91576520071E+02  0.25500000920E-02 0.  1.
        2   -1    0    0  501    0  0.00000000000E+00  0.00000000000E+00 -0.68256335145E+03  0.68256335145E+03  0.25500000920E-02 0. -1.
    10030    2    1    2    0    0  0.00000000000E+00  0.00000000000E+00 -0.59098683141E+03  0.77413987153E+03  0.50002710505E+03 0.  0.
        4    1    3    3  502    0 -0.43311395060E+02  0.10717376206E+03  0.47714295406E+02  0.12506142132E+03  0.12699999809E+01 0.  1.
       -4    1    3    3    0  502  0.43311395060E+02 -0.10717376206E+03 -0.63870112682E+03  0.64907845020E+03  0.12699999809E+01 0. -1.
</event>
<event>
 5   0  0.1217270E-02  0.5010101E+03  0.7818609E-02  0.1013516E+00
        1   -1    0    0  501    0  0.00000000000E+00  0.00000000000E+00  0.84626084518E+03  0.84626084520E+03  0.50400001928E-02 0.  1.
       -1   -1    0    0    0  501  0.00000000000E+00  0.00000000000E+00 -0.74153002096E+02  0.74153002267E+02  0.50400001928E-02 0. -1.
    10030    2    1    2    0    0  0.00000000000E+00  0.00000000000E+00  0.77210784309E+03  0.92041384747E+03  0.50101010893E+03 0.  0.
        2    1    3    3  502    0 -0.21156906520E+02 -0.12368540857E+03 -0.12253433608E+02  0.12607871204E+03  0.25500000920E-02 0. -1.
       -2    1    3    3    0  502  0.21156906520E+02  0.12368540857E+03  0.78436127670E+03  0.79433513543E+03  0.25500000920E-02 0.  1.
</event>
<event>
 5   0  0.1225989E-02  0.5050289E+03  0.7818609E-02  0.1012475E+00
        1   -1    0    0  501    0  0.00000000000E+00  0.00000000000E+00  0.58462347058E+03  0.58462347060E+03  0.50400001928E-02 0. -1.
       -1   -1    0    0    0  501  0.00000000000E+00  0.00000000000E+00 -0.10906773705E+03  0.10906773717E+03  0.50400001928E-02 0.  1.
    10030    2    1    2    0    0  0.00000000000E+00  0.00000000000E+00  0.47555573353E+03  0.69369120777E+03  0.50502894575E+03 0.  0.
        3    1    3    3  502    0  0.14556405016E+03  0.17420796859E+03  0.38965639299E+03  0.45096499178E+03  0.10100000352E+00 0. -1.
       -3    1    3    3    0  502 -0.14556405016E+03 -0.17420796859E+03  0.85899340542E+02  0.24272621598E+03  0.10100000352E+00 0.  1.
</event>
<event>
 5   0  0.1967813E-02  0.4991395E+03  0.7818609E-02  0.1014004E+00
        2   -1    0    0  501    0  0.00000000000E+00  0.00000000000E+00  0.39989450778E+03  0.39989450779E+03  0.25500000920E-02 0.  1.
       -2   -1    0    0    0  501  0.00000000000E+00  0.00000000000E+00 -0.15575375107E+03  0.15575375110E+03  0.25500000920E-02 0. -1.
    10030    2    1    2    0    0  0.00000000000E+00  0.00000000000E+00  0.24414075670E+03  0.55564825888E+03  0.49913953812E+03 0.  0.
        5    1    3    3  502    0  0.39400801111E+02 -0.29264365644E+02 -0.15027821167E+03  0.15815959384E+03  0.46999998093E+01 0. -1.
       -5    1    3    3    0  502 -0.39400801111E+02  0.29264365644E+02  0.39441896837E+03  0.39748866504E+03  0.46999998093E+01 0.  1.
</event>
<event>
 5   0  0.1217270E-02  0.5011269E+03  0.7818609E-02  0.1013485E+00
        1   -1    0    0  501    0  0.00000000000E+00  0.00000000000E+00  0.58149592250E+03  0.58149592253E+03  0.50400001928E-02 0. -1.
       -1   -1    0    0    0  501  0.00000000000E+00  0.00000000000E+00 -0.10796643351E+03  0.10796643363E+03  0.50400001928E-02 0.  1.
    10030    2    1    2    0    0  0.00000000000E+00  0.00000000000E+00  0.47352948899E+03  0.68946235615E+03  0.50112689372E+03 0.  0.
        2    1    3    3  502    0  0.16600438590E+03 -0.50048170988E+02 -0.12102614421E+02  0.17380664210E+03  0.25500000920E-02 0.  1.
       -2    1    3    3    0  502 -0.16600438590E+03  0.50048170988E+02  0.48563210342E+03  0.51565571405E+03  0.25500000920E-02 0. -1.
</event>
<event>
 5   0  0.1225989E-02  0.4993188E+03  0.7818609E-02  0.1013957E+00
       -1   -1    0    0    0  501  0.00000000000E+00  0.00000000000E+00  0.38143394157E+03  0.38143394161E+03  0.50400001928E-02 0.  1.
        1   -1    0    0  501    0  0.00000000000E+00  0.00000000000E+00 -0.16340920825E+03  0.16340920833E+03  0.50400001928E-02 0. -1.
    10030    2    1    2    0    0  0.00000000000E+00  0.00000000000E+00  0.21802473332E+03  0.54484314993E+03  0.49931880967E+03 0.  0.
        3    1    3    3  502    0 -0.87430975534E+02 -0.89692929426E+01 -0.14597021153E+03  0.17038760681E+03  0.10100000352E+00 0. -1.
       -3    1    3    3    0  502  0.87430975534E+02  0.89692929426E+01  0.36399494485E+03  0.37445554313E+03  0.10100000352E+00 0.  1.
</event>
<event>
 5   0  0.1227864E-02  0.4979966E+03  0.7818609E-02  0.1014303E+00
        1   -1    0    0  501    0  0.00000000000E+00  0.00000000000E+00  0.15598585312E+03  0.15598585320E+03  0.50400001928E-02 0. -1.
       -1   -1    0    0    0  501  0.00000000000E+00  0.00000000000E+00 -0.39747284566E+03  0.39747284569E+03  0.50400001928E-02 0.  1.
    10030    2    1    2    0    0  0.00000000000E+00  0.00000000000E+00 -0.24148699254E+03  0.55345869890E+03  0.49799655001E+03 0.  0.
        5    1    3    3  502    0 -0.17396794351E+03  0.95361994271E+02 -0.28789043314E+03  0.34965947265E+03  0.46999998093E+01 0.  1.
       -5    1    3    3    0  502  0.17396794351E+03 -0.95361994271E+02  0.46403440603E+02  0.20379922625E+03  0.46999998093E+01 0. -1.
</event>
<event>
 5   0  0.8012875E-03  0.5000702E+03  0.7818609E-02  0.1013761E+00
       -3   -1    0    0    0  501  0.00000000000E+00  0.00000000000E+00  0.78743640785E+03  0.78743641433E+03  0.10100000352E+00 0. -1.
        3   -1    0    0  501    0  0.00000000000E+00  0.00000000000E+00 -0.79393746853E+02  0.79393811096E+02  0.10100000352E+00 0.  1.
    10030    2    1    2    0    0  0.00000000000E+00  0.00000000000E+00  0.70804266100E+03  0.86683022542E+03  0.50007022498E+03 0.  0.
        1    1    3    3  502    0  0.34545633605E+02  0.13673703999E+03  0.71190850901E+03  0.72574385573E+03  0.50400001928E-02 0. -1.
       -1    1    3    3    0  502 -0.34545633605E+02 -0.13673703999E+03 -0.38658480178E+01  0.14108636969E+03  0.50400001928E-02 0.  1.
</event>
<event>
 5   0  0.1982847E-02  0.5000070E+03  0.7818609E-02  0.1013777E+00
        2   -1    0    0  501    0  0.00000000000E+00  0.00000000000E+00  0.24412641814E+03  0.24412641816E+03  0.25500000920E-02 0.  1.
       -2   -1    0    0    0  501  0.00000000000E+00  0.00000000000E+00 -0.25602203866E+03  0.25602203867E+03  0.25500000920E-02 0. -1.
    10030    2    1    2    0    0  0.00000000000E+00  0.00000000000E+00 -0.11895620518E+02  0.50014845683E+03  0.50000697303E+03 0.  0.
        2    1    3    3  502    0 -0.11160054123E+02 -0.37528812450E+02 -0.25293625831E+03  0.25594864592E+03  0.25500000920E-02 0. -1.
       -2    1    3    3    0  502  0.11160054123E+02  0.37528812450E+02  0.24104063780E+03  0.24419981091E+03  0.25500000920E-02 0.  1.
</event>
<event>
 5   0  0.1982847E-02  0.5005482E+03  0.7818609E-02  0.1013636E+00
       -2   -1    0    0    0  501  0.00000000000E+00  0.00000000000E+00  0.91737527975E+02  0.91737528010E+02  0.25500000920E-02 0.  1.
        2   -1    0    0  501    0  0.00000000000E+00  0.00000000000E+00 -0.68278638156E+03  0.68278638157E+03  0.25500000920E-02 0. -1.
    10030    2    1    2    0    0  0.00000000000E+00  0.00000000000E+00 -0.59104885359E+03  0.77452390958E+03  0.50054823861E+03 0.  0.
        2    1    3    3  502    0  0.11940804258E+03 -0.21560189181E+03 -0.22817147345E+03  0.33586407621E+03  0.25500000920E-02 0.  1.
       -2    1    3    3    0  502 -0.11940804258E+03  0.21560189181E+03 -0.36287738014E+03  0.43865983337E+03  0.25500000920E-02 0. -1.
</event>
<event>
 5   0  0.1923706E-02  0.4995047E+03  0.7818609E-02  0.1013908E+00
       -2   -1    0    0    0  501  0.00000000000E+00  0.00000000000E+00  0.95805630692E+02  0.95805630726E+02  0.25500000920E-02 0.  1.
        2   -1    0    0  501    0  0.00000000000E+00  0.00000000000E+00 -0.65107075785E+03  0.65107075785E+03  0.25500000920E-02 0. -1.
    10030    2    1    2    0    0  0.00000000000E+00  0.00000000000E+00 -0.55526512716E+03  0.74687638858E+03  0.49950473309E+03 0.  0.
        3    1    3    3  502    0 -0.96146323085E+02 -0.22564615879E+03 -0.34801870184E+03  0.42576675710E+03  0.10100000352E+00 0. -1.
       -3    1    3    3    0  502  0.96146323085E+02  0.22564615879E+03 -0.20724642532E+03  0.32110963148E+03  0.10100000352E+00 0.  1.
</event>
<event>
 5   0  0.1941387E-02  0.4997828E+03  0.7818609E-02  0.1013836E+00
        2   -1    0    0  501    0  0.00000000000E+00  0.00000000000E+00  0.19739769641E+04  0.19739769641E+04  0.25500000920E-02 0.  1.
       -2   -1    0    0    0  501  0.00000000000E+00  0.00000000000E+00 -0.31634469222E+02  0.31634469325E+02  0.25500000920E-02 0. -1.
    10030    2    1    2    0    0  0.00000000000E+00  0.00000000000E+00  0.19423424948E+04  0.20056114334E+04  0.49978280730E+03 0.  0.
        4    1    3    3  502    0 -0.24833856215E+03  0.13241955756E+02  0.87314393466E+03  0.90787076965E+03  0.12699999809E+01 0. -1.
       -4    1    3    3    0  502  0.24833856215E+03 -0.13241955756E+02  0.10691985602E+04  0.10977406637E+04  0.12699999809E+01 0.  1.
</event>
<event>
 5   0  0.1180937E-02  0.4941694E+03  0.7818609E-02  0.1015312E+00
        1   -1    0    0  501    0  0.00000000000E+00  0.00000000000E+00  0.80537990158E+03  0.80537990160E+03  0.50400001928E-02 0. -1.
       -1   -1    0    0    0  501  0.00000000000E+00  0.00000000000E+00 -0.75803797661E+02  0.75803797829E+02  0.50400001928E-02 0.  1.
    10030    2    1    2    0    0  0.00000000000E+00  0.00000000000E+00  0.72957610392E+03  0.88118369943E+03  0.49416942512E+03 0.  0.
        1    1    3    3  502    0 -0.21758213437E+03  0.11628941422E+03  0.38908371852E+03  0.46070744850E+03  0.50400001928E-02 0. -1.
       -1    1    3    3    0  502  0.21758213437E+03 -0.11628941422E+03  0.34049238540E+03  0.42047625093E+03  0.50400001928E-02 0.  1.
</event>
<event>
 5   0  0.1941387E-02  0.5000544E+03  0.7818609E-02  0.1013765E+00
        2   -1    0    0  501    0  0.00000000000E+00  0.00000000000E+00  0.21250917906E+03  0.21250917907E+03  0.25500000920E-02 0. -1.
       -2   -1    0    0    0  501  0.00000000000E+00  0.00000000000E+00 -0.29416892547E+03  0.29416892548E+03  0.25500000920E-02 0.  1.
    10030    2    1    2    0    0  0.00000000000E+00  0.00000000000E+00 -0.81659746412E+02  0.50667810456E+03  0.50005438450E+03 0.  0.
        4    1    3    3  502    0 -0.34632694661E+02  0.24631343256E+03 -0.66508281034E+02  0.25747756202E+03  0.12699999809E+01 0.  1.
       -4    1    3    3    0  502  0.34632694661E+02 -0.24631343256E+03 -0.15151465378E+02  0.24920054254E+03  0.12699999809E+01 0. -1.
</event>
<event>
 5   0  0.1217270E-02  0.4999271E+03  0.7818609E-02  0.1013798E+00
        1   -1    0    0  501    0  0.00000000000E+00  0.00000000000E+00  0.15431490639E+04  0.15431490639E+04  0.50400001928E-02 0. -1.
       -1   -1    0    0    0  501  0.00000000000E+00  0.00000000000E+00 -0.40489791967E+02  0.40489792281E+02  0.50400001928E-02 0.  1.
    10030    2    1    2    0    0  0.00000000000E+00  0.00000000000E+00  0.15026592719E+04  0.15836388562E+04  0.49992713399E+03 0.  0.
        2    1    3    3  502    0 -0.20402508126E+03 -0.88591977769E+02  0.11126048932E+04  0.11346208268E+04  0.25500000920E-02 0. -1.
       -2    1    3    3    0  502  0.20402508126E+03  0.88591977769E+02  0.39005437872E+03  0.44901802935E+03  0.25500000920E-02 0.  1.
</event>
<event>
 5   0  0.1855407E-02  0.5000672E+03  0.7818609E-02  0.1013761E+00
       -2   -1    0    0    0  501  0.00000000000E+00  0.00000000000E+00  0.41661092501E+02  0.41661092579E+02  0.25500000920E-02 0. -1.
        2   -1    0    0  501    0  0.00000000000E+00  0.00000000000E+00 -0.15006041421E+04  0.15006041421E+04  0.25500000920E-02 0.  1.
    10030    2    1    2    0    0  0.00000000000E+00  0.00000000000E+00 -0.14589430496E+04  0.15422652347E+04  0.50006722762E+03 0.  0.
        1    1    3    3  502    0 -0.16650584616E+03  0.18567172663E+03 -0.78452287371E+03  0.82320977052E+03  0.50400001928E-02 0.  1.
       -1    1    3    3    0  502  0.16650584616E+03 -0.18567172663E+03 -0.67442017593E+03  0.71905546421E+03  0.50400001928E-02 0. -1.
</event>
<event>
 5   0  0.1225989E-02  0.4992113E+03  0.7818609E-02  0.1013985E+00
        1   -1    0    0  501    0  0.00000000000E+00  0.00000000000E+00  0.28040472473E+03  0.28040472478E+03  0.50400001928E-02 0.  1.
       -1   -1    0    0    0  501  0.00000000000E+00  0.00000000000E+00 -0.22218949360E+03  0.22218949366E+03  0.50400001928E-02 0. -1.
    10030    2    1    2    0    0  0.00000000000E+00  0.00000000000E+00  0.58215231131E+02  0.50259421843E+03  0.49921131324E+03 0.  0.
        3    1    3    3  502    0  0.22927336278E+03 -0.51699643406E+01 -0.70099316206E+02  0.23980602108E+03  0.10100000352E+00 0. -1.
       -3    1    3    3    0  502 -0.22927336278E+03  0.51699643406E+01  0.12831454734E+03  0.26278819736E+03  0.10100000352E+00 0.  1.
</event>
<event>
 5   0  0.1923706E-02  0.4990156E+03  0.7818609E-02  0.1014036E+00
        2   -1    0    0  501    0  0.00000000000E+00  0.00000000000E+00  0.13557450710E+04  0.13557450710E+04  0.25500000920E-02 0. -1.
       -2   -1    0    0    0  501  0.00000000000E+00  0.00000000000E+00 -0.45918765951E+02  0.45918766022E+02  0.25500000920E-02 0.  1.
    10030    2    1    2    0    0  0.00000000000E+00  0.00000000000E+00  0.13098263051E+04  0.14016638370E+04  0.49901559357E+03 0.  0.
        3    1    3    3  502    0 -0.10638229452E+03 -0.22544233698E+03  0.68473081064E+03  0.72869591266E+03  0.10100000352E+00 0.  1.
       -3    1    3    3    0  502  0.10638229452E+03  0.22544233698E+03  0.62509549442E+03  0.67296792437E+03  0.10100000352E+00 0. -1.
</event>
<event>
 5   0  0.1227864E-02  0.4987012E+03  0.7818609E-02  0.1014118E+00
        1   -1    0    0  501    0  0.00000000000E+00  0.00000000000E+00  0.48270088182E+03  0.48270088184E+03  0.50400001928E-02 0.  1.
       -1   -1    0    0    0  501  0.00000000000E+00  0.00000000000E+00 -0.12880799625E+03  0.12880799634E+03  0.50400001928E-02 0. -1.
    10030    2    1    2    0    0  0.00000000000E+00  0.00000000000E+00  0.35389288557E+03  0.61150887819E+03  0.49870124689E+03 0.  0.
        5    1    3    3  502    0  0.19392598006E+03 -0.15665911492E+03  0.17948304861E+03  0.30722242555E+03  0.46999998093E+01 0. -1.
       -5    1    3    3    0  502 -0.19392598006E+03  0.15665911492E+03  0.17440983697E+03  0.30428645263E+03  0.46999998093E+01 0.  1.
</event>
<event>
 5   0  0.1855407E-02  0.4999598E+03  0.7818609E-02  0.1013789E+00
       -2   -1    0    0    0  501  0.00000000000E+00  0.00000000000E+00  0.31938288396E+03  0.31938288397E+03  0.25500000920E-02 0.  1.
        2   -1    0    0  501    0  0.00000000000E+00  0.00000000000E+00 -0.19565841638E+03  0.19565841640E+03  0.25500000920E-02 0. -1.
    10030    2    1    2    0    0  0.00000000000E+00  0.00000000000E+00  0.12372446758E+03  0.51504130036E+03  0.49995979559E+03 0.  0.
        1    1    3    3  502    0 -0.22374063798E+03  0.30664077425E+02 -0.48561653055E+02  0.23099435686E+03  0.50400001928E-02 0. -1.
       -1    1    3    3    0  502  0.22374063798E+03 -0.30664077425E+02  0.17228612063E+03  0.28404694350E+03  0.50400001928E-02 0.  1.
</event>
<event>
 5   0  0.1923706E-02  0.4980618E+03  0.7818609E-02  0.1014286E+00
        2   -1    0    0  501    0  0.00000000000E+00  0.00000000000E+00  0.71918835859E+03  0.71918835860E+03  0.25500000920E-02 0.  1.
       -2   -1    0    0    0  501  0.00000000000E+00  0.00000000000E+00 -0.86231083133E+02  0.86231083170E+02  0.25500000920E-02 0. -1.
    10030    2    1    2    0    0  0.00000000000E+00  0.00000000000E+00  0.63295727546E+03  0.80541944177E+03  0.49806180803E+03 0.  0.
        3    1    3    3  502    0  0.17509570925E+03 -0.17498957513E+03  0.27259205404E+03  0.36822044610E+03  0.10100000352E+00 0. -1.
       -3    1    3    3    0  502 -0.17509570925E+03  0.17498957513E+03  0.36036522142E+03  0.43719899567E+03  0.10100000352E+00 0.  1.
</event>
<event>
 5   0  0.1227864E-02  0.5001943E+03  0.7818609E-02  0.1013728E+00
       -1   -1    0    0    0  501  0.00000000000E+00  0.00000000000E+00  0.59415715693E+03  0.59415715695E+03  0.50400001928E-02 0. -1.
        1   -1    0    0  501    0  0.00000000000E+00  0.00000000000E+00 -0.10527278232E+03  0.10527278244E+03  0.50400001928E-02 0.  1.
    10030    2    1    2    0    0  0.00000000000E+00  0.00000000000E+00  0.48888437461E+03  0.69942993940E+03  0.50019427065E+03 0.  0.
        5    1    3    3  502    0 -0.16090538782E+03 -0.50733305060E+02  0.50251428756E+03  0.53010103874E+03  0.46999998093E+01 0. -1.
       -5    1    3    3    0  502  0.16090538782E+03  0.50733305060E+02 -0.13629912947E+02  0.16932890066E+03  0.46999998093E+01 0.  1.
</event>
<event>
 5   0  0.1209831E-02  0.5038270E+03  0.7818609E-02  0.1012785E+00
        1   -1    0    0  501    0  0.00000000000E+00  0.00000000000E+00  0.34324626717E+03  0.34324626721E+03  0.50400001928E-02 0. -1.
       -1   -1    0    0    0  501  0.00000000000E+00  0.00000000000E+00 -0.18488300269E+03  0.18488300276E+03  0.50400001928E-02 0.  1.
    10030    2    1    2    0    0  0.00000000000E+00  0.00000000000E+00  0.15836326448E+03  0.52812926997E+03  0.50382695666E+03 0.  0.
        4    1    3    3  502    0 -0.14102596583E+03  0.20174063928E+03  0.23013629820E+02  0.24722226565E+03  0.12699999809E+01 0.  1.
       -4    1    3    3    0  502  0.14102596583E+03 -0.20174063928E+03  0.13534963466E+03  0.28090700432E+03  0.12699999809E+01 0. -1.
</event>
<event>
 5   0  0.1217270E-02  0.5021462E+03  0.7818609E-02  0.1013220E+00
       -1   -1    0    0    0  501  0.00000000000E+00  0.00000000000E+00  0.18145057988E+03  0.18145057995E+03  0.50400001928E-02 0. -1.
        1   -1    0    0  501    0  0.00000000000E+00  0.00000000000E+00 -0.34740979531E+03  0.34740979535E+03  0.50400001928E-02 0.  1.
    10030    2    1    2    0    0  0.00000000000E+00  0.00000000000E+00 -0.16595921543E+03  0.52886037530E+03  0.50214622907E+03 0.  0.
        2    1    3    3  502    0  0.14351591921E+03  0.17924286482E+03  0.23975348554E+02  0.23086715011E+03  0.25500000920E-02 0. -1.
       -2    1    3    3    0  502 -0.14351591921E+03 -0.17924286482E+03 -0.18993456398E+03  0.29799322519E+03  0.25500000920E-02 0.  1.
</event>
<event>
 5   0  0.1941387E-02  0.5002864E+03  0.7818609E-02  0.1013704E+00
       -2   -1    0    0    0  501  0.00000000000E+00  0.00000000000E+00  0.55552311867E+02  0.55552311926E+02  0.25500000920E-02 0.  1.
        2   -1    0    0  501    0  0.00000000000E+00  0.00000000000E+00 -0.11263547513E+04  0.11263547513E+04  0.25500000920E-02 0. -1.
    10030    2    1    2    0    0  0.00000000000E+00  0.00000000000E+00 -0.10708024394E+04  0.11819070632E+04  0.50028635981E+03 0.  0.
        4    1    3    3  502    0 -0.17607036539E+03 -0.16489616388E+03 -0.37907698634E+03  0.44932448509E+03  0.12699999809E+01 0.  1.
       -4    1    3    3    0  502  0.17607036539E+03  0.16489616388E+03 -0.69172545309E+03  0.73258257813E+03  0.12699999809E+01 0. -1.
</event>
<event>
 5   0  0.1855407E-02  0.5004648E+03  0.7818609E-02  0.1013658E+00
        2   -1    0    0  501    0  0.00000000000E+00  0.00000000000E+00  0.22434786178E+04  0.22434786178E+04  0.25500000920E-02 0.  1.
       -2   -1    0    0    0  501  0.00000000000E+00  0.00000000000E+00 -0.27910337404E+02  0.27910337521E+02  0.25500000920E-02 0. -1.
    10030    2    1    2    0    0  0.00000000000E+00  0.00000000000E+00  0.22155682804E+04  0.22713889553E+04  0.50046476525E+03 0.  0.
        1    1    3    3  502    0  0.11340662958E+03  0.13880097278E+03  0.31529567098E+03  0.36268186313E+03  0.50400001928E-02 0. -1.
       -1    1    3    3    0  502 -0.11340662958E+03 -0.13880097278E+03  0.19002726094E+04  0.19087070921E+04  0.50400001928E-02 0.  1.
</event>
<event>
 5   0  0.1209831E-02  0.5003908E+03  0.7818609E-02  0.1013677E+00
        1   -1    0    0  501    0  0.00000000000E+00  0.00000000000E+00  0.18247938936E+04  0.18247938936E+04  0.50400001928E-02 0.  1.
       -1   -1    0    0    0  501  0.00000000000E+00  0.00000000000E+00 -0.34303998026E+02  0.34303998397E+02  0.50400001928E-02 0. -1.
    10030    2    1    2    0    0  0.00000000000E+00  0.00000000000E+00  0.17904898956E+04  0.18590978920E+04  0.50039075322E+03 0.  0.
        4    1    3    3  502    0 -0.75981923121E+02 -0.17257500027E+03  0.28429984163E+03  0.34115010803E+03  0.12699999809E+01 0. -1.
       -4    1    3    3    0  502  0.75981923121E+02  0.17257500027E+03  0.15061900540E+04  0.15179477840E+04  0.12699999809E+01 0.  1.
</event>
<event>
 5   0  0.1967813E-02  0.4992489E+03  0.7818609E-02  0.1013975E+00
       -2   -1    0    0    0  501  0.00000000000E+00  0.00000000000E+00  0.26829579528E+02  0.26829579649E+02  0.25500000920E-02 0. -1.
        2   -1    0    0  501    0  0.00000000000E+00  0.00000000000E+00 -0.23225249290E+04  0.23225249290E+04  0.25500000920E-02 0.  1.
    10030    2    1    2    0    0  0.00000000000E+00  0.00000000000E+00 -0.22956953494E+04  0.23493545086E+04  0.49924890558E+03 0.  0.
        5    1    3    3  502    0 -0.10857961729E+03 -0.19325619989E+03 -0.16875326155E+04  0.17020358135E+04  0.46999998093E+01 0.  1.
       -5    1    3    3    0  502  0.10857961729E+03  0.19325619989E+03 -0.60816273391E+03  0.64731869508E+03  0.46999998093E+01 0. -1.
</event>
<event>
 5   0  0.1217270E-02  0.4996221E+03  0.7818609E-02  0.1013878E+00
        1   -1    0    0  501    0  0.00000000000E+00  0.00000000000E+00  0.69538261615E+02  0.69538261797E+02  0.50400001928E-02 0. -1.
       -1   -1    0    0    0  501  0.00000000000E+00  0.00000000000E+00 -0.89742772220E+03  0.89742772222E+03  0.50400001928E-02 0.  1.
    10030    2    1    2    0    0  0.00000000000E+00  0.00000000000E+00 -0.82788946059E+03  0.96696598402E+03  0.49962211249E+03 0.  0.
        2    1    3    3  502    0 -0.15918784780E+02 -0.14347332628E+03 -0.19354057352E+02  0.14564540022E+03  0.25500000920E-02 0. -1.
       -2    1    3    3    0  502  0.15918784780E+02  0.14347332628E+03 -0.80853540324E+03  0.82132058379E+03  0.25500000920E-02 0.  1.
</event>
<event>
 5   0  0.1225989E-02  0.4997613E+03  0.7818609E-02  0.1013841E+00
       -1   -1    0    0    0  501  0.00000000000E+00  0.00000000000E+00  0.15454902814E+03  0.15454902823E+03  0.50400001928E-02 0. -1.
        1   -1    0    0  501    0  0.00000000000E+00  0.00000000000E+00 -0.40401637412E+03  0.40401637415E+03  0.50400001928E-02 0.  1.
    10030    2    1    2    0    0  0.00000000000E+00  0.00000000000E+00 -0.24946734598E+03  0.55856540238E+03  0.49976129505E+03 0.  0.
        3    1    3    3  502    0  0.95454298433E+02 -0.19490879265E+03 -0.26315886558E+03  0.34110637531E+03  0.10100000352E+00 0.  1.
       -3    1    3    3    0  502 -0.95454298433E+02  0.19490879265E+03  0.13691519606E+02  0.21745902707E+03  0.10100000352E+00 0. -1.
</event>
<event>
 5   0  0.1227864E-02  0.4998070E+03  0.7818609E-02  0.1013829E+00
        1   -1    0    0  501    0  0.00000000000E+00  0.00000000000E+00  0.62883969557E+02  0.62883969759E+02  0.50400001928E-02 0. -1.
       -1   -1    0    0    0  501  0.00000000000E+00  0.00000000000E+00 -0.99312670390E+03  0.99312670391E+03  0.50400001928E-02 0.  1.
    10030    2    1    2    0    0  0.00000000000E+00  0.00000000000E+00 -0.93024273434E+03  0.10560106737E+04  0.49980696084E+03 0.  0.
        5    1    3    3  502    0 -0.46853015651E+01  0.15333520320E+03 -0.88181667140E+03  0.89507338725E+03  0.46999998093E+01 0.  1.
       -5    1    3    3    0  502  0.46853015651E+01 -0.15333520320E+03 -0.48426062937E+02  0.16093728642E+03  0.46999998093E+01 0. -1.
</event>
<event>
 5   0  0.1217270E-02  0.4963356E+03  0.7818609E-02  0.1014740E+00
       -1   -1    0    0    0  501  0.00000000000E+00  0.00000000000E+00  0.40336065717E+02  0.40336066031E+02  0.50400001928E-02 0.  1.
        1   -1    0    0  501    0  0.00000000000E+00  0.00000000000E+00 -0.15268536408E+04  0.15268536408E+04  0.50400001928E-02 0. -1.
    10030    2    1    2    0    0  0.00000000000E+00  0.00000000000E+00 -0.14865175751E+04  0.15671897068E+04  0.49633564872E+03 0.  0.
        2    1    3    3  502    0  0.24805254325E+02 -0.17901142026E+03 -0.12802867471E+04  0.12929789418E+04  0.25500000920E-02 0. -1.
       -2    1    3    3    0  502 -0.24805254325E+02  0.17901142026E+03 -0.20623082798E+03  0.27421076500E+03  0.25500000920E-02 0.  1.
</event>
<event>
 5   0  0.8012875E-03  0.4961661E+03  0.7818609E-02  0.1014784E+00
       -3   -1    0    0    0  501  0.00000000000E+00  0.00000000000E+00  0.24743366355E+03  0.24743368416E+03  0.10100000352E+00 0.  1.
        3   -1    0    0  501    0  0.00000000000E+00  0.00000000000E+00 -0.24873406650E+03  0.24873408700E+03  0.10100000352E+00 0. -1.
    10030    2    1    2    0    0  0.00000000000E+00  0.00000000000E+00 -0.13004029455E+01  0.49616777117E+03  0.49616606705E+03 0.  0.
        2    1    3    3  502    0  0.22789936533E+03 -0.51852427337E+02 -0.83827386445E+02  0.24830188414E+03  0.25500000920E-02 0. -1.
       -2    1    3    3    0  502 -0.22789936533E+03  0.51852427337E+02  0.82526983500E+02  0.24786588703E+03  0.25500000920E-02 0.  1.
</event>
<event>
 5   0  0.1941387E-02  0.5008838E+03  0.7818609E-02  0.1013549E+00
       -2   -1    0    0    0  501  0.00000000000E+00  0.00000000000E+00  0.10796677103E+03  0.10796677106E+03  0.25500000920E-02 0.  1.
        2   -1    0    0  501    0  0.00000000000E+00  0.00000000000E+00 -0.58092997390E+03  0.58092997390E+03  0.25500000920E-02 0. -1.
    10030    2    1    2    0    0  0.00000000000E+00  0.00000000000E+00 -0.47296320287E+03  0.68889674496E+03  0.50088375293E+03 0.  0.
        4    1    3    3  502    0 -0.10880698157E+03  0.17093301961E+03 -0.43890984950E+03  0.48342582194E+03  0.12699999809E+01 0. -1.
       -4    1    3    3    0  502  0.10880698157E+03 -0.17093301961E+03 -0.34053353374E+02  0.20547092302E+03  0.12699999809E+01 0.  1.
</event>
<event>
 5   0  0.1209831E-02  0.5000239E+03  0.7818609E-02  0.1013773E+00
       -1   -1    0    0    0  501  0.00000000000E+00  0.00000000000E+00  0.10138534598E+03  0.10138534610E+03  0.50400001928E-02 0.  1.
        1   -1    0    0  501    0  0.00000000000E+00  0.00000000000E+00 -0.61651880697E+03  0.61651880699E+03  0.50400001928E-02 0. -1.
    10030    2    1    2    0    0  0.00000000000E+00  0.00000000000E+00 -0.51513346099E+03  0.71790415310E+03  0.50002388983E+03 0.  0.
        4    1    3    3  502    0  0.15781241575E+01  0.22445188317E+03 -0.99483890639E+02  0.24551944063E+03  0.12699999809E+01 0.  1.
       -4    1    3    3    0  502 -0.15781241575E+01 -0.22445188317E+03 -0.41564957036E+03  0.47238471246E+03  0.12699999809E+01 0. -1.
</event>
<event>
 5   0  0.1225989E-02  0.5008276E+03  0.7818609E-02  0.1013563E+00
        1   -1    0    0  501    0  0.00000000000E+00  0.00000000000E+00  0.17320905031E+03  0.17320905039E+03  0.50400001928E-02 0.  1.
       -1   -1    0    0    0  501  0.00000000000E+00  0.00000000000E+00 -0.36203119011E+03  0.36203119014E+03  0.50400001928E-02 0. -1.
    10030    2    1    2    0    0  0.00000000000E+00  0.00000000000E+00 -0.18882213979E+03  0.53524024053E+03  0.50082762963E+03 0.  0.
        3    1    3    3  502    0 -0.18758842553E+03  0.45129778159E+02  0.76184724539E+02  0.20743730794E+03  0.10100000352E+00 0.  1.
       -3    1    3    3    0  502  0.18758842553E+03 -0.45129778159E+02 -0.26500686433E+03  0.32780293259E+03  0.10100000352E+00 0. -1.
</event>
<event>
 5   0  0.1982847E-02  0.5004721E+03  0.7818609E-02  0.1013656E+00
        2   -1    0    0  501    0  0.00000000000E+00  0.00000000000E+00  0.84455847660E+03  0.84455847661E+03  0.25500000920E-02 0. -1.
       -2   -1    0    0    0  501  0.00000000000E+00  0.00000000000E+00 -0.74142971784E+02  0.74142971828E+02  0.25500000920E-02 0.  1.
    10030    2    1    2    0    0  0.00000000000E+00  0.00000000000E+00  0.77041550482E+03  0.91870144843E+03  0.50047207843E+03 0.  0.
        2    1    3    3  502    0 -0.16637073960E+03  0.83060761386E+02  0.69259207351E+03  0.71712069652E+03  0.25500000920E-02 0. -1.
       -2    1    3    3    0  502  0.16637073960E+03 -0.83060761386E+02  0.77823431310E+02  0.20158075192E+03  0.25500000920E-02 0.  1.
</event>
<event>
 5   0  0.1941387E-02  0.4974436E+03  0.7818609E-02  0.1014448E+00
        2   -1    0    0  501    0  0.00000000000E+00  0.00000000000E+00  0.11753076039E+04  0.11753076039E+04  0.25500000920E-02 0.  1.
       -2   -1    0    0    0  501  0.00000000000E+00  0.00000000000E+00 -0.52635177000E+02  0.52635177062E+02  0.25500000920E-02 0. -1.
    10030    2    1    2    0    0  0.00000000000E+00  0.00000000000E+00  0.11226724269E+04  0.12279427809E+04  0.49744355981E+03 0.  0.
        4    1    3    3  502    0 -0.17890556698E+03  0.12505550652E+03  0.85564629694E+03  0.88305055346E+03  0.12699999809E+01 0.  1.
       -4    1    3    3    0  502  0.17890556698E+03 -0.12505550652E+03  0.26702612995E+03  0.34489222749E+03  0.12699999809E+01 0. -1.
</event>
<event>
 5   0  0.1227864E-02  0.5011013E+03  0.7818609E-02  0.1013492E+00
        1   -1    0    0  501    0  0.00000000000E+00  0.00000000000E+00  0.19886219616E+03  0.19886219622E+03  0.50400001928E-02 0.  1.
       -1   -1    0    0    0  501  0.00000000000E+00  0.00000000000E+00 -0.31567406409E+03  0.31567406413E+03  0.50400001928E-02 0. -1.
    10030    2    1    2    0    0  0.00000000000E+00  0.00000000000E+00 -0.11681186794E+03  0.51453626035E+03  0.50110133778E+03 0.  0.
        5    1    3    3  502    0  0.11220130231E+03  0.21816335654E+03 -0.11045182499E+03  0.26908377509E+03  0.46999998093E+01 0.  1.
       -5    1    3    3    0  502 -0.11220130231E+03 -0.21816335654E+03 -0.63600429436E+01  0.24545248526E+03  0.46999998093E+01 0. -1.
</event>
<event>
 5   0  0.1941387E-02  0.5001455E+03  0.7818609E-02  0.1013741E+00
        2   -1    0    0  501    0  0.00000000000E+00  0.00000000000E+00  0.38664133487E+03  0.38664133488E+03  0.25500000920E-02 0.  1.
       -2   -1    0    0    0  501  0.00000000000E+00  0.00000000000E+00 -0.16174263030E+03  0.16174263032E+03  0.25500000920E-02 0. -1.
    10030    2    1    2    0    0  0.00000000000E+00  0.00000000000E+00  0.22489870457E+03  0.54838396521E+03  0.50014552480E+03 0.  0.
        4    1    3    3  502    0 -0.70628896795E+02  0.23143916477E+03  0.18164079365E+03  0.30256820532E+03  0.12699999809E+01 0. -1.
       -4    1    3    3    0  502  0.70628896795E+02 -0.23143916477E+03  0.43257910921E+02  0.24581575989E+03  0.12699999809E+01 0.  1.
</event>
<event>
 5   0  0.1217270E-02  0.5003584E+03  0.7818609E-02  0.1013685E+00
        1   -1    0    0  501    0  0.00000000000E+00  0.00000000000E+00  0.32934068084E+03  0.32934068088E+03  0.50400001928E-02 0. -1.
       -1   -1    0    0    0  501  0.00000000000E+00  0.00000000000E+00 -0.19004527202E+03  0.19004527209E+03  0.50400001928E-02 0.  1.
    10030    2    1    2    0    0  0.00000000000E+00  0.00000000000E+00  0.13929540882E+03  0.51938595297E+03  0.50035842876E+03 0.  0.
        2    1    3    3  502    0  0.20607531042E+03  0.76550619141E+02  0.19361538036E+03  0.29294017542E+03  0.25500000920E-02 0. -1.
       -2    1    3    3    0  502 -0.20607531042E+03 -0.76550619141E+02 -0.54319971536E+02  0.22644577755E+03  0.25500000920E-02 0.  1.
</event>
<event>
 5   0  0.1967813E-02  0.4999308E+03  0.7818609E-02  0.1013797E+00
       -2   -1    0    0    0  501  0.00000000000E+00  0.00000000000E+00  0.80456144321E+02  0.80456144361E+02  0.25500000920E-02 0.  1.
        2   -1    0    0  501    0  0.00000000000E+00  0.00000000000E+00 -0.77660564593E+03  0.77660564594E+03  0.25500000920E-02 0. -1.
    10030    2    1    2    0    0  0.00000000000E+00  0.00000000000E+00 -0.69614950161E+03  0.85706179030E+03  0.49993077900E+03 0.  0.
        5    1    3    3  502    0 -0.19210875605E+02 -0.73365639402E+02 -0.75632679876E+03  0.76013412718E+03  0.46999998093E+01 0. -1.
       -5    1    3    3    0  502  0.19210875605E+02  0.73365639402E+02  0.60177297149E+02  0.96927663114E+02  0.46999998093E+01 0.  1.
</event>
<event>
 5   0  0.1217270E-02  0.5000112E+03  0.7818609E-02  0.1013776E+00
        1   -1    0    0  501    0  0.00000000000E+00  0.00000000000E+00  0.73437202590E+03  0.73437202592E+03  0.50400001928E-02 0.  1.
       -1   -1    0    0    0  501  0.00000000000E+00  0.00000000000E+00 -0.85110529993E+02  0.85110530142E+02  0.50400001928E-02 0. -1.
    10030    2    1    2    0    0  0.00000000000E+00  0.00000000000E+00  0.64926149591E+03  0.81948255606E+03  0.50001116950E+03 0.  0.
        2    1    3    3  502    0  0.23881672512E+03 -0.47917048163E+02  0.41695525330E+03  0.48288834627E+03  0.25500000920E-02 0. -1.
       -2    1    3    3    0  502 -0.23881672512E+03  0.47917048163E+02  0.23230624261E+03  0.33659420979E+03  0.25500000920E-02 0.  1.
</event>
<event>
 5   0  0.1923706E-02  0.5009294E+03  0.7818609E-02  0.1013537E+00
       -2   -1    0    0    0  501  0.00000000000E+00  0.00000000000E+00  0.41173773517E+02  0.41173773596E+02  0.25500000920E-02 0. -1.
        2   -1    0    0  501    0  0.00000000000E+00  0.00000000000E+00 -0.15236051349E+04  0.15236051349E+04  0.25500000920E-02 0.  1.
    10030    2    1    2    0    0  0.00000000000E+00  0.00000000000E+00 -0.14824313614E+04  0.15647789085E+04  0.50092942744E+03 0.  0.
        3    1    3    3  502    0  0.14844224381E+03  0.11670726427E+03 -0.22720075846E+03  0.29542491454E+03  0.10100000352E+00 0.  1.
       -3    1    3    3    0  502 -0.14844224381E+03 -0.11670726427E+03 -0.12552306029E+04  0.12693539940E+04  0.10100000352E+00 0. -1.
</event>
<event>
 5   0  0.1967813E-02  0.5002501E+03  0.7818609E-02  0.1013714E+00
        2   -1    0    0  501    0  0.00000000000E+00  0.00000000000E+00  0.48891051786E+03  0.48891051786E+03  0.25500000920E-02 0. -1.
       -2   -1    0    0    0  501  0.00000000000E+00  0.00000000000E+00 -0.12796315951E+03  0.12796315953E+03  0.25500000920E-02 0.  1.
    10030    2    1    2    0    0  0.00000000000E+00  0.00000000000E+00  0.36094735835E+03  0.61687367740E+03  0.50025007583E+03 0.  0.
        5    1    3    3  502    0 -0.18118242614E+01  0.16264863409E+03  0.41471196958E+03  0.44549519480E+03  0.46999998093E+01 0. -1.
       -5    1    3    3    0  502  0.18118242614E+01 -0.16264863409E+03 -0.53764611229E+02  0.17137848260E+03  0.46999998093E+01 0.  1.
</event>
<event>
 5   0  0.8012875E-03  0.5001814E+03  0.7818609E-02  0.1013732E+00
       -3   -1    0    0    0  501  0.00000000000E+00  0.00000000000E+00  0.30208086228E+03  0.30208087917E+03  0.10100000352E+00 0. -1.
        3   -1    0    0  501    0  0.00000000000E+00  0.00000000000E+00 -0.20704832593E+03  0.20704835056E+03  0.10100000352E+00 0.  1.
    10030    2    1    2    0    0  0.00000000000E+00  0.00000000000E+00  0.95032536357E+02  0.50912922973E+03  0.50018135671E+03 0.  0.
        5    1    3    3  502    0  0.22432884080E+03 -0.10941468263E+03  0.32137857608E+02  0.25169412683E+03  0.46999998093E+01 0.  1.
       -5    1    3    3    0  502 -0.22432884080E+03  0.10941468263E+03  0.62894678749E+02  0.25743510290E+03  0.46999998093E+01 0. -1.
</event>
<event>
 5   0  0.1982847E-02  0.5006218E+03  0.7818609E-02  0.1013617E+00
        2   -1    0    0  501    0  0.00000000000E+00  0.00000000000E+00  0.13720587313E+03  0.13720587316E+03  0.25500000920E-02 0.  1.
       -2   -1    0    0    0  501  0.00000000000E+00  0.00000000000E+00 -0.45665352396E+03  0.45665352396E+03  0.25500000920E-02 0. -1.
    10030    2    1    2    0    0  0.00000000000E+00  0.00000000000E+00 -0.31944765083E+03  0.59385939712E+03  0.50062179530E+03 0.  0.
        2    1    3    3  502    0  0.65577468383E+02 -0.75934946961E+02 -0.43175673024E+03  0.44326109083E+03  0.25500000920E-02 0. -1.
       -2    1    3    3    0  502 -0.65577468383E+02  0.75934946961E+02  0.11230907942E+03  0.15059830628E+03  0.25500000920E-02 0.  1.
</event>
<event>
 5   0  0.1227864E-02  0.5001648E+03  0.7818609E-02  0.1013736E+00
       -1   -1    0    0    0  501  0.00000000000E+00  0.00000000000E+00  0.14307427202E+03  0.14307427211E+03  0.50400001928E-02 0.  1.
        1   -1    0    0  501    0  0.00000000000E+00  0.00000000000E+00 -0.43712397680E+03  0.43712397683E+03  0.50400001928E-02 0. -1.
    10030    2    1    2    0    0  0.00000000000E+00  0.00000000000E+00 -0.29404970479E+03  0.58019824894E+03  0.50016475204E+03 0.  0.
        5    1    3    3  502    0 -0.35088030316E+02 -0.10367664654E+03  0.11375679891E+03  0.15793263186E+03  0.46999998093E+01 0.  1.
       -5    1    3    3    0  502  0.35088030316E+02  0.10367664654E+03 -0.40780650370E+03  0.42226561708E+03  0.46999998093E+01 0. -1.
</event>
<event>
 5   0  0.1941387E-02  0.4995571E+03  0.7818609E-02  0.1013895E+00
       -2   -1    0    0    0  501  0.00000000000E+00  0.00000000000E+00  0.29994603780E+03  0.29994603781E+03  0.25500000920E-02 0.  1.
        2   -1    0    0  501    0  0.00000000000E+00  0.00000000000E+00 -0.20800182321E+03  0.20800182322E+03  0.25500000920E-02 0. -1.
    10030    2    1    2    0    0  0.00000000000E+00  0.00000000000E+00  0.91944214596E+02  0.50794786103E+03  0.49955709477E+03 0.  0.
        4    1    3    3  502    0 -0.12347534554E+03 -0.21637357965E+03  0.64275089616E+02  0.25728697397E+03  0.12699999809E+01 0. -1.
       -4    1    3    3    0  502  0.12347534554E+03  0.21637357965E+03  0.27669124980E+02  0.25066088707E+03  0.12699999809E+01 0.  1.
</event>
<event>
 5   0  0.1967813E-02  0.4994341E+03  0.7818609E-02  0.1013927E+00
       -2   -1    0    0    0  501  0.00000000000E+00  0.00000000000E+00  0.72614592409E+03  0.72614592409E+03  0.25500000920E-02 0. -1.
        2   -1    0    0  501    0  0.00000000000E+00  0.00000000000E+00 -0.85876122129E+02  0.85876122167E+02  0.25500000920E-02 0.  1.
    10030    2    1    2    0    0  0.00000000000E+00  0.00000000000E+00  0.64026980196E+03  0.81202204626E+03  0.49943406403E+03 0.  0.
        5    1    3    3  502    0  0.73747060322E+02  0.80100536058E+02 -0.45171259132E+02  0.11797142634E+03  0.46999998093E+01 0.  1.
       -5    1    3    3    0  502 -0.73747060322E+02 -0.80100536058E+02  0.68544106109E+03  0.69405061992E+03  0.46999998093E+01 0. -1.
</event>
<event>
 5   0  0.1209831E-02  0.5005100E+03  0.7818609E-02  0.1013646E+00
       -1   -1    0    0    0  501  0.00000000000E+00  0.00000000000E+00  0.41029174162E+03  0.41029174165E+03  0.50400001928E-02 0.  1.
        1   -1    0    0  501    0  0.00000000000E+00  0.00000000000E+00 -0.15264154958E+03  0.15264154966E+03  0.50400001928E-02 0. -1.
    10030    2    1    2    0    0  0.00000000000E+00  0.00000000000E+00  0.25765019204E+03  0.56293329131E+03  0.50051000890E+03 0.  0.
        4    1    3    3  502    0  0.12915228118E+03  0.90411326708E+02  0.34741288977E+03  0.38151257988E+03  0.12699999809E+01 0.  1.
       -4    1    3    3    0  502 -0.12915228118E+03 -0.90411326708E+02 -0.89762697730E+02  0.18142071143E+03  0.12699999809E+01 0. -1.
</event>
<event>
 5   0  0.8012875E-03  0.4957028E+03  0.7818609E-02  0.1014907E+00
       -4   -1    0    0    0  501  0.00000000000E+00  0.00000000000E+00  0.14140029091E+03  0.14140599411E+03  0.12699999809E+01 0.  1.
        4   -1    0    0  501    0  0.00000000000E+00  0.00000000000E+00 -0.43442717151E+03  0.43442902786E+03  0.12699999809E+01 0. -1.
    10030    2    1    2    0    0  0.00000000000E+00  0.00000000000E+00 -0.29302688060E+03  0.57583502197E+03  0.49570275344E+03 0.  0.
        2    1    3    3  502    0 -0.23078456237E+03 -0.12217896727E+02 -0.42485317748E+02  0.23498041080E+03  0.25500000920E-02 0.  1.
       -2    1    3    3    0  502  0.23078456237E+03  0.12217896727E+02 -0.25054156285E+03  0.34085461116E+03  0.25500000920E-02 0. -1.
</event>
<event>
 5   0  0.1967813E-02  0.4976459E+03  0.7818609E-02  0.1014395E+00
       -2   -1    0    0    0  501  0.00000000000E+00  0.00000000000E+00  0.10766360688E+03  0.10766360691E+03  0.25500000920E-02 0. -1.
        2   -1    0    0  501    0  0.00000000000E+00  0.00000000000E+00 -0.57505849296E+03  0.57505849296E+03  0.25500000920E-02 0.  1.
    10030    2    1    2    0    0  0.00000000000E+00  0.00000000000E+00 -0.46739488608E+03  0.68272209987E+03  0.49764594455E+03 0.  0.
        5    1    3    3  502    0  0.46758183142E+02 -0.24281485352E+03 -0.27115318509E+03  0.36700343399E+03  0.46999998093E+01 0.  1.
       -5    1    3    3    0  502 -0.46758183142E+02  0.24281485352E+03 -0.19624170099E+03  0.31571866588E+03  0.46999998093E+01 0. -1.
</event>
<event>
 5   0  0.1180937E-02  0.5001928E+03  0.7818609E-02  0.1013729E+00
        1   -1    0    0  501    0  0.00000000000E+00  0.00000000000E+00  0.57975045826E+02  0.57975046045E+02  0.50400001928E-02 0. -1.
       -1   -1    0    0    0  501  0.00000000000E+00  0.00000000000E+00 -0.10788814575E+04  0.10788814575E+04  0.50400001928E-02 0.  1.
    10030    2    1    2    0    0  0.00000000000E+00  0.00000000000E+00 -0.10209064117E+04  0.11368565035E+04  0.50019277112E+03 0.  0.
        1    1    3    3  502    0  0.23439865859E+03 -0.78828092492E+02 -0.42566686834E+03  0.49228942924E+03  0.50400001928E-02 0. -1.
       -1    1    3    3    0  502 -0.23439865859E+03  0.78828092492E+02 -0.59523954333E+03  0.64456707431E+03  0.50400001928E-02 0.  1.
</event>
<event>
 5   0  0.1855407E-02  0.4969970E+03  0.7818609E-02  0.1014566E+00
       -2   -1    0    0    0  501  0.00000000000E+00  0.00000000000E+00  0.25629418085E+03  0.25629418086E+03  0.25500000920E-02 0. -1.
        2   -1    0    0  501    0  0.00000000000E+00  0.00000000000E+00 -0.24093992001E+03  0.24093992002E+03  0.25500000920E-02 0.  1.
    10030    2    1    2    0    0  0.00000000000E+00  0.00000000000E+00  0.15354260844E+02  0.49723410088E+03  0.49699697963E+03 0.  0.
        1    1    3    3  502    0 -0.10240285828E+03 -0.83494086233E+02 -0.20288442263E+03  0.24211504866E+03  0.50400001928E-02 0.  1.
       -1    1    3    3    0  502  0.10240285828E+03  0.83494086233E+02  0.21823868347E+03  0.25511905222E+03  0.50400001928E-02 0. -1.
</event>
<event>
 5   0  0.1209831E-02  0.4996610E+03  0.7818609E-02  0.1013867E+00
        1   -1    0    0  501    0  0.00000000000E+00  0.00000000000E+00  0.12817174134E+04  0.12817174134E+04  0.50400001928E-02 0. -1.
       -1   -1    0    0    0  501  0.00000000000E+00  0.00000000000E+00 -0.48696601685E+02  0.48696601946E+02  0.50400001928E-02 0.  1.
    10030    2    1    2    0    0  0.00000000000E+00  0.00000000000E+00  0.12330208117E+04  0.13304140154E+04  0.49966101522E+03 0.  0.
        4    1    3    3  502    0  0.19336088783E+03 -0.38705941250E+02  0.10249195175E+04  0.10437184549E+04  0.12699999809E+01 0. -1.
       -4    1    3    3    0  502 -0.19336088783E+03  0.38705941250E+02  0.20810129418E+03  0.28669556043E+03  0.12699999809E+01 0.  1.
</event>
<event>
 5   0  0.1855407E-02  0.5019686E+03  0.7818609E-02  0.1013266E+00
       -2   -1    0    0    0  501  0.00000000000E+00  0.00000000000E+00  0.50327342970E+02  0.50327343034E+02  0.25500000920E-02 0.  1.
        2   -1    0    0  501    0  0.00000000000E+00  0.00000000000E+00 -0.12516680351E+04  0.12516680351E+04  0.25500000920E-02 0. -1.
    10030    2    1    2    0    0  0.00000000000E+00  0.00000000000E+00 -0.12013406921E+04  0.13019953781E+04  0.50196863061E+03 0.  0.
        1    1    3    3  502    0  0.24167821560E+03  0.48937478894E+02 -0.47929122397E+03  0.53900214669E+03  0.50400001928E-02 0. -1.
       -1    1    3    3    0  502 -0.24167821560E+03 -0.48937478894E+02 -0.72204946814E+03  0.76299323143E+03  0.50400001928E-02 0.  1.
</event>
<event>
 5   0  0.1855407E-02  0.4994365E+03  0.7818609E-02  0.1013926E+00
        2   -1    0    0  501    0  0.00000000000E+00  0.00000000000E+00  0.13776466065E+04  0.13776466065E+04  0.25500000920E-02 0. -1.
       -2   -1    0    0    0  501  0.00000000000E+00  0.00000000000E+00 -0.45265022584E+02  0.45265022656E+02  0.25500000920E-02 0.  1.
    10030    2    1    2    0    0  0.00000000000E+00  0.00000000000E+00  0.13323815839E+04  0.14229116292E+04  0.49943650171E+03 0.  0.
        1    1    3    3  502    0 -0.23981566136E+03  0.12616552162E+02  0.86127112839E+03  0.89412453576E+03  0.50400001928E-02 0. -1.
       -1    1    3    3    0  502  0.23981566136E+03 -0.12616552162E+02  0.47111045556E+03  0.52878709343E+03  0.50400001928E-02 0.  1.
</event>
<event>
 5   0  0.1967813E-02  0.5012895E+03  0.7818609E-02  0.1013443E+00
        2   -1    0    0  501    0  0.00000000000E+00  0.00000000000E+00  0.23991041169E+03  0.23991041171E+03  0.25500000920E-02 0. -1.
       -2   -1    0    0    0  501  0.00000000000E+00  0.00000000000E+00 -0.26185939700E+03  0.26185939701E+03  0.25500000920E-02 0.  1.
    10030    2    1    2    0    0  0.00000000000E+00  0.00000000000E+00 -0.21948985302E+02  0.50176980872E+03  0.50128952012E+03 0.  0.
        5    1    3    3  502    0  0.78615158874E+02 -0.11439555834E+03  0.19787348834E+03  0.24174923859E+03  0.46999998093E+01 0. -1.
       -5    1    3    3    0  502 -0.78615158874E+02  0.11439555834E+03 -0.21982247364E+03  0.26002057013E+03  0.46999998093E+01 0.  1.
</event>
<event>
 5   0  0.1923706E-02  0.4998795E+03  0.7818609E-02  0.1013810E+00
        2   -1    0    0  501    0  0.00000000000E+00  0.00000000000E+00  0.11637040255E+04  0.11637040255E+04  0.25500000920E-02 0.  1.
       -2   -1    0    0    0  501  0.00000000000E+00  0.00000000000E+00 -0.53681931831E+02  0.53681931891E+02  0.25500000920E-02 0. -1.
    10030    2    1    2    0    0  0.00000000000E+00  0.00000000000E+00  0.11100220937E+04  0.12173859574E+04  0.49987950631E+03 0.  0.
        3    1    3    3  502    0 -0.77368909980E+02  0.17963986280E+03  0.93396916560E+03  0.95422997282E+03  0.10100000352E+00 0.  1.
       -3    1    3    3    0  502  0.77368909980E+02 -0.17963986280E+03  0.17605292809E+03  0.26315598459E+03  0.10100000352E+00 0. -1.
</event>
<event>
 5   0  0.1217270E-02  0.5015927E+03  0.7818609E-02  0.1013364E+00
        1   -1    0    0  501    0  0.00000000000E+00  0.00000000000E+00  0.34755727864E+03  0.34755727868E+03  0.50400001928E-02 0. -1.
       -1   -1    0    0    0  501  0.00000000000E+00  0.00000000000E+00 -0.18097397035E+03  0.18097397043E+03  0.50400001928E-02 0.  1.
    10030    2    1    2    0    0  0.00000000000E+00  0.00000000000E+00  0.16658330828E+03  0.52853124910E+03  0.50159274584E+03 0.  0.
        2    1    3    3  502    0  0.99916673126E+01 -0.24475612959E+03  0.26612222944E+02  0.24640131250E+03  0.25500000920E-02 0.  1.
       -2    1    3    3    0  502 -0.99916673126E+01  0.24475612959E+03  0.13997108534E+03  0.28212993660E+03  0.25500000920E-02 0. -1.
</event>
<event>
 5   0  0.1180937E-02  0.5012112E+03  0.7818609E-02  0.1013463E+00
        1   -1    0    0  501    0  0.00000000000E+00  0.00000000000E+00  0.20672271196E+03  0.20672271202E+03  0.50400001928E-02 0. -1.
       -1   -1    0    0    0  501  0.00000000000E+00  0.00000000000E+00 -0.30380393225E+03  0.30380393229E+03  0.50400001928E-02 0.  1.
    10030    2    1    2    0    0  0.00000000000E+00  0.00000000000E+00 -0.97081220293E+02  0.51052664431E+03  0.50121122415E+03 0.  0.
        1    1    3    3  502    0  0.24529774342E+03 -0.50971031754E+02 -0.54492479308E+02  0.25639512346E+03  0.50400001928E-02 0.  1.
       -1    1    3    3    0  502 -0.24529774342E+03  0.50971031754E+02 -0.42588740984E+02  0.25413152085E+03  0.50400001928E-02 0. -1.
</event>
<event>
 5   0  0.1227864E-02  0.5020881E+03  0.7818609E-02  0.1013235E+00
        1   -1    0    0  501    0  0.00000000000E+00  0.00000000000E+00  0.17155511206E+04  0.17155511206E+04  0.50400001928E-02 0.  1.
       -1   -1    0    0    0  501  0.00000000000E+00  0.00000000000E+00 -0.36736370393E+02  0.36736370739E+02  0.50400001928E-02 0. -1.
    10030    2    1    2    0    0  0.00000000000E+00  0.00000000000E+00  0.16788147502E+04  0.17522874913E+04  0.50208812654E+03 0.  0.
        5    1    3    3  502    0  0.10468389688E+03  0.22753371449E+03  0.78198418026E+03  0.82112828332E+03  0.46999998093E+01 0. -1.
       -5    1    3    3    0  502 -0.10468389688E+03 -0.22753371449E+03  0.89683056991E+03  0.93115920799E+03  0.46999998093E+01 0.  1.
</event>
<event>
 5   0  0.8012875E-03  0.4959858E+03  0.7818609E-02  0.1014832E+00
       -3   -1    0    0    0  501  0.00000000000E+00  0.00000000000E+00  0.60623440894E+03  0.60623441735E+03  0.10100000352E+00 0. -1.
        3   -1    0    0  501    0  0.00000000000E+00  0.00000000000E+00 -0.10144667377E+03  0.10144672405E+03  0.10100000352E+00 0.  1.
    10030    2    1    2    0    0  0.00000000000E+00  0.00000000000E+00  0.50478773517E+03  0.70768114140E+03  0.49598582673E+03 0.  0.
        2    1    3    3  502    0  0.74098337075E+02  0.22907566319E+03  0.33721766865E+03  0.41434524141E+03  0.25500000920E-02 0. -1.
       -2    1    3    3    0  502 -0.74098337075E+02 -0.22907566319E+03  0.16757006652E+03  0.29333589999E+03  0.25500000920E-02 0.  1.
</event>
<event>
 5   0  0.1217270E-02  0.5018282E+03  0.7818609E-02  0.1013303E+00
       -1   -1    0    0    0  501  0.00000000000E+00  0.00000000000E+00  0.14496710628E+03  0.14496710637E+03  0.50400001928E-02 0.  1.
        1   -1    0    0  501    0  0.00000000000E+00  0.00000000000E+00 -0.43429083442E+03  0.43429083445E+03  0.50400001928E-02 0. -1.
    10030    2    1    2    0    0  0.00000000000E+00  0.00000000000E+00 -0.28932372814E+03  0.57925794081E+03  0.50182820002E+03 0.  0.
        2    1    3    3  502    0 -0.91683331970E+02  0.18335749014E+03 -0.31166443530E+03  0.37304225335E+03  0.25500000920E-02 0. -1.
       -2    1    3    3    0  502  0.91683331970E+02 -0.18335749014E+03  0.22340707161E+02  0.20621568746E+03  0.25500000920E-02 0.  1.
</event>
<event>
 5   0  0.8012875E-03  0.4989192E+03  0.7818609E-02  0.1014061E+00
       -3   -1    0    0    0  501  0.00000000000E+00  0.00000000000E+00  0.16041276981E+03  0.16041280161E+03  0.10100000352E+00 0.  1.
        3   -1    0    0  501    0  0.00000000000E+00  0.00000000000E+00 -0.38793720412E+03  0.38793721727E+03  0.10100000352E+00 0. -1.
    10030    2    1    2    0    0  0.00000000000E+00  0.00000000000E+00 -0.22752443431E+03  0.54835001888E+03  0.49891920688E+03 0.  0.
        3    1    3    3  502    0 -0.24032700671E+03 -0.38181925904E+02 -0.17411292713E+03  0.29921606109E+03  0.10100000352E+00 0. -1.
       -3    1    3    3    0  502  0.24032700671E+03  0.38181925904E+02 -0.53411507183E+02  0.24913395779E+03  0.10100000352E+00 0.  1.
</event>
<event>
 5   0  0.1180937E-02  0.5004420E+03  0.7818609E-02  0.1013664E+00
       -1   -1    0    0    0  501  0.00000000000E+00  0.00000000000E+00  0.50926266510E+02  0.50926266759E+02  0.50400001928E-02 0.  1.
        1   -1    0    0  501    0  0.00000000000E+00  0.00000000000E+00 -0.12294351006E+04  0.12294351006E+04  0.50400001928E-02 0. -1.
    10030    2    1    2    0    0  0.00000000000E+00  0.00000000000E+00 -0.11785088340E+04  0.12803613673E+04  0.50044196368E+03 0.  0.
        1    1    3    3  502    0 -0.88947745149E+02  0.65673188849E+02 -0.11635470242E+04  0.11687884097E+04  0.50400001928E-02 0. -1.
       -1    1    3    3    0  502  0.88947745149E+02 -0.65673188849E+02 -0.14961809882E+02  0.11157295766E+03  0.50400001928E-02 0.  1.
</event>
<event>
 5   0  0.1855407E-02  0.4995115E+03  0.7818609E-02  0.1013906E+00
        2   -1    0    0  501    0  0.00000000000E+00  0.00000000000E+00  0.10006097310E+04  0.10006097310E+04  0.25500000920E-02 0. -1.
       -2   -1    0    0    0  501  0.00000000000E+00  0.00000000000E+00 -0.62339923796E+02  0.62339923848E+02  0.25500000920E-02 0.  1.
    10030    2    1    2    0    0  0.00000000000E+00  0.00000000000E+00  0.93826980724E+03  0.10629496549E+04  0.49951149901E+03 0.  0.
        1    1    3    3  502    0 -0.13914213721E+02  0.18058927261E+03  0.83507197298E+03  0.85448890619E+03  0.50400001928E-02 0. -1.
       -1    1    3    3    0  502  0.13914213721E+02 -0.18058927261E+03  0.10319783426E+03  0.20846074869E+03  0.50400001928E-02 0.  1.
</event>
<event>
 5   0  0.1225989E-02  0.4995126E+03  0.7818609E-02  0.1013906E+00
       -1   -1    0    0    0  501  0.00000000000E+00  0.00000000000E+00  0.69345868833E+02  0.69345869016E+02  0.50400001928E-02 0.  1.
        1   -1    0    0  501    0  0.00000000000E+00  0.00000000000E+00 -0.89952308538E+03  0.89952308540E+03  0.50400001928E-02 0. -1.
    10030    2    1    2    0    0  0.00000000000E+00  0.00000000000E+00 -0.83017721655E+03  0.96886895441E+03  0.49951260239E+03 0.  0.
        3    1    3    3  502    0  0.24322711429E+03 -0.56698069175E+02 -0.41901587068E+03  0.48779955951E+03  0.10100000352E+00 0.  1.
       -3    1    3    3    0  502 -0.24322711429E+03  0.56698069175E+02 -0.41116134587E+03  0.48106939491E+03  0.10100000352E+00 0. -1.
</event>
<event>
 5   0  0.1982847E-02  0.5000939E+03  0.7818609E-02  0.1013754E+00
        2   -1    0    0  501    0  0.00000000000E+00  0.00000000000E+00  0.41329833618E+03  0.41329833618E+03  0.25500000920E-02 0. -1.
       -2   -1    0    0    0  501  0.00000000000E+00  0.00000000000E+00 -0.15127927619E+03  0.15127927621E+03  0.25500000920E-02 0.  1.
    10030    2    1    2    0    0  0.00000000000E+00  0.00000000000E+00  0.26201905998E+03  0.56457761240E+03  0.50009388381E+03 0.  0.
        2    1    3    3  502    0  0.55756470233E+02  0.24311774880E+03  0.11118220738E+03  0.27308699529E+03  0.25500000920E-02 0.  1.
       -2    1    3    3    0  502 -0.55756470233E+02 -0.24311774880E+03  0.15083685260E+03  0.29149061711E+03  0.25500000920E-02 0. -1.
</event>
<event>
 5   0  0.1227864E-02  0.4921495E+03  0.7818609E-02  0.1015849E+00
       -1   -1    0    0    0  501  0.00000000000E+00  0.00000000000E+00  0.10143463259E+03  0.10143463271E+03  0.50400001928E-02 0.  1.
        1   -1    0    0  501    0  0.00000000000E+00  0.00000000000E+00 -0.59696369867E+03  0.59696369870E+03  0.50400001928E-02 0. -1.
    10030    2    1    2    0    0  0.00000000000E+00  0.00000000000E+00 -0.49552906609E+03  0.69839833141E+03  0.49214954432E+03 0.  0.
        5    1    3    3  502    0  0.67002455572E+02 -0.30435373803E+02  0.85386571699E+02  0.11282108693E+03  0.46999998093E+01 0.  1.
       -5    1    3    3    0  502 -0.67002455572E+02  0.30435373803E+02 -0.58091563778E+03  0.58557724448E+03  0.46999998093E+01 0. -1.
</event>
<event>
 5   0  0.1941387E-02  0.5001098E+03  0.7818609E-02  0.1013750E+00
       -2   -1    0    0    0  501  0.00000000000E+00  0.00000000000E+00  0.14904267311E+03  0.14904267314E+03  0.25500000920E-02 0.  1.
        2   -1    0    0  501    0  0.00000000000E+00  0.00000000000E+00 -0.41952711776E+03  0.41952711777E+03  0.25500000920E-02 0. -1.
    10030    2    1    2    0    0  0.00000000000E+00  0.00000000000E+00 -0.27048444465E+03  0.56856979091E+03  0.50010976029E+03 0.  0.
        4    1    3    3  502    0  0.17759037816E+03  0.13396385850E+03 -0.54117106942E+01  0.22252091432E+03  0.12699999809E+01 0. -1.
       -4    1    3    3    0  502 -0.17759037816E+03 -0.13396385850E+03 -0.26507273396E+03  0.34604887659E+03  0.12699999809E+01 0.  1.
</event>
<event>
 5   0  0.1855407E-02  0.4993432E+03  0.7818609E-02  0.1013950E+00
       -2   -1    0    0    0  501  0.00000000000E+00  0.00000000000E+00  0.12660796274E+03  0.12660796277E+03  0.25500000920E-02 0.  1.
        2   -1    0    0  501    0  0.00000000000E+00  0.00000000000E+00 -0.49235375189E+03  0.49235375190E+03  0.25500000920E-02 0. -1.
    10030    2    1    2    0    0  0.00000000000E+00  0.00000000000E+00 -0.36574578915E+03  0.61896171467E+03  0.49934319055E+03 0.  0.
        1    1    3    3  502    0 -0.16390935139E+03  0.15308571260E+03 -0.46892349197E+02  0.22912966485E+03  0.50400001928E-02 0.  1.
       -1    1    3    3    0  502  0.16390935139E+03 -0.15308571260E+03 -0.31885343995E+03  0.38983204982E+03  0.50400001928E-02 0. -1.
</event>
<event>
 5   0  0.1855407E-02  0.5004406E+03  0.7818609E-02  0.1013664E+00
       -2   -1    0    0    0  501  0.00000000000E+00  0.00000000000E+00  0.63989973636E+02  0.63989973687E+02  0.25500000920E-02 0.  1.
        2   -1    0    0  501    0  0.00000000000E+00  0.00000000000E+00 -0.97843760262E+03  0.97843760262E+03  0.25500000920E-02 0. -1.
    10030    2    1    2    0    0  0.00000000000E+00  0.00000000000E+00 -0.91444762898E+03  0.10424275763E+04  0.50044059157E+03 0.  0.
        1    1    3    3  502    0 -0.14480208350E+03  0.19224824119E+03 -0.59977248611E+03  0.64626160705E+03  0.50400001928E-02 0. -1.
       -1    1    3    3    0  502  0.14480208350E+03 -0.19224824119E+03 -0.31467514287E+03  0.39616596925E+03  0.50400001928E-02 0.  1.
</event>
<event>
 5   0  0.1217270E-02  0.5004233E+03  0.7818609E-02  0.1013668E+00
        1   -1    0    0  501    0  0.00000000000E+00  0.00000000000E+00  0.52417458339E+03  0.52417458341E+03  0.50400001928E-02 0.  1.
       -1   -1    0    0    0  501  0.00000000000E+00  0.00000000000E+00 -0.11943706474E+03  0.11943706484E+03  0.50400001928E-02 0. -1.
    10030    2    1    2    0    0  0.00000000000E+00  0.00000000000E+00  0.40473751865E+03  0.64361164825E+03  0.50042331557E+03 0.  0.
        2    1    3    3  502    0 -0.53876381848E+02  0.31890044457E+02  0.51393793178E+03  0.51773722793E+03  0.25500000920E-02 0.  1.
       -2    1    3    3    0  502  0.53876381848E+02 -0.31890044457E+02 -0.10920041313E+03  0.12587442032E+03  0.25500000920E-02 0. -1.
</event>
<event>
 5   0  0.1941387E-02  0.5000693E+03  0.7818609E-02  0.1013761E+00
       -2   -1    0    0    0  501  0.00000000000E+00  0.00000000000E+00  0.89600073352E+02  0.89600073388E+02  0.25500000920E-02 0.  1.
        2   -1    0    0  501    0  0.00000000000E+00  0.00000000000E+00 -0.69773742048E+03  0.69773742048E+03  0.25500000920E-02 0. -1.
    10030    2    1    2    0    0  0.00000000000E+00  0.00000000000E+00 -0.60813734713E+03  0.78733749387E+03  0.50006929148E+03 0.  0.
        4    1    3    3  502    0 -0.75421759998E+01  0.22123277137E+03 -0.48710486352E+03  0.53504540416E+03  0.12699999809E+01 0. -1.
       -4    1    3    3    0  502  0.75421759998E+01 -0.22123277137E+03 -0.12103248361E+03  0.25229208972E+03  0.12699999809E+01 0.  1.
</event>
<event>
 5   0  0.1941387E-02  0.5010975E+03  0.7818609E-02  0.1013493E+00
       -2   -1    0    0    0  501  0.00000000000E+00  0.00000000000E+00  0.13486261948E+03  0.13486261950E+03  0.25500000920E-02 0. -1.
        2   -1    0    0  501    0  0.00000000000E+00  0.00000000000E+00 -0.46547130546E+03  0.46547130546E+03  0.25500000920E-02 0.  1.
    10030    2    1    2    0    0  0.00000000000E+00  0.00000000000E+00 -0.33060868598E+03  0.60033392496E+03  0.50109751368E+03 0.  0.
        4    1    3    3  502    0  0.29496286077E+02 -0.14389286558E+03  0.77864577643E+02  0.16625189625E+03  0.12699999809E+01 0. -1.
       -4    1    3    3    0  502 -0.29496286077E+02  0.14389286558E+03 -0.40847326362E+03  0.43408202871E+03  0.12699999809E+01 0.  1.
</event>
<event>
 5   0  0.8012875E-03  0.4991663E+03  0.7818609E-02  0.1013997E+00
        4   -1    0    0  501    0  0.00000000000E+00  0.00000000000E+00  0.52425180024E+03  0.52425333852E+03  0.12699999809E+01 0. -1.
       -4   -1    0    0    0  501  0.00000000000E+00  0.00000000000E+00 -0.11881515998E+03  0.11882194722E+03  0.12699999809E+01 0.  1.
    10030    2    1    2    0    0  0.00000000000E+00  0.00000000000E+00  0.40543664026E+03  0.64307528574E+03  0.49916625874E+03 0.  0.
        2    1    3    3  502    0  0.13848209722E+03  0.19590911203E+03  0.11407749309E+03  0.26565267901E+03  0.25500000920E-02 0.  1.
       -2    1    3    3    0  502 -0.13848209722E+03 -0.19590911203E+03  0.29135914717E+03  0.37742260673E+03  0.25500000920E-02 0. -1.
</event>
<event>
 5   0  0.1855407E-02  0.5001684E+03  0.7818609E-02  0.1013735E+00
       -2   -1    0    0    0  501  0.00000000000E+00  0.00000000000E+00  0.85621504132E+03  0.85621504132E+03  0.25500000920E-02 0. -1.
        2   -1    0    0  501    0  0.00000000000E+00  0.00000000000E+00 -0.73044852817E+02  0.73044852862E+02  0.25500000920E-02 0.  1.
    10030    2    1    2    0    0  0.00000000000E+00  0.00000000000E+00  0.78317018850E+03  0.92925989418E+03  0.50016837843E+03 0.  0.
        1    1    3    3  502    0  0.22180500186E+03  0.22286076844E+02  0.18099483447E+03  0.28714675377E+03  0.50400001928E-02 0.  1.
       -1    1    3    3    0  502 -0.22180500186E+03 -0.22286076844E+02  0.60217535402E+03  0.64211314041E+03  0.50400001928E-02 0. -1.
</event>
<event>
 5   0  0.1225989E-02  0.5021605E+03  0.7818609E-02  0.1013217E+00
        1   -1    0    0  501    0  0.00000000000E+00  0.00000000000E+00  0.10831337214E+04  0.10831337214E+04  0.50400001928E-02 0.  1.
       -1   -1    0    0    0  501  0.00000000000E+00  0.00000000000E+00 -0.58202676302E+02  0.58202676520E+02  0.50400001928E-02 0. -1.
    10030    2    1    2    0    0  0.00000000000E+00  0.00000000000E+00  0.10249310451E+04  0.11413363979E+04  0.50216045845E+03 0.  0.
        3    1    3    3  502    0  0.67440568737E+02 -0.79516348590E+02  0.10316029849E+04  0.10368586252E+04  0.10100000352E+00 0.  1.
       -3    1    3    3    0  502 -0.67440568737E+02  0.79516348590E+02 -0.66719398375E+01  0.10447777269E+03  0.10100000352E+00 0. -1.
</event>
<event>
 5   0  0.1225989E-02  0.4998392E+03  0.7818609E-02  0.1013821E+00
       -1   -1    0    0    0  501  0.00000000000E+00  0.00000000000E+00  0.16919149576E+03  0.16919149583E+03  0.50400001928E-02 0. -1.
        1   -1    0    0  501    0  0.00000000000E+00  0.00000000000E+00 -0.36916631942E+03  0.36916631946E+03  0.50400001928E-02 0.  1.
    10030    2    1    2    0    0  0.00000000000E+00  0.00000000000E+00 -0.19997482366E+03  0.53835781529E+03  0.49983918132E+03 0.  0.
        3    1    3    3  502    0  0.20565439129E+03  0.12801127290E+03 -0.33775010499E+02  0.24458408817E+03  0.10100000352E+00 0. -1.
       -3    1    3    3    0  502 -0.20565439129E+03 -0.12801127290E+03 -0.16619981317E+03  0.29377372712E+03  0.10100000352E+00 0.  1.
</event>
<event>
 5   0  0.1225989E-02  0.4990319E+03  0.7818609E-02  0.1014032E+00
        1   -1    0    0  501    0  0.00000000000E+00  0.00000000000E+00  0.79656049263E+03  0.79656049264E+03  0.50400001928E-02 0. -1.
       -1   -1    0    0    0  501  0.00000000000E+00  0.00000000000E+00 -0.78158803410E+02  0.78158803573E+02  0.50400001928E-02 0.  1.
    10030    2    1    2    0    0  0.00000000000E+00  0.00000000000E+00  0.71840168922E+03  0.87471929622E+03  0.49903192293E+03 0.  0.
        3    1    3    3  502    0 -0.83916956850E+01 -0.11636182641E+03  0.74580950462E+03  0.75487901188E+03  0.10100000352E+00 0. -1.
       -3    1    3    3    0  502  0.83916956850E+01  0.11636182641E+03 -0.27407815401E+02  0.11984028433E+03  0.10100000352E+00 0.  1.
</event>
<event>
 5   0  0.8012875E-03  0.4990934E+03  0.7818609E-02  0.1014016E+00
       -4   -1    0    0    0  501  0.00000000000E+00  0.00000000000E+00  0.43846118131E+02  0.43864507009E+02  0.12699999809E+01 0.  1.
        4   -1    0    0  501    0  0.00000000000E+00  0.00000000000E+00 -0.14199587678E+04  0.14199593357E+04  0.12699999809E+01 0. -1.
    10030    2    1    2    0    0  0.00000000000E+00  0.00000000000E+00 -0.13761126496E+04  0.14638238427E+04  0.49909339608E+03 0.  0.
        4    1    3    3  502    0  0.84350324476E+01  0.23065730705E+03 -0.96627094750E+03  0.99345613892E+03  0.12699999809E+01 0.  1.
       -4    1    3    3    0  502 -0.84350324476E+01 -0.23065730705E+03 -0.40984170213E+03  0.47036770379E+03  0.12699999809E+01 0. -1.
</event>
<event>
 5   0  0.1923706E-02  0.5003120E+03  0.7818609E-02  0.1013698E+00
       -2   -1    0    0    0  501  0.00000000000E+00  0.00000000000E+00  0.34225956035E+02  0.34225956130E+02  0.25500000920E-02 0.  1.
        2   -1    0    0  501    0  0.00000000000E+00  0.00000000000E+00 -0.18283787852E+04  0.18283787852E+04  0.25500000920E-02 0. -1.
    10030    2    1    2    0    0  0.00000000000E+00  0.00000000000E+00 -0.17941528292E+04  0.18626047414E+04  0.50031195073E+03 0.  0.
        3    1    3    3  502    0  0.40205819523E+02  0.17604826519E+03 -0.15415607208E+04  0.15521014676E+04  0.10100000352E+00 0. -1.
       -3    1    3    3    0  502 -0.40205819523E+02 -0.17604826519E+03 -0.25259210844E+03  0.31050327381E+03  0.10100000352E+00 0.  1.
</event>
<event>
 5   0  0.1967813E-02  0.5000465E+03  0.7818609E-02  0.1013767E+00
       -2   -1    0    0    0  501  0.00000000000E+00  0.00000000000E+00  0.24353673389E+03  0.24353673390E+03  0.25500000920E-02 0.  1.
        2   -1    0    0  501    0  0.00000000000E+00  0.00000000000E+00 -0.25668251177E+03  0.25668251178E+03  0.25500000920E-02 0. -1.
    10030    2    1    2    0    0  0.00000000000E+00  0.00000000000E+00 -0.13145777883E+02  0.50021924569E+03  0.50004648012E+03 0.  0.
        5    1    3    3  502    0 -0.70039224070E+02 -0.22850568019E+03 -0.79872974374E+02  0.25203595145E+03  0.46999998093E+01 0. -1.
       -5    1    3    3    0  502  0.70039224070E+02  0.22850568019E+03  0.66727196492E+02  0.24818329424E+03  0.46999998093E+01 0.  1.
</event>
<event>
 5   0  0.1982847E-02  0.5004255E+03  0.7818609E-02  0.1013668E+00
        2   -1    0    0  501    0  0.00000000000E+00  0.00000000000E+00  0.23891850023E+03  0.23891850024E+03  0.25500000920E-02 0.  1.
       -2   -1    0    0    0  501  0.00000000000E+00  0.00000000000E+00 -0.26204089616E+03  0.26204089618E+03  0.25500000920E-02 0. -1.
    10030    2    1    2    0    0  0.00000000000E+00  0.00000000000E+00 -0.23122395937E+02  0.50095939642E+03  0.50042549062E+03 0.  0.
        2    1    3    3  502    0 -0.93834572484E+02  0.20780133778E+03  0.91602595389E+02  0.24571804668E+03  0.25500000920E-02 0.  1.
       -2    1    3    3    0  502  0.93834572484E+02 -0.20780133778E+03 -0.11472499133E+03  0.25524134974E+03  0.25500000920E-02 0. -1.
</event>
<event>
 5   0  0.1217270E-02  0.4979545E+03  0.7818609E-02  0.1014314E+00
       -1   -1    0    0    0  501  0.00000000000E+00  0.00000000000E+00  0.85012692078E+03  0.85012692079E+03  0.50400001928E-02 0.  1.
        1   -1    0    0  501    0  0.00000000000E+00  0.00000000000E+00 -0.72918147997E+02  0.72918148172E+02  0.50400001928E-02 0. -1.
    10030    2    1    2    0    0  0.00000000000E+00  0.00000000000E+00  0.77720877278E+03  0.92304506897E+03  0.49795453894E+03 0.  0.
        2    1    3    3  502    0 -0.47828471281E+02  0.21684029969E+03  0.17985078491E+03  0.28575091089E+03  0.25500000920E-02 0. -1.
       -2    1    3    3    0  502  0.47828471281E+02 -0.21684029969E+03  0.59735798787E+03  0.63729415807E+03  0.25500000920E-02 0.  1.
</event>
<event>
 5   0  0.1855407E-02  0.4998060E+03  0.7818609E-02  0.1013830E+00
       -2   -1    0    0    0  501  0.00000000000E+00  0.00000000000E+00  0.38226791840E+03  0.38226791841E+03  0.25500000920E-02 0. -1.
        2   -1    0    0  501    0  0.00000000000E+00  0.00000000000E+00 -0.16337107338E+03  0.16337107340E+03  0.25500000920E-02 0.  1.
    10030    2    1    2    0    0  0.00000000000E+00  0.00000000000E+00  0.21889684502E+03  0.54563899182E+03  0.49980604301E+03 0.  0.
        1    1    3    3  502    0 -0.74927540798E+02  0.18303486287E+03 -0.57319912383E+02  0.20591617172E+03  0.50400001928E-02 0.  1.
       -1    1    3    3    0  502  0.74927540798E+02 -0.18303486287E+03  0.27621675740E+03  0.33972282009E+03  0.50400001928E-02 0. -1.
</event>
<event>
 5   0  0.1227864E-02  0.5006353E+03  0.7818609E-02  0.1013613E+00
        1   -1    0    0  501    0  0.00000000000E+00  0.00000000000E+00  0.83522356181E+03  0.83522356183E+03  0.50400001928E-02 0. -1.
       -1   -1    0    0    0  501  0.00000000000E+00  0.00000000000E+00 -0.75020553630E+02  0.75020553799E+02  0.50400001928E-02 0.  1.
    10030    2    1    2    0    0  0.00000000000E+00  0.00000000000E+00  0.76020300818E+03  0.91024411563E+03  0.50063533274E+03 0.  0.
        5    1    3    3  502    0  0.13491447801E+03 -0.13212543148E+03  0.67873576644E+03  0.70453060733E+03  0.46999998093E+01 0.  1.
       -5    1    3    3    0  502 -0.13491447801E+03  0.13212543148E+03  0.81467241741E+02  0.20571350830E+03  0.46999998093E+01 0. -1.
</event>
<event>
 5   0  0.8012875E-03  0.5001405E+03  0.7818609E-02  0.1013742E+00
        4   -1    0    0  501    0  0.00000000000E+00  0.00000000000E+00  0.19276118846E+03  0.19276537209E+03  0.12699999809E+01 0.  1.
       -4   -1    0    0    0  501  0.00000000000E+00  0.00000000000E+00 -0.32440866605E+03  0.32441115195E+03  0.12699999809E+01 0. -1.
    10030    2    1    2    0    0  0.00000000000E+00  0.00000000000E+00 -0.13164747759E+03  0.51717652404E+03  0.50014047893E+03 0.  0.
        2    1    3    3  502    0  0.19667417187E+03  0.11583258267E+03  0.39818831127E+02  0.23169690634E+03  0.25500000920E-02 0.  1.
       -2    1    3    3    0  502 -0.19667417187E+03 -0.11583258267E+03 -0.17146630872E+03  0.28547961770E+03  0.25500000920E-02 0. -1.
</event>
<event>
 5   0  0.1180937E-02  0.4986277E+03  0.7818609E-02  0.1014138E+00
        1   -1    0    0  501    0  0.00000000000E+00  0.00000000000E+00  0.25030772045E+04  0.25030772045E+04  0.50400001928E-02 0.  1.
       -1   -1    0    0    0  501  0.00000000000E+00  0.00000000000E+00 -0.24832396083E+02  0.24832396595E+02  0.50400001928E-02 0. -1.
    10030    2    1    2    0    0  0.00000000000E+00  0.00000000000E+00  0.24782448084E+04  0.25279096011E+04  0.49862773778E+03 0.  0.
        1    1    3    3  502    0 -0.88234378336E+02 -0.23275726842E+03  0.13101264884E+04  0.13335638969E+04  0.50400001928E-02 0.  1.
       -1    1    3    3    0  502  0.88234378336E+02  0.23275726842E+03  0.11681183201E+04  0.11943457042E+04  0.50400001928E-02 0. -1.
</event>
<event>
 5   0  0.8012875E-03  0.4997983E+03  0.7818609E-02  0.1013832E+00
       -3   -1    0    0    0  501  0.00000000000E+00  0.00000000000E+00  0.14234073326E+03  0.14234076910E+03  0.10100000352E+00 0.  1.
        3   -1    0    0  501    0  0.00000000000E+00  0.00000000000E+00 -0.43873302363E+03  0.43873303526E+03  0.10100000352E+00 0. -1.
    10030    2    1    2    0    0  0.00000000000E+00  0.00000000000E+00 -0.29639229037E+03  0.58107380435E+03  0.49979833565E+03 0.  0.
        4    1    3    3  502    0  0.23059864725E+03  0.26902711384E+02 -0.40702899826E+02  0.23570708718E+03  0.12699999809E+01 0.  1.
       -4    1    3    3    0  502 -0.23059864725E+03 -0.26902711384E+02 -0.25568939054E+03  0.34536671717E+03  0.12699999809E+01 0. -1.
</event>
<event>
 5   0  0.1180937E-02  0.5020674E+03  0.7818609E-02  0.1013241E+00
       -1   -1    0    0    0  501  0.00000000000E+00  0.00000000000E+00  0.58204160770E+02  0.58204160989E+02  0.50400001928E-02 0. -1.
        1   -1    0    0  501    0  0.00000000000E+00  0.00000000000E+00 -0.10827047611E+04  0.10827047611E+04  0.50400001928E-02 0.  1.
    10030    2    1    2    0    0  0.00000000000E+00  0.00000000000E+00 -0.10245006003E+04  0.11409089221E+04  0.50206741424E+03 0.  0.
        1    1    3    3  502    0 -0.13184460412E+03 -0.16060819846E+03 -0.19216996110E+03  0.28303230738E+03  0.50400001928E-02 0. -1.
       -1    1    3    3    0  502  0.13184460412E+03  0.16060819846E+03 -0.83233063920E+03  0.85787661469E+03  0.50400001928E-02 0.  1.
</event>
<event>
 5   0  0.1217270E-02  0.5013521E+03  0.7818609E-02  0.1013427E+00
       -1   -1    0    0    0  501  0.00000000000E+00  0.00000000000E+00  0.83543862317E+02  0.83543862469E+02  0.50400001928E-02 0. -1.
        1   -1    0    0  501    0  0.00000000000E+00  0.00000000000E+00 -0.75216154260E+03  0.75216154262E+03  0.50400001928E-02 0.  1.
    10030    2    1    2    0    0  0.00000000000E+00  0.00000000000E+00 -0.66861768028E+03  0.83570540509E+03  0.50135209355E+03 0.  0.
        2    1    3    3  502    0 -0.15003496416E+03  0.37884572353E+02 -0.66304289704E+03  0.68086093632E+03  0.25500000920E-02 0.  1.
       -2    1    3    3    0  502  0.15003496416E+03 -0.37884572353E+02 -0.55747832434E+01  0.15484446876E+03  0.25500000920E-02 0. -1.
</event>
<event>
 5   0  0.1225989E-02  0.5003478E+03  0.7818609E-02  0.1013688E+00
       -1   -1    0    0    0  501  0.00000000000E+00  0.00000000000E+00  0.48932595298E+03  0.48932595301E+03  0.50400001928E-02 0. -1.
        1   -1    0    0  501    0  0.00000000000E+00  0.00000000000E+00 -0.12790446408E+03  0.12790446418E+03  0.50400001928E-02 0.  1.
    10030    2    1    2    0    0  0.00000000000E+00  0.00000000000E+00  0.36142148890E+03  0.61723041719E+03  0.50034777432E+03 0.  0.
        3    1    3    3  502    0  0.71952041225E+02  0.30526903833E+01 -0.11484089229E+03  0.13555388559E+03  0.10100000352E+00 0.  1.
       -3    1    3    3    0  502 -0.71952041225E+02 -0.30526903833E+01  0.47626238119E+03  0.48167653160E+03  0.10100000352E+00 0. -1.
</event>
<event>
 5   0  0.1209831E-02  0.5004529E+03  0.7818609E-02  0.1013661E+00
       -1   -1    0    0    0  501  0.00000000000E+00  0.00000000000E+00  0.17283253929E+03  0.17283253936E+03  0.50400001928E-02 0. -1.
        1   -1    0    0  501    0  0.00000000000E+00  0.00000000000E+00 -0.36227714805E+03  0.36227714808E+03  0.50400001928E-02 0.  1.
    10030    2    1    2    0    0  0.00000000000E+00  0.00000000000E+00 -0.18944460876E+03  0.53510968744E+03  0.50045291268E+03 0.  0.
        4    1    3    3  502    0 -0.42881849473E+02 -0.58669191784E+01  0.16879627469E+03  0.17426149605E+03  0.12699999809E+01 0. -1.
       -4    1    3    3    0  502  0.42881849473E+02  0.58669191784E+01 -0.35824088345E+03  0.36084819139E+03  0.12699999809E+01 0.  1.
</event>
<event>
 5   0  0.8012875E-03  0.4996760E+03  0.7818609E-02  0.1013864E+00
       -4   -1    0    0    0  501  0.00000000000E+00  0.00000000000E+00  0.39967436016E+03  0.39967637792E+03  0.12699999809E+01 0.  1.
        4   -1    0    0  501    0  0.00000000000E+00  0.00000000000E+00 -0.15616974044E+03  0.15617490428E+03  0.12699999809E+01 0. -1.
    10030    2    1    2    0    0  0.00000000000E+00  0.00000000000E+00  0.24350461972E+03  0.55585128221E+03  0.49967604316E+03 0.  0.
        4    1    3    3  502    0  0.23458765830E+03  0.77565346419E+01  0.21696619935E+03  0.31963647761E+03  0.12699999809E+01 0.  1.
       -4    1    3    3    0  502 -0.23458765830E+03 -0.77565346419E+01  0.26538420374E+02  0.23621480460E+03  0.12699999809E+01 0. -1.
</event>
<event>
 5   0  0.1982847E-02  0.5002402E+03  0.7818609E-02  0.1013716E+00
       -2   -1    0    0    0  501  0.00000000000E+00  0.00000000000E+00  0.11928894305E+03  0.11928894308E+03  0.25500000920E-02 0.  1.
        2   -1    0    0  501    0  0.00000000000E+00  0.00000000000E+00 -0.52444139704E+03  0.52444139704E+03  0.25500000920E-02 0. -1.
    10030    2    1    2    0    0  0.00000000000E+00  0.00000000000E+00 -0.40515245398E+03  0.64373034012E+03  0.50024018213E+03 0.  0.
        2    1    3    3  502    0 -0.46001354888E+02  0.22014407211E+03 -0.61724138763E+02  0.23321536495E+03  0.25500000920E-02 0. -1.
       -2    1    3    3    0  502  0.46001354888E+02 -0.22014407211E+03 -0.34342831522E+03  0.41051497517E+03  0.25500000920E-02 0.  1.
</event>
<event>
 5   0  0.8012875E-03  0.5006869E+03  0.7818609E-02  0.1013600E+00
       -4   -1    0    0    0  501  0.00000000000E+00  0.00000000000E+00  0.29612781788E+03  0.29613054118E+03  0.12699999809E+01 0. -1.
        4   -1    0    0  501    0  0.00000000000E+00  0.00000000000E+00 -0.21163217421E+03  0.21163598480E+03  0.12699999809E+01 0.  1.
    10030    2    1    2    0    0  0.00000000000E+00  0.00000000000E+00  0.84495643669E+02  0.50776652598E+03  0.50068685933E+03 0.  0.
        5    1    3    3  502    0 -0.14077851665E+03 -0.13925871046E+03  0.19750785129E+03  0.27971953902E+03  0.46999998093E+01 0. -1.
       -5    1    3    3    0  502  0.14077851665E+03  0.13925871046E+03 -0.11301220763E+03  0.22804698696E+03  0.46999998093E+01 0.  1.
</event>
<event>
 5   0  0.1225989E-02  0.4988286E+03  0.7818609E-02  0.1014085E+00
        1   -1    0    0  501    0  0.00000000000E+00  0.00000000000E+00  0.29585740406E+03  0.29585740410E+03  0.50400001928E-02 0. -1.
       -1   -1    0    0    0  501  0.00000000000E+00  0.00000000000E+00 -0.21026178136E+03  0.21026178142E+03  0.50400001928E-02 0.  1.
    10030    2    1    2    0    0  0.00000000000E+00  0.00000000000E+00  0.85595622696E+02  0.50611918552E+03  0.49882864726E+03 0.  0.
        3    1    3    3  502    0 -0.23163792705E+03  0.83869220224E+02  0.82319901315E+02  0.25974362687E+03  0.10100000352E+00 0.  1.
       -3    1    3    3    0  502  0.23163792705E+03 -0.83869220224E+02  0.32757213809E+01  0.24637555865E+03  0.10100000352E+00 0. -1.
</event>
<event>
 5   0  0.1227864E-02  0.4999737E+03  0.7818609E-02  0.1013786E+00
       -1   -1    0    0    0  501  0.00000000000E+00  0.00000000000E+00  0.22248395363E+03  0.22248395368E+03  0.50400001928E-02 0.  1.
        1   -1    0    0  501    0  0.00000000000E+00  0.00000000000E+00 -0.28088954594E+03  0.28088954598E+03  0.50400001928E-02 0. -1.
    10030    2    1    2    0    0  0.00000000000E+00  0.00000000000E+00 -0.58405592310E+02  0.50337349967E+03  0.49997366626E+03 0.  0.
        5    1    3    3  502    0 -0.17485963535E+03  0.15002116160E+03 -0.12675899497E+03  0.26300603378E+03  0.46999998093E+01 0. -1.
       -5    1    3    3    0  502  0.17485963535E+03 -0.15002116160E+03  0.68353402659E+02  0.24036746588E+03  0.46999998093E+01 0.  1.
</event>
<event>
 5   0  0.1923706E-02  0.4992085E+03  0.7818609E-02  0.1013986E+00
       -2   -1    0    0    0  501  0.00000000000E+00  0.00000000000E+00  0.49258949964E+03  0.49258949965E+03  0.25500000920E-02 0.  1.
        2   -1    0    0  501    0  0.00000000000E+00  0.00000000000E+00 -0.12647912761E+03  0.12647912763E+03  0.25500000920E-02 0. -1.
    10030    2    1    2    0    0  0.00000000000E+00  0.00000000000E+00  0.36611037204E+03  0.61906862728E+03  0.49920853435E+03 0.  0.
        3    1    3    3  502    0  0.75765974117E+02  0.28126243045E+02  0.47591507091E+03  0.48272842603E+03  0.10100000352E+00 0.  1.
       -3    1    3    3    0  502 -0.75765974117E+02 -0.28126243045E+02 -0.10980469887E+03  0.13634020125E+03  0.10100000352E+00 0. -1.
</event>
<event>
 5   0  0.1923706E-02  0.5008028E+03  0.7818609E-02  0.1013570E+00
       -2   -1    0    0    0  501  0.00000000000E+00  0.00000000000E+00  0.20972572228E+03  0.20972572230E+03  0.25500000920E-02 0.  1.
        2   -1    0    0  501    0  0.00000000000E+00  0.00000000000E+00 -0.29896603345E+03  0.29896603347E+03  0.25500000920E-02 0. -1.
    10030    2    1    2    0    0  0.00000000000E+00  0.00000000000E+00 -0.89240311174E+02  0.50869175576E+03  0.50080282471E+03 0.  0.
        3    1    3    3  502    0  0.64890041468E+02 -0.60993948652E+02 -0.28233637548E+03  0.29604867568E+03  0.10100000352E+00 0. -1.
       -3    1    3    3    0  502 -0.64890041468E+02  0.60993948652E+02  0.19309606430E+03  0.21264308008E+03  0.10100000352E+00 0.  1.
</event>
<event>
 5   0  0.1941387E-02  0.4998599E+03  0.7818609E-02  0.1013815E+00
       -2   -1    0    0    0  501  0.00000000000E+00  0.00000000000E+00  0.12141214721E+03  0.12141214723E+03  0.25500000920E-02 0.  1.
        2   -1    0    0  501    0  0.00000000000E+00  0.00000000000E+00 -0.51448710786E+03  0.51448710786E+03  0.25500000920E-02 0. -1.
    10030    2    1    2    0    0  0.00000000000E+00  0.00000000000E+00 -0.39307496065E+03  0.63589925510E+03  0.49985991832E+03 0.  0.
        4    1    3    3  502    0 -0.62509461883E+02 -0.55351931976E+02 -0.49621598418E+03  0.50319298987E+03  0.12699999809E+01 0. -1.
       -4    1    3    3    0  502  0.62509461883E+02  0.55351931976E+02  0.10314102353E+03  0.13270626523E+03  0.12699999809E+01 0.  1.
</event>
<event>
 5   0  0.1923706E-02  0.4995720E+03  0.7818609E-02  0.1013891E+00
       -2   -1    0    0    0  501  0.00000000000E+00  0.00000000000E+00  0.14135144100E+03  0.14135144102E+03  0.25500000920E-02 0. -1.
        2   -1    0    0  501    0  0.00000000000E+00  0.00000000000E+00 -0.44140375504E+03  0.44140375505E+03  0.25500000920E-02 0.  1.
    10030    2    1    2    0    0  0.00000000000E+00  0.00000000000E+00 -0.30005231404E+03  0.58275519607E+03  0.49957204424E+03 0.  0.
        3    1    3    3  502    0  0.37112044096E+02 -0.25373525205E+02 -0.43664553312E+03  0.43895381465E+03  0.10100000352E+00 0.  1.
       -3    1    3    3    0  502 -0.37112044096E+02  0.25373525205E+02  0.13659321908E+03  0.14380138142E+03  0.10100000352E+00 0. -1.
</event>
<event>
 5   0  0.1855407E-02  0.5005846E+03  0.7818609E-02  0.1013626E+00
       -2   -1    0    0    0  501  0.00000000000E+00  0.00000000000E+00  0.17209964699E+03  0.17209964701E+03  0.25500000920E-02 0. -1.
        2   -1    0    0  501    0  0.00000000000E+00  0.00000000000E+00 -0.36401143571E+03  0.36401143572E+03  0.25500000920E-02 0.  1.
    10030    2    1    2    0    0  0.00000000000E+00  0.00000000000E+00 -0.19191178871E+03  0.53611108273E+03  0.50058461660E+03 0.  0.
        1    1    3    3  502    0 -0.13965570070E+03 -0.12373574662E+03  0.82713191189E+02  0.20409733401E+03  0.50400001928E-02 0. -1.
       -1    1    3    3    0  502  0.13965570070E+03  0.12373574662E+03 -0.27462497990E+03  0.33201374872E+03  0.50400001928E-02 0.  1.
</event>
<event>
 5   0  0.1923706E-02  0.5014061E+03  0.7818609E-02  0.1013413E+00
       -2   -1    0    0    0  501  0.00000000000E+00  0.00000000000E+00  0.14949541240E+03  0.14949541242E+03  0.25500000920E-02 0. -1.
        2   -1    0    0  501    0  0.00000000000E+00  0.00000000000E+00 -0.42042770917E+03  0.42042770918E+03  0.25500000920E-02 0.  1.
    10030    2    1    2    0    0  0.00000000000E+00  0.00000000000E+00 -0.27093229678E+03  0.56992312160E+03  0.50140607804E+03 0.  0.
        3    1    3    3  502    0  0.24352919513E+03 -0.34550893579E+02 -0.19058804430E+03  0.31116562464E+03  0.10100000352E+00 0.  1.
       -3    1    3    3    0  502 -0.24352919513E+03  0.34550893579E+02 -0.80344252479E+02  0.25875749696E+03  0.10100000352E+00 0. -1.
</event>
<event>
 5   0  0.1967813E-02  0.5004403E+03  0.7818609E-02  0.1013664E+00
       -2   -1    0    0    0  501  0.00000000000E+00  0.00000000000E+00  0.92082518073E+02  0.92082518108E+02  0.25500000920E-02 0.  1.
        2   -1    0    0  501    0  0.00000000000E+00  0.00000000000E+00 -0.67993501941E+03  0.67993501941E+03  0.25500000920E-02 0. -1.
    10030    2    1    2    0    0  0.00000000000E+00  0.00000000000E+00 -0.58785250134E+03  0.77201753752E+03  0.50044032103E+03 0.  0.
        5    1    3    3  502    0  0.18834146980E+03 -0.37499640965E+02 -0.54128088541E+03  0.57435687445E+03  0.46999998093E+01 0. -1.
       -5    1    3    3    0  502 -0.18834146980E+03  0.37499640965E+02 -0.46571615926E+02  0.19766066307E+03  0.46999998093E+01 0.  1.
</event>
<event>
 5   0  0.1225989E-02  0.5020239E+03  0.7818609E-02  0.1013252E+00
       -1   -1    0    0    0  501  0.00000000000E+00  0.00000000000E+00  0.47843894968E+02  0.47843895234E+02  0.50400001928E-02 0. -1.
        1   -1    0    0  501    0  0.00000000000E+00  0.00000000000E+00 -0.13169286418E+04  0.13169286418E+04  0.50400001928E-02 0.  1.
    10030    2    1    2    0    0  0.00000000000E+00  0.00000000000E+00 -0.12690847468E+04  0.13647725370E+04  0.50202388711E+03 0.  0.
        3    1    3    3  502    0 -0.14081652153E+03 -0.54134941345E+00 -0.69652050153E+02  0.15710189078E+03  0.10100000352E+00 0. -1.
       -3    1    3    3    0  502  0.14081652153E+03  0.54134941345E+00 -0.11994326967E+04  0.12076706463E+04  0.10100000352E+00 0.  1.
</event>
<event>
 5   0  0.8012875E-03  0.5004770E+03  0.7818609E-02  0.1013654E+00
       -3   -1    0    0    0  501  0.00000000000E+00  0.00000000000E+00  0.58568879969E+03  0.58568880840E+03  0.10100000352E+00 0. -1.
        3   -1    0    0  501    0  0.00000000000E+00  0.00000000000E+00 -0.10691563910E+03  0.10691568680E+03  0.10100000352E+00 0.  1.
    10030    2    1    2    0    0  0.00000000000E+00  0.00000000000E+00  0.47877316060E+03  0.69260449520E+03  0.50047701992E+03 0.  0.
        4    1    3    3  502    0 -0.10138467525E+03  0.22165370358E+03  0.31777483360E+03  0.40048929381E+03  0.12699999809E+01 0. -1.
       -4    1    3    3    0  502  0.10138467525E+03 -0.22165370358E+03  0.16099832700E+03  0.29211520139E+03  0.12699999809E+01 0.  1.
</event>
<event>
 5   0  0.1180937E-02  0.4972837E+03  0.7818609E-02  0.1014490E+00
       -1   -1    0    0    0  501  0.00000000000E+00  0.00000000000E+00  0.41843777182E+03  0.41843777185E+03  0.50400001928E-02 0.  1.
        1   -1    0    0  501    0  0.00000000000E+00  0.00000000000E+00 -0.14774665423E+03  0.14774665432E+03  0.50400001928E-02 0. -1.
    10030    2    1    2    0    0  0.00000000000E+00  0.00000000000E+00  0.27069111759E+03  0.56618442617E+03  0.49728374526E+03 0.  0.
        1    1    3    3  502    0  0.66981608648E+02 -0.37488850912E+02  0.40461017774E+03  0.41182683958E+03  0.50400001928E-02 0.  1.
       -1    1    3    3    0  502 -0.66981608648E+02  0.37488850912E+02 -0.13391906016E+03  0.15435758659E+03  0.50400001928E-02 0. -1.
</event>
<event>
 5   0  0.1180937E-02  0.5017761E+03  0.7818609E-02  0.1013316E+00
        1   -1    0    0  501    0  0.00000000000E+00  0.00000000000E+00  0.14823358451E+03  0.14823358460E+03  0.50400001928E-02 0. -1.
       -1   -1    0    0    0  501  0.00000000000E+00  0.00000000000E+00 -0.42463262108E+03  0.42463262111E+03  0.50400001928E-02 0.  1.
    10030    2    1    2    0    0  0.00000000000E+00  0.00000000000E+00 -0.27639903657E+03  0.57286620571E+03  0.50177610767E+03 0.  0.
        1    1    3    3  502    0 -0.16808203552E+03  0.89599637214E+02  0.48230241299E+02  0.19648364271E+03  0.50400001928E-02 0. -1.
       -1    1    3    3    0  502  0.16808203552E+03 -0.89599637214E+02 -0.32462927787E+03  0.37638256300E+03  0.50400001928E-02 0.  1.
</event>
<event>
 5   0  0.1209831E-02  0.4985618E+03  0.7818609E-02  0.1014155E+00
        1   -1    0    0  501    0  0.00000000000E+00  0.00000000000E+00  0.96313492333E+03  0.96313492335E+03  0.50400001928E-02 0. -1.
       -1   -1    0    0    0  501  0.00000000000E+00  0.00000000000E+00 -0.64519487304E+02  0.64519487501E+02  0.50400001928E-02 0.  1.
    10030    2    1    2    0    0  0.00000000000E+00  0.00000000000E+00  0.89861543603E+03  0.10276544108E+04  0.49856181790E+03 0.  0.
        4    1    3    3  502    0  0.12399431920E+03 -0.52784933980E+02  0.88157102498E+03  0.89181271881E+03  0.12699999809E+01 0. -1.
       -4    1    3    3    0  502 -0.12399431920E+03  0.52784933980E+02  0.17044411053E+02  0.13584169204E+03  0.12699999809E+01 0.  1.
</event>
<event>
 5   0  0.1217270E-02  0.4998512E+03  0.7818609E-02  0.1013818E+00
       -1   -1    0    0    0  501  0.00000000000E+00  0.00000000000E+00  0.51520668964E+02  0.51520669211E+02  0.50400001928E-02 0. -1.
        1   -1    0    0  501    0  0.00000000000E+00  0.00000000000E+00 -0.12123833288E+04  0.12123833288E+04  0.50400001928E-02 0.  1.
    10030    2    1    2    0    0  0.00000000000E+00  0.00000000000E+00 -0.11608626598E+04  0.12639039980E+04  0.49985117906E+03 0.  0.
        2    1    3    3  502    0  0.10353242412E+03 -0.16908785635E+03 -0.96518100529E+03  0.98533448077E+03  0.25500000920E-02 0.  1.
       -2    1    3    3    0  502 -0.10353242412E+03  0.16908785635E+03 -0.19568165452E+03  0.27856951723E+03  0.25500000920E-02 0. -1.
</event>
<event>
 5   0  0.1941387E-02  0.5002610E+03  0.7818609E-02  0.1013711E+00
        2   -1    0    0  501    0  0.00000000000E+00  0.00000000000E+00  0.99921377611E+03  0.99921377611E+03  0.25500000920E-02 0.  1.
       -2   -1    0    0    0  501  0.00000000000E+00  0.00000000000E+00 -0.62614496422E+02  0.62614496474E+02  0.25500000920E-02 0. -1.
    10030    2    1    2    0    0  0.00000000000E+00  0.00000000000E+00  0.93659927969E+03  0.10618282726E+04  0.50026100163E+03 0.  0.
        4    1    3    3  502    0 -0.16808439888E+03 -0.12377895307E+03  0.76079622954E+03  0.78891451385E+03  0.12699999809E+01 0.  1.
       -4    1    3    3    0  502  0.16808439888E+03  0.12377895307E+03  0.17580305014E+03  0.27291375874E+03  0.12699999809E+01 0. -1.
</event>
<event>
 5   0  0.1923706E-02  0.4996234E+03  0.7818609E-02  0.1013877E+00
        2   -1    0    0  501    0  0.00000000000E+00  0.00000000000E+00  0.69589327828E+03  0.69589327829E+03  0.25500000920E-02 0.  1.
       -2   -1    0    0    0  501  0.00000000000E+00  0.00000000000E+00 -0.89677377827E+02  0.89677377863E+02  0.25500000920E-02 0. -1.
    10030    2    1    2    0    0  0.00000000000E+00  0.00000000000E+00  0.60621590046E+03  0.78557065615E+03  0.49962339601E+03 0.  0.
        3    1    3    3  502    0  0.10523320580E+02 -0.60392501280E+02 -0.77667239972E+02  0.98945464033E+02  0.10100000352E+00 0. -1.
       -3    1    3    3    0  502 -0.10523320580E+02  0.60392501280E+02  0.68388314043E+03  0.68662519212E+03  0.10100000352E+00 0.  1.
</event>
<event>
 5   0  0.1209831E-02  0.4995099E+03  0.7818609E-02  0.1013907E+00
       -1   -1    0    0    0  501  0.00000000000E+00  0.00000000000E+00  0.17861618572E+03  0.17861618579E+03  0.50400001928E-02 0.  1.
        1   -1    0    0  501    0  0.00000000000E+00  0.00000000000E+00 -0.34922663867E+03  0.34922663870E+03  0.50400001928E-02 0. -1.
    10030    2    1    2    0    0  0.00000000000E+00  0.00000000000E+00 -0.17061045295E+03  0.52784282449E+03  0.49950988050E+03 0.  0.
        4    1    3    3  502    0 -0.12693569000E+03 -0.17794027068E+03 -0.21299159088E+03  0.30519246389E+03  0.12699999809E+01 0. -1.
       -4    1    3    3    0  502  0.12693569000E+03  0.17794027068E+03  0.42381137938E+02  0.22265036061E+03  0.12699999809E+01 0.  1.
</event>
<event>
 5   0  0.1923706E-02  0.5073070E+03  0.7818609E-02  0.1011889E+00
       -2   -1    0    0    0  501  0.00000000000E+00  0.00000000000E+00  0.10643773479E+03  0.10643773482E+03  0.25500000920E-02 0. -1.
        2   -1    0    0  501    0  0.00000000000E+00  0.00000000000E+00 -0.60448581883E+03  0.60448581884E+03  0.25500000920E-02 0.  1.
    10030    2    1    2    0    0  0.00000000000E+00  0.00000000000E+00 -0.49804808404E+03  0.71092355366E+03  0.50730701269E+03 0.  0.
        3    1    3    3  502    0 -0.39402646896E+02 -0.84125323684E+02 -0.57978967543E+03  0.58718456775E+03  0.10100000352E+00 0.  1.
       -3    1    3    3    0  502  0.39402646896E+02  0.84125323684E+02  0.81741591395E+02  0.12373898590E+03  0.10100000352E+00 0. -1.
</event>
<event>
 5   0  0.1855407E-02  0.5009543E+03  0.7818609E-02  0.1013530E+00
       -2   -1    0    0    0  501  0.00000000000E+00  0.00000000000E+00  0.41571243681E+02  0.41571243759E+02  0.25500000920E-02 0. -1.
        2   -1    0    0  501    0  0.00000000000E+00  0.00000000000E+00 -0.15091876536E+04  0.15091876536E+04  0.25500000920E-02 0.  1.
    10030    2    1    2    0    0  0.00000000000E+00  0.00000000000E+00 -0.14676164099E+04  0.15507588974E+04  0.50095432036E+03 0.  0.
        1    1    3    3  502    0  0.14354376826E+03 -0.23429760801E+02 -0.13650775793E+04  0.13728039062E+04  0.50400001928E-02 0.  1.
       -1    1    3    3    0  502 -0.14354376826E+03  0.23429760801E+02 -0.10253883060E+03  0.17795499123E+03  0.50400001928E-02 0. -1.
</event>
<event>
 5   0  0.8012875E-03  0.4995454E+03  0.7818609E-02  0.1013898E+00
        3   -1    0    0  501    0  0.00000000000E+00  0.00000000000E+00  0.96520329089E+02  0.96520381933E+02  0.10100000352E+00 0.  1.
       -3   -1    0    0    0  501  0.00000000000E+00  0.00000000000E+00 -0.64635469154E+03  0.64635469944E+03  0.10100000352E+00 0. -1.
    10030    2    1    2    0    0  0.00000000000E+00  0.00000000000E+00 -0.54983436245E+03  0.74287508137E+03  0.49954535368E+03 0.  0.
        4    1    3    3  502    0 -0.73882042266E+02 -0.23231341523E+03 -0.35577915917E+03  0.43128702979E+03  0.12699999809E+01 0. -1.
       -4    1    3    3    0  502  0.73882042266E+02  0.23231341523E+03 -0.19405520328E+03  0.31158805158E+03  0.12699999809E+01 0.  1.
</event>
<event>
 5   0  0.1982847E-02  0.4956151E+03  0.7818609E-02  0.1014930E+00
       -2   -1    0    0    0  501  0.00000000000E+00  0.00000000000E+00  0.14298130287E+03  0.14298130289E+03  0.25500000920E-02 0.  1.
        2   -1    0    0  501    0  0.00000000000E+00  0.00000000000E+00 -0.42948679323E+03  0.42948679323E+03  0.25500000920E-02 0. -1.
    10030    2    1    2    0    0  0.00000000000E+00  0.00000000000E+00 -0.28650549036E+03  0.57246809613E+03  0.49561509771E+03 0.  0.
        2    1    3    3  502    0  0.13702514053E+03 -0.20235336088E+03 -0.19067814544E+03  0.30996923549E+03  0.25500000920E-02 0. -1.
       -2    1    3    3    0  502 -0.13702514053E+03  0.20235336088E+03 -0.95827344913E+02  0.26249886064E+03  0.25500000920E-02 0.  1.
</event>
<event>
 5   0  0.8012875E-03  0.5000199E+03  0.7818609E-02  0.1013774E+00
        4   -1    0    0  501    0  0.00000000000E+00  0.00000000000E+00  0.23389908994E+03  0.23390253777E+03  0.12699999809E+01 0.  1.
       -4   -1    0    0    0  501  0.00000000000E+00  0.00000000000E+00 -0.26722357002E+03  0.26722658789E+03  0.12699999809E+01 0. -1.
    10030    2    1    2    0    0  0.00000000000E+00  0.00000000000E+00 -0.33324480076E+02  0.50112912566E+03  0.50001987921E+03 0.  0.
        2    1    3    3  502    0  0.15209373600E+03  0.13492239463E+03 -0.16247869035E+03  0.26026118022E+03  0.25500000920E-02 0. -1.
       -2    1    3    3    0  502 -0.15209373600E+03 -0.13492239463E+03  0.12915421028E+03  0.24086794544E+03  0.25500000920E-02 0.  1.
</event>
<event>
 5   0  0.1209831E-02  0.4993274E+03  0.7818609E-02  0.1013955E+00
        1   -1    0    0  501    0  0.00000000000E+00  0.00000000000E+00  0.24901084122E+03  0.24901084127E+03  0.50400001928E-02 0. -1.
       -1   -1    0    0    0  501  0.00000000000E+00  0.00000000000E+00 -0.25031826858E+03  0.25031826863E+03  0.50400001928E-02 0.  1.
    10030    2    1    2    0    0  0.00000000000E+00  0.00000000000E+00 -0.13074273638E+01  0.49932910991E+03  0.49932739824E+03 0.  0.
        4    1    3    3  502    0  0.92624305733E+02  0.11321111039E+03 -0.20297675457E+03  0.25019431113E+03  0.12699999809E+01 0.  1.
       -4    1    3    3    0  502 -0.92624305733E+02 -0.11321111039E+03  0.20166932720E+03  0.24913479878E+03  0.12699999809E+01 0. -1.
</event>
<event>
 5   0  0.1967813E-02  0.5006677E+03  0.7818609E-02  0.1013605E+00
       -2   -1    0    0    0  501  0.00000000000E+00  0.00000000000E+00  0.42560609649E+02  0.42560609726E+02  0.25500000920E-02 0. -1.
        2   -1    0    0  501    0  0.00000000000E+00  0.00000000000E+00 -0.14724187606E+04  0.14724187606E+04  0.25500000920E-02 0.  1.
    10030    2    1    2    0    0  0.00000000000E+00  0.00000000000E+00 -0.14298581509E+04  0.15149793703E+04  0.50066771483E+03 0.  0.
        5    1    3    3  502    0 -0.86259536292E+02 -0.22625679738E+03 -0.52326388981E+03  0.57659347407E+03  0.46999998093E+01 0. -1.
       -5    1    3    3    0  502  0.86259536292E+02  0.22625679738E+03 -0.90659426111E+03  0.93838589623E+03  0.46999998093E+01 0.  1.
</event>
<event>
 5   0  0.1967813E-02  0.4978749E+03  0.7818609E-02  0.1014335E+00
       -2   -1    0    0    0  501  0.00000000000E+00  0.00000000000E+00  0.23352957004E+02  0.23352957144E+02  0.25500000920E-02 0. -1.
        2   -1    0    0  501    0  0.00000000000E+00  0.00000000000E+00 -0.26536192450E+04  0.26536192450E+04  0.25500000920E-02 0.  1.
    10030    2    1    2    0    0  0.00000000000E+00  0.00000000000E+00 -0.26302662880E+04  0.26769722022E+04  0.49787490928E+03 0.  0.
        5    1    3    3  502    0 -0.10845663231E+02 -0.24360486854E+03 -0.10470036621E+04  0.10750347524E+04  0.46999998093E+01 0. -1.
       -5    1    3    3    0  502  0.10845663231E+02  0.24360486854E+03 -0.15832626259E+04  0.16019374497E+04  0.46999998093E+01 0.  1.
</event>
<event>
 5   0  0.1227864E-02  0.4992718E+03  0.7818609E-02  0.1013969E+00
       -1   -1    0    0    0  501  0.00000000000E+00  0.00000000000E+00  0.25481344342E+03  0.25481344346E+03  0.50400001928E-02 0.  1.
        1   -1    0    0  501    0  0.00000000000E+00  0.00000000000E+00 -0.24456358535E+03  0.24456358540E+03  0.50400001928E-02 0. -1.
    10030    2    1    2    0    0  0.00000000000E+00  0.00000000000E+00  0.10249858066E+02  0.49937702887E+03  0.49927182713E+03 0.  0.
        5    1    3    3  502    0  0.16047119059E+02 -0.31470554961E+02  0.25225611509E+03  0.25476095356E+03  0.46999998093E+01 0.  1.
       -5    1    3    3    0  502 -0.16047119059E+02  0.31470554961E+02 -0.24200625703E+03  0.24461607531E+03  0.46999998093E+01 0. -1.
</event>
<event>
 5   0  0.1209831E-02  0.5011021E+03  0.7818609E-02  0.1013492E+00
        1   -1    0    0  501    0  0.00000000000E+00  0.00000000000E+00  0.12703437004E+04  0.12703437005E+04  0.50400001928E-02 0. -1.
       -1   -1    0    0    0  501  0.00000000000E+00  0.00000000000E+00 -0.49416404764E+02  0.49416405021E+02  0.50400001928E-02 0.  1.
    10030    2    1    2    0    0  0.00000000000E+00  0.00000000000E+00  0.12209272957E+04  0.13197601055E+04  0.50110206013E+03 0.  0.
        4    1    3    3  502    0  0.17872883025E+02 -0.45707133007E+02 -0.36624811495E+02  0.61250074876E+02  0.12699999809E+01 0.  1.
       -4    1    3    3    0  502 -0.17872883025E+02  0.45707133007E+02  0.12575521072E+04  0.12585100306E+04  0.12699999809E+01 0. -1.
</event>
<event>
 5   0  0.1180937E-02  0.4999144E+03  0.7818609E-02  0.1013801E+00
       -1   -1    0    0    0  501  0.00000000000E+00  0.00000000000E+00  0.24919755253E+03  0.24919755258E+03  0.50400001928E-02 0. -1.
        1   -1    0    0  501    0  0.00000000000E+00  0.00000000000E+00 -0.25071918830E+03  0.25071918835E+03  0.50400001928E-02 0.  1.
    10030    2    1    2    0    0  0.00000000000E+00  0.00000000000E+00 -0.15216357655E+01  0.49991674093E+03  0.49991442517E+03 0.  0.
        1    1    3    3  502    0  0.11915830444E+03  0.17166520907E+03 -0.13791451580E+03  0.25037583593E+03  0.50400001928E-02 0.  1.
       -1    1    3    3    0  502 -0.11915830444E+03 -0.17166520907E+03  0.13639288004E+03  0.24954090501E+03  0.50400001928E-02 0. -1.
</event>
<event>
 5   0  0.8012875E-03  0.4976628E+03  0.7818609E-02  0.1014391E+00
        3   -1    0    0  501    0  0.00000000000E+00  0.00000000000E+00  0.12979020470E+03  0.12979024400E+03  0.10100000352E+00 0.  1.
       -3   -1    0    0    0  501  0.00000000000E+00  0.00000000000E+00 -0.47705489024E+03  0.47705490093E+03  0.10100000352E+00 0. -1.
    10030    2    1    2    0    0  0.00000000000E+00  0.00000000000E+00 -0.34726468554E+03  0.60684514492E+03  0.49766280562E+03 0.  0.
        4    1    3    3  502    0 -0.48982896860E+01  0.18736558397E+03  0.25936793678E+02  0.18921993940E+03  0.12699999809E+01 0.  1.
       -4    1    3    3    0  502  0.48982896860E+01 -0.18736558397E+03 -0.37320147922E+03  0.41762520552E+03  0.12699999809E+01 0. -1.
</event>
<event>
 5   0  0.1227864E-02  0.5001109E+03  0.7818609E-02  0.1013750E+00
       -1   -1    0    0    0  501  0.00000000000E+00  0.00000000000E+00  0.54983340161E+02  0.54983340392E+02  0.50400001928E-02 0.  1.
        1   -1    0    0  501    0  0.00000000000E+00  0.00000000000E+00 -0.11372120874E+04  0.11372120875E+04  0.50400001928E-02 0. -1.
    10030    2    1    2    0    0  0.00000000000E+00  0.00000000000E+00 -0.10822287473E+04  0.11921954278E+04  0.50011086445E+03 0.  0.
        5    1    3    3  502    0 -0.14482460691E+02  0.86530758300E+02 -0.10992045647E+04  0.11027103331E+04  0.46999998093E+01 0. -1.
       -5    1    3    3    0  502  0.14482460691E+02 -0.86530758300E+02  0.16975817401E+02  0.89485094705E+02  0.46999998093E+01 0.  1.
</event>
<event>
 5   0  0.1225989E-02  0.5000051E+03  0.7818609E-02  0.1013778E+00
        1   -1    0    0  501    0  0.00000000000E+00  0.00000000000E+00  0.84205913542E+02  0.84205913693E+02  0.50400001928E-02 0.  1.
       -1   -1    0    0    0  501  0.00000000000E+00  0.00000000000E+00 -0.74224334111E+03  0.74224334112E+03  0.50400001928E-02 0. -1.
    10030    2    1    2    0    0  0.00000000000E+00  0.00000000000E+00 -0.65803742756E+03  0.82644925482E+03  0.50000511469E+03 0.  0.
        3    1    3    3  502    0  0.11871104753E+03 -0.19480608716E+03 -0.15997535132E+03  0.27862851188E+03  0.10100000352E+00 0.  1.
       -3    1    3    3    0  502 -0.11871104753E+03  0.19480608716E+03 -0.49806207625E+03  0.54782074294E+03  0.10100000352E+00 0. -1.
</event>
<event>
 5   0  0.1209831E-02  0.5004425E+03  0.7818609E-02  0.1013663E+00
       -1   -1    0    0    0  501  0.00000000000E+00  0.00000000000E+00  0.15410005903E+03  0.15410005911E+03  0.50400001928E-02 0.  1.
        1   -1    0    0  501    0  0.00000000000E+00  0.00000000000E+00 -0.40629887775E+03  0.40629887778E+03  0.50400001928E-02 0. -1.
    10030    2    1    2    0    0  0.00000000000E+00  0.00000000000E+00 -0.25219881872E+03  0.56039893689E+03  0.50044252847E+03 0.  0.
        4    1    3    3  502    0 -0.24572250319E+02 -0.23503846412E+03 -0.21818398189E+03  0.32164069698E+03  0.12699999809E+01 0. -1.
       -4    1    3    3    0  502  0.24572250319E+02  0.23503846412E+03 -0.34014836836E+02  0.23875823991E+03  0.12699999809E+01 0.  1.
</event>
<event>
 5   0  0.1227864E-02  0.4947194E+03  0.7818609E-02  0.1015166E+00
        1   -1    0    0  501    0  0.00000000000E+00  0.00000000000E+00  0.24701710563E+03  0.24701710568E+03  0.50400001928E-02 0. -1.
       -1   -1    0    0    0  501  0.00000000000E+00  0.00000000000E+00 -0.24770278365E+03  0.24770278371E+03  0.50400001928E-02 0.  1.
    10030    2    1    2    0    0  0.00000000000E+00  0.00000000000E+00 -0.68567802040E+00  0.49471988939E+03  0.49471941422E+03 0.  0.
        5    1    3    3  502    0  0.82915911399E+02  0.23165177263E+03  0.24699999914E+02  0.24732523551E+03  0.46999998093E+01 0.  1.
       -5    1    3    3    0  502 -0.82915911399E+02 -0.23165177263E+03 -0.25385677935E+02  0.24739465388E+03  0.46999998093E+01 0. -1.
</event>
<event>
 5   0  0.1855407E-02  0.4997298E+03  0.7818609E-02  0.1013849E+00
        2   -1    0    0  501    0  0.00000000000E+00  0.00000000000E+00  0.66278414444E+03  0.66278414444E+03  0.25500000920E-02 0.  1.
       -2   -1    0    0    0  501  0.00000000000E+00  0.00000000000E+00 -0.94197270427E+02  0.94197270461E+02  0.25500000920E-02 0. -1.
    10030    2    1    2    0    0  0.00000000000E+00  0.00000000000E+00  0.56858687401E+03  0.75698141490E+03  0.49972975618E+03 0.  0.
        1    1    3    3  502    0 -0.45511737912E+02  0.10444308857E+03 -0.52563397562E+02  0.12546946970E+03  0.50400001928E-02 0. -1.
       -1    1    3    3    0  502  0.45511737912E+02 -0.10444308857E+03  0.62115027157E+03  0.63151194520E+03  0.50400001928E-02 0.  1.
</event>
<event>
 5   0  0.1180937E-02  0.4978575E+03  0.7818609E-02  0.1014340E+00
       -1   -1    0    0    0  501  0.00000000000E+00  0.00000000000E+00  0.78368518841E+02  0.78368519003E+02  0.50400001928E-02 0.  1.
        1   -1    0    0  501    0  0.00000000000E+00  0.00000000000E+00 -0.79069407934E+03  0.79069407936E+03  0.50400001928E-02 0. -1.
    10030    2    1    2    0    0  0.00000000000E+00  0.00000000000E+00 -0.71232556050E+03  0.86906259836E+03  0.49785750544E+03 0.  0.
        1    1    3    3  502    0  0.23707604106E+03  0.54054019559E+02 -0.44916664133E+03  0.51076174288E+03  0.50400001928E-02 0. -1.
       -1    1    3    3    0  502 -0.23707604106E+03 -0.54054019559E+02 -0.26315891917E+03  0.35830085548E+03  0.50400001928E-02 0.  1.
</event>
<event>
 5   0  0.1941387E-02  0.5004420E+03  0.7818609E-02  0.1013664E+00
       -2   -1    0    0    0  501  0.00000000000E+00  0.00000000000E+00  0.63943723774E+02  0.63943723824E+02  0.25500000920E-02 0.  1.
        2   -1    0    0  501    0  0.00000000000E+00  0.00000000000E+00 -0.97915067998E+03  0.97915067998E+03  0.25500000920E-02 0. -1.
    10030    2    1    2    0    0  0.00000000000E+00  0.00000000000E+00 -0.91520695620E+03  0.10430944038E+04  0.50044196723E+03 0.  0.
        4    1    3    3  502    0  0.97334021569E+02 -0.19644875272E+03 -0.20624389082E+03  0.30100528168E+03  0.12699999809E+01 0.  1.
       -4    1    3    3    0  502 -0.97334021569E+02  0.19644875272E+03 -0.70896306538E+03  0.74208912212E+03  0.12699999809E+01 0. -1.
</event>
<event>
 5   0  0.1967813E-02  0.5007173E+03  0.7818609E-02  0.1013592E+00
       -2   -1    0    0    0  501  0.00000000000E+00  0.00000000000E+00  0.43531780525E+02  0.43531780599E+02  0.25500000920E-02 0.  1.
        2   -1    0    0  501    0  0.00000000000E+00  0.00000000000E+00 -0.14398547671E+04  0.14398547671E+04  0.25500000920E-02 0. -1.
    10030    2    1    2    0    0  0.00000000000E+00  0.00000000000E+00 -0.13963229866E+04  0.14833865477E+04  0.50071725261E+03 0.  0.
        5    1    3    3  502    0 -0.12766931604E+03  0.15416368694E+03 -0.11434422051E+04  0.11608393786E+04  0.46999998093E+01 0. -1.
       -5    1    3    3    0  502  0.12766931604E+03 -0.15416368694E+03 -0.25288078151E+03  0.32254716909E+03  0.46999998093E+01 0.  1.
</event>
<event>
 5   0  0.8012875E-03  0.4997812E+03  0.7818609E-02  0.1013836E+00
       -4   -1    0    0    0  501  0.00000000000E+00  0.00000000000E+00  0.35943830792E+03  0.35944055156E+03  0.12699999809E+01 0.  1.
        4   -1    0    0  501    0  0.00000000000E+00  0.00000000000E+00 -0.17372515839E+03  0.17372980043E+03  0.12699999809E+01 0. -1.
    10030    2    1    2    0    0  0.00000000000E+00  0.00000000000E+00  0.18571314954E+03  0.53317035199E+03  0.49978120245E+03 0.  0.
        4    1    3    3  502    0 -0.16025960893E+03  0.10001804569E+03  0.26736016277E+03  0.32736802112E+03  0.12699999809E+01 0.  1.
       -4    1    3    3    0  502  0.16025960893E+03 -0.10001804569E+03 -0.81647013235E+02  0.20580233086E+03  0.12699999809E+01 0. -1.
</event>
<event>
 5   0  0.1180937E-02  0.5000609E+03  0.7818609E-02  0.1013763E+00
        1   -1    0    0  501    0  0.00000000000E+00  0.00000000000E+00  0.23293073533E+03  0.23293073538E+03  0.50400001928E-02 0.  1.
       -1   -1    0    0    0  501  0.00000000000E+00  0.00000000000E+00 -0.26838544275E+03  0.26838544280E+03  0.50400001928E-02 0. -1.
    10030    2    1    2    0    0  0.00000000000E+00  0.00000000000E+00 -0.35454707421E+02  0.50131617818E+03  0.50006087052E+03 0.  0.
        1    1    3    3  502    0  0.95070304678E+02  0.22714310606E+03 -0.61228274184E+02  0.25373461539E+03  0.50400001928E-02 0. -1.
       -1    1    3    3    0  502 -0.95070304678E+02 -0.22714310606E+03  0.25773566763E+02  0.24758156279E+03  0.50400001928E-02 0.  1.
</event>
<event>
 5   0  0.1982847E-02  0.5000524E+03  0.7818609E-02  0.1013765E+00
       -2   -1    0    0    0  501  0.00000000000E+00  0.00000000000E+00  0.67483895505E+02  0.67483895554E+02  0.25500000920E-02 0.  1.
        2   -1    0    0  501    0  0.00000000000E+00  0.00000000000E+00 -0.92634107453E+03  0.92634107453E+03  0.25500000920E-02 0. -1.
    10030    2    1    2    0    0  0.00000000000E+00  0.00000000000E+00 -0.85885717902E+03  0.99382497009E+03  0.50005241446E+03 0.  0.
        2    1    3    3  502    0 -0.30277493945E+02  0.22159480206E+03 -0.65156127804E+03  0.68887813290E+03  0.25500000920E-02 0. -1.
       -2    1    3    3    0  502  0.30277493945E+02 -0.22159480206E+03 -0.20729590098E+03  0.30494683718E+03  0.25500000920E-02 0.  1.
</event>
<event>
 5   0  0.1225989E-02  0.4992053E+03  0.7818609E-02  0.1013987E+00
       -1   -1    0    0    0  501  0.00000000000E+00  0.00000000000E+00  0.19950093907E+03  0.19950093913E+03  0.50400001928E-02 0.  1.
        1   -1    0    0  501    0  0.00000000000E+00  0.00000000000E+00 -0.31228670097E+03  0.31228670101E+03  0.50400001928E-02 0. -1.
    10030    2    1    2    0    0  0.00000000000E+00  0.00000000000E+00 -0.11278576190E+03  0.51178764015E+03  0.49920532902E+03 0.  0.
        3    1    3    3  502    0  0.97761750522E+02 -0.71376784439E+02 -0.28018234653E+03  0.30521166873E+03  0.10100000352E+00 0. -1.
       -3    1    3    3    0  502 -0.97761750522E+02  0.71376784439E+02  0.16739658463E+03  0.20657597142E+03  0.10100000352E+00 0.  1.
</event>
<event>
 5   0  0.1225989E-02  0.4983697E+03  0.7818609E-02  0.1014205E+00
       -1   -1    0    0    0  501  0.00000000000E+00  0.00000000000E+00  0.17797343381E+03  0.17797343388E+03  0.50400001928E-02 0. -1.
        1   -1    0    0  501    0  0.00000000000E+00  0.00000000000E+00 -0.34888966334E+03  0.34888966338E+03  0.50400001928E-02 0.  1.
    10030    2    1    2    0    0  0.00000000000E+00  0.00000000000E+00 -0.17091622953E+03  0.52686309726E+03  0.49836970789E+03 0.  0.
        3    1    3    3  502    0  0.16559249984E+03  0.12870144458E+03  0.56801984069E+02  0.21728187554E+03  0.10100000352E+00 0. -1.
       -3    1    3    3    0  502 -0.16559249984E+03 -0.12870144458E+03 -0.22771821360E+03  0.30958122173E+03  0.10100000352E+00 0.  1.
</event>
<event>
 5   0  0.1982847E-02  0.4999476E+03  0.7818609E-02  0.1013793E+00
        2   -1    0    0  501    0  0.00000000000E+00  0.00000000000E+00  0.37313227141E+03  0.37313227142E+03  0.25500000920E-02 0. -1.
       -2   -1    0    0    0  501  0.00000000000E+00  0.00000000000E+00 -0.16746583498E+03  0.16746583500E+03  0.25500000920E-02 0.  1.
    10030    2    1    2    0    0  0.00000000000E+00  0.00000000000E+00  0.20566643643E+03  0.54059810642E+03  0.49994762685E+03 0.  0.
        2    1    3    3  502    0  0.23270298026E+03  0.86995918239E+02  0.13279818613E+03  0.28169899726E+03  0.25500000920E-02 0. -1.
       -2    1    3    3    0  502 -0.23270298026E+03 -0.86995918239E+02  0.72868250298E+02  0.25889910916E+03  0.25500000920E-02 0.  1.
</event>
<event>
 5   0  0.1225989E-02  0.4998207E+03  0.7818609E-02  0.1013826E+00
        1   -1    0    0  501    0  0.00000000000E+00  0.00000000000E+00  0.43419652630E+03  0.43419652633E+03  0.50400001928E-02 0. -1.
       -1   -1    0    0    0  501  0.00000000000E+00  0.00000000000E+00 -0.14384084224E+03  0.14384084233E+03  0.50400001928E-02 0.  1.
    10030    2    1    2    0    0  0.00000000000E+00  0.00000000000E+00  0.29035568406E+03  0.57803736866E+03  0.49982074417E+03 0.  0.
        3    1    3    3  502    0 -0.61304759182E+02  0.11966344380E+03  0.38880371054E+03  0.41139512492E+03  0.10100000352E+00 0. -1.
       -3    1    3    3    0  502  0.61304759182E+02 -0.11966344380E+03 -0.98448026481E+02  0.16664224374E+03  0.10100000352E+00 0.  1.
</event>
<event>
 5   0  0.1923706E-02  0.4944585E+03  0.7818609E-02  0.1015236E+00
       -2   -1    0    0    0  501  0.00000000000E+00  0.00000000000E+00  0.18983347845E+03  0.18983347846E+03  0.25500000920E-02 0. -1.
        2   -1    0    0  501    0  0.00000000000E+00  0.00000000000E+00 -0.32197847927E+03  0.32197847928E+03  0.25500000920E-02 0.  1.
    10030    2    1    2    0    0  0.00000000000E+00  0.00000000000E+00 -0.13214500082E+03  0.51181195774E+03  0.49445847030E+03 0.  0.
        3    1    3    3  502    0  0.19914327130E+03 -0.20236251277E+02 -0.21626751208E+03  0.29468490859E+03  0.10100000352E+00 0.  1.
       -3    1    3    3    0  502 -0.19914327130E+03  0.20236251277E+02  0.84122511255E+02  0.21712704915E+03  0.10100000352E+00 0. -1.
</event>
<event>
 5   0  0.1923706E-02  0.4987688E+03  0.7818609E-02  0.1014101E+00
       -2   -1    0    0    0  501  0.00000000000E+00  0.00000000000E+00  0.18066240864E+03  0.18066240866E+03  0.25500000920E-02 0. -1.
        2   -1    0    0  501    0  0.00000000000E+00  0.00000000000E+00 -0.34424751251E+03  0.34424751252E+03  0.25500000920E-02 0.  1.
    10030    2    1    2    0    0  0.00000000000E+00  0.00000000000E+00 -0.16358510387E+03  0.52490992118E+03  0.49876882335E+03 0.  0.
        3    1    3    3  502    0  0.10130766517E+03 -0.74136084936E+02  0.14498479010E+03  0.19178112961E+03  0.10100000352E+00 0. -1.
       -3    1    3    3    0  502 -0.10130766517E+03  0.74136084936E+02 -0.30856989397E+03  0.33312879158E+03  0.10100000352E+00 0.  1.
</event>
<event>
 5   0  0.1982847E-02  0.5001116E+03  0.7818609E-02  0.1013750E+00
       -2   -1    0    0    0  501  0.00000000000E+00  0.00000000000E+00  0.52734853525E+02  0.52734853587E+02  0.25500000920E-02 0. -1.
        2   -1    0    0  501    0  0.00000000000E+00  0.00000000000E+00 -0.11857036226E+04  0.11857036226E+04  0.25500000920E-02 0.  1.
    10030    2    1    2    0    0  0.00000000000E+00  0.00000000000E+00 -0.11329687691E+04  0.12384384762E+04  0.50011161515E+03 0.  0.
        2    1    3    3  502    0 -0.16943699957E+03 -0.13832322828E+03 -0.26639216115E+03  0.34468390713E+03  0.25500000920E-02 0. -1.
       -2    1    3    3    0  502  0.16943699957E+03  0.13832322828E+03 -0.86657660794E+03  0.89375456908E+03  0.25500000920E-02 0.  1.
</event>
<event>
 5   0  0.1209831E-02  0.5003461E+03  0.7818609E-02  0.1013689E+00
        1   -1    0    0  501    0  0.00000000000E+00  0.00000000000E+00  0.69529575268E+03  0.69529575270E+03  0.50400001928E-02 0.  1.
       -1   -1    0    0    0  501  0.00000000000E+00  0.00000000000E+00 -0.90014274473E+02  0.90014274614E+02  0.50400001928E-02 0. -1.
    10030    2    1    2    0    0  0.00000000000E+00  0.00000000000E+00  0.60528147820E+03  0.78531002731E+03  0.50034605138E+03 0.  0.
        4    1    3    3  502    0  0.43052992010E+02 -0.24940216386E+01 -0.84131204433E+02  0.94548679125E+02  0.12699999809E+01 0. -1.
       -4    1    3    3    0  502 -0.43052992010E+02  0.24940216386E+01  0.68941268264E+03  0.69076134818E+03  0.12699999809E+01 0.  1.
</event>
<event>
 5   0  0.1855407E-02  0.5002985E+03  0.7818609E-02  0.1013701E+00
       -2   -1    0    0    0  501  0.00000000000E+00  0.00000000000E+00  0.42655323471E+02  0.42655323548E+02  0.25500000920E-02 0. -1.
        2   -1    0    0  501    0  0.00000000000E+00  0.00000000000E+00 -0.14669833703E+04  0.14669833703E+04  0.25500000920E-02 0.  1.
    10030    2    1    2    0    0  0.00000000000E+00  0.00000000000E+00 -0.14243280468E+04  0.15096386938E+04  0.50029851187E+03 0.  0.
        1    1    3    3  502    0 -0.12144150985E+03 -0.69516347805E+02 -0.86489927621E+02  0.16450249400E+03  0.50400001928E-02 0. -1.
       -1    1    3    3    0  502  0.12144150985E+03  0.69516347805E+02 -0.13378381192E+04  0.13451361998E+04  0.50400001928E-02 0.  1.
</event>
<event>
 5   0  0.1982847E-02  0.4992080E+03  0.7818609E-02  0.1013986E+00
       -2   -1    0    0    0  501  0.00000000000E+00  0.00000000000E+00  0.23403342541E+03  0.23403342543E+03  0.25500000920E-02 0.  1.
        2   -1    0    0  501    0  0.00000000000E+00  0.00000000000E+00 -0.26621047211E+03  0.26621047213E+03  0.25500000920E-02 0. -1.
    10030    2    1    2    0    0  0.00000000000E+00  0.00000000000E+00 -0.32177046704E+02  0.50024389755E+03  0.49920796739E+03 0.  0.
        2    1    3    3  502    0 -0.43962248334E+02  0.23808614601E+03  0.44737161339E+02  0.24620947547E+03  0.25500000920E-02 0.  1.
       -2    1    3    3    0  502  0.43962248334E+02 -0.23808614601E+03 -0.76914208043E+02  0.25403442209E+03  0.25500000920E-02 0. -1.
</event>
<event>
 5   0  0.1855407E-02  0.4996297E+03  0.7818609E-02  0.1013876E+00
        2   -1    0    0  501    0  0.00000000000E+00  0.00000000000E+00  0.55541156807E+03  0.55541156807E+03  0.25500000920E-02 0. -1.
       -2   -1    0    0    0  501  0.00000000000E+00  0.00000000000E+00 -0.11236256918E+03  0.11236256921E+03  0.25500000920E-02 0.  1.
    10030    2    1    2    0    0  0.00000000000E+00  0.00000000000E+00  0.44304899889E+03  0.66777413728E+03  0.49962974591E+03 0.  0.
        1    1    3    3  502    0  0.23451811784E+03  0.26944577132E+02  0.11226537653E+03  0.26139677241E+03  0.50400001928E-02 0.  1.
       -1    1    3    3    0  502 -0.23451811784E+03 -0.26944577132E+02  0.33078362236E+03  0.40637736487E+03  0.50400001928E-02 0. -1.
</event>
<event>
 5   0  0.1923706E-02  0.5005185E+03  0.7818609E-02  0.1013644E+00
       -2   -1    0    0    0  501  0.00000000000E+00  0.00000000000E+00  0.27612209187E+02  0.27612209305E+02  0.25500000920E-02 0.  1.
        2   -1    0    0  501    0  0.00000000000E+00  0.00000000000E+00 -0.22681885593E+04  0.22681885593E+04  0.25500000920E-02 0. -1.
    10030    2    1    2    0    0  0.00000000000E+00  0.00000000000E+00 -0.22405763502E+04  0.22958007687E+04  0.50051851959E+03 0.  0.
        3    1    3    3  502    0  0.18984530885E+03 -0.92334207293E+02 -0.50382511114E+03  0.54626605235E+03  0.10100000352E+00 0.  1.
       -3    1    3    3    0  502 -0.18984530885E+03  0.92334207293E+02 -0.17367512390E+04  0.17495347163E+04  0.10100000352E+00 0. -1.
</event>
<event>
 5   0  0.8012875E-03  0.5002617E+03  0.7818609E-02  0.1013711E+00
        4   -1    0    0  501    0  0.00000000000E+00  0.00000000000E+00  0.21539763900E+03  0.21540138297E+03  0.12699999809E+01 0. -1.
       -4   -1    0    0    0  501  0.00000000000E+00  0.00000000000E+00 -0.29045720880E+03  0.29045998528E+03  0.12699999809E+01 0.  1.
    10030    2    1    2    0    0  0.00000000000E+00  0.00000000000E+00 -0.75059569806E+02  0.50586136825E+03  0.50026171637E+03 0.  0.
        4    1    3    3  502    0 -0.12888520640E+03 -0.21314425447E+03 -0.14427529233E+02  0.24950277782E+03  0.12699999809E+01 0. -1.
       -4    1    3    3    0  502  0.12888520640E+03  0.21314425447E+03 -0.60632040573E+02  0.25635859043E+03  0.12699999809E+01 0.  1.
</event>
<event>
 5   0  0.1855407E-02  0.4993102E+03  0.7818609E-02  0.1013959E+00
        2   -1    0    0  501    0  0.00000000000E+00  0.00000000000E+00  0.74067568760E+03  0.74067568761E+03  0.25500000920E-02 0. -1.
       -2   -1    0    0    0  501  0.00000000000E+00  0.00000000000E+00 -0.84149742195E+02  0.84149742234E+02  0.25500000920E-02 0.  1.
    10030    2    1    2    0    0  0.00000000000E+00  0.00000000000E+00  0.65652594541E+03  0.82482542984E+03  0.49931019689E+03 0.  0.
        1    1    3    3  502    0  0.16675832612E+03 -0.71925381307E+02  0.61125002740E+03  0.63765836922E+03  0.50400001928E-02 0. -1.
       -1    1    3    3    0  502 -0.16675832612E+03  0.71925381307E+02  0.45275918007E+02  0.18716706063E+03  0.50400001928E-02 0.  1.
</event>
<event>
 5   0  0.1941387E-02  0.4989082E+03  0.7818609E-02  0.1014064E+00
        2   -1    0    0  501    0  0.00000000000E+00  0.00000000000E+00  0.12285002306E+04  0.12285002306E+04  0.25500000920E-02 0. -1.
       -2   -1    0    0    0  501  0.00000000000E+00  0.00000000000E+00 -0.50653101637E+02  0.50653101701E+02  0.25500000920E-02 0.  1.
    10030    2    1    2    0    0  0.00000000000E+00  0.00000000000E+00  0.11778471290E+04  0.12791533323E+04  0.49890819630E+03 0.  0.
        4    1    3    3  502    0 -0.56525258042E+02 -0.24070597156E+03  0.50422676289E+03  0.56158766978E+03  0.12699999809E+01 0. -1.
       -4    1    3    3    0  502  0.56525258042E+02  0.24070597156E+03  0.67362036608E+03  0.71756566253E+03  0.12699999809E+01 0.  1.
</event>
<event>
 5   0  0.1209831E-02  0.4991110E+03  0.7818609E-02  0.1014011E+00
        1   -1    0    0  501    0  0.00000000000E+00  0.00000000000E+00  0.21255282923E+03  0.21255282929E+03  0.50400001928E-02 0. -1.
       -1   -1    0    0    0  501  0.00000000000E+00  0.00000000000E+00 -0.29299986023E+03  0.29299986027E+03  0.50400001928E-02 0.  1.
    10030    2    1    2    0    0  0.00000000000E+00  0.00000000000E+00 -0.80447030999E+02  0.50555268956E+03  0.49911100681E+03 0.  0.
        4    1    3    3  502    0  0.12322315190E+03 -0.15116444719E+03  0.11748343135E+03  0.22768092762E+03  0.12699999809E+01 0. -1.
       -4    1    3    3    0  502 -0.12322315190E+03  0.15116444719E+03 -0.19793046235E+03  0.27787176194E+03  0.12699999809E+01 0.  1.
</event>
<event>
 5   0  0.8012875E-03  0.4999166E+03  0.7818609E-02  0.1013801E+00
       -4   -1    0    0    0  501  0.00000000000E+00  0.00000000000E+00  0.11964129278E+04  0.11964136019E+04  0.12699999809E+01 0.  1.
        4   -1    0    0  501    0  0.00000000000E+00  0.00000000000E+00 -0.52213649071E+02  0.52229091982E+02  0.12699999809E+01 0. -1.
    10030    2    1    2    0    0  0.00000000000E+00  0.00000000000E+00  0.11441992787E+04  0.12486426939E+04  0.49991658047E+03 0.  0.
        3    1    3    3  502    0 -0.99119074000E+02  0.21228373900E+03  0.35449602522E+03  0.42491930855E+03  0.10100000352E+00 0. -1.
       -3    1    3    3    0  502  0.99119074000E+02 -0.21228373900E+03  0.78970325352E+03  0.82372338530E+03  0.10100000352E+00 0.  1.
</event>
<event>
 5   0  0.1225989E-02  0.4998005E+03  0.7818609E-02  0.1013831E+00
        1   -1    0    0  501    0  0.00000000000E+00  0.00000000000E+00  0.25744474975E+03  0.25744474980E+03  0.50400001928E-02 0.  1.
       -1   -1    0    0    0  501  0.00000000000E+00  0.00000000000E+00 -0.24257686286E+03  0.24257686291E+03  0.50400001928E-02 0. -1.
    10030    2    1    2    0    0  0.00000000000E+00  0.00000000000E+00  0.14867886893E+02  0.50002161271E+03  0.49980051932E+03 0.  0.
        3    1    3    3  502    0  0.10480500772E+03  0.13181536364E+03  0.19215242521E+03  0.25550331592E+03  0.10100000352E+00 0.  1.
       -3    1    3    3    0  502 -0.10480500772E+03 -0.13181536364E+03 -0.17728453831E+03  0.24451829678E+03  0.10100000352E+00 0. -1.
</event>
<event>
 5   0  0.1227864E-02  0.5000896E+03  0.7818609E-02  0.1013756E+00
        1   -1    0    0  501    0  0.00000000000E+00  0.00000000000E+00  0.31455170804E+02  0.31455171208E+02  0.50400001928E-02 0. -1.
       -1   -1    0    0    0  501  0.00000000000E+00  0.00000000000E+00 -0.19876668585E+04  0.19876668585E+04  0.50400001928E-02 0.  1.
    10030    2    1    2    0    0  0.00000000000E+00  0.00000000000E+00 -0.19562116877E+04  0.20191220297E+04  0.50008959577E+03 0.  0.
        5    1    3    3  502    0 -0.76027723128E+02  0.23471184658E+03 -0.11411359722E+04  0.11675115685E+04  0.46999998093E+01 0.  1.
       -5    1    3    3    0  502  0.76027723128E+02 -0.23471184658E+03 -0.81507571554E+03  0.85161046123E+03  0.46999998093E+01 0. -1.
</event>
<event>
 5   0  0.1180937E-02  0.4995955E+03  0.7818609E-02  0.1013885E+00
       -1   -1    0    0    0  501  0.00000000000E+00  0.00000000000E+00  0.47447661958E+03  0.47447661960E+03  0.50400001928E-02 0. -1.
        1   -1    0    0  501    0  0.00000000000E+00  0.00000000000E+00 -0.13151105369E+03  0.13151105379E+03  0.50400001928E-02 0.  1.
    10030    2    1    2    0    0  0.00000000000E+00  0.00000000000E+00  0.34296556589E+03  0.60598767339E+03  0.49959551731E+03 0.  0.
        1    1    3    3  502    0 -0.80410665165E+01 -0.24946440257E+03  0.15924614272E+03  0.29606837200E+03  0.50400001928E-02 0. -1.
       -1    1    3    3    0  502  0.80410665165E+01  0.24946440257E+03  0.18371942316E+03  0.30991930139E+03  0.50400001928E-02 0.  1.
</event>
<event>
 5   0  0.1941387E-02  0.4980263E+03  0.7818609E-02  0.1014295E+00
       -2   -1    0    0    0  501  0.00000000000E+00  0.00000000000E+00  0.71481879356E+02  0.71481879402E+02  0.25500000920E-02 0. -1.
        2   -1    0    0  501    0  0.00000000000E+00  0.00000000000E+00 -0.86745838928E+03  0.86745838929E+03  0.25500000920E-02 0.  1.
    10030    2    1    2    0    0  0.00000000000E+00  0.00000000000E+00 -0.79597650993E+03  0.93894026869E+03  0.49802632843E+03 0.  0.
        4    1    3    3  502    0 -0.24849560265E+03  0.13552594068E+02 -0.38196792599E+03  0.45588907283E+03  0.12699999809E+01 0. -1.
       -4    1    3    3    0  502  0.24849560265E+03 -0.13552594068E+02 -0.41400858394E+03  0.48305119586E+03  0.12699999809E+01 0.  1.
</event>
<event>
 5   0  0.1180937E-02  0.4999406E+03  0.7818609E-02  0.1013794E+00
        1   -1    0    0  501    0  0.00000000000E+00  0.00000000000E+00  0.17731193167E+03  0.17731193174E+03  0.50400001928E-02 0.  1.
       -1   -1    0    0    0  501  0.00000000000E+00  0.00000000000E+00 -0.35240245992E+03  0.35240245996E+03  0.50400001928E-02 0. -1.
    10030    2    1    2    0    0  0.00000000000E+00  0.00000000000E+00 -0.17509052825E+03  0.52971439170E+03  0.49994064017E+03 0.  0.
        1    1    3    3  502    0  0.21794726911E+03 -0.76549746864E+02  0.13664579149E+02  0.23140353629E+03  0.50400001928E-02 0.  1.
       -1    1    3    3    0  502 -0.21794726911E+03  0.76549746864E+02 -0.18875510740E+03  0.29831085541E+03  0.50400001928E-02 0. -1.
</event>
<event>
 5   0  0.1967813E-02  0.5000624E+03  0.7818609E-02  0.1013763E+00
        2   -1    0    0  501    0  0.00000000000E+00  0.00000000000E+00  0.21811936111E+04  0.21811936111E+04  0.25500000920E-02 0. -1.
       -2   -1    0    0    0  501  0.00000000000E+00  0.00000000000E+00 -0.28661183766E+02  0.28661183879E+02  0.25500000920E-02 0.  1.
    10030    2    1    2    0    0  0.00000000000E+00  0.00000000000E+00  0.21525324273E+04  0.22098547950E+04  0.50006236028E+03 0.  0.
        5    1    3    3  502    0 -0.16953993702E+03  0.14277454864E+03  0.15871549320E+04  0.16025639551E+04  0.46999998093E+01 0.  1.
       -5    1    3    3    0  502  0.16953993702E+03 -0.14277454864E+03  0.56537749529E+03  0.60729083985E+03  0.46999998093E+01 0. -1.
</event>
<event>
 5   0  0.1967813E-02  0.4996335E+03  0.7818609E-02  0.1013875E+00
        2   -1    0    0  501    0  0.00000000000E+00  0.00000000000E+00  0.14694692741E+03  0.14694692744E+03  0.25500000920E-02 0. -1.
       -2   -1    0    0    0  501  0.00000000000E+00  0.00000000000E+00 -0.42470030060E+03  0.42470030061E+03  0.25500000920E-02 0.  1.
    10030    2    1    2    0    0  0.00000000000E+00  0.00000000000E+00 -0.27775337319E+03  0.57164722805E+03  0.49963348268E+03 0.  0.
        5    1    3    3  502    0  0.77965219249E+02  0.23712319615E+03 -0.14913112587E+03  0.29080606641E+03  0.46999998093E+01 0. -1.
       -5    1    3    3    0  502 -0.77965219249E+02 -0.23712319615E+03 -0.12862224732E+03  0.28084116163E+03  0.46999998093E+01 0.  1.
</event>
<event>
 5   0  0.1967813E-02  0.4996733E+03  0.7818609E-02  0.1013864E+00
        2   -1    0    0  501    0  0.00000000000E+00  0.00000000000E+00  0.23112164637E+03  0.23112164639E+03  0.25500000920E-02 0.  1.
       -2   -1    0    0    0  501  0.00000000000E+00  0.00000000000E+00 -0.27006713732E+03  0.27006713734E+03  0.25500000920E-02 0. -1.
    10030    2    1    2    0    0  0.00000000000E+00  0.00000000000E+00 -0.38945490949E+02  0.50118878372E+03  0.49967333896E+03 0.  0.
        5    1    3    3  502    0  0.97521863540E+02  0.94905558523E+02 -0.22958046296E+03  0.26692107050E+03  0.46999998093E+01 0. -1.
       -5    1    3    3    0  502 -0.97521863540E+02 -0.94905558523E+02  0.19063497201E+03  0.23426771322E+03  0.46999998093E+01 0.  1.
</event>
<event>
 5   0  0.8012875E-03  0.5015798E+03  0.7818609E-02  0.1013367E+00
        3   -1    0    0  501    0  0.00000000000E+00  0.00000000000E+00  0.51598602755E+02  0.51598701604E+02  0.10100000352E+00 0. -1.
       -3   -1    0    0    0  501  0.00000000000E+00  0.00000000000E+00 -0.12189381738E+04  0.12189381780E+04  0.10100000352E+00 0.  1.
    10030    2    1    2    0    0  0.00000000000E+00  0.00000000000E+00 -0.11673395711E+04  0.12705368796E+04  0.50157979253E+03 0.  0.
        1    1    3    3  502    0 -0.10304385295E+03  0.13607695126E+02 -0.11618114790E+04  0.11664515068E+04  0.50400001928E-02 0.  1.
       -1    1    3    3    0  502  0.10304385295E+03 -0.13607695126E+02 -0.55280920400E+01  0.10408537277E+03  0.50400001928E-02 0. -1.
</event>
<event>
 5   0  0.1982847E-02  0.4995363E+03  0.7818609E-02  0.1013900E+00
       -2   -1    0    0    0  501  0.00000000000E+00  0.00000000000E+00  0.49258749756E+03  0.49258749756E+03  0.25500000920E-02 0. -1.
        2   -1    0    0  501    0  0.00000000000E+00  0.00000000000E+00 -0.12664578835E+03  0.12664578838E+03  0.25500000920E-02 0.  1.
    10030    2    1    2    0    0  0.00000000000E+00  0.00000000000E+00  0.36594170920E+03  0.61923328594E+03  0.49953631288E+03 0.  0.
        2    1    3    3  502    0  0.16776640769E+03  0.11954260061E+03  0.78901299078E+01  0.20615104915E+03  0.25500000920E-02 0.  1.
       -2    1    3    3    0  502 -0.16776640769E+03 -0.11954260061E+03  0.35805157930E+03  0.41308223679E+03  0.25500000920E-02 0. -1.
</event>
<event>
 5   0  0.1209831E-02  0.4995622E+03  0.7818609E-02  0.1013893E+00
        1   -1    0    0  501    0  0.00000000000E+00  0.00000000000E+00  0.29846867925E+03  0.29846867929E+03  0.50400001928E-02 0. -1.
       -1   -1    0    0    0  501  0.00000000000E+00  0.00000000000E+00 -0.20903570028E+03  0.20903570034E+03  0.50400001928E-02 0.  1.
    10030    2    1    2    0    0  0.00000000000E+00  0.00000000000E+00  0.89432978964E+02  0.50750437964E+03  0.49956224599E+03 0.  0.
        4    1    3    3  502    0 -0.11061877287E+03 -0.28518710151E+02 -0.18093909738E+03  0.21398691456E+03  0.12699999809E+01 0.  1.
       -4    1    3    3    0  502  0.11061877287E+03  0.28518710151E+02  0.27037207635E+03  0.29351746508E+03  0.12699999809E+01 0. -1.
</event>
<event>
 5   0  0.1855407E-02  0.4994753E+03  0.7818609E-02  0.1013916E+00
       -2   -1    0    0    0  501  0.00000000000E+00  0.00000000000E+00  0.48886516695E+02  0.48886516762E+02  0.25500000920E-02 0.  1.
        2   -1    0    0  501    0  0.00000000000E+00  0.00000000000E+00 -0.12757894210E+04  0.12757894210E+04  0.25500000920E-02 0. -1.
    10030    2    1    2    0    0  0.00000000000E+00  0.00000000000E+00 -0.12269029043E+04  0.13246759377E+04  0.49947532822E+03 0.  0.
        1    1    3    3  502    0 -0.96374794474E+02 -0.79733117597E+02 -0.40176503270E+02  0.13137588246E+03  0.50400001928E-02 0.  1.
       -1    1    3    3    0  502  0.96374794474E+02  0.79733117597E+02 -0.11867264010E+04  0.11933000553E+04  0.50400001928E-02 0. -1.
</event>
<event>
 5   0  0.1967813E-02  0.5006405E+03  0.7818609E-02  0.1013612E+00
       -2   -1    0    0    0  501  0.00000000000E+00  0.00000000000E+00  0.78586568634E+02  0.78586568676E+02  0.25500000920E-02 0.  1.
        2   -1    0    0  501    0  0.00000000000E+00  0.00000000000E+00 -0.79734010316E+03  0.79734010316E+03  0.25500000920E-02 0. -1.
    10030    2    1    2    0    0  0.00000000000E+00  0.00000000000E+00 -0.71875353452E+03  0.87592667184E+03  0.50064048083E+03 0.  0.
        5    1    3    3  502    0  0.21356447194E+03  0.76485372692E+02 -0.54435915637E+03  0.58975314924E+03  0.46999998093E+01 0.  1.
       -5    1    3    3    0  502 -0.21356447194E+03 -0.76485372692E+02 -0.17439437815E+03  0.28617352260E+03  0.46999998093E+01 0. -1.
</event>
<event>
 5   0  0.1941387E-02  0.5006965E+03  0.7818609E-02  0.1013597E+00
        2   -1    0    0  501    0  0.00000000000E+00  0.00000000000E+00  0.19615066604E+04  0.19615066604E+04  0.25500000920E-02 0. -1.
       -2   -1    0    0    0  501  0.00000000000E+00  0.00000000000E+00 -0.31952100557E+02  0.31952100659E+02  0.25500000920E-02 0.  1.
    10030    2    1    2    0    0  0.00000000000E+00  0.00000000000E+00  0.19295545599E+04  0.19934587611E+04  0.50069654747E+03 0.  0.
        4    1    3    3  502    0  0.10983490142E+03 -0.17069497248E+03  0.38137168779E+03  0.43202599036E+03  0.12699999809E+01 0.  1.
       -4    1    3    3    0  502 -0.10983490142E+03  0.17069497248E+03  0.15481828721E+04  0.15614327707E+04  0.12699999809E+01 0. -1.
</event>
<event>
 5   0  0.1923706E-02  0.4993642E+03  0.7818609E-02  0.1013945E+00
       -2   -1    0    0    0  501  0.00000000000E+00  0.00000000000E+00  0.21452921705E+03  0.21452921707E+03  0.25500000920E-02 0.  1.
        2   -1    0    0  501    0  0.00000000000E+00  0.00000000000E+00 -0.29059511411E+03  0.29059511413E+03  0.25500000920E-02 0. -1.
    10030    2    1    2    0    0  0.00000000000E+00  0.00000000000E+00 -0.76065897065E+02  0.50512433119E+03  0.49936416498E+03 0.  0.
        3    1    3    3  502    0 -0.18669122106E+03  0.15930172314E+03  0.84369418894E+01  0.24556433618E+03  0.10100000352E+00 0. -1.
       -3    1    3    3    0  502  0.18669122106E+03 -0.15930172314E+03 -0.84502838954E+02  0.25955999501E+03  0.10100000352E+00 0.  1.
</event>
<event>
 5   0  0.1967813E-02  0.5008842E+03  0.7818609E-02  0.1013548E+00
        2   -1    0    0  501    0  0.00000000000E+00  0.00000000000E+00  0.57817111158E+03  0.57817111159E+03  0.25500000920E-02 0. -1.
       -2   -1    0    0    0  501  0.00000000000E+00  0.00000000000E+00 -0.10848217121E+03  0.10848217124E+03  0.25500000920E-02 0.  1.
    10030    2    1    2    0    0  0.00000000000E+00  0.00000000000E+00  0.46968894037E+03  0.68665328283E+03  0.50088424822E+03 0.  0.
        5    1    3    3  502    0 -0.27474961605E+02  0.23098114574E+03  0.36191574005E+03  0.43024673863E+03  0.46999998093E+01 0. -1.
       -5    1    3    3    0  502  0.27474961605E+02 -0.23098114574E+03  0.10777320032E+03  0.25640654420E+03  0.46999998093E+01 0.  1.
</event>
<event>
 5   0  0.1209831E-02  0.4967585E+03  0.7818609E-02  0.1014628E+00
       -1   -1    0    0    0  501  0.00000000000E+00  0.00000000000E+00  0.65588612008E+02  0.65588612201E+02  0.50400001928E-02 0. -1.
        1   -1    0    0  501    0  0.00000000000E+00  0.00000000000E+00 -0.94059386074E+03  0.94059386076E+03  0.50400001928E-02 0.  1.
    10030    2    1    2    0    0  0.00000000000E+00  0.00000000000E+00 -0.87500524874E+03  0.10061824730E+04  0.49675847610E+03 0.  0.
        4    1    3    3  502    0  0.15988376033E+03  0.11840773270E+03 -0.73866488061E+03  0.76499060564E+03  0.12699999809E+01 0.  1.
       -4    1    3    3    0  502 -0.15988376033E+03 -0.11840773270E+03 -0.13634036813E+03  0.24119186732E+03  0.12699999809E+01 0. -1.
</event>
<event>
 5   0  0.1225989E-02  0.5002042E+03  0.7818609E-02  0.1013726E+00
        1   -1    0    0  501    0  0.00000000000E+00  0.00000000000E+00  0.23301237754E+03  0.23301237760E+03  0.50400001928E-02 0.  1.
       -1   -1    0    0    0  501  0.00000000000E+00  0.00000000000E+00 -0.26844526319E+03  0.26844526324E+03  0.50400001928E-02 0. -1.
    10030    2    1    2    0    0  0.00000000000E+00  0.00000000000E+00 -0.35432885650E+02  0.50145764084E+03  0.50020423446E+03 0.  0.
        3    1    3    3  502    0 -0.68605420677E+02  0.11528426303E+03 -0.22932329262E+03  0.26568091348E+03  0.10100000352E+00 0. -1.
       -3    1    3    3    0  502  0.68605420677E+02 -0.11528426303E+03  0.19389040697E+03  0.23577672736E+03  0.10100000352E+00 0.  1.
</event>
<event>
 5   0  0.1227864E-02  0.5010159E+03  0.7818609E-02  0.1013514E+00
       -1   -1    0    0    0  501  0.00000000000E+00  0.00000000000E+00  0.39245914768E+03  0.39245914772E+03  0.50400001928E-02 0.  1.
        1   -1    0    0  501    0  0.00000000000E+00  0.00000000000E+00 -0.15990006591E+03  0.15990006599E+03  0.50400001928E-02 0. -1.
    10030    2    1    2    0    0  0.00000000000E+00  0.00000000000E+00  0.23255908177E+03  0.55235921371E+03  0.50101594231E+03 0.  0.
        5    1    3    3  502    0 -0.24373120837E+03  0.22890036813E+02  0.17465155557E+03  0.30075590032E+03  0.46999998093E+01 0.  1.
       -5    1    3    3    0  502  0.24373120837E+03 -0.22890036813E+02  0.57907526202E+02  0.25160331338E+03  0.46999998093E+01 0. -1.
</event>
<event>
 5   0  0.1855407E-02  0.4990441E+03  0.7818609E-02  0.1014029E+00
        2   -1    0    0  501    0  0.00000000000E+00  0.00000000000E+00  0.34610336433E+03  0.34610336434E+03  0.25500000920E-02 0. -1.
       -2   -1    0    0    0  501  0.00000000000E+00  0.00000000000E+00 -0.17989206284E+03  0.17989206286E+03  0.25500000920E-02 0.  1.
    10030    2    1    2    0    0  0.00000000000E+00  0.00000000000E+00  0.16621130150E+03  0.52599542720E+03  0.49904407891E+03 0.  0.
        1    1    3    3  502    0 -0.16469950290E+03 -0.74696604547E+02 -0.98096761140E+02  0.20573887226E+03  0.50400001928E-02 0.  1.
       -1    1    3    3    0  502  0.16469950290E+03  0.74696604547E+02  0.26430806264E+03  0.32025655494E+03  0.50400001928E-02 0. -1.
</event>
<event>
 5   0  0.1967813E-02  0.4990159E+03  0.7818609E-02  0.1014036E+00
       -2   -1    0    0    0  501  0.00000000000E+00  0.00000000000E+00  0.42040086483E+03  0.42040086484E+03  0.25500000920E-02 0.  1.
        2   -1    0    0  501    0  0.00000000000E+00  0.00000000000E+00 -0.14808300312E+03  0.14808300314E+03  0.25500000920E-02 0. -1.
    10030    2    1    2    0    0  0.00000000000E+00  0.00000000000E+00  0.27231786171E+03  0.56848386798E+03  0.49901592194E+03 0.  0.
        5    1    3    3  502    0 -0.82136042493E+02  0.10182793780E+03  0.37813546050E+03  0.40015468868E+03  0.46999998093E+01 0.  1.
       -5    1    3    3    0  502  0.82136042493E+02 -0.10182793780E+03 -0.10581759878E+03  0.16832917930E+03  0.46999998093E+01 0. -1.
</event>
<event>
 5   0  0.1227864E-02  0.4991818E+03  0.7818609E-02  0.1013993E+00
       -1   -1    0    0    0  501  0.00000000000E+00  0.00000000000E+00  0.26806777354E+03  0.26806777359E+03  0.50400001928E-02 0.  1.
        1   -1    0    0  501    0  0.00000000000E+00  0.00000000000E+00 -0.23238757087E+03  0.23238757093E+03  0.50400001928E-02 0. -1.
    10030    2    1    2    0    0  0.00000000000E+00  0.00000000000E+00  0.35680202672E+02  0.50045534452E+03  0.49918180555E+03 0.  0.
        5    1    3    3  502    0 -0.37545425595E+02 -0.65375075838E+02  0.25633347273E+03  0.26723117101E+03  0.46999998093E+01 0.  1.
       -5    1    3    3    0  502  0.37545425595E+02  0.65375075838E+02 -0.22065327005E+03  0.23322417351E+03  0.46999998093E+01 0. -1.
</event>
<event>
 5   0  0.1180937E-02  0.5003033E+03  0.7818609E-02  0.1013700E+00
       -1   -1    0    0    0  501  0.00000000000E+00  0.00000000000E+00  0.62283154010E+02  0.62283154214E+02  0.50400001928E-02 0.  1.
        1   -1    0    0  501    0  0.00000000000E+00  0.00000000000E+00 -0.10046994065E+04  0.10046994065E+04  0.50400001928E-02 0. -1.
    10030    2    1    2    0    0  0.00000000000E+00  0.00000000000E+00 -0.94241625250E+03  0.10669825607E+04  0.50030329995E+03 0.  0.
        1    1    3    3  502    0  0.18828502306E+03  0.20615345065E+02 -0.81968693763E+03  0.84128646614E+03  0.50400001928E-02 0. -1.
       -1    1    3    3    0  502 -0.18828502306E+03 -0.20615345065E+02 -0.12272931487E+03  0.22569609460E+03  0.50400001928E-02 0.  1.
</event>
<event>
 5   0  0.8012875E-03  0.5026775E+03  0.7818609E-02  0.1013082E+00
        3   -1    0    0  501    0  0.00000000000E+00  0.00000000000E+00  0.49854611955E+03  0.49854612978E+03  0.10100000352E+00 0.  1.
       -3   -1    0    0    0  501  0.00000000000E+00  0.00000000000E+00 -0.12671074300E+03  0.12671078326E+03  0.10100000352E+00 0. -1.
    10030    2    1    2    0    0  0.00000000000E+00  0.00000000000E+00  0.37183537654E+03  0.62525691304E+03  0.50267749109E+03 0.  0.
        1    1    3    3  502    0 -0.12546218476E+03 -0.15406659444E+03 -0.55463630240E+01  0.19876628863E+03  0.50400001928E-02 0. -1.
       -1    1    3    3    0  502  0.12546218476E+03  0.15406659444E+03  0.37738173957E+03  0.42649062441E+03  0.50400001928E-02 0.  1.
</event>
<event>
 5   0  0.1941387E-02  0.4993358E+03  0.7818609E-02  0.1013952E+00
       -2   -1    0    0    0  501  0.00000000000E+00  0.00000000000E+00  0.59177014489E+02  0.59177014544E+02  0.25500000920E-02 0.  1.
        2   -1    0    0  501    0  0.00000000000E+00  0.00000000000E+00 -0.10533493755E+04  0.10533493755E+04  0.25500000920E-02 0. -1.
    10030    2    1    2    0    0  0.00000000000E+00  0.00000000000E+00 -0.99417236103E+03  0.11125263901E+04  0.49933584405E+03 0.  0.
        4    1    3    3  502    0  0.47570765178E+02  0.21900795007E+03 -0.74221814698E+03  0.77531725796E+03  0.12699999809E+01 0. -1.
       -4    1    3    3    0  502 -0.47570765178E+02 -0.21900795007E+03 -0.25195421405E+03  0.33720913210E+03  0.12699999809E+01 0.  1.
</event>
<event>
 5   0  0.1209831E-02  0.4990831E+03  0.7818609E-02  0.1014019E+00
       -1   -1    0    0    0  501  0.00000000000E+00  0.00000000000E+00  0.11939828203E+03  0.11939828214E+03  0.50400001928E-02 0. -1.
        1   -1    0    0  501    0  0.00000000000E+00  0.00000000000E+00 -0.52154005262E+03  0.52154005264E+03  0.50400001928E-02 0.  1.
    10030    2    1    2    0    0  0.00000000000E+00  0.00000000000E+00 -0.40214177059E+03  0.64093833478E+03  0.49908310464E+03 0.  0.
        4    1    3    3  502    0 -0.53531632404E+02 -0.14643084597E+03 -0.45128768441E+03  0.47746184697E+03  0.12699999809E+01 0.  1.
       -4    1    3    3    0  502  0.53531632404E+02  0.14643084597E+03  0.49145913821E+02  0.16347648780E+03  0.12699999809E+01 0. -1.
</event>
<event>
 5   0  0.1941387E-02  0.5002130E+03  0.7818609E-02  0.1013723E+00
       -2   -1    0    0    0  501  0.00000000000E+00  0.00000000000E+00  0.10621938346E+03  0.10621938349E+03  0.25500000920E-02 0. -1.
        2   -1    0    0  501    0  0.00000000000E+00  0.00000000000E+00 -0.58890634372E+03  0.58890634373E+03  0.25500000920E-02 0.  1.
    10030    2    1    2    0    0  0.00000000000E+00  0.00000000000E+00 -0.48268696026E+03  0.69512572722E+03  0.50021302966E+03 0.  0.
        4    1    3    3  502    0  0.29307823464E+02  0.18958634780E+03 -0.18348723154E+02  0.19271798134E+03  0.12699999809E+01 0. -1.
       -4    1    3    3    0  502 -0.29307823464E+02 -0.18958634780E+03 -0.46433823710E+03  0.50240774589E+03  0.12699999809E+01 0.  1.
</event>
<event>
 5   0  0.1855407E-02  0.4989377E+03  0.7818609E-02  0.1014057E+00
       -2   -1    0    0    0  501  0.00000000000E+00  0.00000000000E+00  0.12548172162E+03  0.12548172164E+03  0.25500000920E-02 0. -1.
        2   -1    0    0  501    0  0.00000000000E+00  0.00000000000E+00 -0.49596631562E+03  0.49596631563E+03  0.25500000920E-02 0.  1.
    10030    2    1    2    0    0  0.00000000000E+00  0.00000000000E+00 -0.37048459401E+03  0.62144803728E+03  0.49893770016E+03 0.  0.
        1    1    3    3  502    0 -0.14549767468E+03  0.15753051288E+03 -0.34401485612E+03  0.40537841221E+03  0.50400001928E-02 0.  1.
       -1    1    3    3    0  502  0.14549767468E+03 -0.15753051288E+03 -0.26469737882E+02  0.21606962507E+03  0.50400001928E-02 0. -1.
</event>
<event>
 5   0  0.1967813E-02  0.5009068E+03  0.7818609E-02  0.1013542E+00
        2   -1    0    0  501    0  0.00000000000E+00  0.00000000000E+00  0.40699949871E+03  0.40699949872E+03  0.25500000920E-02 0.  1.
       -2   -1    0    0    0  501  0.00000000000E+00  0.00000000000E+00 -0.15412035857E+03  0.15412035859E+03  0.25500000920E-02 0. -1.
    10030    2    1    2    0    0  0.00000000000E+00  0.00000000000E+00  0.25287914014E+03  0.56111985730E+03  0.50090681243E+03 0.  0.
        5    1    3    3  502    0  0.12140299851E+03 -0.46140590048E+01 -0.11884466815E+03  0.17001800709E+03  0.46999998093E+01 0. -1.
       -5    1    3    3    0  502 -0.12140299851E+03  0.46140590048E+01  0.37172380830E+03  0.39110185021E+03  0.46999998093E+01 0.  1.
</event>
<event>
 5   0  0.1180937E-02  0.5001696E+03  0.7818609E-02  0.1013735E+00
        1   -1    0    0  501    0  0.00000000000E+00  0.00000000000E+00  0.12481395410E+04  0.12481395410E+04  0.50400001928E-02 0. -1.
       -1   -1    0    0    0  501  0.00000000000E+00  0.00000000000E+00 -0.50108501539E+02  0.50108501793E+02  0.50400001928E-02 0.  1.
    10030    2    1    2    0    0  0.00000000000E+00  0.00000000000E+00  0.11980310395E+04  0.12982480428E+04  0.50016958037E+03 0.  0.
        1    1    3    3  502    0 -0.18942273328E+03 -0.36590362061E+02  0.18597339960E+03  0.26796628867E+03  0.50400001928E-02 0.  1.
       -1    1    3    3    0  502  0.18942273328E+03  0.36590362061E+02  0.10120576399E+04  0.10302817541E+04  0.50400001928E-02 0. -1.
</event>
<event>
 5   0  0.1227864E-02  0.4995545E+03  0.7818609E-02  0.1013895E+00
       -1   -1    0    0    0  501  0.00000000000E+00  0.00000000000E+00  0.86161618760E+02  0.86161618908E+02  0.50400001928E-02 0. -1.
        1   -1    0    0  501    0  0.00000000000E+00  0.00000000000E+00 -0.72408892165E+03  0.72408892167E+03  0.50400001928E-02 0.  1.
    10030    2    1    2    0    0  0.00000000000E+00  0.00000000000E+00 -0.63792730289E+03  0.81025054058E+03  0.49955449626E+03 0.  0.
        5    1    3    3  502    0  0.42676911888E+02  0.24370981572E+03 -0.26394187480E+03  0.36180546756E+03  0.46999998093E+01 0. -1.
       -5    1    3    3    0  502 -0.42676911888E+02 -0.24370981572E+03 -0.37398542810E+03  0.44844507302E+03  0.46999998093E+01 0.  1.
</event>
<event>
 5   0  0.1941387E-02  0.5003125E+03  0.7818609E-02  0.1013697E+00
       -2   -1    0    0    0  501  0.00000000000E+00  0.00000000000E+00  0.74808990464E+02  0.74808990507E+02  0.25500000920E-02 0.  1.
        2   -1    0    0  501    0  0.00000000000E+00  0.00000000000E+00 -0.83650575149E+03  0.83650575149E+03  0.25500000920E-02 0. -1.
    10030    2    1    2    0    0  0.00000000000E+00  0.00000000000E+00 -0.76169676102E+03  0.91131474200E+03  0.50031250557E+03 0.  0.
        4    1    3    3  502    0  0.11279719025E+03 -0.14356542093E+03 -0.69366481349E+02  0.19531399809E+03  0.12699999809E+01 0.  1.
       -4    1    3    3    0  502 -0.11279719025E+03  0.14356542093E+03 -0.69233027968E+03  0.71600074390E+03  0.12699999809E+01 0. -1.
</event>
<event>
 5   0  0.8012875E-03  0.4998061E+03  0.7818609E-02  0.1013830E+00
        3   -1    0    0  501    0  0.00000000000E+00  0.00000000000E+00  0.75612870901E+03  0.75612871575E+03  0.10100000352E+00 0.  1.
       -3   -1    0    0    0  501  0.00000000000E+00  0.00000000000E+00 -0.82593735336E+02  0.82593797090E+02  0.10100000352E+00 0. -1.
    10030    2    1    2    0    0  0.00000000000E+00  0.00000000000E+00  0.67353497367E+03  0.83872251284E+03  0.49980605518E+03 0.  0.
        4    1    3    3  502    0  0.65088926428E+02 -0.14831530936E+03  0.17417800447E+02  0.16290792493E+03  0.12699999809E+01 0. -1.
       -4    1    3    3    0  502 -0.65088926428E+02  0.14831530936E+03  0.65611717322E+03  0.67581458791E+03  0.12699999809E+01 0.  1.
</event>
<event>
 5   0  0.1217270E-02  0.4996053E+03  0.7818609E-02  0.1013882E+00
        1   -1    0    0  501    0  0.00000000000E+00  0.00000000000E+00  0.30192814792E+03  0.30192814796E+03  0.50400001928E-02 0.  1.
       -1   -1    0    0    0  501  0.00000000000E+00  0.00000000000E+00 -0.20667620847E+03  0.20667620853E+03  0.50400001928E-02 0. -1.
    10030    2    1    2    0    0  0.00000000000E+00  0.00000000000E+00  0.95251939449E+02  0.50860435650E+03  0.49960530369E+03 0.  0.
        2    1    3    3  502    0 -0.14206823341E+03  0.92859216949E+02  0.23421723663E+03  0.28924717986E+03  0.25500000920E-02 0.  1.
       -2    1    3    3    0  502  0.14206823341E+03 -0.92859216949E+02 -0.13896529718E+03  0.21935717664E+03  0.25500000920E-02 0. -1.
</event>
<event>
 5   0  0.1941387E-02  0.5004242E+03  0.7818609E-02  0.1013668E+00
        2   -1    0    0  501    0  0.00000000000E+00  0.00000000000E+00  0.30709842440E+04  0.30709842440E+04  0.25500000920E-02 0. -1.
       -2   -1    0    0    0  501  0.00000000000E+00  0.00000000000E+00 -0.20386332486E+02  0.20386332645E+02  0.25500000920E-02 0.  1.
    10030    2    1    2    0    0  0.00000000000E+00  0.00000000000E+00  0.30505979116E+04  0.30913705767E+04  0.50042424444E+03 0.  0.
        4    1    3    3  502    0 -0.16376146639E+03 -0.18839241165E+03  0.16313964223E+04  0.16503834155E+04  0.12699999809E+01 0.  1.
       -4    1    3    3    0  502  0.16376146639E+03  0.18839241165E+03  0.14192014893E+04  0.14409871612E+04  0.12699999809E+01 0. -1.
</event>
<event>
 5   0  0.8012875E-03  0.4906956E+03  0.7818609E-02  0.1016236E+00
        4   -1    0    0  501    0  0.00000000000E+00  0.00000000000E+00  0.67050943340E+02  0.67062969683E+02  0.12699999809E+01 0. -1.
       -4   -1    0    0    0  501  0.00000000000E+00  0.00000000000E+00 -0.89766527418E+03  0.89766617256E+03  0.12699999809E+01 0.  1.
    10030    2    1    2    0    0  0.00000000000E+00  0.00000000000E+00 -0.83061433084E+03  0.96472914225E+03  0.49069557906E+03 0.  0.
        4    1    3    3  502    0  0.94989612192E+02  0.81368693117E+02 -0.83027771297E+03  0.83964670201E+03  0.12699999809E+01 0.  1.
       -4    1    3    3    0  502 -0.94989612192E+02 -0.81368693117E+02 -0.33661786988E+00  0.12508244024E+03  0.12699999809E+01 0. -1.
</event>
<event>
 5   0  0.1855407E-02  0.5000263E+03  0.7818609E-02  0.1013772E+00
       -2   -1    0    0    0  501  0.00000000000E+00  0.00000000000E+00  0.34957477108E+02  0.34957477201E+02  0.25500000920E-02 0. -1.
        2   -1    0    0  501    0  0.00000000000E+00  0.00000000000E+00 -0.17880747791E+04  0.17880747791E+04  0.25500000920E-02 0.  1.
    10030    2    1    2    0    0  0.00000000000E+00  0.00000000000E+00 -0.17531173020E+04  0.18230322563E+04  0.50002633228E+03 0.  0.
        1    1    3    3  502    0 -0.24491255081E+03 -0.20151627890E+02 -0.70875590579E+03  0.75014877169E+03  0.50400001928E-02 0. -1.
       -1    1    3    3    0  502  0.24491255081E+03  0.20151627890E+02 -0.10443613962E+04  0.10728834846E+04  0.50400001928E-02 0.  1.
</event>
<event>
 5   0  0.1180937E-02  0.4998689E+03  0.7818609E-02  0.1013813E+00
        1   -1    0    0  501    0  0.00000000000E+00  0.00000000000E+00  0.20144917521E+03  0.20144917527E+03  0.50400001928E-02 0.  1.
       -1   -1    0    0    0  501  0.00000000000E+00  0.00000000000E+00 -0.31008930216E+03  0.31008930220E+03  0.50400001928E-02 0. -1.
    10030    2    1    2    0    0  0.00000000000E+00  0.00000000000E+00 -0.10864012696E+03  0.51153847747E+03  0.49986891957E+03 0.  0.
        1    1    3    3  502    0 -0.90584477440E+02 -0.10280930950E+03 -0.26822598099E+03  0.30119840401E+03  0.50400001928E-02 0. -1.
       -1    1    3    3    0  502  0.90584477440E+02  0.10280930950E+03  0.15958585403E+03  0.21034007347E+03  0.50400001928E-02 0.  1.
</event>
<event>
 5   0  0.1209831E-02  0.5002628E+03  0.7818609E-02  0.1013710E+00
        1   -1    0    0  501    0  0.00000000000E+00  0.00000000000E+00  0.29727897329E+03  0.29727897333E+03  0.50400001928E-02 0.  1.
       -1   -1    0    0    0  501  0.00000000000E+00  0.00000000000E+00 -0.21046128027E+03  0.21046128033E+03  0.50400001928E-02 0. -1.
    10030    2    1    2    0    0  0.00000000000E+00  0.00000000000E+00  0.86817693019E+02  0.50774025366E+03  0.50026278431E+03 0.  0.
        4    1    3    3  502    0 -0.64469582454E+02  0.23361437016E+03  0.10623808335E+03  0.26461319744E+03  0.12699999809E+01 0.  1.
       -4    1    3    3    0  502  0.64469582454E+02 -0.23361437016E+03 -0.19420390331E+02  0.24312705622E+03  0.12699999809E+01 0. -1.
</event>
<event>
 5   0  0.1180937E-02  0.4996905E+03  0.7818609E-02  0.1013860E+00
        1   -1    0    0  501    0  0.00000000000E+00  0.00000000000E+00  0.22786441177E+03  0.22786441182E+03  0.50400001928E-02 0. -1.
       -1   -1    0    0    0  501  0.00000000000E+00  0.00000000000E+00 -0.27394646904E+03  0.27394646908E+03  0.50400001928E-02 0.  1.
    10030    2    1    2    0    0  0.00000000000E+00  0.00000000000E+00 -0.46082057269E+02  0.50181088091E+03  0.49969050841E+03 0.  0.
        1    1    3    3  502    0 -0.58759165705E+02  0.10308543421E+03  0.19776330389E+03  0.23062864239E+03  0.50400001928E-02 0. -1.
       -1    1    3    3    0  502  0.58759165705E+02 -0.10308543421E+03 -0.24384536116E+03  0.27118223851E+03  0.50400001928E-02 0.  1.
</event>
<event>
 5   0  0.1923706E-02  0.5017543E+03  0.7818609E-02  0.1013322E+00
       -2   -1    0    0    0  501  0.00000000000E+00  0.00000000000E+00  0.21888779599E+03  0.21888779601E+03  0.25500000920E-02 0. -1.
        2   -1    0    0  501    0  0.00000000000E+00  0.00000000000E+00 -0.28754158442E+03  0.28754158444E+03  0.25500000920E-02 0.  1.
    10030    2    1    2    0    0  0.00000000000E+00  0.00000000000E+00 -0.68653788430E+02  0.50642938045E+03  0.50175429715E+03 0.  0.
        3    1    3    3  502    0 -0.15846361833E+02 -0.85154189790E+02  0.20331752212E+03  0.22099857064E+03  0.10100000352E+00 0. -1.
       -3    1    3    3    0  502  0.15846361833E+02  0.85154189790E+02 -0.27197131055E+03  0.28543080981E+03  0.10100000352E+00 0.  1.
</event>
<event>
 5   0  0.1982847E-02  0.4995363E+03  0.7818609E-02  0.1013900E+00
        2   -1    0    0  501    0  0.00000000000E+00  0.00000000000E+00  0.71273689544E+03  0.71273689545E+03  0.25500000920E-02 0.  1.
       -2   -1    0    0    0  501  0.00000000000E+00  0.00000000000E+00 -0.87527575502E+02  0.87527575539E+02  0.25500000920E-02 0. -1.
    10030    2    1    2    0    0  0.00000000000E+00  0.00000000000E+00  0.62520931994E+03  0.80026447099E+03  0.49953631478E+03 0.  0.
        2    1    3    3  502    0  0.60930039231E+02  0.19416730107E+03  0.80612578457E+02  0.21888763852E+03  0.25500000920E-02 0. -1.
       -2    1    3    3    0  502 -0.60930039231E+02 -0.19416730107E+03  0.54459674149E+03  0.58137683247E+03  0.25500000920E-02 0.  1.
</event>
<event>
 5   0  0.1217270E-02  0.4999757E+03  0.7818609E-02  0.1013785E+00
       -1   -1    0    0    0  501  0.00000000000E+00  0.00000000000E+00  0.32177226219E+03  0.32177226223E+03  0.50400001928E-02 0.  1.
        1   -1    0    0  501    0  0.00000000000E+00  0.00000000000E+00 -0.19421785330E+03  0.19421785337E+03  0.50400001928E-02 0. -1.
    10030    2    1    2    0    0  0.00000000000E+00  0.00000000000E+00  0.12755440889E+03  0.51599011560E+03  0.49997567158E+03 0.  0.
        2    1    3    3  502    0  0.99628557274E+02 -0.22904110727E+03  0.53040129526E+02  0.25534081850E+03  0.25500000920E-02 0. -1.
       -2    1    3    3    0  502 -0.99628557274E+02  0.22904110727E+03  0.74514279359E+02  0.26064929710E+03  0.25500000920E-02 0.  1.
</event>
<event>
 5   0  0.1855407E-02  0.5001570E+03  0.7818609E-02  0.1013738E+00
       -2   -1    0    0    0  501  0.00000000000E+00  0.00000000000E+00  0.30389094448E+03  0.30389094449E+03  0.25500000920E-02 0. -1.
        2   -1    0    0  501    0  0.00000000000E+00  0.00000000000E+00 -0.20579505737E+03  0.20579505739E+03  0.25500000920E-02 0.  1.
    10030    2    1    2    0    0  0.00000000000E+00  0.00000000000E+00  0.98095887105E+02  0.50968600188E+03  0.50015699279E+03 0.  0.
        1    1    3    3  502    0 -0.83278799238E+02 -0.15676342672E+03  0.22855483175E+03  0.28939150212E+03  0.50400001928E-02 0. -1.
       -1    1    3    3    0  502  0.83278799238E+02  0.15676342672E+03 -0.13045894464E+03  0.22029449975E+03  0.50400001928E-02 0.  1.
</event>
<event>
 5   0  0.1967813E-02  0.5000402E+03  0.7818609E-02  0.1013768E+00
       -2   -1    0    0    0  501  0.00000000000E+00  0.00000000000E+00  0.10960031869E+03  0.10960031872E+03  0.25500000920E-02 0.  1.
        2   -1    0    0  501    0  0.00000000000E+00  0.00000000000E+00 -0.57034549358E+03  0.57034549359E+03  0.25500000920E-02 0. -1.
    10030    2    1    2    0    0  0.00000000000E+00  0.00000000000E+00 -0.46074517489E+03  0.67994581231E+03  0.50004018988E+03 0.  0.
        5    1    3    3  502    0 -0.12442356828E+03  0.21145115771E+03 -0.16522863291E+03  0.29583003156E+03  0.46999998093E+01 0.  1.
       -5    1    3    3    0  502  0.12442356828E+03 -0.21145115771E+03 -0.29551654198E+03  0.38411578075E+03  0.46999998093E+01 0. -1.
</event>
<event>
 5   0  0.1217270E-02  0.4996971E+03  0.7818609E-02  0.1013858E+00
       -1   -1    0    0    0  501  0.00000000000E+00  0.00000000000E+00  0.16007412001E+03  0.16007412008E+03  0.50400001928E-02 0. -1.
        1   -1    0    0  501    0  0.00000000000E+00  0.00000000000E+00 -0.38997119132E+03  0.38997119136E+03  0.50400001928E-02 0.  1.
    10030    2    1    2    0    0  0.00000000000E+00  0.00000000000E+00 -0.22989707132E+03  0.55004531144E+03  0.49969708948E+03 0.  0.
        2    1    3    3  502    0 -0.18282446578E+03  0.52831892182E+02  0.63252852482E+02  0.20054156046E+03  0.25500000920E-02 0.  1.
       -2    1    3    3    0  502  0.18282446578E+03 -0.52831892182E+02 -0.29314992380E+03  0.34950375098E+03  0.25500000920E-02 0. -1.
</event>
<event>
 5   0  0.1855407E-02  0.5009969E+03  0.7818609E-02  0.1013519E+00
       -2   -1    0    0    0  501  0.00000000000E+00  0.00000000000E+00  0.34988756991E+03  0.34988756992E+03  0.25500000920E-02 0.  1.
        2   -1    0    0  501    0  0.00000000000E+00  0.00000000000E+00 -0.17934180097E+03  0.17934180099E+03  0.25500000920E-02 0. -1.
    10030    2    1    2    0    0  0.00000000000E+00  0.00000000000E+00  0.17054576893E+03  0.52922937090E+03  0.50099687397E+03 0.  0.
        1    1    3    3  502    0 -0.11417725538E+03  0.14676500968E+02 -0.14974509487E+03  0.18887942924E+03  0.50400001928E-02 0. -1.
       -1    1    3    3    0  502  0.11417725538E+03 -0.14676500968E+02  0.32029086381E+03  0.34034994166E+03  0.50400001928E-02 0.  1.
</event>
<event>
 5   0  0.1209831E-02  0.5009553E+03  0.7818609E-02  0.1013530E+00
       -1   -1    0    0    0  501  0.00000000000E+00  0.00000000000E+00  0.55983891010E+02  0.55983891237E+02  0.50400001928E-02 0.  1.
        1   -1    0    0  501    0  0.00000000000E+00  0.00000000000E+00 -0.11206625056E+04  0.11206625056E+04  0.50400001928E-02 0. -1.
    10030    2    1    2    0    0  0.00000000000E+00  0.00000000000E+00 -0.10646786146E+04  0.11766463968E+04  0.50095527829E+03 0.  0.
        4    1    3    3  502    0  0.86678410152E+02  0.10354313204E+02 -0.10837689370E+04  0.10872796698E+04  0.12699999809E+01 0. -1.
       -4    1    3    3    0  502 -0.86678410152E+02 -0.10354313204E+02  0.19090322459E+02  0.89366727029E+02  0.12699999809E+01 0.  1.
</event>
<event>
 5   0  0.1855407E-02  0.4997423E+03  0.7818609E-02  0.1013846E+00
        2   -1    0    0  501    0  0.00000000000E+00  0.00000000000E+00  0.26541239153E+04  0.26541239153E+04  0.25500000920E-02 0. -1.
       -2   -1    0    0    0  501  0.00000000000E+00  0.00000000000E+00 -0.23523995275E+02  0.23523995413E+02  0.25500000920E-02 0.  1.
    10030    2    1    2    0    0  0.00000000000E+00  0.00000000000E+00  0.26305999200E+04  0.26776479107E+04  0.49974232812E+03 0.  0.
        1    1    3    3  502    0  0.10933276822E+03 -0.11838667824E+03  0.23384860015E+04  0.23440319620E+04  0.50400001928E-02 0. -1.
       -1    1    3    3    0  502 -0.10933276822E+03  0.11838667824E+03  0.29211391851E+03  0.33361594867E+03  0.50400001928E-02 0.  1.
</event>
<event>
 5   0  0.8012875E-03  0.5003486E+03  0.7818609E-02  0.1013688E+00
        3   -1    0    0  501    0  0.00000000000E+00  0.00000000000E+00  0.74657217496E+02  0.74657285815E+02  0.10100000352E+00 0. -1.
       -3   -1    0    0    0  501  0.00000000000E+00  0.00000000000E+00 -0.83832686430E+03  0.83832687039E+03  0.10100000352E+00 0.  1.
    10030    2    1    2    0    0  0.00000000000E+00  0.00000000000E+00 -0.76366964681E+03  0.91298415620E+03  0.50034861849E+03 0.  0.
        3    1    3    3  502    0 -0.79804264053E+02  0.15713046902E+03 -0.70583256543E+03  0.72750142644E+03  0.10100000352E+00 0.  1.
       -3    1    3    3    0  502  0.79804264053E+02 -0.15713046902E+03 -0.57837081379E+02  0.18548272976E+03  0.10100000352E+00 0. -1.
</event>
<event>
 5   0  0.1217270E-02  0.4993837E+03  0.7818609E-02  0.1013940E+00
        1   -1    0    0  501    0  0.00000000000E+00  0.00000000000E+00  0.26885777861E+03  0.26885777866E+03  0.50400001928E-02 0. -1.
       -1   -1    0    0    0  501  0.00000000000E+00  0.00000000000E+00 -0.23189223718E+03  0.23189223724E+03  0.50400001928E-02 0.  1.
    10030    2    1    2    0    0  0.00000000000E+00  0.00000000000E+00  0.36965541430E+02  0.50075001589E+03  0.49938374740E+03 0.  0.
        2    1    3    3  502    0 -0.25449117246E+02  0.66439436933E+02 -0.22151317259E+03  0.23265842342E+03  0.25500000920E-02 0.  1.
       -2    1    3    3    0  502  0.25449117246E+02 -0.66439436933E+02  0.25847871402E+03  0.26809159248E+03  0.25500000920E-02 0. -1.
</event>
<event>
 5   0  0.1982847E-02  0.5009277E+03  0.7818609E-02  0.1013537E+00
        2   -1    0    0  501    0  0.00000000000E+00  0.00000000000E+00  0.12461201221E+04  0.12461201221E+04  0.25500000920E-02 0. -1.
       -2   -1    0    0    0  501  0.00000000000E+00  0.00000000000E+00 -0.50341965780E+02  0.50341965845E+02  0.25500000920E-02 0.  1.
    10030    2    1    2    0    0  0.00000000000E+00  0.00000000000E+00  0.11957781563E+04  0.12964620879E+04  0.50092768575E+03 0.  0.
        2    1    3    3  502    0 -0.24823688962E+03 -0.25087368052E+02  0.65466325359E+03  0.70059610691E+03  0.25500000920E-02 0. -1.
       -2    1    3    3    0  502  0.24823688962E+03  0.25087368052E+02  0.54111490273E+03  0.59586598104E+03  0.25500000920E-02 0.  1.
</event>
<event>
 5   0  0.1982847E-02  0.4999793E+03  0.7818609E-02  0.1013784E+00
        2   -1    0    0  501    0  0.00000000000E+00  0.00000000000E+00  0.10521193875E+03  0.10521193879E+03  0.25500000920E-02 0.  1.
       -2   -1    0    0    0  501  0.00000000000E+00  0.00000000000E+00 -0.59398996395E+03  0.59398996396E+03  0.25500000920E-02 0. -1.
    10030    2    1    2    0    0  0.00000000000E+00  0.00000000000E+00 -0.48877802520E+03  0.69920190275E+03  0.49997934246E+03 0.  0.
        2    1    3    3  502    0 -0.17065587867E+03  0.17231276839E+03 -0.15955739882E+03  0.29029929831E+03  0.25500000920E-02 0.  1.
       -2    1    3    3    0  502  0.17065587867E+03 -0.17231276839E+03 -0.32922062638E+03  0.40890260444E+03  0.25500000920E-02 0. -1.
</event>
<event>
 5   0  0.1209831E-02  0.5050668E+03  0.7818609E-02  0.1012465E+00
       -1   -1    0    0    0  501  0.00000000000E+00  0.00000000000E+00  0.87528497842E+02  0.87528497988E+02  0.50400001928E-02 0.  1.
        1   -1    0    0  501    0  0.00000000000E+00  0.00000000000E+00 -0.72859827001E+03  0.72859827003E+03  0.50400001928E-02 0. -1.
    10030    2    1    2    0    0  0.00000000000E+00  0.00000000000E+00 -0.64106977217E+03  0.81612676802E+03  0.50506677646E+03 0.  0.
        4    1    3    3  502    0 -0.20763945745E+03 -0.14304155743E+03 -0.29788559865E+03  0.39027230778E+03  0.12699999809E+01 0.  1.
       -4    1    3    3    0  502  0.20763945745E+03  0.14304155743E+03 -0.34318417352E+03  0.42585446023E+03  0.12699999809E+01 0. -1.
</event>
<event>
 5   0  0.1227864E-02  0.4998027E+03  0.7818609E-02  0.1013830E+00
        1   -1    0    0  501    0  0.00000000000E+00  0.00000000000E+00  0.16278011194E+03  0.16278011202E+03  0.50400001928E-02 0. -1.
       -1   -1    0    0    0  501  0.00000000000E+00  0.00000000000E+00 -0.38365052495E+03  0.38365052498E+03  0.50400001928E-02 0.  1.
    10030    2    1    2    0    0  0.00000000000E+00  0.00000000000E+00 -0.22087041301E+03  0.54643063700E+03  0.49980266277E+03 0.  0.
        5    1    3    3  502    0 -0.44455267339E+02 -0.19892433703E+03 -0.26842044814E+03  0.33707386377E+03  0.46999998093E+01 0.  1.
       -5    1    3    3    0  502  0.44455267339E+02  0.19892433703E+03  0.47550035130E+02  0.20935677323E+03  0.46999998093E+01 0. -1.
</event>
<event>
 5   0  0.8012875E-03  0.5000603E+03  0.7818609E-02  0.1013763E+00
       -4   -1    0    0    0  501  0.00000000000E+00  0.00000000000E+00  0.52830826587E+03  0.52830979234E+03  0.12699999809E+01 0. -1.
        4   -1    0    0  501    0  0.00000000000E+00  0.00000000000E+00 -0.11832555813E+03  0.11833237345E+03  0.12699999809E+01 0.  1.
    10030    2    1    2    0    0  0.00000000000E+00  0.00000000000E+00  0.40998270774E+03  0.64664216579E+03  0.50006026630E+03 0.  0.
        4    1    3    3  502    0  0.18509662073E+03  0.15707577199E+03  0.28236213198E+03  0.37237554112E+03  0.12699999809E+01 0. -1.
       -4    1    3    3    0  502 -0.18509662073E+03 -0.15707577199E+03  0.12762057577E+03  0.27426662467E+03  0.12699999809E+01 0.  1.
</event>
<event>
 5   0  0.1923706E-02  0.4993175E+03  0.7818609E-02  0.1013957E+00
        2   -1    0    0  501    0  0.00000000000E+00  0.00000000000E+00  0.76866797732E+03  0.76866797732E+03  0.25500000920E-02 0.  1.
       -2   -1    0    0    0  501  0.00000000000E+00  0.00000000000E+00 -0.81087679525E+02  0.81087679565E+02  0.25500000920E-02 0. -1.
    10030    2    1    2    0    0  0.00000000000E+00  0.00000000000E+00  0.68758029779E+03  0.84975565689E+03  0.49931754475E+03 0.  0.
        3    1    3    3  502    0  0.21046189101E+03 -0.22570077255E+02  0.56908803202E+03  0.60717774527E+03  0.10100000352E+00 0. -1.
       -3    1    3    3    0  502 -0.21046189101E+03  0.22570077255E+02  0.11849226577E+03  0.24257791162E+03  0.10100000352E+00 0.  1.
</event>
<event>
 5   0  0.8012875E-03  0.4999644E+03  0.7818609E-02  0.1013788E+00
       -4   -1    0    0    0  501  0.00000000000E+00  0.00000000000E+00  0.53001235236E+03  0.53001387392E+03  0.12699999809E+01 0. -1.
        4   -1    0    0  501    0  0.00000000000E+00  0.00000000000E+00 -0.11789989283E+03  0.11790673275E+03  0.12699999809E+01 0.  1.
    10030    2    1    2    0    0  0.00000000000E+00  0.00000000000E+00  0.41211245953E+03  0.64792060667E+03  0.49996443199E+03 0.  0.
        4    1    3    3  502    0 -0.14922318650E+03 -0.13536378310E+03  0.14281807634E+02  0.20198142511E+03  0.12699999809E+01 0.  1.
       -4    1    3    3    0  502  0.14922318650E+03  0.13536378310E+03  0.39783065190E+03  0.44593918156E+03  0.12699999809E+01 0. -1.
</event>
<event>
 5   0  0.1180937E-02  0.4998578E+03  0.7818609E-02  0.1013816E+00
        1   -1    0    0  501    0  0.00000000000E+00  0.00000000000E+00  0.46820746595E+03  0.46820746598E+03  0.50400001928E-02 0.  1.
       -1   -1    0    0    0  501  0.00000000000E+00  0.00000000000E+00 -0.13341192173E+03  0.13341192182E+03  0.50400001928E-02 0. -1.
    10030    2    1    2    0    0  0.00000000000E+00  0.00000000000E+00  0.33479554422E+03  0.60161938780E+03  0.49985781113E+03 0.  0.
        1    1    3    3  502    0  0.73183310564E+02  0.21025075230E+03  0.30411568980E+03  0.37689193225E+03  0.50400001928E-02 0.  1.
       -1    1    3    3    0  502 -0.73183310564E+02 -0.21025075230E+03  0.30679854424E+02  0.22472745555E+03  0.50400001928E-02 0. -1.
</event>
<event>
 5   0  0.1855407E-02  0.4983135E+03  0.7818609E-02  0.1014220E+00
       -2   -1    0    0    0  501  0.00000000000E+00  0.00000000000E+00  0.60198442534E+02  0.60198442588E+02  0.25500000920E-02 0.  1.
        2   -1    0    0  501    0  0.00000000000E+00  0.00000000000E+00 -0.10312405372E+04  0.10312405372E+04  0.25500000920E-02 0. -1.
    10030    2    1    2    0    0  0.00000000000E+00  0.00000000000E+00 -0.97104209469E+03  0.10914389798E+04  0.49831345256E+03 0.  0.
        1    1    3    3  502    0 -0.18211864524E+03 -0.16791984683E+03 -0.42696272709E+03  0.49362075144E+03  0.50400001928E-02 0. -1.
       -1    1    3    3    0  502  0.18211864524E+03  0.16791984683E+03 -0.54407936760E+03  0.59781822838E+03  0.50400001928E-02 0.  1.
</event>
<event>
 5   0  0.1227864E-02  0.4986227E+03  0.7818609E-02  0.1014139E+00
        1   -1    0    0  501    0  0.00000000000E+00  0.00000000000E+00  0.68596319757E+03  0.68596319759E+03  0.50400001928E-02 0.  1.
       -1   -1    0    0    0  501  0.00000000000E+00  0.00000000000E+00 -0.90611507942E+02  0.90611508082E+02  0.50400001928E-02 0. -1.
    10030    2    1    2    0    0  0.00000000000E+00  0.00000000000E+00  0.59535168963E+03  0.77657470567E+03  0.49862274231E+03 0.  0.
        5    1    3    3  502    0 -0.75211694954E+02  0.16597653563E+03  0.32778063023E+02  0.18520664364E+03  0.46999998093E+01 0. -1.
       -5    1    3    3    0  502  0.75211694954E+02 -0.16597653563E+03  0.56257362661E+03  0.59136806203E+03  0.46999998093E+01 0.  1.
</event>
<event>
 5   0  0.1227864E-02  0.4998864E+03  0.7818609E-02  0.1013809E+00
        1   -1    0    0  501    0  0.00000000000E+00  0.00000000000E+00  0.23993105715E+03  0.23993105720E+03  0.50400001928E-02 0. -1.
       -1   -1    0    0    0  501  0.00000000000E+00  0.00000000000E+00 -0.26037309051E+03  0.26037309056E+03  0.50400001928E-02 0.  1.
    10030    2    1    2    0    0  0.00000000000E+00  0.00000000000E+00 -0.20442033356E+02  0.50030414776E+03  0.49988635062E+03 0.  0.
        5    1    3    3  502    0 -0.80742130171E+02  0.23012549409E+03  0.44344879544E+02  0.24792255435E+03  0.46999998093E+01 0. -1.
       -5    1    3    3    0  502  0.80742130171E+02 -0.23012549409E+03 -0.64786912900E+02  0.25238159342E+03  0.46999998093E+01 0.  1.
</event>
<event>
 5   0  0.1982847E-02  0.4999073E+03  0.7818609E-02  0.1013803E+00
       -2   -1    0    0    0  501  0.00000000000E+00  0.00000000000E+00  0.16332227177E+03  0.16332227179E+03  0.25500000920E-02 0.  1.
        2   -1    0    0  501    0  0.00000000000E+00  0.00000000000E+00 -0.38253714809E+03  0.38253714810E+03  0.25500000920E-02 0. -1.
    10030    2    1    2    0    0  0.00000000000E+00  0.00000000000E+00 -0.21921487633E+03  0.54585941989E+03  0.49990733569E+03 0.  0.
        2    1    3    3  502    0 -0.23944199305E+03 -0.40852849060E+02 -0.17397906642E+03  0.29878108855E+03  0.25500000920E-02 0. -1.
       -2    1    3    3    0  502  0.23944199305E+03  0.40852849060E+02 -0.45235809902E+02  0.24707833134E+03  0.25500000920E-02 0.  1.
</event>
<event>
 5   0  0.1982847E-02  0.5038140E+03  0.7818609E-02  0.1012788E+00
       -2   -1    0    0    0  501  0.00000000000E+00  0.00000000000E+00  0.40349782761E+02  0.40349782842E+02  0.25500000920E-02 0.  1.
        2   -1    0    0  501    0  0.00000000000E+00  0.00000000000E+00 -0.15726760542E+04  0.15726760542E+04  0.25500000920E-02 0. -1.
    10030    2    1    2    0    0  0.00000000000E+00  0.00000000000E+00 -0.15323262715E+04  0.16130258371E+04  0.50381400222E+03 0.  0.
        2    1    3    3  502    0 -0.21481587243E+03  0.24344867374E+02 -0.35219099365E+03  0.41325177269E+03  0.25500000920E-02 0.  1.
       -2    1    3    3    0  502  0.21481587243E+03 -0.24344867374E+02 -0.11801352778E+04  0.11997740644E+04  0.25500000920E-02 0. -1.
</event>
<event>
 5   0  0.1180937E-02  0.5007928E+03  0.7818609E-02  0.1013572E+00
       -1   -1    0    0    0  501  0.00000000000E+00  0.00000000000E+00  0.19158027435E+03  0.19158027442E+03  0.50400001928E-02 0.  1.
        1   -1    0    0  501    0  0.00000000000E+00  0.00000000000E+00 -0.32726939500E+03  0.32726939504E+03  0.50400001928E-02 0. -1.
    10030    2    1    2    0    0  0.00000000000E+00  0.00000000000E+00 -0.13568912065E+03  0.51884966946E+03  0.50079281348E+03 0.  0.
        1    1    3    3  502    0 -0.14310999047E+02  0.23273095811E+03  0.26714299612E+02  0.23469588276E+03  0.50400001928E-02 0.  1.
       -1    1    3    3    0  502  0.14310999047E+02 -0.23273095811E+03 -0.16240342026E+03  0.28415378670E+03  0.50400001928E-02 0. -1.
</event>
<event>
 5   0  0.1967813E-02  0.4994768E+03  0.7818609E-02  0.1013916E+00
       -2   -1    0    0    0  501  0.00000000000E+00  0.00000000000E+00  0.14992971305E+03  0.14992971308E+03  0.25500000920E-02 0. -1.
        2   -1    0    0  501    0  0.00000000000E+00  0.00000000000E+00 -0.41599012032E+03  0.41599012033E+03  0.25500000920E-02 0.  1.
    10030    2    1    2    0    0  0.00000000000E+00  0.00000000000E+00 -0.26606040727E+03  0.56591983340E+03  0.49947684383E+03 0.  0.
        5    1    3    3  502    0 -0.24301259322E+02 -0.11037828801E+03  0.11923848346E+03  0.16435882576E+03  0.46999998093E+01 0. -1.
       -5    1    3    3    0  502  0.24301259322E+02  0.11037828801E+03 -0.38529889072E+03  0.40156100764E+03  0.46999998093E+01 0.  1.
</event>
<event>
 5   0  0.1209831E-02  0.4995430E+03  0.7818609E-02  0.1013898E+00
        1   -1    0    0  501    0  0.00000000000E+00  0.00000000000E+00  0.81424028621E+02  0.81424028777E+02  0.50400001928E-02 0.  1.
       -1   -1    0    0    0  501  0.00000000000E+00  0.00000000000E+00 -0.76618412456E+03  0.76618412457E+03  0.50400001928E-02 0. -1.
    10030    2    1    2    0    0  0.00000000000E+00  0.00000000000E+00 -0.68476009594E+03  0.84760815335E+03  0.49954298378E+03 0.  0.
        4    1    3    3  502    0  0.94162622125E+01 -0.83846771249E+02  0.56505484940E+02  0.10155505783E+03  0.12699999809E+01 0.  1.
       -4    1    3    3    0  502 -0.94162622125E+01  0.83846771249E+02 -0.74126558088E+03  0.74605309552E+03  0.12699999809E+01 0. -1.
</event>
<event>
 5   0  0.1982847E-02  0.5059693E+03  0.7818609E-02  0.1012232E+00
       -2   -1    0    0    0  501  0.00000000000E+00  0.00000000000E+00  0.29802983240E+02  0.29802983349E+02  0.25500000920E-02 0. -1.
        2   -1    0    0  501    0  0.00000000000E+00  0.00000000000E+00 -0.21474772736E+04  0.21474772736E+04  0.25500000920E-02 0.  1.
    10030    2    1    2    0    0  0.00000000000E+00  0.00000000000E+00 -0.21176742904E+04  0.21772802570E+04  0.50596928489E+03 0.  0.
        2    1    3    3  502    0  0.14316960644E+03 -0.15019279333E+03 -0.43605114262E+03  0.48290372784E+03  0.25500000920E-02 0. -1.
       -2    1    3    3    0  502 -0.14316960644E+03  0.15019279333E+03 -0.16816231478E+04  0.16943765291E+04  0.25500000920E-02 0.  1.
</event>
<event>
 5   0  0.1225989E-02  0.5007240E+03  0.7818609E-02  0.1013590E+00
       -1   -1    0    0    0  501  0.00000000000E+00  0.00000000000E+00  0.25826733469E+03  0.25826733474E+03  0.50400001928E-02 0.  1.
        1   -1    0    0  501    0  0.00000000000E+00  0.00000000000E+00 -0.24269865818E+03  0.24269865823E+03  0.50400001928E-02 0. -1.
    10030    2    1    2    0    0  0.00000000000E+00  0.00000000000E+00  0.15568676513E+02  0.50096599297E+03  0.50072401822E+03 0.  0.
        3    1    3    3  502    0  0.17450014206E+03  0.25045655292E+02 -0.17007541875E+03  0.24495559331E+03  0.10100000352E+00 0. -1.
       -3    1    3    3    0  502 -0.17450014206E+03 -0.25045655292E+02  0.18564409527E+03  0.25601039966E+03  0.10100000352E+00 0.  1.
</event>
<event>
 5   0  0.1227864E-02  0.5013961E+03  0.7818609E-02  0.1013415E+00
        1   -1    0    0  501    0  0.00000000000E+00  0.00000000000E+00  0.93715174115E+03  0.93715174116E+03  0.50400001928E-02 0. -1.
       -1   -1    0    0    0  501  0.00000000000E+00  0.00000000000E+00 -0.67064397599E+02  0.67064397788E+02  0.50400001928E-02 0.  1.
    10030    2    1    2    0    0  0.00000000000E+00  0.00000000000E+00  0.87008734355E+03  0.10042161389E+04  0.50139611917E+03 0.  0.
        5    1    3    3  502    0 -0.48899438318E+02  0.15103928466E+03  0.82352959432E+03  0.83870561182E+03  0.46999998093E+01 0. -1.
       -5    1    3    3    0  502  0.48899438318E+02 -0.15103928466E+03  0.46557749232E+02  0.16551052713E+03  0.46999998093E+01 0.  1.
</event>
<event>
 5   0  0.8012875E-03  0.4998113E+03  0.7818609E-02  0.1013828E+00
        4   -1    0    0  501    0  0.00000000000E+00  0.00000000000E+00  0.67323196676E+03  0.67323316463E+03  0.12699999809E+01 0. -1.
       -4   -1    0    0    0  501  0.00000000000E+00  0.00000000000E+00 -0.92760089819E+02  0.92768783344E+02  0.12699999809E+01 0.  1.
    10030    2    1    2    0    0  0.00000000000E+00  0.00000000000E+00  0.58047187694E+03  0.76600194798E+03  0.49981134880E+03 0.  0.
        4    1    3    3  502    0 -0.18171838568E+03 -0.92096791715E+02  0.68419662088E+02  0.21490987366E+03  0.12699999809E+01 0.  1.
       -4    1    3    3    0  502  0.18171838568E+03  0.92096791715E+02  0.51205221485E+03  0.55109207431E+03  0.12699999809E+01 0. -1.
</event>
<event>
 5   0  0.1225989E-02  0.4989264E+03  0.7818609E-02  0.1014060E+00
        1   -1    0    0  501    0  0.00000000000E+00  0.00000000000E+00  0.11649070110E+03  0.11649070121E+03  0.50400001928E-02 0. -1.
       -1   -1    0    0    0  501  0.00000000000E+00  0.00000000000E+00 -0.53422187174E+03  0.53422187176E+03  0.50400001928E-02 0.  1.
    10030    2    1    2    0    0  0.00000000000E+00  0.00000000000E+00 -0.41773117064E+03  0.65071257298E+03  0.49892636902E+03 0.  0.
        3    1    3    3  502    0  0.99770170405E+02  0.78455347263E+02  0.71231995016E+02  0.14554496120E+03  0.10100000352E+00 0. -1.
       -3    1    3    3    0  502 -0.99770170405E+02 -0.78455347263E+02 -0.48896316565E+03  0.50516761177E+03  0.10100000352E+00 0.  1.
</event>
<event>
 5   0  0.1982847E-02  0.5016238E+03  0.7818609E-02  0.1013356E+00
        2   -1    0    0  501    0  0.00000000000E+00  0.00000000000E+00  0.16511802379E+04  0.16511802379E+04  0.25500000920E-02 0.  1.
       -2   -1    0    0    0  501  0.00000000000E+00  0.00000000000E+00 -0.38097964983E+02  0.38097965068E+02  0.25500000920E-02 0. -1.
    10030    2    1    2    0    0  0.00000000000E+00  0.00000000000E+00  0.16130822729E+04  0.16892782030E+04  0.50162379113E+03 0.  0.
        2    1    3    3  502    0 -0.10216934120E+03  0.93779848942E+02  0.10277005453E+03  0.17261204611E+03  0.25500000920E-02 0. -1.
       -2    1    3    3    0  502  0.10216934120E+03 -0.93779848942E+02  0.15103122184E+04  0.15166661568E+04  0.25500000920E-02 0.  1.
</event>
<event>
 5   0  0.1982847E-02  0.5014837E+03  0.7818609E-02  0.1013392E+00
        2   -1    0    0  501    0  0.00000000000E+00  0.00000000000E+00  0.27212639289E+03  0.27212639290E+03  0.25500000920E-02 0.  1.
       -2   -1    0    0    0  501  0.00000000000E+00  0.00000000000E+00 -0.23103781572E+03  0.23103781574E+03  0.25500000920E-02 0. -1.
    10030    2    1    2    0    0  0.00000000000E+00  0.00000000000E+00  0.41088577163E+02  0.50316420863E+03  0.50148374817E+03 0.  0.
        2    1    3    3  502    0  0.14403251556E+03  0.15077359752E+03  0.16027129350E+03  0.26299226371E+03  0.25500000920E-02 0.  1.
       -2    1    3    3    0  502 -0.14403251556E+03 -0.15077359752E+03 -0.11918271634E+03  0.24017194492E+03  0.25500000920E-02 0. -1.
</event>
<event>
 5   0  0.1217270E-02  0.5002247E+03  0.7818609E-02  0.1013720E+00
        1   -1    0    0  501    0  0.00000000000E+00  0.00000000000E+00  0.35416905233E+03  0.35416905236E+03  0.50400001928E-02 0.  1.
       -1   -1    0    0    0  501  0.00000000000E+00  0.00000000000E+00 -0.17662802547E+03  0.17662802555E+03  0.50400001928E-02 0. -1.
    10030    2    1    2    0    0  0.00000000000E+00  0.00000000000E+00  0.17754102685E+03  0.53079707791E+03  0.50022467123E+03 0.  0.
        2    1    3    3  502    0  0.11349009312E+03  0.52710129326E+02 -0.14102405031E+03  0.18853684452E+03  0.25500000920E-02 0. -1.
       -2    1    3    3    0  502 -0.11349009312E+03 -0.52710129326E+02  0.31856507716E+03  0.34226023339E+03  0.25500000920E-02 0.  1.
</event>
<event>
 5   0  0.1941387E-02  0.5004677E+03  0.7818609E-02  0.1013657E+00
        2   -1    0    0  501    0  0.00000000000E+00  0.00000000000E+00  0.86581020427E+02  0.86581020464E+02  0.25500000920E-02 0. -1.
       -2   -1    0    0    0  501  0.00000000000E+00  0.00000000000E+00 -0.72321826485E+03  0.72321826486E+03  0.25500000920E-02 0.  1.
    10030    2    1    2    0    0  0.00000000000E+00  0.00000000000E+00 -0.63663724442E+03  0.80979928532E+03  0.50046768279E+03 0.  0.
        4    1    3    3  502    0 -0.79900763162E+02  0.23704172789E+03 -0.30777623448E+03  0.39661156832E+03  0.12699999809E+01 0.  1.
       -4    1    3    3    0  502  0.79900763162E+02 -0.23704172789E+03 -0.32886100995E+03  0.41318771700E+03  0.12699999809E+01 0. -1.
</event>
<event>
 5   0  0.1227864E-02  0.4989328E+03  0.7818609E-02  0.1014058E+00
        1   -1    0    0  501    0  0.00000000000E+00  0.00000000000E+00  0.13848249015E+03  0.13848249024E+03  0.50400001928E-02 0. -1.
       -1   -1    0    0    0  501  0.00000000000E+00  0.00000000000E+00 -0.44939600016E+03  0.44939600019E+03  0.50400001928E-02 0.  1.
    10030    2    1    2    0    0  0.00000000000E+00  0.00000000000E+00 -0.31091351001E+03  0.58787849043E+03  0.49893276982E+03 0.  0.
        5    1    3    3  502    0  0.13533652077E+03  0.13093492425E+02  0.90923189902E+02  0.16363535638E+03  0.46999998093E+01 0. -1.
       -5    1    3    3    0  502 -0.13533652077E+03 -0.13093492425E+02 -0.40183669991E+03  0.42424313405E+03  0.46999998093E+01 0.  1.
</event>
<event>
 5   0  0.1227864E-02  0.4999457E+03  0.7818609E-02  0.1013793E+00
        1   -1    0    0  501    0  0.00000000000E+00  0.00000000000E+00  0.14463257289E+04  0.14463257289E+04  0.50400001928E-02 0.  1.
       -1   -1    0    0    0  501  0.00000000000E+00  0.00000000000E+00 -0.43203565977E+02  0.43203566271E+02  0.50400001928E-02 0. -1.
    10030    2    1    2    0    0  0.00000000000E+00  0.00000000000E+00  0.14031221629E+04  0.14895292952E+04  0.49994571417E+03 0.  0.
        5    1    3    3  502    0  0.53983053464E+02 -0.18982684998E+02  0.14264137370E+04  0.14275688254E+04  0.46999998093E+01 0.  1.
       -5    1    3    3    0  502 -0.53983053464E+02  0.18982684998E+02 -0.23291574036E+02  0.61960469739E+02  0.46999998093E+01 0. -1.
</event>
<event>
 5   0  0.1225989E-02  0.5003751E+03  0.7818609E-02  0.1013681E+00
        1   -1    0    0  501    0  0.00000000000E+00  0.00000000000E+00  0.39326715553E+03  0.39326715556E+03  0.50400001928E-02 0. -1.
       -1   -1    0    0    0  501  0.00000000000E+00  0.00000000000E+00 -0.15916356022E+03  0.15916356030E+03  0.50400001928E-02 0.  1.
    10030    2    1    2    0    0  0.00000000000E+00  0.00000000000E+00  0.23410359531E+03  0.55243071586E+03  0.50037506182E+03 0.  0.
        3    1    3    3  502    0  0.17209699784E+03  0.12190600236E+03 -0.31543617633E+02  0.21324507050E+03  0.10100000352E+00 0.  1.
       -3    1    3    3    0  502 -0.17209699784E+03 -0.12190600236E+03  0.26564721294E+03  0.33918564537E+03  0.10100000352E+00 0. -1.
</event>
<event>
 5   0  0.1982847E-02  0.5003958E+03  0.7818609E-02  0.1013676E+00
       -2   -1    0    0    0  501  0.00000000000E+00  0.00000000000E+00  0.79910453852E+02  0.79910453892E+02  0.25500000920E-02 0. -1.
        2   -1    0    0  501    0  0.00000000000E+00  0.00000000000E+00 -0.78336432623E+03  0.78336432624E+03  0.25500000920E-02 0.  1.
    10030    2    1    2    0    0  0.00000000000E+00  0.00000000000E+00 -0.70345387238E+03  0.86327478013E+03  0.50039583875E+03 0.  0.
        2    1    3    3  502    0  0.14345106038E+03 -0.44704005337E+01  0.18339264924E+01  0.14353241619E+03  0.25500000920E-02 0.  1.
       -2    1    3    3    0  502 -0.14345106038E+03  0.44704005337E+01 -0.70528779888E+03  0.71974236394E+03  0.25500000920E-02 0. -1.
</event>
<event>
 5   0  0.1209831E-02  0.5000110E+03  0.7818609E-02  0.1013776E+00
        1   -1    0    0  501    0  0.00000000000E+00  0.00000000000E+00  0.22956270929E+03  0.22956270934E+03  0.50400001928E-02 0. -1.
       -1   -1    0    0    0  501  0.00000000000E+00  0.00000000000E+00 -0.27226871654E+03  0.27226871658E+03  0.50400001928E-02 0.  1.
    10030    2    1    2    0    0  0.00000000000E+00  0.00000000000E+00 -0.42706007252E+02  0.50183142593E+03  0.50001097687E+03 0.  0.
        4    1    3    3  502    0  0.16666895553E+03  0.15134304366E+03  0.87752834253E+02  0.24163077292E+03  0.12699999809E+01 0. -1.
       -4    1    3    3    0  502 -0.16666895553E+03 -0.15134304366E+03 -0.13045884151E+03  0.26020065301E+03  0.12699999809E+01 0.  1.
</event>
<event>
 5   0  0.1982847E-02  0.4994604E+03  0.7818609E-02  0.1013920E+00
        2   -1    0    0  501    0  0.00000000000E+00  0.00000000000E+00  0.32876650460E+03  0.32876650461E+03  0.25500000920E-02 0. -1.
       -2   -1    0    0    0  501  0.00000000000E+00  0.00000000000E+00 -0.18969444387E+03  0.18969444389E+03  0.25500000920E-02 0.  1.
    10030    2    1    2    0    0  0.00000000000E+00  0.00000000000E+00  0.13907206074E+03  0.51846094850E+03  0.49946042590E+03 0.  0.
        2    1    3    3  502    0 -0.56750892220E+02  0.14345393469E+03  0.27338774117E+03  0.31391169487E+03  0.25500000920E-02 0. -1.
       -2    1    3    3    0  502  0.56750892220E+02 -0.14345393469E+03 -0.13431568044E+03  0.20454925363E+03  0.25500000920E-02 0.  1.
</event>
<event>
 5   0  0.1982847E-02  0.5016661E+03  0.7818609E-02  0.1013345E+00
        2   -1    0    0  501    0  0.00000000000E+00  0.00000000000E+00  0.14240131073E+03  0.14240131075E+03  0.25500000920E-02 0. -1.
       -2   -1    0    0    0  501  0.00000000000E+00  0.00000000000E+00 -0.44183025543E+03  0.44183025544E+03  0.25500000920E-02 0.  1.
    10030    2    1    2    0    0  0.00000000000E+00  0.00000000000E+00 -0.29942894470E+03  0.58423156619E+03  0.50166605428E+03 0.  0.
        2    1    3    3  502    0 -0.59772573522E+02 -0.18638612274E+02  0.13315458818E+03  0.14714041856E+03  0.25500000920E-02 0. -1.
       -2    1    3    3    0  502  0.59772573522E+02  0.18638612274E+02 -0.43258353288E+03  0.43709114764E+03  0.25500000920E-02 0.  1.
</event>
<event>
 5   0  0.1225989E-02  0.5007031E+03  0.7818609E-02  0.1013596E+00
        1   -1    0    0  501    0  0.00000000000E+00  0.00000000000E+00  0.20649515656E+03  0.20649515662E+03  0.50400001928E-02 0. -1.
       -1   -1    0    0    0  501  0.00000000000E+00  0.00000000000E+00 -0.30352232616E+03  0.30352232620E+03  0.50400001928E-02 0.  1.
    10030    2    1    2    0    0  0.00000000000E+00  0.00000000000E+00 -0.97027169601E+02  0.51001748283E+03  0.50070306685E+03 0.  0.
        3    1    3    3  502    0 -0.10861153452E+02  0.18259401657E+03 -0.22262416119E+03  0.28813203031E+03  0.10100000352E+00 0.  1.
       -3    1    3    3    0  502  0.10861153452E+02 -0.18259401657E+03  0.12559699159E+03  0.22188545252E+03  0.10100000352E+00 0. -1.
</event>
<event>
 5   0  0.1180937E-02  0.5000856E+03  0.7818609E-02  0.1013757E+00
       -1   -1    0    0    0  501  0.00000000000E+00  0.00000000000E+00  0.17695391036E+03  0.17695391043E+03  0.50400001928E-02 0.  1.
        1   -1    0    0  501    0  0.00000000000E+00  0.00000000000E+00 -0.35332033035E+03  0.35332033039E+03  0.50400001928E-02 0. -1.
    10030    2    1    2    0    0  0.00000000000E+00  0.00000000000E+00 -0.17636641999E+03  0.53027424082E+03  0.50008564904E+03 0.  0.
        1    1    3    3  502    0 -0.22058910310E+03  0.94889084303E+02 -0.14276908787E+02  0.24055627383E+03  0.50400001928E-02 0.  1.
       -1    1    3    3    0  502  0.22058910310E+03 -0.94889084303E+02 -0.16208951121E+03  0.28971796699E+03  0.50400001928E-02 0. -1.
</event>
<event>
 5   0  0.1225989E-02  0.4998269E+03  0.7818609E-02  0.1013824E+00
       -1   -1    0    0    0  501  0.00000000000E+00  0.00000000000E+00  0.18643334607E+03  0.18643334613E+03  0.50400001928E-02 0.  1.
        1   -1    0    0  501    0  0.00000000000E+00  0.00000000000E+00 -0.33500836253E+03  0.33500836257E+03  0.50400001928E-02 0. -1.
    10030    2    1    2    0    0  0.00000000000E+00  0.00000000000E+00 -0.14857501646E+03  0.52144170870E+03  0.49982689009E+03 0.  0.
        3    1    3    3  502    0  0.41519321181E+02  0.19532693782E+03  0.82478013624E+02  0.21605346468E+03  0.10100000352E+00 0.  1.
       -3    1    3    3    0  502 -0.41519321181E+02 -0.19532693782E+03 -0.23105303009E+03  0.30538824402E+03  0.10100000352E+00 0. -1.
</event>
<event>
 5   0  0.1227864E-02  0.4987132E+03  0.7818609E-02  0.1014115E+00
        1   -1    0    0  501    0  0.00000000000E+00  0.00000000000E+00  0.27431571822E+03  0.27431571827E+03  0.50400001928E-02 0. -1.
       -1   -1    0    0    0  501  0.00000000000E+00  0.00000000000E+00 -0.22666844825E+03  0.22666844830E+03  0.50400001928E-02 0.  1.
    10030    2    1    2    0    0  0.00000000000E+00  0.00000000000E+00  0.47647269977E+02  0.50098416657E+03  0.49871321701E+03 0.  0.
        5    1    3    3  502    0  0.24528576089E+03 -0.10913031660E+02 -0.19644985153E+02  0.24635789858E+03  0.46999998093E+01 0.  1.
       -5    1    3    3    0  502 -0.24528576089E+03  0.10913031660E+02  0.67292255131E+02  0.25462626799E+03  0.46999998093E+01 0. -1.
</event>
<event>
 5   0  0.1217270E-02  0.4992700E+03  0.7818609E-02  0.1013970E+00
       -1   -1    0    0    0  501  0.00000000000E+00  0.00000000000E+00  0.18811567773E+03  0.18811567779E+03  0.50400001928E-02 0. -1.
        1   -1    0    0  501    0  0.00000000000E+00  0.00000000000E+00 -0.33127294898E+03  0.33127294902E+03  0.50400001928E-02 0.  1.
    10030    2    1    2    0    0  0.00000000000E+00  0.00000000000E+00 -0.14315727126E+03  0.51938862682E+03  0.49927000847E+03 0.  0.
        2    1    3    3  502    0 -0.11201521008E+03 -0.44153902851E+02  0.15591263903E+03  0.19699168876E+03  0.25500000920E-02 0. -1.
       -2    1    3    3    0  502  0.11201521008E+03  0.44153902851E+02 -0.29906991028E+03  0.32239693806E+03  0.25500000920E-02 0.  1.
</event>
<event>
 5   0  0.1217270E-02  0.4984525E+03  0.7818609E-02  0.1014184E+00
       -1   -1    0    0    0  501  0.00000000000E+00  0.00000000000E+00  0.20601680708E+02  0.20601681325E+02  0.50400001928E-02 0.  1.
        1   -1    0    0  501    0  0.00000000000E+00  0.00000000000E+00 -0.30149835306E+04  0.30149835306E+04  0.50400001928E-02 0. -1.
    10030    2    1    2    0    0  0.00000000000E+00  0.00000000000E+00 -0.29943818499E+04  0.30355852120E+04  0.49845252123E+03 0.  0.
        2    1    3    3  502    0 -0.13921160461E+02  0.17688406042E+03 -0.43131655197E+03  0.46638582477E+03  0.25500000920E-02 0.  1.
       -2    1    3    3    0  502  0.13921160461E+02 -0.17688406042E+03 -0.25630652980E+04  0.25691993872E+04  0.25500000920E-02 0. -1.
</event>
<event>
 5   0  0.1855407E-02  0.5007691E+03  0.7818609E-02  0.1013578E+00
       -2   -1    0    0    0  501  0.00000000000E+00  0.00000000000E+00  0.21519611274E+03  0.21519611276E+03  0.25500000920E-02 0. -1.
        2   -1    0    0  501    0  0.00000000000E+00  0.00000000000E+00 -0.29132690884E+03  0.29132690885E+03  0.25500000920E-02 0.  1.
    10030    2    1    2    0    0  0.00000000000E+00  0.00000000000E+00 -0.76130796095E+02  0.50652302161E+03  0.50076908182E+03 0.  0.
        1    1    3    3  502    0 -0.10306009989E+02  0.82795257517E+02  0.20072160420E+03  0.21737164242E+03  0.50400001928E-02 0. -1.
       -1    1    3    3    0  502  0.10306009989E+02 -0.82795257517E+02 -0.27685240030E+03  0.28915137919E+03  0.50400001928E-02 0.  1.
</event>
<event>
 5   0  0.8012875E-03  0.5017307E+03  0.7818609E-02  0.1013328E+00
       -3   -1    0    0    0  501  0.00000000000E+00  0.00000000000E+00  0.10885411229E+03  0.10885415914E+03  0.10100000352E+00 0.  1.
        3   -1    0    0  501    0  0.00000000000E+00  0.00000000000E+00 -0.57814437989E+03  0.57814438871E+03  0.10100000352E+00 0. -1.
    10030    2    1    2    0    0  0.00000000000E+00  0.00000000000E+00 -0.46929026760E+03  0.68699854786E+03  0.50173065433E+03 0.  0.
        5    1    3    3  502    0 -0.10882688691E+03 -0.69223097356E+02 -0.52919850585E+03  0.54470935104E+03  0.46999998093E+01 0. -1.
       -5    1    3    3    0  502  0.10882688691E+03  0.69223097356E+02  0.59908238245E+02  0.14228919682E+03  0.46999998093E+01 0.  1.
</event>
<event>
 5   0  0.1923706E-02  0.5006322E+03  0.7818609E-02  0.1013614E+00
        2   -1    0    0  501    0  0.00000000000E+00  0.00000000000E+00  0.14491168954E+04  0.14491168954E+04  0.25500000920E-02 0.  1.
       -2   -1    0    0    0  501  0.00000000000E+00  0.00000000000E+00 -0.43238852170E+02  0.43238852246E+02  0.25500000920E-02 0. -1.
    10030    2    1    2    0    0  0.00000000000E+00  0.00000000000E+00  0.14058780432E+04  0.14923557476E+04  0.50063220541E+03 0.  0.
        3    1    3    3  502    0 -0.15524090171E+01 -0.93845990428E+02  0.11201977964E+02  0.94524993544E+02  0.10100000352E+00 0. -1.
       -3    1    3    3    0  502  0.15524090171E+01  0.93845990428E+02  0.13946760652E+04  0.13978307541E+04  0.10100000352E+00 0.  1.
</event>
<event>
 5   0  0.1227864E-02  0.5006816E+03  0.7818609E-02  0.1013601E+00
        1   -1    0    0  501    0  0.00000000000E+00  0.00000000000E+00  0.27234456071E+03  0.27234456076E+03  0.50400001928E-02 0.  1.
       -1   -1    0    0    0  501  0.00000000000E+00  0.00000000000E+00 -0.23011477123E+03  0.23011477128E+03  0.50400001928E-02 0. -1.
    10030    2    1    2    0    0  0.00000000000E+00  0.00000000000E+00  0.42229789485E+02  0.50245933205E+03  0.50068156071E+03 0.  0.
        5    1    3    3  502    0  0.23675953061E+03 -0.21217851119E+02  0.99771402269E+02  0.25784044533E+03  0.46999998093E+01 0. -1.
       -5    1    3    3    0  502 -0.23675953061E+03  0.21217851119E+02 -0.57541612784E+02  0.24461888672E+03  0.46999998093E+01 0.  1.
</event>
<event>
 5   0  0.1982847E-02  0.5000316E+03  0.7818609E-02  0.1013771E+00
        2   -1    0    0  501    0  0.00000000000E+00  0.00000000000E+00  0.36769831437E+03  0.36769831438E+03  0.25500000920E-02 0. -1.
       -2   -1    0    0    0  501  0.00000000000E+00  0.00000000000E+00 -0.16999782083E+03  0.16999782085E+03  0.25500000920E-02 0.  1.
    10030    2    1    2    0    0  0.00000000000E+00  0.00000000000E+00  0.19770049354E+03  0.53769613524E+03  0.50003164770E+03 0.  0.
        2    1    3    3  502    0  0.12084174132E+03  0.15285879504E+02  0.33363449528E+03  0.35517370540E+03  0.25500000920E-02 0. -1.
       -2    1    3    3    0  502 -0.12084174132E+03 -0.15285879504E+02 -0.13593400174E+03  0.18252242984E+03  0.25500000920E-02 0.  1.
</event>
<event>
 5   0  0.1941387E-02  0.5002504E+03  0.7818609E-02  0.1013714E+00
       -2   -1    0    0    0  501  0.00000000000E+00  0.00000000000E+00  0.25772025005E+03  0.25772025007E+03  0.25500000920E-02 0.  1.
        2   -1    0    0  501    0  0.00000000000E+00  0.00000000000E+00 -0.24275399695E+03  0.24275399696E+03  0.25500000920E-02 0. -1.
    10030    2    1    2    0    0  0.00000000000E+00  0.00000000000E+00  0.14966253108E+02  0.50047424703E+03  0.50025042049E+03 0.  0.
        4    1    3    3  502    0 -0.11600935255E+03 -0.21513284631E+03  0.60617118966E+02  0.25182604998E+03  0.12699999809E+01 0.  1.
       -4    1    3    3    0  502  0.11600935255E+03  0.21513284631E+03 -0.45650865858E+02  0.24864819704E+03  0.12699999809E+01 0. -1.
</event>
<event>
 5   0  0.1209831E-02  0.5001343E+03  0.7818609E-02  0.1013744E+00
       -1   -1    0    0    0  501  0.00000000000E+00  0.00000000000E+00  0.11473403668E+03  0.11473403679E+03  0.50400001928E-02 0. -1.
        1   -1    0    0  501    0  0.00000000000E+00  0.00000000000E+00 -0.54503068415E+03  0.54503068418E+03  0.50400001928E-02 0.  1.
    10030    2    1    2    0    0  0.00000000000E+00  0.00000000000E+00 -0.43029664747E+03  0.65976472097E+03  0.50013426419E+03 0.  0.
        4    1    3    3  502    0  0.13851743448E+03 -0.16593254771E+03 -0.38102519101E+03  0.43806677473E+03  0.12699999809E+01 0.  1.
       -4    1    3    3    0  502 -0.13851743448E+03  0.16593254771E+03 -0.49271456461E+02  0.22169794624E+03  0.12699999809E+01 0. -1.
</event>
<event>
 5   0  0.1967813E-02  0.4997181E+03  0.7818609E-02  0.1013853E+00
        2   -1    0    0  501    0  0.00000000000E+00  0.00000000000E+00  0.10119573516E+04  0.10119573516E+04  0.25500000920E-02 0. -1.
       -2   -1    0    0    0  501  0.00000000000E+00  0.00000000000E+00 -0.61691878727E+02  0.61691878780E+02  0.25500000920E-02 0.  1.
    10030    2    1    2    0    0  0.00000000000E+00  0.00000000000E+00  0.95026547291E+03  0.10736492304E+04  0.49971812152E+03 0.  0.
        5    1    3    3  502    0  0.59773313941E+02  0.16671750197E+03  0.85366018310E+03  0.87185169193E+03  0.46999998093E+01 0. -1.
       -5    1    3    3    0  502 -0.59773313941E+02 -0.16671750197E+03  0.96605289809E+02  0.20179753848E+03  0.46999998093E+01 0.  1.
</event>
<event>
 5   0  0.1855407E-02  0.5001053E+03  0.7818609E-02  0.1013751E+00
        2   -1    0    0  501    0  0.00000000000E+00  0.00000000000E+00  0.21763798505E+04  0.21763798505E+04  0.25500000920E-02 0. -1.
       -2   -1    0    0    0  501  0.00000000000E+00  0.00000000000E+00 -0.28729514516E+02  0.28729514629E+02  0.25500000920E-02 0.  1.
    10030    2    1    2    0    0  0.00000000000E+00  0.00000000000E+00  0.21476503360E+04  0.22051093651E+04  0.50010533544E+03 0.  0.
        1    1    3    3  502    0 -0.11148142739E+03  0.13206961837E+03  0.18706247567E+04  0.18785918857E+04  0.50400001928E-02 0. -1.
       -1    1    3    3    0  502  0.11148142739E+03 -0.13206961837E+03  0.27702557930E+03  0.32651747941E+03  0.50400001928E-02 0.  1.
</event>
<event>
 5   0  0.1209831E-02  0.4983121E+03  0.7818609E-02  0.1014220E+00
        1   -1    0    0  501    0  0.00000000000E+00  0.00000000000E+00  0.15824196364E+04  0.15824196364E+04  0.50400001928E-02 0.  1.
       -1   -1    0    0    0  501  0.00000000000E+00  0.00000000000E+00 -0.39230254768E+02  0.39230255091E+02  0.50400001928E-02 0. -1.
    10030    2    1    2    0    0  0.00000000000E+00  0.00000000000E+00  0.15431893816E+04  0.16216498915E+04  0.49831205385E+03 0.  0.
        4    1    3    3  502    0  0.20488564252E+03  0.93808745008E+02  0.11175132767E+04  0.11400069050E+04  0.12699999809E+01 0. -1.
       -4    1    3    3    0  502 -0.20488564252E+03 -0.93808745008E+02  0.42567610495E+03  0.48164298643E+03  0.12699999809E+01 0.  1.
</event>
<event>
 5   0  0.8012875E-03  0.4989924E+03  0.7818609E-02  0.1014042E+00
        3   -1    0    0  501    0  0.00000000000E+00  0.00000000000E+00  0.18897604498E+03  0.18897607198E+03  0.10100000352E+00 0.  1.
       -3   -1    0    0    0  501  0.00000000000E+00  0.00000000000E+00 -0.32939800481E+03  0.32939802029E+03  0.10100000352E+00 0. -1.
    10030    2    1    2    0    0  0.00000000000E+00  0.00000000000E+00 -0.14042195982E+03  0.51837409227E+03  0.49899235739E+03 0.  0.
        2    1    3    3  502    0 -0.31573429066E+01  0.18815985345E+03 -0.24038532009E+03  0.30528544248E+03  0.25500000920E-02 0. -1.
       -2    1    3    3    0  502  0.31573429066E+01 -0.18815985345E+03  0.99963360270E+02  0.21308864979E+03  0.25500000920E-02 0.  1.
</event>
<event>
 5   0  0.1180937E-02  0.4987498E+03  0.7818609E-02  0.1014106E+00
       -1   -1    0    0    0  501  0.00000000000E+00  0.00000000000E+00  0.64285405849E+02  0.64285406047E+02  0.50400001928E-02 0.  1.
        1   -1    0    0  501    0  0.00000000000E+00  0.00000000000E+00 -0.96737118946E+03  0.96737118947E+03  0.50400001928E-02 0. -1.
    10030    2    1    2    0    0  0.00000000000E+00  0.00000000000E+00 -0.90308578361E+03  0.10316565955E+04  0.49874983561E+03 0.  0.
        1    1    3    3  502    0  0.19388916857E+03 -0.12813052537E+03 -0.26449180450E+03  0.35208856257E+03  0.50400001928E-02 0.  1.
       -1    1    3    3    0  502 -0.19388916857E+03  0.12813052537E+03 -0.63859397911E+03  0.67956803295E+03  0.50400001928E-02 0. -1.
</event>
<event>
 5   0  0.1941387E-02  0.4997558E+03  0.7818609E-02  0.1013843E+00
       -2   -1    0    0    0  501  0.00000000000E+00  0.00000000000E+00  0.35603477045E+02  0.35603477137E+02  0.25500000920E-02 0. -1.
        2   -1    0    0  501    0  0.00000000000E+00  0.00000000000E+00 -0.17537321952E+04  0.17537321952E+04  0.25500000920E-02 0.  1.
    10030    2    1    2    0    0  0.00000000000E+00  0.00000000000E+00 -0.17181287182E+04  0.17893356724E+04  0.49975579652E+03 0.  0.
        4    1    3    3  502    0 -0.69683738097E+02  0.23986442318E+03 -0.83462651011E+03  0.87120249606E+03  0.12699999809E+01 0.  1.
       -4    1    3    3    0  502  0.69683738097E+02 -0.23986442318E+03 -0.88350220807E+03  0.91813317631E+03  0.12699999809E+01 0. -1.
</event>
<event>
 5   0  0.1923706E-02  0.4998221E+03  0.7818609E-02  0.1013825E+00
        2   -1    0    0  501    0  0.00000000000E+00  0.00000000000E+00  0.48955974261E+03  0.48955974262E+03  0.25500000920E-02 0.  1.
       -2   -1    0    0    0  501  0.00000000000E+00  0.00000000000E+00 -0.12757487754E+03  0.12757487756E+03  0.25500000920E-02 0. -1.
    10030    2    1    2    0    0  0.00000000000E+00  0.00000000000E+00  0.36198486508E+03  0.61713462018E+03  0.49982206522E+03 0.  0.
        3    1    3    3  502    0  0.15625884970E+03 -0.16976509031E+02 -0.58905081718E+02  0.16785365299E+03  0.10100000352E+00 0. -1.
       -3    1    3    3    0  502 -0.15625884970E+03  0.16976509031E+02  0.42088994679E+03  0.44928096719E+03  0.10100000352E+00 0.  1.
</event>
<event>
 5   0  0.1982847E-02  0.4994684E+03  0.7818609E-02  0.1013918E+00
        2   -1    0    0  501    0  0.00000000000E+00  0.00000000000E+00  0.83438900803E+03  0.83438900803E+03  0.25500000920E-02 0. -1.
       -2   -1    0    0    0  501  0.00000000000E+00  0.00000000000E+00 -0.74745920450E+02  0.74745920493E+02  0.25500000920E-02 0.  1.
    10030    2    1    2    0    0  0.00000000000E+00  0.00000000000E+00  0.75964308758E+03  0.90913492853E+03  0.49946841518E+03 0.  0.
        2    1    3    3  502    0 -0.21688596774E+03 -0.12312978205E+03  0.40332321772E+03  0.47420468596E+03  0.25500000920E-02 0. -1.
       -2    1    3    3    0  502  0.21688596774E+03  0.12312978205E+03  0.35631986986E+03  0.43493024256E+03  0.25500000920E-02 0.  1.
</event>
<event>
 5   0  0.1982847E-02  0.4996102E+03  0.7818609E-02  0.1013881E+00
        2   -1    0    0  501    0  0.00000000000E+00  0.00000000000E+00  0.12794247466E+03  0.12794247469E+03  0.25500000920E-02 0. -1.
       -2   -1    0    0    0  501  0.00000000000E+00  0.00000000000E+00 -0.48773932899E+03  0.48773932899E+03  0.25500000920E-02 0.  1.
    10030    2    1    2    0    0  0.00000000000E+00  0.00000000000E+00 -0.35979685433E+03  0.61568180368E+03  0.49961015502E+03 0.  0.
        2    1    3    3  502    0 -0.90857711769E+02  0.22559044080E+03 -0.25022093216E+03  0.34893650664E+03  0.25500000920E-02 0. -1.
       -2    1    3    3    0  502  0.90857711769E+02 -0.22559044080E+03 -0.10957592216E+03  0.26674529704E+03  0.25500000920E-02 0.  1.
</event>
<event>
 5   0  0.1941387E-02  0.4999305E+03  0.7818609E-02  0.1013797E+00
        2   -1    0    0  501    0  0.00000000000E+00  0.00000000000E+00  0.27917830285E+03  0.27917830286E+03  0.25500000920E-02 0. -1.
       -2   -1    0    0    0  501  0.00000000000E+00  0.00000000000E+00 -0.22380902102E+03  0.22380902104E+03  0.25500000920E-02 0.  1.
    10030    2    1    2    0    0  0.00000000000E+00  0.00000000000E+00  0.55369281829E+02  0.50298732390E+03  0.49993048580E+03 0.  0.
        4    1    3    3  502    0  0.10542605351E+02 -0.20237713774E+03 -0.11954315203E+03  0.23528669853E+03  0.12699999809E+01 0.  1.
       -4    1    3    3    0  502 -0.10542605351E+02  0.20237713774E+03  0.17491243386E+03  0.26770062537E+03  0.12699999809E+01 0. -1.
</event>
<event>
 5   0  0.1967813E-02  0.5010864E+03  0.7818609E-02  0.1013496E+00
        2   -1    0    0  501    0  0.00000000000E+00  0.00000000000E+00  0.92379356764E+03  0.92379356765E+03  0.25500000920E-02 0. -1.
       -2   -1    0    0    0  501  0.00000000000E+00  0.00000000000E+00 -0.67950119931E+02  0.67950119979E+02  0.25500000920E-02 0.  1.
    10030    2    1    2    0    0  0.00000000000E+00  0.00000000000E+00  0.85584344771E+03  0.99174368762E+03  0.50108635479E+03 0.  0.
        5    1    3    3  502    0  0.10250324278E+03 -0.19007693780E+03  0.17668469316E+03  0.27906222936E+03  0.46999998093E+01 0.  1.
       -5    1    3    3    0  502 -0.10250324278E+03  0.19007693780E+03  0.67915875456E+03  0.71268145826E+03  0.46999998093E+01 0. -1.
</event>
<event>
 5   0  0.1967813E-02  0.5125767E+03  0.7818609E-02  0.1010547E+00
        2   -1    0    0  501    0  0.00000000000E+00  0.00000000000E+00  0.93185452345E+03  0.93185452345E+03  0.25500000920E-02 0. -1.
       -2   -1    0    0    0  501  0.00000000000E+00  0.00000000000E+00 -0.70487084662E+02  0.70487084708E+02  0.25500000920E-02 0.  1.
    10030    2    1    2    0    0  0.00000000000E+00  0.00000000000E+00  0.86136743878E+03  0.10023416082E+04  0.51257666241E+03 0.  0.
        5    1    3    3  502    0 -0.14330225406E+03  0.12805396734E+03  0.99238604475E+02  0.21634173242E+03  0.46999998093E+01 0.  1.
       -5    1    3    3    0  502  0.14330225406E+03 -0.12805396734E+03  0.76212883431E+03  0.78599987573E+03  0.46999998093E+01 0. -1.
</event>
<event>
 5   0  0.1923706E-02  0.4967668E+03  0.7818609E-02  0.1014626E+00
       -2   -1    0    0    0  501  0.00000000000E+00  0.00000000000E+00  0.44062417514E+02  0.44062417588E+02  0.25500000920E-02 0.  1.
        2   -1    0    0  501    0  0.00000000000E+00  0.00000000000E+00 -0.14001571025E+04  0.14001571025E+04  0.25500000920E-02 0. -1.
    10030    2    1    2    0    0  0.00000000000E+00  0.00000000000E+00 -0.13560946850E+04  0.14442195201E+04  0.49676677382E+03 0.  0.
        3    1    3    3  502    0  0.24064067926E+03 -0.35229107646E+02 -0.53137520799E+03  0.58438741295E+03  0.10100000352E+00 0.  1.
       -3    1    3    3    0  502 -0.24064067926E+03  0.35229107646E+02 -0.82471947702E+03  0.85983210717E+03  0.10100000352E+00 0. -1.
</event>
<event>
 5   0  0.1209831E-02  0.5016903E+03  0.7818609E-02  0.1013339E+00
        1   -1    0    0  501    0  0.00000000000E+00  0.00000000000E+00  0.40051244719E+03  0.40051244722E+03  0.50400001928E-02 0. -1.
       -1   -1    0    0    0  501  0.00000000000E+00  0.00000000000E+00 -0.15710698053E+03  0.15710698061E+03  0.50400001928E-02 0.  1.
    10030    2    1    2    0    0  0.00000000000E+00  0.00000000000E+00  0.24340546666E+03  0.55761942783E+03  0.50169034782E+03 0.  0.
        4    1    3    3  502    0 -0.19130221533E+03  0.16220383560E+03  0.11738845360E+03  0.27692649532E+03  0.12699999809E+01 0. -1.
       -4    1    3    3    0  502  0.19130221533E+03 -0.16220383560E+03  0.12601701307E+03  0.28069293250E+03  0.12699999809E+01 0.  1.
</event>
<event>
 5   0  0.1180937E-02  0.5013655E+03  0.7818609E-02  0.1013423E+00
        1   -1    0    0  501    0  0.00000000000E+00  0.00000000000E+00  0.31062838529E+03  0.31062838533E+03  0.50400001928E-02 0.  1.
       -1   -1    0    0    0  501  0.00000000000E+00  0.00000000000E+00 -0.20230557250E+03  0.20230557256E+03  0.50400001928E-02 0. -1.
    10030    2    1    2    0    0  0.00000000000E+00  0.00000000000E+00  0.10832281279E+03  0.51293395789E+03  0.50136554866E+03 0.  0.
        1    1    3    3  502    0 -0.18181166558E+03  0.47738977224E+02  0.22384170983E+03  0.29230053502E+03  0.50400001928E-02 0.  1.
       -1    1    3    3    0  502  0.18181166558E+03 -0.47738977224E+02 -0.11551889704E+03  0.22063342287E+03  0.50400001928E-02 0. -1.
</event>
<event>
 5   0  0.1982847E-02  0.5014231E+03  0.7818609E-02  0.1013408E+00
        2   -1    0    0  501    0  0.00000000000E+00  0.00000000000E+00  0.10029147860E+04  0.10029147860E+04  0.25500000920E-02 0. -1.
       -2   -1    0    0    0  501  0.00000000000E+00  0.00000000000E+00 -0.62673613224E+02  0.62673613275E+02  0.25500000920E-02 0.  1.
    10030    2    1    2    0    0  0.00000000000E+00  0.00000000000E+00  0.94024117276E+03  0.10655883993E+04  0.50142314834E+03 0.  0.
        2    1    3    3  502    0 -0.30751924650E+02 -0.24840188117E+03  0.50070456640E+03  0.55978052686E+03  0.25500000920E-02 0.  1.
       -2    1    3    3    0  502  0.30751924650E+02  0.24840188117E+03  0.43953660637E+03  0.50580787240E+03  0.25500000920E-02 0. -1.
</event>
<event>
 5   0  0.1941387E-02  0.5008499E+03  0.7818609E-02  0.1013557E+00
       -2   -1    0    0    0  501  0.00000000000E+00  0.00000000000E+00  0.12138214690E+03  0.12138214692E+03  0.25500000920E-02 0.  1.
        2   -1    0    0  501    0  0.00000000000E+00  0.00000000000E+00 -0.51665472459E+03  0.51665472460E+03  0.25500000920E-02 0. -1.
    10030    2    1    2    0    0  0.00000000000E+00  0.00000000000E+00 -0.39527257769E+03  0.63803687152E+03  0.50084991639E+03 0.  0.
        4    1    3    3  502    0  0.11345362377E+03 -0.14232841486E+03  0.21468328196E+02  0.18328012560E+03  0.12699999809E+01 0.  1.
       -4    1    3    3    0  502 -0.11345362377E+03  0.14232841486E+03 -0.41674090589E+03  0.45475674592E+03  0.12699999809E+01 0. -1.
</event>
<event>
 5   0  0.1227864E-02  0.5006255E+03  0.7818609E-02  0.1013616E+00
        1   -1    0    0  501    0  0.00000000000E+00  0.00000000000E+00  0.36418420713E+03  0.36418420717E+03  0.50400001928E-02 0. -1.
       -1   -1    0    0    0  501  0.00000000000E+00  0.00000000000E+00 -0.17204612410E+03  0.17204612417E+03  0.50400001928E-02 0.  1.
    10030    2    1    2    0    0  0.00000000000E+00  0.00000000000E+00  0.19213808303E+03  0.53623033134E+03  0.50062553400E+03 0.  0.
        5    1    3    3  502    0  0.11282436463E+03  0.34671501157E+02  0.33245189626E+03  0.35281412042E+03  0.46999998093E+01 0. -1.
       -5    1    3    3    0  502 -0.11282436463E+03 -0.34671501157E+02 -0.14031381322E+03  0.18341621092E+03  0.46999998093E+01 0.  1.
</event>
<event>
 5   0  0.1227864E-02  0.5005592E+03  0.7818609E-02  0.1013633E+00
       -1   -1    0    0    0  501  0.00000000000E+00  0.00000000000E+00  0.13026519032E+04  0.13026519032E+04  0.50400001928E-02 0. -1.
        1   -1    0    0  501    0  0.00000000000E+00  0.00000000000E+00 -0.48086434681E+02  0.48086434945E+02  0.50400001928E-02 0.  1.
    10030    2    1    2    0    0  0.00000000000E+00  0.00000000000E+00  0.12545654685E+04  0.13507383382E+04  0.50055923062E+03 0.  0.
        5    1    3    3  502    0  0.16890427303E+03 -0.11956414563E+03  0.10069277308E+04  0.10279833575E+04  0.46999998093E+01 0. -1.
       -5    1    3    3    0  502 -0.16890427303E+03  0.11956414563E+03  0.24763773776E+03  0.32275498064E+03  0.46999998093E+01 0.  1.
</event>
<event>
 5   0  0.1855407E-02  0.4880077E+03  0.7818609E-02  0.1016957E+00
       -2   -1    0    0    0  501  0.00000000000E+00  0.00000000000E+00  0.11821102548E+03  0.11821102550E+03  0.25500000920E-02 0.  1.
        2   -1    0    0  501    0  0.00000000000E+00  0.00000000000E+00 -0.50365762781E+03  0.50365762781E+03  0.25500000920E-02 0. -1.
    10030    2    1    2    0    0  0.00000000000E+00  0.00000000000E+00 -0.38544660233E+03  0.62186865332E+03  0.48800772405E+03 0.  0.
        1    1    3    3  502    0 -0.17343018562E+03  0.16473765434E+03 -0.13132684903E+03  0.27287958030E+03  0.50400001928E-02 0.  1.
       -1    1    3    3    0  502  0.17343018562E+03 -0.16473765434E+03 -0.25411975330E+03  0.34898907302E+03  0.50400001928E-02 0. -1.
</event>
<event>
 5   0  0.8012875E-03  0.5002887E+03  0.7818609E-02  0.1013704E+00
        3   -1    0    0  501    0  0.00000000000E+00  0.00000000000E+00  0.36155048515E+02  0.36155189587E+02  0.10100000352E+00 0.  1.
       -3   -1    0    0    0  501  0.00000000000E+00  0.00000000000E+00 -0.17306591670E+04  0.17306591700E+04  0.10100000352E+00 0. -1.
    10030    2    1    2    0    0  0.00000000000E+00  0.00000000000E+00 -0.16945041185E+04  0.17668143596E+04  0.50028869016E+03 0.  0.
        1    1    3    3  502    0  0.61179653902E+02 -0.24189330825E+03 -0.78438671592E+03  0.82311472029E+03  0.50400001928E-02 0. -1.
       -1    1    3    3    0  502 -0.61179653902E+02  0.24189330825E+03 -0.91011740260E+03  0.94369963928E+03  0.50400001928E-02 0.  1.
</event>
<event>
 5   0  0.1227864E-02  0.4985875E+03  0.7818609E-02  0.1014148E+00
        1   -1    0    0  501    0  0.00000000000E+00  0.00000000000E+00  0.77137878562E+03  0.77137878564E+03  0.50400001928E-02 0. -1.
       -1   -1    0    0    0  501  0.00000000000E+00  0.00000000000E+00 -0.80566609332E+02  0.80566609490E+02  0.50400001928E-02 0.  1.
    10030    2    1    2    0    0  0.00000000000E+00  0.00000000000E+00  0.69081217629E+03  0.85194539513E+03  0.49858749821E+03 0.  0.
        5    1    3    3  502    0 -0.16412709955E+03  0.88405583164E+02  0.62707336953E+02  0.19674234940E+03  0.46999998093E+01 0.  1.
       -5    1    3    3    0  502  0.16412709955E+03 -0.88405583164E+02  0.62810483934E+03  0.65520304573E+03  0.46999998093E+01 0. -1.
</event>
<event>
 5   0  0.1217270E-02  0.5004403E+03  0.7818609E-02  0.1013664E+00
       -1   -1    0    0    0  501  0.00000000000E+00  0.00000000000E+00  0.21153521014E+03  0.21153521020E+03  0.50400001928E-02 0.  1.
        1   -1    0    0  501    0  0.00000000000E+00  0.00000000000E+00 -0.29597971194E+03  0.29597971199E+03  0.50400001928E-02 0. -1.
    10030    2    1    2    0    0  0.00000000000E+00  0.00000000000E+00 -0.84444501800E+02  0.50751492219E+03  0.50044032847E+03 0.  0.
        2    1    3    3  502    0 -0.24872123302E+03 -0.34816965819E+01 -0.69730541520E+02  0.25833451646E+03  0.25500000920E-02 0.  1.
       -2    1    3    3    0  502  0.24872123302E+03  0.34816965819E+01 -0.14713960280E+02  0.24918040573E+03  0.25500000920E-02 0. -1.
</event>
<event>
 5   0  0.1209831E-02  0.5001294E+03  0.7818609E-02  0.1013745E+00
       -1   -1    0    0    0  501  0.00000000000E+00  0.00000000000E+00  0.13703159747E+03  0.13703159756E+03  0.50400001928E-02 0.  1.
        1   -1    0    0  501    0  0.00000000000E+00  0.00000000000E+00 -0.45633531043E+03  0.45633531046E+03  0.50400001928E-02 0. -1.
    10030    2    1    2    0    0  0.00000000000E+00  0.00000000000E+00 -0.31930371296E+03  0.59336690802E+03  0.50012940967E+03 0.  0.
        4    1    3    3  502    0 -0.97721196420E+02  0.17312126772E+03  0.20319101693E+02  0.19983714459E+03  0.12699999809E+01 0.  1.
       -4    1    3    3    0  502  0.97721196420E+02 -0.17312126772E+03 -0.33962281465E+03  0.39352976342E+03  0.12699999809E+01 0. -1.
</event>
<event>
 5   0  0.1209831E-02  0.4999283E+03  0.7818609E-02  0.1013798E+00
        1   -1    0    0  501    0  0.00000000000E+00  0.00000000000E+00  0.13767541631E+03  0.13767541640E+03  0.50400001928E-02 0. -1.
       -1   -1    0    0    0  501  0.00000000000E+00  0.00000000000E+00 -0.45383611678E+03  0.45383611681E+03  0.50400001928E-02 0.  1.
    10030    2    1    2    0    0  0.00000000000E+00  0.00000000000E+00 -0.31616070047E+03  0.59151153322E+03  0.49992830026E+03 0.  0.
        4    1    3    3  502    0  0.58828914701E+02 -0.24274244599E+03 -0.14650396209E+03  0.28956823048E+03  0.12699999809E+01 0.  1.
       -4    1    3    3    0  502 -0.58828914701E+02  0.24274244599E+03 -0.16965673838E+03  0.30194330274E+03  0.12699999809E+01 0. -1.
</event>
<event>
 5   0  0.1180937E-02  0.5011482E+03  0.7818609E-02  0.1013480E+00
        1   -1    0    0  501    0  0.00000000000E+00  0.00000000000E+00  0.13805207589E+04  0.13805207589E+04  0.50400001928E-02 0.  1.
       -1   -1    0    0    0  501  0.00000000000E+00  0.00000000000E+00 -0.45480942960E+02  0.45480943239E+02  0.50400001928E-02 0. -1.
    10030    2    1    2    0    0  0.00000000000E+00  0.00000000000E+00  0.13350398160E+04  0.14260017022E+04  0.50114822596E+03 0.  0.
        1    1    3    3  502    0 -0.99842268978E+02 -0.55524659649E+02  0.13021036227E+04  0.13071056999E+04  0.50400001928E-02 0.  1.
       -1    1    3    3    0  502  0.99842268978E+02  0.55524659649E+02  0.32936193298E+02  0.11889600228E+03  0.50400001928E-02 0. -1.
</event>
<event>
 5   0  0.8012875E-03  0.4998984E+03  0.7818609E-02  0.1013805E+00
        4   -1    0    0  501    0  0.00000000000E+00  0.00000000000E+00  0.51876048243E+02  0.51891591624E+02  0.12699999809E+01 0.  1.
       -4   -1    0    0    0  501  0.00000000000E+00  0.00000000000E+00 -0.12041091626E+04  0.12041098324E+04  0.12699999809E+01 0. -1.
    10030    2    1    2    0    0  0.00000000000E+00  0.00000000000E+00 -0.11522331144E+04  0.12560014240E+04  0.49989841688E+03 0.  0.
        2    1    3    3  502    0  0.68153269817E+02 -0.13594706613E+03 -0.10745078430E+04  0.10852159129E+04  0.25500000920E-02 0. -1.
       -2    1    3    3    0  502 -0.68153269817E+02  0.13594706613E+03 -0.77725271378E+02  0.17078551108E+03  0.25500000920E-02 0.  1.
</event>
<event>
 5   0  0.1227864E-02  0.5003718E+03  0.7818609E-02  0.1013682E+00
       -1   -1    0    0    0  501  0.00000000000E+00  0.00000000000E+00  0.12282214183E+03  0.12282214193E+03  0.50400001928E-02 0.  1.
        1   -1    0    0  501    0  0.00000000000E+00  0.00000000000E+00 -0.50962286696E+03  0.50962286699E+03  0.50400001928E-02 0. -1.
    10030    2    1    2    0    0  0.00000000000E+00  0.00000000000E+00 -0.38680072513E+03  0.63244500892E+03  0.50037175015E+03 0.  0.
        5    1    3    3  502    0 -0.22190328981E+03 -0.11021986073E+03 -0.23684412537E+03  0.34279252828E+03  0.46999998093E+01 0. -1.
       -5    1    3    3    0  502  0.22190328981E+03  0.11021986073E+03 -0.14995659977E+03  0.28965248064E+03  0.46999998093E+01 0.  1.
</event>
<event>
 5   0  0.1923706E-02  0.5011266E+03  0.7818609E-02  0.1013485E+00
        2   -1    0    0  501    0  0.00000000000E+00  0.00000000000E+00  0.58139885505E+03  0.58139885505E+03  0.25500000920E-02 0.  1.
       -2   -1    0    0    0  501  0.00000000000E+00  0.00000000000E+00 -0.10798433063E+03  0.10798433066E+03  0.25500000920E-02 0. -1.
    10030    2    1    2    0    0  0.00000000000E+00  0.00000000000E+00  0.47341452442E+03  0.68938318571E+03  0.50112659560E+03 0.  0.
        3    1    3    3  502    0  0.17686334264E+03 -0.24275341663E+02  0.47857444172E+03  0.51078707956E+03  0.10100000352E+00 0. -1.
       -3    1    3    3    0  502 -0.17686334264E+03  0.24275341663E+02 -0.51599172989E+01  0.17859610615E+03  0.10100000352E+00 0.  1.
</event>
<event>
 5   0  0.1225989E-02  0.5010728E+03  0.7818609E-02  0.1013499E+00
       -1   -1    0    0    0  501  0.00000000000E+00  0.00000000000E+00  0.12871049716E+03  0.12871049726E+03  0.50400001928E-02 0. -1.
        1   -1    0    0  501    0  0.00000000000E+00  0.00000000000E+00 -0.48767184399E+03  0.48767184401E+03  0.50400001928E-02 0.  1.
    10030    2    1    2    0    0  0.00000000000E+00  0.00000000000E+00 -0.35896134683E+03  0.61638234128E+03  0.50107279124E+03 0.  0.
        3    1    3    3  502    0 -0.20934067835E+03  0.13743079355E+03 -0.18882741638E+03  0.31363441458E+03  0.10100000352E+00 0. -1.
       -3    1    3    3    0  502  0.20934067835E+03 -0.13743079355E+03 -0.17013393044E+03  0.30274792670E+03  0.10100000352E+00 0.  1.
</event>
<event>
 5   0  0.8012875E-03  0.4992259E+03  0.7818609E-02  0.1013981E+00
        3   -1    0    0  501    0  0.00000000000E+00  0.00000000000E+00  0.44705374697E+03  0.44705375838E+03  0.10100000352E+00 0.  1.
       -3   -1    0    0    0  501  0.00000000000E+00  0.00000000000E+00 -0.13937163646E+03  0.13937167306E+03  0.10100000352E+00 0. -1.
    10030    2    1    2    0    0  0.00000000000E+00  0.00000000000E+00  0.30768211051E+03  0.58642543144E+03  0.49922590628E+03 0.  0.
        4    1    3    3  502    0 -0.17063136215E+03 -0.95796353353E+02 -0.28187275519E+02  0.19770720388E+03  0.12699999809E+01 0. -1.
       -4    1    3    3    0  502  0.17063136215E+03  0.95796353353E+02  0.33586938603E+03  0.38871822756E+03  0.12699999809E+01 0.  1.
</event>
<event>
 5   0  0.8012875E-03  0.4997980E+03  0.7818609E-02  0.1013832E+00
        4   -1    0    0  501    0  0.00000000000E+00  0.00000000000E+00  0.18088818406E+03  0.18089264228E+03  0.12699999809E+01 0.  1.
       -4   -1    0    0    0  501  0.00000000000E+00  0.00000000000E+00 -0.34522834416E+03  0.34523068014E+03  0.12699999809E+01 0. -1.
    10030    2    1    2    0    0  0.00000000000E+00  0.00000000000E+00 -0.16434016010E+03  0.52612332242E+03  0.49979802138E+03 0.  0.
        4    1    3    3  502    0  0.19752141797E+03  0.11068685653E+03 -0.19348291105E+03  0.29783139616E+03  0.12699999809E+01 0. -1.
       -4    1    3    3    0  502 -0.19752141797E+03 -0.11068685653E+03  0.29142750953E+02  0.22829192627E+03  0.12699999809E+01 0.  1.
</event>
<event>
 5   0  0.1967813E-02  0.5001613E+03  0.7818609E-02  0.1013737E+00
       -2   -1    0    0    0  501  0.00000000000E+00  0.00000000000E+00  0.87862860947E+02  0.87862860984E+02  0.25500000920E-02 0.  1.
        2   -1    0    0  501    0  0.00000000000E+00  0.00000000000E+00 -0.71179493248E+03  0.71179493249E+03  0.25500000920E-02 0. -1.
    10030    2    1    2    0    0  0.00000000000E+00  0.00000000000E+00 -0.62393207154E+03  0.79965779347E+03  0.50016133074E+03 0.  0.
        5    1    3    3  502    0  0.31471061464E+02  0.24493425929E+03 -0.24932592573E+03  0.35095402309E+03  0.46999998093E+01 0. -1.
       -5    1    3    3    0  502 -0.31471061464E+02 -0.24493425929E+03 -0.37460614580E+03  0.44870377038E+03  0.46999998093E+01 0.  1.
</event>
<event>
 5   0  0.1923706E-02  0.4984773E+03  0.7818609E-02  0.1014177E+00
        2   -1    0    0  501    0  0.00000000000E+00  0.00000000000E+00  0.57661749994E+03  0.57661749995E+03  0.25500000920E-02 0.  1.
       -2   -1    0    0    0  501  0.00000000000E+00  0.00000000000E+00 -0.10773157517E+03  0.10773157520E+03  0.25500000920E-02 0. -1.
    10030    2    1    2    0    0  0.00000000000E+00  0.00000000000E+00  0.46888592477E+03  0.68434907514E+03  0.49847732766E+03 0.  0.
        3    1    3    3  502    0 -0.24060284311E+03  0.46462458207E+02  0.17195941959E+03  0.29936355877E+03  0.10100000352E+00 0. -1.
       -3    1    3    3    0  502  0.24060284311E+03 -0.46462458207E+02  0.29692650518E+03  0.38498551637E+03  0.10100000352E+00 0.  1.
</event>
<event>
 5   0  0.1180937E-02  0.5001266E+03  0.7818609E-02  0.1013746E+00
       -1   -1    0    0    0  501  0.00000000000E+00  0.00000000000E+00  0.13707484669E+03  0.13707484679E+03  0.50400001928E-02 0.  1.
        1   -1    0    0  501    0  0.00000000000E+00  0.00000000000E+00 -0.45618622387E+03  0.45618622390E+03  0.50400001928E-02 0. -1.
    10030    2    1    2    0    0  0.00000000000E+00  0.00000000000E+00 -0.31911137718E+03  0.59326107069E+03  0.50012661092E+03 0.  0.
        1    1    3    3  502    0  0.11370273652E+03  0.20067561487E+03 -0.27415135424E+03  0.35827081901E+03  0.50400001928E-02 0. -1.
       -1    1    3    3    0  502 -0.11370273652E+03 -0.20067561487E+03 -0.44960022938E+02  0.23499025168E+03  0.50400001928E-02 0.  1.
</event>
<event>
 5   0  0.1941387E-02  0.4999562E+03  0.7818609E-02  0.1013790E+00
       -2   -1    0    0    0  501  0.00000000000E+00  0.00000000000E+00  0.85741756491E+02  0.85741756529E+02  0.25500000920E-02 0.  1.
        2   -1    0    0  501    0  0.00000000000E+00  0.00000000000E+00 -0.72880545228E+03  0.72880545228E+03  0.25500000920E-02 0. -1.
    10030    2    1    2    0    0  0.00000000000E+00  0.00000000000E+00 -0.64306369579E+03  0.81454720881E+03  0.49995623663E+03 0.  0.
        4    1    3    3  502    0  0.11928236693E+03  0.16254063644E+03 -0.56230477650E+03  0.59735752789E+03  0.12699999809E+01 0. -1.
       -4    1    3    3    0  502 -0.11928236693E+03 -0.16254063644E+03 -0.80758919286E+02  0.21718968092E+03  0.12699999809E+01 0.  1.
</event>
<event>
 5   0  0.1855407E-02  0.5000446E+03  0.7818609E-02  0.1013767E+00
       -2   -1    0    0    0  501  0.00000000000E+00  0.00000000000E+00  0.59878811486E+02  0.59878811540E+02  0.25500000920E-02 0. -1.
        2   -1    0    0  501    0  0.00000000000E+00  0.00000000000E+00 -0.10439610823E+04  0.10439610823E+04  0.25500000920E-02 0.  1.
    10030    2    1    2    0    0  0.00000000000E+00  0.00000000000E+00 -0.98408227079E+03  0.11038398938E+04  0.50004459351E+03 0.  0.
        1    1    3    3  502    0 -0.10057286689E+03 -0.12243425884E+03 -0.91898282306E+03  0.93254194458E+03  0.50400001928E-02 0.  1.
       -1    1    3    3    0  502  0.10057286689E+03  0.12243425884E+03 -0.65099447729E+02  0.17129794924E+03  0.50400001928E-02 0. -1.
</event>
<event>
 5   0  0.1923706E-02  0.4999312E+03  0.7818609E-02  0.1013797E+00
       -2   -1    0    0    0  501  0.00000000000E+00  0.00000000000E+00  0.23908909415E+03  0.23908909416E+03  0.25500000920E-02 0. -1.
        2   -1    0    0  501    0  0.00000000000E+00  0.00000000000E+00 -0.26133689613E+03  0.26133689614E+03  0.25500000920E-02 0.  1.
    10030    2    1    2    0    0  0.00000000000E+00  0.00000000000E+00 -0.22247801980E+02  0.50042599030E+03  0.49993120234E+03 0.  0.
        3    1    3    3  502    0  0.83475723550E+02 -0.14809410488E+03 -0.19456118895E+03  0.25836819999E+03  0.10100000352E+00 0.  1.
       -3    1    3    3    0  502 -0.83475723550E+02  0.14809410488E+03  0.17231338697E+03  0.24205779031E+03  0.10100000352E+00 0. -1.
</event>
<event>
 5   0  0.1227864E-02  0.4995212E+03  0.7818609E-02  0.1013904E+00
        1   -1    0    0  501    0  0.00000000000E+00  0.00000000000E+00  0.14088404047E+04  0.14088404047E+04  0.50400001928E-02 0. -1.
       -1   -1    0    0    0  501  0.00000000000E+00  0.00000000000E+00 -0.44277799793E+02  0.44277800080E+02  0.50400001928E-02 0.  1.
    10030    2    1    2    0    0  0.00000000000E+00  0.00000000000E+00  0.13645626049E+04  0.14531182048E+04  0.49952118511E+03 0.  0.
        5    1    3    3  502    0 -0.16351798300E+02  0.17092291140E+03  0.12097395740E+04  0.12218731317E+04  0.46999998093E+01 0. -1.
       -5    1    3    3    0  502  0.16351798300E+02 -0.17092291140E+03  0.15482303089E+03  0.23124507312E+03  0.46999998093E+01 0.  1.
</event>
<event>
 5   0  0.8012875E-03  0.4999860E+03  0.7818609E-02  0.1013783E+00
       -4   -1    0    0    0  501  0.00000000000E+00  0.00000000000E+00  0.22600429745E+03  0.22600786572E+03  0.12699999809E+01 0. -1.
        4   -1    0    0  501    0  0.00000000000E+00  0.00000000000E+00 -0.27652073911E+03  0.27652365551E+03  0.12699999809E+01 0.  1.
    10030    2    1    2    0    0  0.00000000000E+00  0.00000000000E+00 -0.50516441660E+02  0.50253152123E+03  0.49998601876E+03 0.  0.
        5    1    3    3  502    0  0.17640744257E+03  0.90861783835E+02  0.12749898644E+03  0.23591000635E+03  0.46999998093E+01 0. -1.
       -5    1    3    3    0  502 -0.17640744257E+03 -0.90861783835E+02 -0.17801542810E+03  0.26662151488E+03  0.46999998093E+01 0.  1.
</event>
<event>
 5   0  0.1180937E-02  0.4992255E+03  0.7818609E-02  0.1013981E+00
        1   -1    0    0  501    0  0.00000000000E+00  0.00000000000E+00  0.60633683316E+03  0.60633683318E+03  0.50400001928E-02 0. -1.
       -1   -1    0    0    0  501  0.00000000000E+00  0.00000000000E+00 -0.10275894389E+03  0.10275894401E+03  0.50400001928E-02 0.  1.
    10030    2    1    2    0    0  0.00000000000E+00  0.00000000000E+00  0.50357788927E+03  0.70909577719E+03  0.49922553087E+03 0.  0.
        1    1    3    3  502    0  0.23323841027E+03  0.66374066797E+02  0.16774711945E+03  0.29486398369E+03  0.50400001928E-02 0. -1.
       -1    1    3    3    0  502 -0.23323841027E+03 -0.66374066797E+02  0.33583076982E+03  0.41423179350E+03  0.50400001928E-02 0.  1.
</event>
<event>
 5   0  0.1982847E-02  0.4997288E+03  0.7818609E-02  0.1013850E+00
       -2   -1    0    0    0  501  0.00000000000E+00  0.00000000000E+00  0.69578644734E+02  0.69578644781E+02  0.25500000920E-02 0.  1.
        2   -1    0    0  501    0  0.00000000000E+00  0.00000000000E+00 -0.89728987815E+03  0.89728987816E+03  0.25500000920E-02 0. -1.
    10030    2    1    2    0    0  0.00000000000E+00  0.00000000000E+00 -0.82771123342E+03  0.96686852294E+03  0.49972878116E+03 0.  0.
        2    1    3    3  502    0  0.14590740716E+03 -0.20191080287E+03 -0.45133607738E+03  0.51552031826E+03  0.25500000920E-02 0. -1.
       -2    1    3    3    0  502 -0.14590740716E+03  0.20191080287E+03 -0.37637515604E+03  0.45134820468E+03  0.25500000920E-02 0.  1.
</event>
<event>
 5   0  0.1941387E-02  0.4988346E+03  0.7818609E-02  0.1014084E+00
       -2   -1    0    0    0  501  0.00000000000E+00  0.00000000000E+00  0.72187970211E+02  0.72187970256E+02  0.25500000920E-02 0. -1.
        2   -1    0    0  501    0  0.00000000000E+00  0.00000000000E+00 -0.86176380103E+03  0.86176380104E+03  0.25500000920E-02 0.  1.
    10030    2    1    2    0    0  0.00000000000E+00  0.00000000000E+00 -0.78957583082E+03  0.93395177129E+03  0.49883456023E+03 0.  0.
        4    1    3    3  502    0  0.12843602991E+03 -0.19544692868E+03 -0.23251457372E+03  0.32978774326E+03  0.12699999809E+01 0. -1.
       -4    1    3    3    0  502 -0.12843602991E+03  0.19544692868E+03 -0.55706125710E+03  0.60416402803E+03  0.12699999809E+01 0.  1.
</event>
<event>
 5   0  0.1217270E-02  0.5002976E+03  0.7818609E-02  0.1013701E+00
       -1   -1    0    0    0  501  0.00000000000E+00  0.00000000000E+00  0.45182242440E+03  0.45182242443E+03  0.50400001928E-02 0. -1.
        1   -1    0    0  501    0  0.00000000000E+00  0.00000000000E+00 -0.13849341771E+03  0.13849341780E+03  0.50400001928E-02 0.  1.
    10030    2    1    2    0    0  0.00000000000E+00  0.00000000000E+00  0.31332900669E+03  0.59031584223E+03  0.50029763856E+03 0.  0.
        2    1    3    3  502    0  0.81834425568E+02 -0.20613493089E+03  0.29317956385E+03  0.36761765410E+03  0.25500000920E-02 0. -1.
       -2    1    3    3    0  502 -0.81834425568E+02  0.20613493089E+03  0.20149442844E+02  0.22269818813E+03  0.25500000920E-02 0.  1.
</event>
<event>
 5   0  0.8012875E-03  0.4987278E+03  0.7818609E-02  0.1014112E+00
       -3   -1    0    0    0  501  0.00000000000E+00  0.00000000000E+00  0.25291744070E+03  0.25291746087E+03  0.10100000352E+00 0. -1.
        3   -1    0    0  501    0  0.00000000000E+00  0.00000000000E+00 -0.24586022507E+03  0.24586024582E+03  0.10100000352E+00 0.  1.
    10030    2    1    2    0    0  0.00000000000E+00  0.00000000000E+00  0.70572156292E+01  0.49877770669E+03  0.49872777785E+03 0.  0.
        2    1    3    3  502    0  0.97206954181E+02 -0.22316482836E+03 -0.50611980891E+02  0.24862281708E+03  0.25500000920E-02 0.  1.
       -2    1    3    3    0  502 -0.97206954181E+02  0.22316482836E+03  0.57669196521E+02  0.25015488960E+03  0.25500000920E-02 0. -1.
</event>
<event>
 5   0  0.1225989E-02  0.5000193E+03  0.7818609E-02  0.1013774E+00
       -1   -1    0    0    0  501  0.00000000000E+00  0.00000000000E+00  0.17466215190E+03  0.17466215197E+03  0.50400001928E-02 0. -1.
        1   -1    0    0  501    0  0.00000000000E+00  0.00000000000E+00 -0.35786125448E+03  0.35786125452E+03  0.50400001928E-02 0.  1.
    10030    2    1    2    0    0  0.00000000000E+00  0.00000000000E+00 -0.18319910258E+03  0.53252340649E+03  0.50001926691E+03 0.  0.
        3    1    3    3  502    0  0.32227066971E+02  0.12450472136E+03 -0.31993042384E+03  0.34481226165E+03  0.10100000352E+00 0.  1.
       -3    1    3    3    0  502 -0.32227066971E+02 -0.12450472136E+03  0.13673132126E+03  0.18771114484E+03  0.10100000352E+00 0. -1.
</event>
<event>
 5   0  0.8012875E-03  0.4970836E+03  0.7818609E-02  0.1014543E+00
        4   -1    0    0  501    0  0.00000000000E+00  0.00000000000E+00  0.57954828800E+02  0.57968742277E+02  0.12699999809E+01 0.  1.
       -4   -1    0    0    0  501  0.00000000000E+00  0.00000000000E+00 -0.10657402546E+04  0.10657410113E+04  0.12699999809E+01 0. -1.
    10030    2    1    2    0    0  0.00000000000E+00  0.00000000000E+00 -0.10077854258E+04  0.11237097536E+04  0.49708364068E+03 0.  0.
        1    1    3    3  502    0 -0.83793062228E+02  0.41313363011E+02 -0.10245437818E+04  0.10287944557E+04  0.50400001928E-02 0. -1.
       -1    1    3    3    0  502  0.83793062228E+02 -0.41313363011E+02  0.16758356039E+02  0.94915297836E+02  0.50400001928E-02 0.  1.
</event>
<event>
 5   0  0.1227864E-02  0.4998857E+03  0.7818609E-02  0.1013809E+00
        1   -1    0    0  501    0  0.00000000000E+00  0.00000000000E+00  0.11457594975E+04  0.11457594975E+04  0.50400001928E-02 0. -1.
       -1   -1    0    0    0  501  0.00000000000E+00  0.00000000000E+00 -0.54524039129E+02  0.54524039362E+02  0.50400001928E-02 0.  1.
    10030    2    1    2    0    0  0.00000000000E+00  0.00000000000E+00  0.10912354584E+04  0.12002835369E+04  0.49988573024E+03 0.  0.
        5    1    3    3  502    0 -0.56936364922E+02  0.11429091789E+02  0.11292270557E+04  0.11307290600E+04  0.46999998093E+01 0. -1.
       -5    1    3    3    0  502  0.56936364922E+02 -0.11429091789E+02 -0.37991597323E+02  0.69554476887E+02  0.46999998093E+01 0.  1.
</event>
<event>
 5   0  0.1982847E-02  0.5002733E+03  0.7818609E-02  0.1013708E+00
       -2   -1    0    0    0  501  0.00000000000E+00  0.00000000000E+00  0.43944358579E+02  0.43944358653E+02  0.25500000920E-02 0. -1.
        2   -1    0    0  501    0  0.00000000000E+00  0.00000000000E+00 -0.14238081865E+04  0.14238081865E+04  0.25500000920E-02 0.  1.
    10030    2    1    2    0    0  0.00000000000E+00  0.00000000000E+00 -0.13798638279E+04  0.14677525452E+04  0.50027327553E+03 0.  0.
        2    1    3    3  502    0 -0.66732777061E+02  0.14160267915E+02 -0.13959883598E+04  0.13976542053E+04  0.25500000920E-02 0.  1.
       -2    1    3    3    0  502  0.66732777061E+02 -0.14160267915E+02  0.16124531892E+02  0.70098339902E+02  0.25500000920E-02 0. -1.
</event>
<event>
 5   0  0.1923706E-02  0.5002378E+03  0.7818609E-02  0.1013717E+00
       -2   -1    0    0    0  501  0.00000000000E+00  0.00000000000E+00  0.36753508268E+02  0.36753508356E+02  0.25500000920E-02 0. -1.
        2   -1    0    0  501    0  0.00000000000E+00  0.00000000000E+00 -0.17021355579E+04  0.17021355579E+04  0.25500000920E-02 0.  1.
    10030    2    1    2    0    0  0.00000000000E+00  0.00000000000E+00 -0.16653820496E+04  0.17388890662E+04  0.50023775698E+03 0.  0.
        3    1    3    3  502    0  0.19698845716E+03  0.15123397161E+03 -0.72938068068E+03  0.77050136533E+03  0.10100000352E+00 0. -1.
       -3    1    3    3    0  502 -0.19698845716E+03 -0.15123397161E+03 -0.93600136891E+03  0.96838770089E+03  0.10100000352E+00 0.  1.
</event>
<event>
 5   0  0.1982847E-02  0.4999064E+03  0.7818609E-02  0.1013803E+00
       -2   -1    0    0    0  501  0.00000000000E+00  0.00000000000E+00  0.39536524213E+02  0.39536524295E+02  0.25500000920E-02 0. -1.
        2   -1    0    0  501    0  0.00000000000E+00  0.00000000000E+00 -0.15802246370E+04  0.15802246370E+04  0.25500000920E-02 0.  1.
    10030    2    1    2    0    0  0.00000000000E+00  0.00000000000E+00 -0.15406881128E+04  0.16197611613E+04  0.49990635000E+03 0.  0.
        2    1    3    3  502    0 -0.23128400242E+03 -0.94277515345E+02 -0.73858913508E+03  0.77967586223E+03  0.25500000920E-02 0. -1.
       -2    1    3    3    0  502  0.23128400242E+03  0.94277515345E+02 -0.80209897775E+03  0.84008529911E+03  0.25500000920E-02 0.  1.
</event>
<event>
 5   0  0.1180937E-02  0.4975792E+03  0.7818609E-02  0.1014413E+00
       -1   -1    0    0    0  501  0.00000000000E+00  0.00000000000E+00  0.74836908349E+02  0.74836908518E+02  0.50400001928E-02 0. -1.
        1   -1    0    0  501    0  0.00000000000E+00  0.00000000000E+00 -0.82708193515E+03  0.82708193517E+03  0.50400001928E-02 0.  1.
    10030    2    1    2    0    0  0.00000000000E+00  0.00000000000E+00 -0.75224502680E+03  0.90191884368E+03  0.49757915978E+03 0.  0.
        1    1    3    3  502    0  0.11394586408E+03 -0.18516226925E+03 -0.15689716735E+03  0.26811461550E+03  0.50400001928E-02 0. -1.
       -1    1    3    3    0  502 -0.11394586408E+03  0.18516226925E+03 -0.59534785945E+03  0.63380422819E+03  0.50400001928E-02 0.  1.
</event>
<event>
 5   0  0.1225989E-02  0.5006985E+03  0.7818609E-02  0.1013597E+00
        1   -1    0    0  501    0  0.00000000000E+00  0.00000000000E+00  0.43967936083E+03  0.43967936086E+03  0.50400001928E-02 0.  1.
       -1   -1    0    0    0  501  0.00000000000E+00  0.00000000000E+00 -0.14254645829E+03  0.14254645838E+03  0.50400001928E-02 0. -1.
    10030    2    1    2    0    0  0.00000000000E+00  0.00000000000E+00  0.29713290254E+03  0.58222581924E+03  0.50069845498E+03 0.  0.
        3    1    3    3  502    0  0.71394826556E+02 -0.20737252568E+03  0.28894691589E+03  0.36275462240E+03  0.10100000352E+00 0.  1.
       -3    1    3    3    0  502 -0.71394826556E+02  0.20737252568E+03  0.81859866461E+01  0.21947119684E+03  0.10100000352E+00 0. -1.
</event>
<event>
 5   0  0.1923706E-02  0.5013387E+03  0.7818609E-02  0.1013430E+00
       -2   -1    0    0    0  501  0.00000000000E+00  0.00000000000E+00  0.81975440871E+02  0.81975440910E+02  0.25500000920E-02 0.  1.
        2   -1    0    0  501    0  0.00000000000E+00  0.00000000000E+00 -0.76651156518E+03  0.76651156518E+03  0.25500000920E-02 0. -1.
    10030    2    1    2    0    0  0.00000000000E+00  0.00000000000E+00 -0.68453612431E+03  0.84848700609E+03  0.50133870190E+03 0.  0.
        3    1    3    3  502    0  0.11999064909E+03  0.15322412032E+03 -0.60965111267E+03  0.63996083966E+03  0.10100000352E+00 0. -1.
       -3    1    3    3    0  502 -0.11999064909E+03 -0.15322412032E+03 -0.74885011643E+02  0.20852616644E+03  0.10100000352E+00 0.  1.
</event>
<event>
 5   0  0.1225989E-02  0.4992090E+03  0.7818609E-02  0.1013986E+00
        1   -1    0    0  501    0  0.00000000000E+00  0.00000000000E+00  0.59088611622E+02  0.59088611837E+02  0.50400001928E-02 0. -1.
       -1   -1    0    0    0  501  0.00000000000E+00  0.00000000000E+00 -0.10543893466E+04  0.10543893466E+04  0.50400001928E-02 0.  1.
    10030    2    1    2    0    0  0.00000000000E+00  0.00000000000E+00 -0.99530073498E+03  0.11134779585E+04  0.49920898520E+03 0.  0.
        3    1    3    3  502    0  0.17990827261E+03  0.12469312114E+03 -0.76518796846E+03  0.79588189971E+03  0.10100000352E+00 0. -1.
       -3    1    3    3    0  502 -0.17990827261E+03 -0.12469312114E+03 -0.23011276652E+03  0.31759605874E+03  0.10100000352E+00 0.  1.
</event>
<event>
 5   0  0.1217270E-02  0.5001261E+03  0.7818609E-02  0.1013746E+00
       -1   -1    0    0    0  501  0.00000000000E+00  0.00000000000E+00  0.20281826270E+04  0.20281826270E+04  0.50400001928E-02 0.  1.
        1   -1    0    0  501    0  0.00000000000E+00  0.00000000000E+00 -0.30831312641E+02  0.30831313053E+02  0.50400001928E-02 0. -1.
    10030    2    1    2    0    0  0.00000000000E+00  0.00000000000E+00  0.19973513144E+04  0.20590139401E+04  0.50012611648E+03 0.  0.
        2    1    3    3  502    0 -0.91920873982E+02  0.19827831300E+03  0.14989838378E+04  0.15148320972E+04  0.25500000920E-02 0.  1.
       -2    1    3    3    0  502  0.91920873982E+02 -0.19827831300E+03  0.49836747650E+03  0.54418184288E+03  0.25500000920E-02 0. -1.
</event>
<event>
 5   0  0.1967813E-02  0.4996108E+03  0.7818609E-02  0.1013881E+00
       -2   -1    0    0    0  501  0.00000000000E+00  0.00000000000E+00  0.60157953864E+02  0.60157953919E+02  0.25500000920E-02 0. -1.
        2   -1    0    0  501    0  0.00000000000E+00  0.00000000000E+00 -0.10373146307E+04  0.10373146307E+04  0.25500000920E-02 0.  1.
    10030    2    1    2    0    0  0.00000000000E+00  0.00000000000E+00 -0.97715667686E+03  0.10974725846E+04  0.49961075140E+03 0.  0.
        5    1    3    3  502    0  0.20149391894E+03  0.13280021793E+03 -0.34715504423E+03  0.42281723236E+03  0.46999998093E+01 0. -1.
       -5    1    3    3    0  502 -0.20149391894E+03 -0.13280021793E+03 -0.63000163264E+03  0.67465535229E+03  0.46999998093E+01 0.  1.
</event>
<event>
 5   0  0.1180937E-02  0.4971790E+03  0.7818609E-02  0.1014518E+00
        1   -1    0    0  501    0  0.00000000000E+00  0.00000000000E+00  0.13680353650E+04  0.13680353650E+04  0.50400001928E-02 0.  1.
       -1   -1    0    0    0  501  0.00000000000E+00  0.00000000000E+00 -0.45171887792E+02  0.45171888073E+02  0.50400001928E-02 0. -1.
    10030    2    1    2    0    0  0.00000000000E+00  0.00000000000E+00  0.13228634772E+04  0.14132072531E+04  0.49717900281E+03 0.  0.
        1    1    3    3  502    0  0.12151730592E+03 -0.80302967967E+02  0.88822576840E+02  0.17060032967E+03  0.50400001928E-02 0. -1.
       -1    1    3    3    0  502 -0.12151730592E+03  0.80302967967E+02  0.12340409004E+04  0.12426069234E+04  0.50400001928E-02 0.  1.
</event>
<event>
 5   0  0.1923706E-02  0.5041364E+03  0.7818609E-02  0.1012705E+00
       -2   -1    0    0    0  501  0.00000000000E+00  0.00000000000E+00  0.14638989792E+03  0.14638989794E+03  0.25500000920E-02 0.  1.
        2   -1    0    0  501    0  0.00000000000E+00  0.00000000000E+00 -0.43403518566E+03  0.43403518567E+03  0.25500000920E-02 0. -1.
    10030    2    1    2    0    0  0.00000000000E+00  0.00000000000E+00 -0.28764528774E+03  0.58042508360E+03  0.50413635667E+03 0.  0.
        3    1    3    3  502    0 -0.82751461951E+02  0.55854042936E+02 -0.41030136492E+03  0.42227325138E+03  0.10100000352E+00 0. -1.
       -3    1    3    3    0  502  0.82751461951E+02 -0.55854042936E+02  0.12265607718E+03  0.15815183223E+03  0.10100000352E+00 0.  1.
</event>
<event>
 5   0  0.1855407E-02  0.4998627E+03  0.7818609E-02  0.1013815E+00
       -2   -1    0    0    0  501  0.00000000000E+00  0.00000000000E+00  0.83460775266E+02  0.83460775305E+02  0.25500000920E-02 0. -1.
        2   -1    0    0  501    0  0.00000000000E+00  0.00000000000E+00 -0.74844369636E+03  0.74844369637E+03  0.25500000920E-02 0.  1.
    10030    2    1    2    0    0  0.00000000000E+00  0.00000000000E+00 -0.66498292110E+03  0.83190447167E+03  0.49986274580E+03 0.  0.
        1    1    3    3  502    0  0.13833197969E+03  0.18955032165E+03 -0.18931980830E+03  0.30150796156E+03  0.50400001928E-02 0. -1.
       -1    1    3    3    0  502 -0.13833197969E+03 -0.18955032165E+03 -0.47566311280E+03  0.53039651012E+03  0.50400001928E-02 0.  1.
</event>
<event>
 5   0  0.1923706E-02  0.5002585E+03  0.7818609E-02  0.1013711E+00
        2   -1    0    0  501    0  0.00000000000E+00  0.00000000000E+00  0.12455678340E+03  0.12455678343E+03  0.25500000920E-02 0. -1.
       -2   -1    0    0    0  501  0.00000000000E+00  0.00000000000E+00 -0.50229811459E+03  0.50229811459E+03  0.25500000920E-02 0.  1.
    10030    2    1    2    0    0  0.00000000000E+00  0.00000000000E+00 -0.37774133119E+03  0.62685489802E+03  0.50025848307E+03 0.  0.
        3    1    3    3  502    0 -0.12476511561E+03 -0.20616631937E+03 -0.10487117994E+03  0.26280955063E+03  0.10100000352E+00 0.  1.
       -3    1    3    3    0  502  0.12476511561E+03  0.20616631937E+03 -0.27287015125E+03  0.36404534739E+03  0.10100000352E+00 0. -1.
</event>
<event>
 5   0  0.8012875E-03  0.4997580E+03  0.7818609E-02  0.1013842E+00
       -4   -1    0    0    0  501  0.00000000000E+00  0.00000000000E+00  0.45593849220E+03  0.45594026097E+03  0.12699999809E+01 0.  1.
        4   -1    0    0  501    0  0.00000000000E+00  0.00000000000E+00 -0.13694227545E+03  0.13694816431E+03  0.12699999809E+01 0. -1.
    10030    2    1    2    0    0  0.00000000000E+00  0.00000000000E+00  0.31899621675E+03  0.59288842527E+03  0.49975803998E+03 0.  0.
        2    1    3    3  502    0  0.22815826211E+03  0.39877214235E+02  0.27074430506E+03  0.35629884018E+03  0.25500000920E-02 0.  1.
       -2    1    3    3    0  502 -0.22815826211E+03 -0.39877214235E+02  0.48251911686E+02  0.23658958509E+03  0.25500000920E-02 0. -1.
</event>
<event>
 5   0  0.1941387E-02  0.5008991E+03  0.7818609E-02  0.1013545E+00
        2   -1    0    0  501    0  0.00000000000E+00  0.00000000000E+00  0.99984070775E+02  0.99984070807E+02  0.25500000920E-02 0. -1.
       -2   -1    0    0    0  501  0.00000000000E+00  0.00000000000E+00 -0.62734971434E+03  0.62734971434E+03  0.25500000920E-02 0.  1.
    10030    2    1    2    0    0  0.00000000000E+00  0.00000000000E+00 -0.52736564356E+03  0.72733378515E+03  0.50089910462E+03 0.  0.
        4    1    3    3  502    0 -0.11036018697E+03 -0.19978083383E+03 -0.11396169598E+03  0.25510906194E+03  0.12699999809E+01 0. -1.
       -4    1    3    3    0  502  0.11036018697E+03  0.19978083383E+03 -0.41340394759E+03  0.47222472321E+03  0.12699999809E+01 0.  1.
</event>
<event>
 5   0  0.1225989E-02  0.5012309E+03  0.7818609E-02  0.1013458E+00
       -1   -1    0    0    0  501  0.00000000000E+00  0.00000000000E+00  0.15163688320E+03  0.15163688328E+03  0.50400001928E-02 0. -1.
        1   -1    0    0  501    0  0.00000000000E+00  0.00000000000E+00 -0.41420067445E+03  0.41420067448E+03  0.50400001928E-02 0.  1.
    10030    2    1    2    0    0  0.00000000000E+00  0.00000000000E+00 -0.26256379126E+03  0.56583755776E+03  0.50123088222E+03 0.  0.
        3    1    3    3  502    0  0.27833491955E+02 -0.89474967023E+02 -0.39368070016E+03  0.40467885648E+03  0.10100000352E+00 0.  1.
       -3    1    3    3    0  502 -0.27833491955E+02  0.89474967023E+02  0.13111690891E+03  0.16115870129E+03  0.10100000352E+00 0. -1.
</event>
<event>
 5   0  0.1967813E-02  0.4961453E+03  0.7818609E-02  0.1014790E+00
        2   -1    0    0  501    0  0.00000000000E+00  0.00000000000E+00  0.15704156601E+03  0.15704156603E+03  0.25500000920E-02 0.  1.
       -2   -1    0    0    0  501  0.00000000000E+00  0.00000000000E+00 -0.39187103996E+03  0.39187103996E+03  0.25500000920E-02 0. -1.
    10030    2    1    2    0    0  0.00000000000E+00  0.00000000000E+00 -0.23482947394E+03  0.54891260600E+03  0.49614530855E+03 0.  0.
        5    1    3    3  502    0 -0.14952209157E+03 -0.11188822414E+03 -0.29799850705E+03  0.35171157327E+03  0.46999998093E+01 0. -1.
       -5    1    3    3    0  502  0.14952209157E+03  0.11188822414E+03  0.63169033110E+02  0.19720103273E+03  0.46999998093E+01 0.  1.
</event>
<event>
 5   0  0.1227864E-02  0.4994500E+03  0.7818609E-02  0.1013923E+00
        1   -1    0    0  501    0  0.00000000000E+00  0.00000000000E+00  0.10973089739E+03  0.10973089750E+03  0.50400001928E-02 0.  1.
       -1   -1    0    0    0  501  0.00000000000E+00  0.00000000000E+00 -0.56832285726E+03  0.56832285728E+03  0.50400001928E-02 0. -1.
    10030    2    1    2    0    0  0.00000000000E+00  0.00000000000E+00 -0.45859195987E+03  0.67805375478E+03  0.49945000622E+03 0.  0.
        5    1    3    3  502    0 -0.87131908694E+02  0.23241489243E+03 -0.19256954085E+03  0.31418747556E+03  0.46999998093E+01 0.  1.
       -5    1    3    3    0  502  0.87131908694E+02 -0.23241489243E+03 -0.26602241902E+03  0.36386627922E+03  0.46999998093E+01 0. -1.
</event>
<event>
 5   0  0.8012875E-03  0.4998638E+03  0.7818609E-02  0.1013814E+00
       -3   -1    0    0    0  501  0.00000000000E+00  0.00000000000E+00  0.24301956873E+03  0.24301958972E+03  0.10100000352E+00 0.  1.
        3   -1    0    0  501    0  0.00000000000E+00  0.00000000000E+00 -0.25704079558E+03  0.25704081543E+03  0.10100000352E+00 0. -1.
    10030    2    1    2    0    0  0.00000000000E+00  0.00000000000E+00 -0.14021226848E+02  0.50006040515E+03  0.49986379544E+03 0.  0.
        2    1    3    3  502    0  0.20369470067E+03 -0.10989814809E+03 -0.10137066613E+03  0.25267597035E+03  0.25500000920E-02 0. -1.
       -2    1    3    3    0  502 -0.20369470067E+03  0.10989814809E+03  0.87349439279E+02  0.24738443480E+03  0.25500000920E-02 0.  1.
</event>
<event>
 5   0  0.1227864E-02  0.4998435E+03  0.7818609E-02  0.1013820E+00
        1   -1    0    0  501    0  0.00000000000E+00  0.00000000000E+00  0.27931415112E+03  0.27931415117E+03  0.50400001928E-02 0. -1.
       -1   -1    0    0    0  501  0.00000000000E+00  0.00000000000E+00 -0.22362235745E+03  0.22362235751E+03  0.50400001928E-02 0.  1.
    10030    2    1    2    0    0  0.00000000000E+00  0.00000000000E+00  0.55691793675E+02  0.50293650868E+03  0.49984353139E+03 0.  0.
        5    1    3    3  502    0  0.10431907569E+03 -0.44500175997E+02  0.25188050259E+03  0.27627633413E+03  0.46999998093E+01 0. -1.
       -5    1    3    3    0  502 -0.10431907569E+03  0.44500175997E+02 -0.19618870892E+03  0.22666017454E+03  0.46999998093E+01 0.  1.
</event>
<event>
 5   0  0.8012875E-03  0.4956667E+03  0.7818609E-02  0.1014916E+00
        4   -1    0    0  501    0  0.00000000000E+00  0.00000000000E+00  0.29112096110E+03  0.29112373124E+03  0.12699999809E+01 0. -1.
       -4   -1    0    0    0  501  0.00000000000E+00  0.00000000000E+00 -0.21097660617E+03  0.21098042860E+03  0.12699999809E+01 0.  1.
    10030    2    1    2    0    0  0.00000000000E+00  0.00000000000E+00  0.80144354925E+02  0.50210415984E+03  0.49566669214E+03 0.  0.
        4    1    3    3  502    0 -0.59520561153E+02 -0.29814129124E+02 -0.20175018411E+03  0.21245312232E+03  0.12699999809E+01 0.  1.
       -4    1    3    3    0  502  0.59520561153E+02  0.29814129124E+02  0.28189453904E+03  0.28965103752E+03  0.12699999809E+01 0. -1.
</event>
<event>
 5   0  0.1225989E-02  0.5002664E+03  0.7818609E-02  0.1013709E+00
        1   -1    0    0  501    0  0.00000000000E+00  0.00000000000E+00  0.17647459486E+04  0.17647459486E+04  0.50400001928E-02 0. -1.
       -1   -1    0    0    0  501  0.00000000000E+00  0.00000000000E+00 -0.35453613103E+02  0.35453613461E+02  0.50400001928E-02 0.  1.
    10030    2    1    2    0    0  0.00000000000E+00  0.00000000000E+00  0.17292923355E+04  0.18001995621E+04  0.50026641069E+03 0.  0.
        3    1    3    3  502    0  0.17284912614E+03  0.12417309576E+03  0.39173895416E+03  0.44581969060E+03  0.10100000352E+00 0.  1.
       -3    1    3    3    0  502 -0.17284912614E+03 -0.12417309576E+03  0.13375533813E+04  0.13543798715E+04  0.10100000352E+00 0. -1.
</event>
<event>
 5   0  0.1225989E-02  0.5001044E+03  0.7818609E-02  0.1013752E+00
        1   -1    0    0  501    0  0.00000000000E+00  0.00000000000E+00  0.63433425985E+03  0.63433425987E+03  0.50400001928E-02 0. -1.
       -1   -1    0    0    0  501  0.00000000000E+00  0.00000000000E+00 -0.98569633500E+02  0.98569633628E+02  0.50400001928E-02 0.  1.
    10030    2    1    2    0    0  0.00000000000E+00  0.00000000000E+00  0.53576462635E+03  0.73290389350E+03  0.50010437136E+03 0.  0.
        3    1    3    3  502    0 -0.13472529944E+03  0.20636764163E+03  0.32984333629E+03  0.41174645902E+03  0.10100000352E+00 0. -1.
       -3    1    3    3    0  502  0.13472529944E+03 -0.20636764163E+03  0.20592129006E+03  0.32115743448E+03  0.10100000352E+00 0.  1.
</event>
<event>
 5   0  0.1967813E-02  0.5009927E+03  0.7818609E-02  0.1013520E+00
        2   -1    0    0  501    0  0.00000000000E+00  0.00000000000E+00  0.66196638288E+03  0.66196638289E+03  0.25500000920E-02 0.  1.
       -2   -1    0    0    0  501  0.00000000000E+00  0.00000000000E+00 -0.94790952972E+02  0.94790953007E+02  0.25500000920E-02 0. -1.
    10030    2    1    2    0    0  0.00000000000E+00  0.00000000000E+00  0.56717542991E+03  0.75675733590E+03  0.50099271166E+03 0.  0.
        5    1    3    3  502    0 -0.78607264642E+02  0.23924910604E+02  0.64096062355E+03  0.64622296024E+03  0.46999998093E+01 0.  1.
       -5    1    3    3    0  502  0.78607264642E+02 -0.23924910604E+02 -0.73785193642E+02  0.11053437565E+03  0.46999998093E+01 0. -1.
</event>
<event>
 5   0  0.1180937E-02  0.5004398E+03  0.7818609E-02  0.1013664E+00
       -1   -1    0    0    0  501  0.00000000000E+00  0.00000000000E+00  0.27385744310E+03  0.27385744315E+03  0.50400001928E-02 0.  1.
        1   -1    0    0  501    0  0.00000000000E+00  0.00000000000E+00 -0.22862254872E+03  0.22862254878E+03  0.50400001928E-02 0. -1.
    10030    2    1    2    0    0  0.00000000000E+00  0.00000000000E+00  0.45234894382E+02  0.50247999193E+03  0.50043975323E+03 0.  0.
        1    1    3    3  502    0  0.36920466225E+01  0.43558153366E+02  0.26999363527E+03  0.27350961052E+03  0.50400001928E-02 0.  1.
       -1    1    3    3    0  502 -0.36920466225E+01 -0.43558153366E+02 -0.22475874089E+03  0.22897038141E+03  0.50400001928E-02 0. -1.
</event>
<event>
 5   0  0.1225989E-02  0.4997666E+03  0.7818609E-02  0.1013840E+00
       -1   -1    0    0    0  501  0.00000000000E+00  0.00000000000E+00  0.55434598342E+02  0.55434598571E+02  0.50400001928E-02 0.  1.
        1   -1    0    0  501    0  0.00000000000E+00  0.00000000000E+00 -0.11264025017E+04  0.11264025017E+04  0.50400001928E-02 0. -1.
    10030    2    1    2    0    0  0.00000000000E+00  0.00000000000E+00 -0.10709679033E+04  0.11818371003E+04  0.49976662711E+03 0.  0.
        3    1    3    3  502    0 -0.23673497552E+02 -0.42996471172E+02 -0.11148908848E+04  0.11159707999E+04  0.10100000352E+00 0. -1.
       -3    1    3    3    0  502  0.23673497552E+02  0.42996471172E+02  0.43922981472E+02  0.65866300352E+02  0.10100000352E+00 0.  1.
</event>
<event>
 5   0  0.1209831E-02  0.5004073E+03  0.7818609E-02  0.1013673E+00
        1   -1    0    0  501    0  0.00000000000E+00  0.00000000000E+00  0.13399265964E+04  0.13399265964E+04  0.50400001928E-02 0.  1.
       -1   -1    0    0    0  501  0.00000000000E+00  0.00000000000E+00 -0.46720363303E+02  0.46720363574E+02  0.50400001928E-02 0. -1.
    10030    2    1    2    0    0  0.00000000000E+00  0.00000000000E+00  0.12932062331E+04  0.13866469600E+04  0.50040726445E+03 0.  0.
        4    1    3    3  502    0  0.56170733643E+02 -0.88588792878E+02  0.12760441121E+04  0.12803489034E+04  0.12699999809E+01 0.  1.
       -4    1    3    3    0  502 -0.56170733643E+02  0.88588792878E+02  0.17162121039E+02  0.10629805661E+03  0.12699999809E+01 0. -1.
</event>
<event>
 5   0  0.1217270E-02  0.4998711E+03  0.7818609E-02  0.1013813E+00
       -1   -1    0    0    0  501  0.00000000000E+00  0.00000000000E+00  0.76887908755E+02  0.76887908920E+02  0.50400001928E-02 0. -1.
        1   -1    0    0  501    0  0.00000000000E+00  0.00000000000E+00 -0.81245272842E+03  0.81245272843E+03  0.50400001928E-02 0.  1.
    10030    2    1    2    0    0  0.00000000000E+00  0.00000000000E+00 -0.73556481966E+03  0.88934063735E+03  0.49987114872E+03 0.  0.
        2    1    3    3  502    0 -0.75819766686E+02 -0.13484266289E+03 -0.71704078027E+03  0.73353845253E+03  0.25500000920E-02 0.  1.
       -2    1    3    3    0  502  0.75819766686E+02  0.13484266289E+03 -0.18524039391E+02  0.15580218483E+03  0.25500000920E-02 0. -1.
</event>
<event>
 5   0  0.1982847E-02  0.4952065E+03  0.7818609E-02  0.1015038E+00
        2   -1    0    0  501    0  0.00000000000E+00  0.00000000000E+00  0.35330435853E+03  0.35330435854E+03  0.25500000920E-02 0.  1.
       -2   -1    0    0    0  501  0.00000000000E+00  0.00000000000E+00 -0.17352565941E+03  0.17352565943E+03  0.25500000920E-02 0. -1.
    10030    2    1    2    0    0  0.00000000000E+00  0.00000000000E+00  0.17977869912E+03  0.52683001797E+03  0.49520650962E+03 0.  0.
        2    1    3    3  502    0 -0.20720537628E+03  0.10085566745E+03 -0.64556491119E+01  0.23053765208E+03  0.25500000920E-02 0. -1.
       -2    1    3    3    0  502  0.20720537628E+03 -0.10085566745E+03  0.18623434824E+03  0.29629236589E+03  0.25500000920E-02 0.  1.
</event>
<event>
 5   0  0.1923706E-02  0.5029300E+03  0.7818609E-02  0.1013017E+00
       -2   -1    0    0    0  501  0.00000000000E+00  0.00000000000E+00  0.46687359063E+02  0.46687359133E+02  0.25500000920E-02 0. -1.
        2   -1    0    0  501    0  0.00000000000E+00  0.00000000000E+00 -0.13544274452E+04  0.13544274452E+04  0.25500000920E-02 0.  1.
    10030    2    1    2    0    0  0.00000000000E+00  0.00000000000E+00 -0.13077400862E+04  0.14011148044E+04  0.50292997727E+03 0.  0.
        3    1    3    3  502    0 -0.72954181826E+02 -0.82124581648E+02 -0.23689671701E+02  0.11237424217E+03  0.10100000352E+00 0. -1.
       -3    1    3    3    0  502  0.72954181826E+02  0.82124581648E+02 -0.12840504145E+04  0.12887405622E+04  0.10100000352E+00 0.  1.
</event>
<event>
 5   0  0.1941387E-02  0.4999387E+03  0.7818609E-02  0.1013795E+00
       -2   -1    0    0    0  501  0.00000000000E+00  0.00000000000E+00  0.34065800881E+02  0.34065800977E+02  0.25500000920E-02 0.  1.
        2   -1    0    0  501    0  0.00000000000E+00  0.00000000000E+00 -0.18342344554E+04  0.18342344554E+04  0.25500000920E-02 0. -1.
    10030    2    1    2    0    0  0.00000000000E+00  0.00000000000E+00 -0.18001686545E+04  0.18683002564E+04  0.49993865951E+03 0.  0.
        4    1    3    3  502    0 -0.10610002971E+03  0.13492101863E+03 -0.22098600102E+03  0.27981658835E+03  0.12699999809E+01 0.  1.
       -4    1    3    3    0  502  0.10610002971E+03 -0.13492101863E+03 -0.15791826535E+04  0.15884836680E+04  0.12699999809E+01 0. -1.
</event>
<event>
 5   0  0.1225989E-02  0.4971804E+03  0.7818609E-02  0.1014518E+00
        1   -1    0    0  501    0  0.00000000000E+00  0.00000000000E+00  0.14290979432E+03  0.14290979441E+03  0.50400001928E-02 0.  1.
       -1   -1    0    0    0  501  0.00000000000E+00  0.00000000000E+00 -0.43242023651E+03  0.43242023654E+03  0.50400001928E-02 0. -1.
    10030    2    1    2    0    0  0.00000000000E+00  0.00000000000E+00 -0.28951044219E+03  0.57533003095E+03  0.49718039823E+03 0.  0.
        3    1    3    3  502    0  0.72004109308E+02  0.17032595133E+02 -0.41938240851E+03  0.42585950245E+03  0.10100000352E+00 0. -1.
       -3    1    3    3    0  502 -0.72004109308E+02 -0.17032595133E+02  0.12987196632E+03  0.14947052851E+03  0.10100000352E+00 0.  1.
</event>
<event>
 5   0  0.1855407E-02  0.5002402E+03  0.7818609E-02  0.1013716E+00
       -2   -1    0    0    0  501  0.00000000000E+00  0.00000000000E+00  0.41656445025E+02  0.41656445103E+02  0.25500000920E-02 0. -1.
        2   -1    0    0  501    0  0.00000000000E+00  0.00000000000E+00 -0.15018098336E+04  0.15018098336E+04  0.25500000920E-02 0.  1.
    10030    2    1    2    0    0  0.00000000000E+00  0.00000000000E+00 -0.14601533886E+04  0.15434662787E+04  0.50024017764E+03 0.  0.
        1    1    3    3  502    0  0.12911855955E+02  0.17449019755E+02  0.38744716289E+02  0.44411005172E+02  0.50400001928E-02 0. -1.
       -1    1    3    3    0  502 -0.12911855955E+02 -0.17449019755E+02 -0.14988981049E+04  0.14990552735E+04  0.50400001928E-02 0.  1.
</event>
<event>
 5   0  0.1967813E-02  0.5012387E+03  0.7818609E-02  0.1013456E+00
        2   -1    0    0  501    0  0.00000000000E+00  0.00000000000E+00  0.51095926381E+03  0.51095926382E+03  0.25500000920E-02 0.  1.
       -2   -1    0    0    0  501  0.00000000000E+00  0.00000000000E+00 -0.12292577684E+03  0.12292577686E+03  0.25500000920E-02 0. -1.
    10030    2    1    2    0    0  0.00000000000E+00  0.00000000000E+00  0.38803348697E+03  0.63388504068E+03  0.50123872335E+03 0.  0.
        5    1    3    3  502    0  0.14266982460E+03  0.20141163193E+03  0.24865506494E+03  0.35038943427E+03  0.46999998093E+01 0.  1.
       -5    1    3    3    0  502 -0.14266982460E+03 -0.20141163193E+03  0.13937842204E+03  0.28349560642E+03  0.46999998093E+01 0. -1.
</event>
<event>
 5   0  0.1209831E-02  0.4999138E+03  0.7818609E-02  0.1013801E+00
        1   -1    0    0  501    0  0.00000000000E+00  0.00000000000E+00  0.80651265959E+03  0.80651265960E+03  0.50400001928E-02 0. -1.
       -1   -1    0    0    0  501  0.00000000000E+00  0.00000000000E+00 -0.77467421399E+02  0.77467421563E+02  0.50400001928E-02 0.  1.
    10030    2    1    2    0    0  0.00000000000E+00  0.00000000000E+00  0.72904523819E+03  0.88398008117E+03  0.49991381715E+03 0.  0.
        4    1    3    3  502    0 -0.27719941915E+02 -0.20845391352E+03  0.60343748963E+03  0.63903039523E+03  0.12699999809E+01 0. -1.
       -4    1    3    3    0  502  0.27719941915E+02  0.20845391352E+03  0.12560774856E+03  0.24494968593E+03  0.12699999809E+01 0.  1.
</event>
<event>
 5   0  0.1217270E-02  0.5002377E+03  0.7818609E-02  0.1013717E+00
        1   -1    0    0  501    0  0.00000000000E+00  0.00000000000E+00  0.50421824196E+03  0.50421824199E+03  0.50400001928E-02 0.  1.
       -1   -1    0    0    0  501  0.00000000000E+00  0.00000000000E+00 -0.12407213133E+03  0.12407213144E+03  0.50400001928E-02 0. -1.
    10030    2    1    2    0    0  0.00000000000E+00  0.00000000000E+00  0.38014611063E+03  0.62829037342E+03  0.50023767142E+03 0.  0.
        2    1    3    3  502    0 -0.12992406331E+03  0.12017527829E+03  0.41205577727E+03  0.44845548645E+03  0.25500000920E-02 0.  1.
       -2    1    3    3    0  502  0.12992406331E+03 -0.12017527829E+03 -0.31909666644E+02  0.17983488697E+03  0.25500000920E-02 0. -1.
</event>
<event>
 5   0  0.8012875E-03  0.5015993E+03  0.7818609E-02  0.1013362E+00
        4   -1    0    0  501    0  0.00000000000E+00  0.00000000000E+00  0.24205717287E+03  0.24206050450E+03  0.12699999809E+01 0. -1.
       -4   -1    0    0    0  501  0.00000000000E+00  0.00000000000E+00 -0.25985117189E+03  0.25985427538E+03  0.12699999809E+01 0.  1.
    10030    2    1    2    0    0  0.00000000000E+00  0.00000000000E+00 -0.17793999020E+02  0.50191477987E+03  0.50159926221E+03 0.  0.
        1    1    3    3  502    0 -0.22048661582E+03  0.47639149531E+01  0.11060765303E+03  0.24672068332E+03  0.50400001928E-02 0. -1.
       -1    1    3    3    0  502  0.22048661582E+03 -0.47639149531E+01 -0.12840165205E+03  0.25519409656E+03  0.50400001928E-02 0.  1.
</event>
<event>
 5   0  0.1225989E-02  0.4997922E+03  0.7818609E-02  0.1013833E+00
       -1   -1    0    0    0  501  0.00000000000E+00  0.00000000000E+00  0.54470835724E+02  0.54470835957E+02  0.50400001928E-02 0. -1.
        1   -1    0    0  501    0  0.00000000000E+00  0.00000000000E+00 -0.11464496056E+04  0.11464496056E+04  0.50400001928E-02 0.  1.
    10030    2    1    2    0    0  0.00000000000E+00  0.00000000000E+00 -0.10919787699E+04  0.12009204415E+04  0.49979222994E+03 0.  0.
        3    1    3    3  502    0  0.58510176470E+02  0.17857367250E+03 -0.94180975376E+03  0.96037368755E+03  0.10100000352E+00 0.  1.
       -3    1    3    3    0  502 -0.58510176470E+02 -0.17857367250E+03 -0.15016901610E+03  0.24054675400E+03  0.10100000352E+00 0. -1.
</event>
<event>
 5   0  0.1217270E-02  0.4998984E+03  0.7818609E-02  0.1013805E+00
        1   -1    0    0  501    0  0.00000000000E+00  0.00000000000E+00  0.26561650483E+03  0.26561650487E+03  0.50400001928E-02 0.  1.
       -1   -1    0    0    0  501  0.00000000000E+00  0.00000000000E+00 -0.23520600454E+03  0.23520600460E+03  0.50400001928E-02 0. -1.
    10030    2    1    2    0    0  0.00000000000E+00  0.00000000000E+00  0.30410500284E+02  0.50082250947E+03  0.49989837714E+03 0.  0.
        2    1    3    3  502    0 -0.11388040679E+03  0.16472906270E+03 -0.13463790459E+03  0.24131261158E+03  0.25500000920E-02 0. -1.
       -2    1    3    3    0  502  0.11388040679E+03 -0.16472906270E+03  0.16504840487E+03  0.25950989789E+03  0.25500000920E-02 0.  1.
</event>
<event>
 5   0  0.1982847E-02  0.5013046E+03  0.7818609E-02  0.1013439E+00
        2   -1    0    0  501    0  0.00000000000E+00  0.00000000000E+00  0.13298907565E+04  0.13298907565E+04  0.25500000920E-02 0. -1.
       -2   -1    0    0    0  501  0.00000000000E+00  0.00000000000E+00 -0.47241904190E+02  0.47241904259E+02  0.25500000920E-02 0.  1.
    10030    2    1    2    0    0  0.00000000000E+00  0.00000000000E+00  0.12826488523E+04  0.13771326608E+04  0.50130458506E+03 0.  0.
        2    1    3    3  502    0 -0.24409388667E+03 -0.35259026976E+02  0.51842297100E+03  0.57409703131E+03  0.25500000920E-02 0.  1.
       -2    1    3    3    0  502  0.24409388667E+03  0.35259026976E+02  0.76422588133E+03  0.80303562946E+03  0.25500000920E-02 0. -1.
</event>
<event>
 5   0  0.1982847E-02  0.5000147E+03  0.7818609E-02  0.1013775E+00
        2   -1    0    0  501    0  0.00000000000E+00  0.00000000000E+00  0.31803182254E+03  0.31803182255E+03  0.25500000920E-02 0.  1.
       -2   -1    0    0    0  501  0.00000000000E+00  0.00000000000E+00 -0.19653273601E+03  0.19653273603E+03  0.25500000920E-02 0. -1.
    10030    2    1    2    0    0  0.00000000000E+00  0.00000000000E+00  0.12149908653E+03  0.51456455857E+03  0.50001465670E+03 0.  0.
        2    1    3    3  502    0 -0.14597741601E+03 -0.19049478350E+03  0.13283052896E+03  0.27430205605E+03  0.25500000920E-02 0.  1.
       -2    1    3    3    0  502  0.14597741601E+03  0.19049478350E+03 -0.11331442426E+02  0.24026250252E+03  0.25500000920E-02 0. -1.
</event>
<event>
 5   0  0.1923706E-02  0.4993497E+03  0.7818609E-02  0.1013949E+00
       -2   -1    0    0    0  501  0.00000000000E+00  0.00000000000E+00  0.29065309777E+02  0.29065309889E+02  0.25500000920E-02 0.  1.
        2   -1    0    0  501    0  0.00000000000E+00  0.00000000000E+00 -0.21447402899E+04  0.21447402899E+04  0.25500000920E-02 0. -1.
    10030    2    1    2    0    0  0.00000000000E+00  0.00000000000E+00 -0.21156749802E+04  0.21738055998E+04  0.49934974133E+03 0.  0.
        3    1    3    3  502    0 -0.31635631839E+02 -0.24754808454E+03 -0.10906068150E+04  0.11187958270E+04  0.10100000352E+00 0. -1.
       -3    1    3    3    0  502  0.31635631839E+02  0.24754808454E+03 -0.10250681652E+04  0.10550097729E+04  0.10100000352E+00 0.  1.
</event>
<event>
 5   0  0.8012875E-03  0.4967452E+03  0.7818609E-02  0.1014632E+00
        3   -1    0    0  501    0  0.00000000000E+00  0.00000000000E+00  0.27298517076E+03  0.27298518944E+03  0.10100000352E+00 0.  1.
       -3   -1    0    0    0  501  0.00000000000E+00  0.00000000000E+00 -0.22597908190E+03  0.22597910447E+03  0.10100000352E+00 0. -1.
    10030    2    1    2    0    0  0.00000000000E+00  0.00000000000E+00  0.47006088853E+02  0.49896429391E+03  0.49674520049E+03 0.  0.
        2    1    3    3  502    0  0.18066228095E+03  0.24374840477E+02 -0.14593946654E+03  0.23351942212E+03  0.25500000920E-02 0. -1.
       -2    1    3    3    0  502 -0.18066228095E+03 -0.24374840477E+02  0.19294555539E+03  0.26544487179E+03  0.25500000920E-02 0.  1.
</event>
<event>
 5   0  0.1209831E-02  0.5003971E+03  0.7818609E-02  0.1013675E+00
        1   -1    0    0  501    0  0.00000000000E+00  0.00000000000E+00  0.29336800328E+03  0.29336800333E+03  0.50400001928E-02 0.  1.
       -1   -1    0    0    0  501  0.00000000000E+00  0.00000000000E+00 -0.21338155361E+03  0.21338155367E+03  0.50400001928E-02 0. -1.
    10030    2    1    2    0    0  0.00000000000E+00  0.00000000000E+00  0.79986449673E+02  0.50674955699E+03  0.50039712368E+03 0.  0.
        4    1    3    3  502    0  0.50508505870E+02 -0.72226658387E+00  0.28814700259E+03  0.29254390925E+03  0.12699999809E+01 0.  1.
       -4    1    3    3    0  502 -0.50508505870E+02  0.72226658387E+00 -0.20816055292E+03  0.21420564775E+03  0.12699999809E+01 0. -1.
</event>
<event>
 5   0  0.1217270E-02  0.4988191E+03  0.7818609E-02  0.1014088E+00
        1   -1    0    0  501    0  0.00000000000E+00  0.00000000000E+00  0.39206849909E+03  0.39206849913E+03  0.50400001928E-02 0. -1.
       -1   -1    0    0    0  501  0.00000000000E+00  0.00000000000E+00 -0.15865878998E+03  0.15865879006E+03  0.50400001928E-02 0.  1.
    10030    2    1    2    0    0  0.00000000000E+00  0.00000000000E+00  0.23340970912E+03  0.55072728919E+03  0.49881906013E+03 0.  0.
        2    1    3    3  502    0  0.41731180175E+02  0.19798972732E+03  0.27770003484E+03  0.34359675912E+03  0.25500000920E-02 0. -1.
       -2    1    3    3    0  502 -0.41731180175E+02 -0.19798972732E+03 -0.44290325724E+02  0.20713053006E+03  0.25500000920E-02 0.  1.
</event>
<event>
 5   0  0.8012875E-03  0.4997943E+03  0.7818609E-02  0.1013833E+00
        3   -1    0    0  501    0  0.00000000000E+00  0.00000000000E+00  0.20520564270E+03  0.20520566755E+03  0.10100000352E+00 0.  1.
       -3   -1    0    0    0  501  0.00000000000E+00  0.00000000000E+00 -0.30432193007E+03  0.30432194683E+03  0.10100000352E+00 0. -1.
    10030    2    1    2    0    0  0.00000000000E+00  0.00000000000E+00 -0.99116287370E+02  0.50952761438E+03  0.49979430909E+03 0.  0.
        4    1    3    3  502    0 -0.64027076731E+02 -0.45101458982E+02 -0.29148393256E+03  0.30182462457E+03  0.12699999809E+01 0. -1.
       -4    1    3    3    0  502  0.64027076731E+02  0.45101458982E+02  0.19236764519E+03  0.20770298981E+03  0.12699999809E+01 0.  1.
</event>
<event>
 5   0  0.1217270E-02  0.5010595E+03  0.7818609E-02  0.1013503E+00
        1   -1    0    0  501    0  0.00000000000E+00  0.00000000000E+00  0.24252858097E+03  0.24252858102E+03  0.50400001928E-02 0.  1.
       -1   -1    0    0    0  501  0.00000000000E+00  0.00000000000E+00 -0.25879488421E+03  0.25879488426E+03  0.50400001928E-02 0. -1.
    10030    2    1    2    0    0  0.00000000000E+00  0.00000000000E+00 -0.16266303238E+02  0.50132346528E+03  0.50105950167E+03 0.  0.
        2    1    3    3  502    0  0.43481616400E+02  0.12281305482E+02 -0.25468471064E+03  0.25866152260E+03  0.25500000920E-02 0. -1.
       -2    1    3    3    0  502 -0.43481616400E+02 -0.12281305482E+02  0.23841840741E+03  0.24266194268E+03  0.25500000920E-02 0.  1.
</event>
<event>
 5   0  0.1923706E-02  0.5000121E+03  0.7818609E-02  0.1013776E+00
        2   -1    0    0  501    0  0.00000000000E+00  0.00000000000E+00  0.63095626454E+03  0.63095626454E+03  0.25500000920E-02 0. -1.
       -2   -1    0    0    0  501  0.00000000000E+00  0.00000000000E+00 -0.99060797953E+02  0.99060797986E+02  0.25500000920E-02 0.  1.
    10030    2    1    2    0    0  0.00000000000E+00  0.00000000000E+00  0.53189546658E+03  0.73001706253E+03  0.50001212406E+03 0.  0.
        3    1    3    3  502    0 -0.10183253715E+02  0.73418540088E+02 -0.82649824663E+02  0.11101794631E+03  0.10100000352E+00 0.  1.
       -3    1    3    3    0  502  0.10183253715E+02 -0.73418540088E+02  0.61454529125E+03  0.61899911622E+03  0.10100000352E+00 0. -1.
</event>
<event>
 5   0  0.1982847E-02  0.4996893E+03  0.7818609E-02  0.1013860E+00
       -2   -1    0    0    0  501  0.00000000000E+00  0.00000000000E+00  0.71533008389E+02  0.71533008434E+02  0.25500000920E-02 0.  1.
        2   -1    0    0  501    0  0.00000000000E+00  0.00000000000E+00 -0.87263705601E+03  0.87263705601E+03  0.25500000920E-02 0. -1.
    10030    2    1    2    0    0  0.00000000000E+00  0.00000000000E+00 -0.80110404762E+03  0.94417006445E+03  0.49968931896E+03 0.  0.
        2    1    3    3  502    0 -0.19714679209E+03 -0.87675839383E+02 -0.63857414666E+03  0.67404068960E+03  0.25500000920E-02 0. -1.
       -2    1    3    3    0  502  0.19714679209E+03  0.87675839383E+02 -0.16252990096E+03  0.27012937485E+03  0.25500000920E-02 0.  1.
</event>
<event>
 5   0  0.1982847E-02  0.5004677E+03  0.7818609E-02  0.1013657E+00
       -2   -1    0    0    0  501  0.00000000000E+00  0.00000000000E+00  0.66432492522E+02  0.66432492571E+02  0.25500000920E-02 0. -1.
        2   -1    0    0  501    0  0.00000000000E+00  0.00000000000E+00 -0.94256553073E+03  0.94256553073E+03  0.25500000920E-02 0.  1.
    10030    2    1    2    0    0  0.00000000000E+00  0.00000000000E+00 -0.87613303821E+03  0.10089980233E+04  0.50046769166E+03 0.  0.
        2    1    3    3  502    0  0.10260422280E+03 -0.81328413231E+02 -0.81334853646E+01  0.13117961322E+03  0.25500000920E-02 0. -1.
       -2    1    3    3    0  502 -0.10260422280E+03  0.81328413231E+02 -0.86799955284E+03  0.87781841008E+03  0.25500000920E-02 0.  1.
</event>
<event>
 5   0  0.1217270E-02  0.4989559E+03  0.7818609E-02  0.1014052E+00
       -1   -1    0    0    0  501  0.00000000000E+00  0.00000000000E+00  0.12098086083E+03  0.12098086093E+03  0.50400001928E-02 0. -1.
        1   -1    0    0  501    0  0.00000000000E+00  0.00000000000E+00 -0.51445526705E+03  0.51445526707E+03  0.50400001928E-02 0.  1.
    10030    2    1    2    0    0  0.00000000000E+00  0.00000000000E+00 -0.39347440622E+03  0.63543612800E+03  0.49895587422E+03 0.  0.
        2    1    3    3  502    0  0.20121848477E+03  0.10507494589E+03 -0.64942863562E+02  0.23610844627E+03  0.25500000920E-02 0. -1.
       -2    1    3    3    0  502 -0.20121848477E+03 -0.10507494589E+03 -0.32853154266E+03  0.39932768173E+03  0.25500000920E-02 0.  1.
</event>
<event>
 5   0  0.1227864E-02  0.4995787E+03  0.7818609E-02  0.1013889E+00
        1   -1    0    0  501    0  0.00000000000E+00  0.00000000000E+00  0.98387733502E+02  0.98387733631E+02  0.50400001928E-02 0. -1.
       -1   -1    0    0    0  501  0.00000000000E+00  0.00000000000E+00 -0.63417160698E+03  0.63417160700E+03  0.50400001928E-02 0.  1.
    10030    2    1    2    0    0  0.00000000000E+00  0.00000000000E+00 -0.53578387348E+03  0.73255934063E+03  0.49957865093E+03 0.  0.
        5    1    3    3  502    0 -0.97543394391E+02  0.22570951840E+03 -0.20375478593E+03  0.31937063621E+03  0.46999998093E+01 0. -1.
       -5    1    3    3    0  502  0.97543394391E+02 -0.22570951840E+03 -0.33202908754E+03  0.41318870442E+03  0.46999998093E+01 0.  1.
</event>
<event>
 5   0  0.8012875E-03  0.4993872E+03  0.7818609E-02  0.1013939E+00
       -3   -1    0    0    0  501  0.00000000000E+00  0.00000000000E+00  0.25137603460E+03  0.25137605489E+03  0.10100000352E+00 0.  1.
        3   -1    0    0  501    0  0.00000000000E+00  0.00000000000E+00 -0.24802240583E+03  0.24802242639E+03  0.10100000352E+00 0. -1.
    10030    2    1    2    0    0  0.00000000000E+00  0.00000000000E+00  0.33536287767E+01  0.49939848128E+03  0.49938722078E+03 0.  0.
        1    1    3    3  502    0  0.97928027497E+02  0.19803128208E+03  0.11804357272E+03  0.25048068256E+03  0.50400001928E-02 0.  1.
       -1    1    3    3    0  502 -0.97928027497E+02 -0.19803128208E+03 -0.11468994395E+03  0.24891779872E+03  0.50400001928E-02 0. -1.
</event>
<event>
 5   0  0.1855407E-02  0.5002438E+03  0.7818609E-02  0.1013715E+00
        2   -1    0    0  501    0  0.00000000000E+00  0.00000000000E+00  0.11483262534E+04  0.11483262534E+04  0.25500000920E-02 0. -1.
       -2   -1    0    0    0  501  0.00000000000E+00  0.00000000000E+00 -0.54480139736E+02  0.54480139796E+02  0.25500000920E-02 0.  1.
    10030    2    1    2    0    0  0.00000000000E+00  0.00000000000E+00  0.10938461137E+04  0.12028063932E+04  0.50024383969E+03 0.  0.
        1    1    3    3  502    0  0.14384744938E+03  0.13301696792E+02  0.10378762484E+04  0.10478817352E+04  0.50400001928E-02 0.  1.
       -1    1    3    3    0  502 -0.14384744938E+03 -0.13301696792E+02  0.55969865268E+02  0.15492465806E+03  0.50400001928E-02 0. -1.
</event>
<event>
 5   0  0.1923706E-02  0.5011243E+03  0.7818609E-02  0.1013486E+00
        2   -1    0    0  501    0  0.00000000000E+00  0.00000000000E+00  0.55204982361E+03  0.55204982362E+03  0.25500000920E-02 0.  1.
       -2   -1    0    0    0  501  0.00000000000E+00  0.00000000000E+00 -0.11372415660E+03  0.11372415663E+03  0.25500000920E-02 0. -1.
    10030    2    1    2    0    0  0.00000000000E+00  0.00000000000E+00  0.43832566701E+03  0.66577398025E+03  0.50112433828E+03 0.  0.
        3    1    3    3  502    0 -0.65397560664E+02  0.22707630337E+03  0.10847770447E+03  0.26001521314E+03  0.10100000352E+00 0.  1.
       -3    1    3    3    0  502  0.65397560664E+02 -0.22707630337E+03  0.32984796254E+03  0.40575876711E+03  0.10100000352E+00 0. -1.
</event>
<event>
 5   0  0.8012875E-03  0.4997155E+03  0.7818609E-02  0.1013853E+00
       -4   -1    0    0    0  501  0.00000000000E+00  0.00000000000E+00  0.41724727550E+03  0.41724920829E+03  0.12699999809E+01 0.  1.
        4   -1    0    0  501    0  0.00000000000E+00  0.00000000000E+00 -0.14961589978E+03  0.14962128982E+03  0.12699999809E+01 0. -1.
    10030    2    1    2    0    0  0.00000000000E+00  0.00000000000E+00  0.26763137573E+03  0.56687049811E+03  0.49971552742E+03 0.  0.
        2    1    3    3  502    0 -0.93488884982E+02  0.14633354555E+03 -0.69980306235E+02  0.18721891314E+03  0.25500000920E-02 0. -1.
       -2    1    3    3    0  502  0.93488884982E+02 -0.14633354555E+03  0.33761168196E+03  0.37965158497E+03  0.25500000920E-02 0.  1.
</event>
<event>
 5   0  0.8012875E-03  0.4995104E+03  0.7818609E-02  0.1013907E+00
       -3   -1    0    0    0  501  0.00000000000E+00  0.00000000000E+00  0.10519961679E+03  0.10519966528E+03  0.10100000352E+00 0. -1.
        3   -1    0    0  501    0  0.00000000000E+00  0.00000000000E+00 -0.59294556116E+03  0.59294556976E+03  0.10100000352E+00 0.  1.
    10030    2    1    2    0    0  0.00000000000E+00  0.00000000000E+00 -0.48774594436E+03  0.69814523504E+03  0.49951042328E+03 0.  0.
        3    1    3    3  502    0 -0.23940314849E+03  0.10282060066E+02 -0.34228709609E+03  0.41782778105E+03  0.10100000352E+00 0.  1.
       -3    1    3    3    0  502  0.23940314849E+03 -0.10282060066E+02 -0.14545884827E+03  0.28031745398E+03  0.10100000352E+00 0. -1.
</event>
<event>
 5   0  0.1923706E-02  0.4997284E+03  0.7818609E-02  0.1013850E+00
        2   -1    0    0  501    0  0.00000000000E+00  0.00000000000E+00  0.70897202900E+03  0.70897202901E+03  0.25500000920E-02 0.  1.
       -2   -1    0    0    0  501  0.00000000000E+00  0.00000000000E+00 -0.88060046703E+02  0.88060046740E+02  0.25500000920E-02 0. -1.
    10030    2    1    2    0    0  0.00000000000E+00  0.00000000000E+00  0.62091198230E+03  0.79703207575E+03  0.49972836622E+03 0.  0.
        3    1    3    3  502    0  0.47673463344E+02 -0.23922397809E+03  0.22410513023E+03  0.33124611755E+03  0.10100000352E+00 0.  1.
       -3    1    3    3    0  502 -0.47673463344E+02  0.23922397809E+03  0.39680685207E+03  0.46578595820E+03  0.10100000352E+00 0. -1.
</event>
<event>
 5   0  0.1982847E-02  0.5001020E+03  0.7818609E-02  0.1013752E+00
        2   -1    0    0  501    0  0.00000000000E+00  0.00000000000E+00  0.46680157419E+03  0.46680157419E+03  0.25500000920E-02 0. -1.
       -2   -1    0    0    0  501  0.00000000000E+00  0.00000000000E+00 -0.13394450300E+03  0.13394450303E+03  0.25500000920E-02 0.  1.
    10030    2    1    2    0    0  0.00000000000E+00  0.00000000000E+00  0.33285707118E+03  0.60074607722E+03  0.50010200906E+03 0.  0.
        2    1    3    3  502    0 -0.22682743710E+03 -0.97019699142E+02  0.21540048725E+03  0.32750706581E+03  0.25500000920E-02 0. -1.
       -2    1    3    3    0  502  0.22682743710E+03  0.97019699142E+02  0.11745658393E+03  0.27323901141E+03  0.25500000920E-02 0.  1.
</event>
<event>
 5   0  0.1923706E-02  0.5004492E+03  0.7818609E-02  0.1013662E+00
        2   -1    0    0  501    0  0.00000000000E+00  0.00000000000E+00  0.35511059950E+03  0.35511059951E+03  0.25500000920E-02 0. -1.
       -2   -1    0    0    0  501  0.00000000000E+00  0.00000000000E+00 -0.17631785267E+03  0.17631785269E+03  0.25500000920E-02 0.  1.
    10030    2    1    2    0    0  0.00000000000E+00  0.00000000000E+00  0.17879274683E+03  0.53142845220E+03  0.50044915175E+03 0.  0.
        3    1    3    3  502    0  0.15981612446E+03 -0.13458684079E+03 -0.56813119187E+02  0.21652379099E+03  0.10100000352E+00 0.  1.
       -3    1    3    3    0  502 -0.15981612446E+03  0.13458684079E+03  0.23560586602E+03  0.31490466121E+03  0.10100000352E+00 0. -1.
</event>
<event>
 5   0  0.1225989E-02  0.5000587E+03  0.7818609E-02  0.1013764E+00
       -1   -1    0    0    0  501  0.00000000000E+00  0.00000000000E+00  0.50549096742E+02  0.50549096993E+02  0.50400001928E-02 0.  1.
        1   -1    0    0  501    0  0.00000000000E+00  0.00000000000E+00 -0.12367117966E+04  0.12367117966E+04  0.50400001928E-02 0. -1.
    10030    2    1    2    0    0  0.00000000000E+00  0.00000000000E+00 -0.11861626998E+04  0.12872608936E+04  0.50005865423E+03 0.  0.
        3    1    3    3  502    0  0.40727572398E+02  0.18539168152E+03 -0.17414067099E+03  0.25759230234E+03  0.10100000352E+00 0.  1.
       -3    1    3    3    0  502 -0.40727572398E+02 -0.18539168152E+03 -0.10120220289E+04  0.10296685913E+04  0.10100000352E+00 0. -1.
</event>
<event>
 5   0  0.1227864E-02  0.5013552E+03  0.7818609E-02  0.1013426E+00
       -1   -1    0    0    0  501  0.00000000000E+00  0.00000000000E+00  0.15432119403E+03  0.15432119412E+03  0.50400001928E-02 0. -1.
        1   -1    0    0  501    0  0.00000000000E+00  0.00000000000E+00 -0.40719783365E+03  0.40719783368E+03  0.50400001928E-02 0.  1.
    10030    2    1    2    0    0  0.00000000000E+00  0.00000000000E+00 -0.25287663962E+03  0.56151902780E+03  0.50135518718E+03 0.  0.
        5    1    3    3  502    0  0.89737918989E+01 -0.25027755756E+03 -0.11536324721E+03  0.27577192309E+03  0.46999998093E+01 0. -1.
       -5    1    3    3    0  502 -0.89737918989E+01  0.25027755756E+03 -0.13751339241E+03  0.28574710471E+03  0.46999998093E+01 0.  1.
</event>
<event>
 5   0  0.1855407E-02  0.5031787E+03  0.7818609E-02  0.1012953E+00
       -2   -1    0    0    0  501  0.00000000000E+00  0.00000000000E+00  0.48297508769E+03  0.48297508769E+03  0.25500000920E-02 0. -1.
        2   -1    0    0  501    0  0.00000000000E+00  0.00000000000E+00 -0.13105686698E+03  0.13105686700E+03  0.25500000920E-02 0.  1.
    10030    2    1    2    0    0  0.00000000000E+00  0.00000000000E+00  0.35191822071E+03  0.61403195469E+03  0.50317870316E+03 0.  0.
        1    1    3    3  502    0  0.65158447392E+02  0.16975688833E+03  0.38814563505E+03  0.42862577902E+03  0.50400001928E-02 0. -1.
       -1    1    3    3    0  502 -0.65158447392E+02 -0.16975688833E+03 -0.36227414342E+02  0.18540617568E+03  0.50400001928E-02 0.  1.
</event>
<event>
 5   0  0.1217270E-02  0.5075532E+03  0.7818609E-02  0.1011826E+00
       -1   -1    0    0    0  501  0.00000000000E+00  0.00000000000E+00  0.66813709667E+02  0.66813709857E+02  0.50400001928E-02 0.  1.
        1   -1    0    0  501    0  0.00000000000E+00  0.00000000000E+00 -0.96391257976E+03  0.96391257977E+03  0.50400001928E-02 0. -1.
    10030    2    1    2    0    0  0.00000000000E+00  0.00000000000E+00 -0.89709887009E+03  0.10307262896E+04  0.50755324983E+03 0.  0.
        2    1    3    3  502    0  0.51238399743E+02  0.11855226722E+03 -0.89218220042E+03  0.90148160959E+03  0.25500000920E-02 0. -1.
       -2    1    3    3    0  502 -0.51238399743E+02 -0.11855226722E+03 -0.49166696718E+01  0.12924468004E+03  0.25500000920E-02 0.  1.
</event>
<event>
 5   0  0.1982847E-02  0.4999897E+03  0.7818609E-02  0.1013782E+00
        2   -1    0    0  501    0  0.00000000000E+00  0.00000000000E+00  0.43169259611E+02  0.43169259686E+02  0.25500000920E-02 0.  1.
       -2   -1    0    0    0  501  0.00000000000E+00  0.00000000000E+00 -0.14477297631E+04  0.14477297631E+04  0.25500000920E-02 0. -1.
    10030    2    1    2    0    0  0.00000000000E+00  0.00000000000E+00 -0.14045605035E+04  0.14908990228E+04  0.49998968808E+03 0.  0.
        2    1    3    3  502    0  0.12951075422E+03 -0.32904114020E+02 -0.13323049477E+04  0.13389892419E+04  0.25500000920E-02 0. -1.
       -2    1    3    3    0  502 -0.12951075422E+03  0.32904114020E+02 -0.72255555714E+02  0.15190978084E+03  0.25500000920E-02 0.  1.
</event>
<event>
 5   0  0.1180937E-02  0.5007970E+03  0.7818609E-02  0.1013571E+00
       -1   -1    0    0    0  501  0.00000000000E+00  0.00000000000E+00  0.37531808145E+03  0.37531808149E+03  0.50400001928E-02 0. -1.
        1   -1    0    0  501    0  0.00000000000E+00  0.00000000000E+00 -0.16705669343E+03  0.16705669351E+03  0.50400001928E-02 0.  1.
    10030    2    1    2    0    0  0.00000000000E+00  0.00000000000E+00  0.20826138802E+03  0.54237477499E+03  0.50079695567E+03 0.  0.
        1    1    3    3  502    0 -0.12510144607E+03 -0.21310735714E+03  0.14791324504E+03  0.28799903743E+03  0.50400001928E-02 0. -1.
       -1    1    3    3    0  502  0.12510144607E+03  0.21310735714E+03  0.60348142984E+02  0.25437573757E+03  0.50400001928E-02 0.  1.
</event>
<event>
 5   0  0.1941387E-02  0.5005992E+03  0.7818609E-02  0.1013623E+00
        2   -1    0    0  501    0  0.00000000000E+00  0.00000000000E+00  0.25186388636E+03  0.25186388637E+03  0.25500000920E-02 0. -1.
       -2   -1    0    0    0  501  0.00000000000E+00  0.00000000000E+00 -0.24874504923E+03  0.24874504924E+03  0.25500000920E-02 0.  1.
    10030    2    1    2    0    0  0.00000000000E+00  0.00000000000E+00  0.31188371254E+01  0.50060893561E+03  0.50059922021E+03 0.  0.
        4    1    3    3  502    0  0.20354778175E+03  0.10224005505E+03 -0.10219014239E+03  0.24965809904E+03  0.12699999809E+01 0.  1.
       -4    1    3    3    0  502 -0.20354778175E+03 -0.10224005505E+03  0.10530897952E+03  0.25095083658E+03  0.12699999809E+01 0. -1.
</event>
<event>
 5   0  0.1217270E-02  0.5005047E+03  0.7818609E-02  0.1013647E+00
        1   -1    0    0  501    0  0.00000000000E+00  0.00000000000E+00  0.28589829831E+03  0.28589829836E+03  0.50400001928E-02 0. -1.
       -1   -1    0    0    0  501  0.00000000000E+00  0.00000000000E+00 -0.21905079675E+03  0.21905079681E+03  0.50400001928E-02 0.  1.
    10030    2    1    2    0    0  0.00000000000E+00  0.00000000000E+00  0.66847501564E+02  0.50494909517E+03  0.50050474548E+03 0.  0.
        2    1    3    3  502    0  0.21429147001E+03  0.39745360305E+02  0.15750251509E+03  0.26890066948E+03  0.25500000920E-02 0. -1.
       -2    1    3    3    0  502 -0.21429147001E+03 -0.39745360305E+02 -0.90655013525E+02  0.23604842568E+03  0.25500000920E-02 0.  1.
</event>
<event>
 5   0  0.1967813E-02  0.5000083E+03  0.7818609E-02  0.1013777E+00
       -2   -1    0    0    0  501  0.00000000000E+00  0.00000000000E+00  0.37409190289E+03  0.37409190289E+03  0.25500000920E-02 0. -1.
        2   -1    0    0  501    0  0.00000000000E+00  0.00000000000E+00 -0.16707676709E+03  0.16707676711E+03  0.25500000920E-02 0.  1.
    10030    2    1    2    0    0  0.00000000000E+00  0.00000000000E+00  0.20701513580E+03  0.54116867000E+03  0.50000826287E+03 0.  0.
        5    1    3    3  502    0 -0.14230189341E+03 -0.11396011011E+03  0.28859128380E+03  0.34138505334E+03  0.46999998093E+01 0. -1.
       -5    1    3    3    0  502  0.14230189341E+03  0.11396011011E+03 -0.81576147998E+02  0.19978361666E+03  0.46999998093E+01 0.  1.
</event>
<event>
 5   0  0.1217270E-02  0.4996294E+03  0.7818609E-02  0.1013876E+00
       -1   -1    0    0    0  501  0.00000000000E+00  0.00000000000E+00  0.12890102810E+03  0.12890102820E+03  0.50400001928E-02 0. -1.
        1   -1    0    0  501    0  0.00000000000E+00  0.00000000000E+00 -0.48414955327E+03  0.48414955330E+03  0.50400001928E-02 0.  1.
    10030    2    1    2    0    0  0.00000000000E+00  0.00000000000E+00 -0.35524852517E+03  0.61305058149E+03  0.49962936346E+03 0.  0.
        2    1    3    3  502    0  0.22313639017E+03  0.11188402208E+03 -0.16538534972E+03  0.29943312596E+03  0.25500000920E-02 0.  1.
       -2    1    3    3    0  502 -0.22313639017E+03 -0.11188402208E+03 -0.18986317545E+03  0.31361745553E+03  0.25500000920E-02 0. -1.
</event>
<event>
 5   0  0.1225989E-02  0.5007281E+03  0.7818609E-02  0.1013589E+00
        1   -1    0    0  501    0  0.00000000000E+00  0.00000000000E+00  0.15379327291E+03  0.15379327299E+03  0.50400001928E-02 0. -1.
       -1   -1    0    0    0  501  0.00000000000E+00  0.00000000000E+00 -0.40757415618E+03  0.40757415621E+03  0.50400001928E-02 0.  1.
    10030    2    1    2    0    0  0.00000000000E+00  0.00000000000E+00 -0.25378088327E+03  0.56136742921E+03  0.50072812369E+03 0.  0.
        3    1    3    3  502    0  0.18397120385E+03  0.88105682235E+02  0.35859236433E+02  0.20710845016E+03  0.10100000352E+00 0. -1.
       -3    1    3    3    0  502 -0.18397120385E+03 -0.88105682235E+02 -0.28964011971E+03  0.35425897905E+03  0.10100000352E+00 0.  1.
</event>
<event>
 5   0  0.1855407E-02  0.4988437E+03  0.7818609E-02  0.1014081E+00
        2   -1    0    0  501    0  0.00000000000E+00  0.00000000000E+00  0.55608867084E+03  0.55608867085E+03  0.25500000920E-02 0. -1.
       -2   -1    0    0    0  501  0.00000000000E+00  0.00000000000E+00 -0.11187291656E+03  0.11187291659E+03  0.25500000920E-02 0.  1.
    10030    2    1    2    0    0  0.00000000000E+00  0.00000000000E+00  0.44421575428E+03  0.66796158744E+03  0.49884370894E+03 0.  0.
        1    1    3    3  502    0  0.17548158102E+03 -0.70314738555E+02  0.42410334060E+01  0.18909239573E+03  0.50400001928E-02 0.  1.
       -1    1    3    3    0  502 -0.17548158102E+03  0.70314738555E+02  0.43997472087E+03  0.47886919171E+03  0.50400001928E-02 0. -1.
</event>
<event>
 5   0  0.1225989E-02  0.5017508E+03  0.7818609E-02  0.1013323E+00
        1   -1    0    0  501    0  0.00000000000E+00  0.00000000000E+00  0.15759379341E+03  0.15759379350E+03  0.50400001928E-02 0.  1.
       -1   -1    0    0    0  501  0.00000000000E+00  0.00000000000E+00 -0.39937149235E+03  0.39937149238E+03  0.50400001928E-02 0. -1.
    10030    2    1    2    0    0  0.00000000000E+00  0.00000000000E+00 -0.24177769893E+03  0.55696528587E+03  0.50175080864E+03 0.  0.
        3    1    3    3  502    0  0.15273294562E+03 -0.13418448205E+02  0.99535324655E+02  0.18279687767E+03  0.10100000352E+00 0.  1.
       -3    1    3    3    0  502 -0.15273294562E+03  0.13418448205E+02 -0.34131302359E+03  0.37416840821E+03  0.10100000352E+00 0. -1.
</event>
<event>
 5   0  0.1855407E-02  0.4991294E+03  0.7818609E-02  0.1014006E+00
        2   -1    0    0  501    0  0.00000000000E+00  0.00000000000E+00  0.59927314813E+03  0.59927314813E+03  0.25500000920E-02 0.  1.
       -2   -1    0    0    0  501  0.00000000000E+00  0.00000000000E+00 -0.10393013688E+03  0.10393013691E+03  0.25500000920E-02 0. -1.
    10030    2    1    2    0    0  0.00000000000E+00  0.00000000000E+00  0.49534301124E+03  0.70320328504E+03  0.49912940337E+03 0.  0.
        1    1    3    3  502    0  0.19366809872E+03 -0.12158150172E+03  0.38850918440E+03  0.45080902876E+03  0.50400001928E-02 0.  1.
       -1    1    3    3    0  502 -0.19366809872E+03  0.12158150172E+03  0.10683382684E+03  0.25239425629E+03  0.50400001928E-02 0. -1.
</event>
<event>
 5   0  0.1180937E-02  0.4999544E+03  0.7818609E-02  0.1013791E+00
       -1   -1    0    0    0  501  0.00000000000E+00  0.00000000000E+00  0.98784826186E+02  0.98784826314E+02  0.50400001928E-02 0.  1.
        1   -1    0    0  501    0  0.00000000000E+00  0.00000000000E+00 -0.63257274008E+03  0.63257274010E+03  0.50400001928E-02 0. -1.
    10030    2    1    2    0    0  0.00000000000E+00  0.00000000000E+00 -0.53378791390E+03  0.73135756642E+03  0.49995435085E+03 0.  0.
        1    1    3    3  502    0 -0.17195626430E+03  0.76044262031E+02 -0.25914769031E+02  0.18979795020E+03  0.50400001928E-02 0.  1.
       -1    1    3    3    0  502  0.17195626430E+03 -0.76044262031E+02 -0.50787314486E+03  0.54155961622E+03  0.50400001928E-02 0. -1.
</event>
<event>
 5   0  0.1225989E-02  0.4998071E+03  0.7818609E-02  0.1013829E+00
       -1   -1    0    0    0  501  0.00000000000E+00  0.00000000000E+00  0.14025253006E+03  0.14025253015E+03  0.50400001928E-02 0.  1.
        1   -1    0    0  501    0  0.00000000000E+00  0.00000000000E+00 -0.44528104013E+03  0.44528104016E+03  0.50400001928E-02 0. -1.
    10030    2    1    2    0    0  0.00000000000E+00  0.00000000000E+00 -0.30502851007E+03  0.58553357030E+03  0.49980713280E+03 0.  0.
        3    1    3    3  502    0  0.77637398329E+02  0.79947203415E+02 -0.41455942070E+03  0.42927688553E+03  0.10100000352E+00 0. -1.
       -3    1    3    3    0  502 -0.77637398329E+02 -0.79947203415E+02  0.10953091063E+03  0.15625668478E+03  0.10100000352E+00 0.  1.
</event>
<event>
 5   0  0.1941387E-02  0.4999064E+03  0.7818609E-02  0.1013803E+00
        2   -1    0    0  501    0  0.00000000000E+00  0.00000000000E+00  0.41755216199E+03  0.41755216199E+03  0.25500000920E-02 0.  1.
       -2   -1    0    0    0  501  0.00000000000E+00  0.00000000000E+00 -0.14962586436E+03  0.14962586438E+03  0.25500000920E-02 0. -1.
    10030    2    1    2    0    0  0.00000000000E+00  0.00000000000E+00  0.26792629762E+03  0.56717802638E+03  0.49990640388E+03 0.  0.
        4    1    3    3  502    0 -0.11852519500E+03  0.38997762854E+02  0.37968548301E+03  0.39966451714E+03  0.12699999809E+01 0.  1.
       -4    1    3    3    0  502  0.11852519500E+03 -0.38997762854E+02 -0.11175918538E+03  0.16751350923E+03  0.12699999809E+01 0. -1.
</event>
<event>
 5   0  0.1982847E-02  0.5000842E+03  0.7818609E-02  0.1013757E+00
        2   -1    0    0  501    0  0.00000000000E+00  0.00000000000E+00  0.19064443677E+03  0.19064443679E+03  0.25500000920E-02 0.  1.
       -2   -1    0    0    0  501  0.00000000000E+00  0.00000000000E+00 -0.32794582763E+03  0.32794582764E+03  0.25500000920E-02 0. -1.
    10030    2    1    2    0    0  0.00000000000E+00  0.00000000000E+00 -0.13730139085E+03  0.51859026443E+03  0.50008418334E+03 0.  0.
        2    1    3    3  502    0 -0.55254476375E+01 -0.20555885951E+03  0.78867079047E+02  0.22023848769E+03  0.25500000920E-02 0.  1.
       -2    1    3    3    0  502  0.55254476375E+01  0.20555885951E+03 -0.21616846990E+03  0.29835177674E+03  0.25500000920E-02 0. -1.
</event>
<event>
 5   0  0.1209831E-02  0.5040404E+03  0.7818609E-02  0.1012730E+00
       -1   -1    0    0    0  501  0.00000000000E+00  0.00000000000E+00  0.51515067511E+03  0.51515067514E+03  0.50400001928E-02 0.  1.
        1   -1    0    0  501    0  0.00000000000E+00  0.00000000000E+00 -0.12329243678E+03  0.12329243689E+03  0.50400001928E-02 0. -1.
    10030    2    1    2    0    0  0.00000000000E+00  0.00000000000E+00  0.39185823833E+03  0.63844311202E+03  0.50404040348E+03 0.  0.
        4    1    3    3  502    0  0.16811801257E+03  0.29783118209E+02  0.43072757888E+03  0.46333417788E+03  0.12699999809E+01 0.  1.
       -4    1    3    3    0  502 -0.16811801257E+03 -0.29783118209E+02 -0.38869340557E+02  0.17510893414E+03  0.12699999809E+01 0. -1.
</event>
<event>
 5   0  0.1227864E-02  0.4994523E+03  0.7818609E-02  0.1013922E+00
       -1   -1    0    0    0  501  0.00000000000E+00  0.00000000000E+00  0.13470496074E+03  0.13470496084E+03  0.50400001928E-02 0. -1.
        1   -1    0    0  501    0  0.00000000000E+00  0.00000000000E+00 -0.46296104991E+03  0.46296104993E+03  0.50400001928E-02 0.  1.
    10030    2    1    2    0    0  0.00000000000E+00  0.00000000000E+00 -0.32825608916E+03  0.59766601077E+03  0.49945230038E+03 0.  0.
        5    1    3    3  502    0  0.13955720630E+03  0.60890770851E+01 -0.41177173557E+03  0.43484634401E+03  0.46999998093E+01 0.  1.
       -5    1    3    3    0  502 -0.13955720630E+03 -0.60890770851E+01  0.83515646409E+02  0.16281966676E+03  0.46999998093E+01 0. -1.
</event>
<event>
 5   0  0.1967813E-02  0.5052984E+03  0.7818609E-02  0.1012405E+00
       -2   -1    0    0    0  501  0.00000000000E+00  0.00000000000E+00  0.14932319687E+03  0.14932319690E+03  0.25500000920E-02 0.  1.
        2   -1    0    0  501    0  0.00000000000E+00  0.00000000000E+00 -0.42747294317E+03  0.42747294318E+03  0.25500000920E-02 0. -1.
    10030    2    1    2    0    0  0.00000000000E+00  0.00000000000E+00 -0.27814974630E+03  0.57679614007E+03  0.50529843245E+03 0.  0.
        5    1    3    3  502    0  0.19147954859E+03  0.16669854617E+02 -0.32618008305E+03  0.37862625128E+03  0.46999998093E+01 0. -1.
       -5    1    3    3    0  502 -0.19147954859E+03 -0.16669854617E+02  0.48030336751E+02  0.19816988880E+03  0.46999998093E+01 0.  1.
</event>
<event>
 5   0  0.1209831E-02  0.5009665E+03  0.7818609E-02  0.1013527E+00
        1   -1    0    0  501    0  0.00000000000E+00  0.00000000000E+00  0.32061827195E+03  0.32061827199E+03  0.50400001928E-02 0. -1.
       -1   -1    0    0    0  501  0.00000000000E+00  0.00000000000E+00 -0.19569022995E+03  0.19569023001E+03  0.50400001928E-02 0.  1.
    10030    2    1    2    0    0  0.00000000000E+00  0.00000000000E+00  0.12492804201E+03  0.51630850201E+03  0.50096651940E+03 0.  0.
        4    1    3    3  502    0  0.80471788606E+02  0.20007045833E+03 -0.68860196805E+02  0.22637852518E+03  0.12699999809E+01 0.  1.
       -4    1    3    3    0  502 -0.80471788606E+02 -0.20007045833E+03  0.19378823881E+03  0.28992997682E+03  0.12699999809E+01 0. -1.
</event>
<event>
 5   0  0.1941387E-02  0.5011228E+03  0.7818609E-02  0.1013486E+00
       -2   -1    0    0    0  501  0.00000000000E+00  0.00000000000E+00  0.79518300807E+02  0.79518300848E+02  0.25500000920E-02 0.  1.
        2   -1    0    0  501    0  0.00000000000E+00  0.00000000000E+00 -0.78951667683E+03  0.78951667684E+03  0.25500000920E-02 0. -1.
    10030    2    1    2    0    0  0.00000000000E+00  0.00000000000E+00 -0.70999837603E+03  0.86903497769E+03  0.50112283772E+03 0.  0.
        4    1    3    3  502    0 -0.94862832791E+02 -0.22851615082E+03 -0.42351171052E+03  0.49049196739E+03  0.12699999809E+01 0. -1.
       -4    1    3    3    0  502  0.94862832791E+02  0.22851615082E+03 -0.28648666551E+03  0.37854301029E+03  0.12699999809E+01 0.  1.
</event>
<event>
 5   0  0.1217270E-02  0.4981181E+03  0.7818609E-02  0.1014271E+00
        1   -1    0    0  501    0  0.00000000000E+00  0.00000000000E+00  0.12398782321E+04  0.12398782321E+04  0.50400001928E-02 0. -1.
       -1   -1    0    0    0  501  0.00000000000E+00  0.00000000000E+00 -0.50029437997E+02  0.50029438251E+02  0.50400001928E-02 0.  1.
    10030    2    1    2    0    0  0.00000000000E+00  0.00000000000E+00  0.11898487941E+04  0.12899076704E+04  0.49811810370E+03 0.  0.
        2    1    3    3  502    0  0.18170764705E+02 -0.96807729558E+02  0.11872976410E+04  0.11913763475E+04  0.25500000920E-02 0. -1.
       -2    1    3    3    0  502 -0.18170764705E+02  0.96807729558E+02  0.25511531423E+01  0.98531322842E+02  0.25500000920E-02 0.  1.
</event>
<event>
 5   0  0.1217270E-02  0.5005631E+03  0.7818609E-02  0.1013632E+00
        1   -1    0    0  501    0  0.00000000000E+00  0.00000000000E+00  0.18969025933E+04  0.18969025933E+04  0.50400001928E-02 0. -1.
       -1   -1    0    0    0  501  0.00000000000E+00  0.00000000000E+00 -0.33022702434E+02  0.33022702819E+02  0.50400001928E-02 0.  1.
    10030    2    1    2    0    0  0.00000000000E+00  0.00000000000E+00  0.18638798909E+04  0.19299252961E+04  0.50056308399E+03 0.  0.
        2    1    3    3  502    0 -0.22095575327E+03  0.11501329736E+03  0.10256967506E+04  0.10555109320E+04  0.25500000920E-02 0. -1.
       -2    1    3    3    0  502  0.22095575327E+03 -0.11501329736E+03  0.83818314028E+03  0.87441436409E+03  0.25500000920E-02 0.  1.
</event>
<event>
 5   0  0.1982847E-02  0.4989344E+03  0.7818609E-02  0.1014057E+00
        2   -1    0    0  501    0  0.00000000000E+00  0.00000000000E+00  0.70189125687E+03  0.70189125688E+03  0.25500000920E-02 0. -1.
       -2   -1    0    0    0  501  0.00000000000E+00  0.00000000000E+00 -0.88665974312E+02  0.88665974348E+02  0.25500000920E-02 0.  1.
    10030    2    1    2    0    0  0.00000000000E+00  0.00000000000E+00  0.61322528256E+03  0.79055723122E+03  0.49893435307E+03 0.  0.
        2    1    3    3  502    0 -0.43148383483E+02  0.24530480472E+03  0.28433703829E+03  0.37799971106E+03  0.25500000920E-02 0.  1.
       -2    1    3    3    0  502  0.43148383483E+02 -0.24530480472E+03  0.32888824427E+03  0.41255752016E+03  0.25500000920E-02 0. -1.
</event>
<event>
 5   0  0.1227864E-02  0.4940372E+03  0.7818609E-02  0.1015347E+00
       -1   -1    0    0    0  501  0.00000000000E+00  0.00000000000E+00  0.42822085954E+03  0.42822085957E+03  0.50400001928E-02 0.  1.
        1   -1    0    0  501    0  0.00000000000E+00  0.00000000000E+00 -0.14249235635E+03  0.14249235644E+03  0.50400001928E-02 0. -1.
    10030    2    1    2    0    0  0.00000000000E+00  0.00000000000E+00  0.28572850319E+03  0.57071321601E+03  0.49403724292E+03 0.  0.
        5    1    3    3  502    0 -0.21428519501E+03 -0.69800911653E+02  0.25956716797E+03  0.34378411359E+03  0.46999998093E+01 0.  1.
       -5    1    3    3    0  502  0.21428519501E+03  0.69800911653E+02  0.26161335223E+02  0.22692910242E+03  0.46999998093E+01 0. -1.
</event>
<event>
 5   0  0.1209831E-02  0.4989637E+03  0.7818609E-02  0.1014050E+00
        1   -1    0    0  501    0  0.00000000000E+00  0.00000000000E+00  0.22179257717E+03  0.22179257722E+03  0.50400001928E-02 0.  1.
       -1   -1    0    0    0  501  0.00000000000E+00  0.00000000000E+00 -0.28062793282E+03  0.28062793286E+03  0.50400001928E-02 0. -1.
    10030    2    1    2    0    0  0.00000000000E+00  0.00000000000E+00 -0.58835355651E+02  0.50242051009E+03  0.49896369595E+03 0.  0.
        4    1    3    3  502    0  0.80199549239E+02  0.59970260307E+02 -0.25949836478E+03  0.27815357995E+03  0.12699999809E+01 0. -1.
       -4    1    3    3    0  502 -0.80199549239E+02 -0.59970260307E+02  0.20066300913E+03  0.22426693013E+03  0.12699999809E+01 0.  1.
</event>
<event>
 5   0  0.1225989E-02  0.4996409E+03  0.7818609E-02  0.1013873E+00
        1   -1    0    0  501    0  0.00000000000E+00  0.00000000000E+00  0.52773639703E+03  0.52773639706E+03  0.50400001928E-02 0.  1.
       -1   -1    0    0    0  501  0.00000000000E+00  0.00000000000E+00 -0.11826029183E+03  0.11826029193E+03  0.50400001928E-02 0. -1.
    10030    2    1    2    0    0  0.00000000000E+00  0.00000000000E+00  0.40947610521E+03  0.64599668899E+03  0.49964091251E+03 0.  0.
        3    1    3    3  502    0  0.23843877440E+03 -0.43273238544E+02  0.28321988140E+03  0.37274540069E+03  0.10100000352E+00 0.  1.
       -3    1    3    3    0  502 -0.23843877440E+03  0.43273238544E+02  0.12625622380E+03  0.27325128830E+03  0.10100000352E+00 0. -1.
</event>
<event>
 5   0  0.1982847E-02  0.5001042E+03  0.7818609E-02  0.1013752E+00
       -2   -1    0    0    0  501  0.00000000000E+00  0.00000000000E+00  0.85036650558E+02  0.85036650596E+02  0.25500000920E-02 0. -1.
        2   -1    0    0  501    0  0.00000000000E+00  0.00000000000E+00 -0.73528355141E+03  0.73528355142E+03  0.25500000920E-02 0.  1.
    10030    2    1    2    0    0  0.00000000000E+00  0.00000000000E+00 -0.65024690086E+03  0.82032020201E+03  0.50010419090E+03 0.  0.
        2    1    3    3  502    0  0.53587023235E+02  0.24380103033E+03 -0.30104182335E+03  0.39107120946E+03  0.25500000920E-02 0. -1.
       -2    1    3    3    0  502 -0.53587023235E+02 -0.24380103033E+03 -0.34920507750E+03  0.42924899256E+03  0.25500000920E-02 0.  1.
</event>
<event>
 5   0  0.1982847E-02  0.4998220E+03  0.7818609E-02  0.1013825E+00
        2   -1    0    0  501    0  0.00000000000E+00  0.00000000000E+00  0.12426936990E+04  0.12426936990E+04  0.25500000920E-02 0. -1.
       -2   -1    0    0    0  501  0.00000000000E+00  0.00000000000E+00 -0.50258167653E+02  0.50258167718E+02  0.25500000920E-02 0.  1.
    10030    2    1    2    0    0  0.00000000000E+00  0.00000000000E+00  0.11924355313E+04  0.12929518667E+04  0.49982200155E+03 0.  0.
        2    1    3    3  502    0 -0.36282196457E+02 -0.18845068139E+03  0.18212013202E+03  0.26457097269E+03  0.25500000920E-02 0.  1.
       -2    1    3    3    0  502  0.36282196457E+02  0.18845068139E+03  0.10103153993E+04  0.10283808940E+04  0.25500000920E-02 0. -1.
</event>
<event>
 5   0  0.1209831E-02  0.4998540E+03  0.7818609E-02  0.1013817E+00
       -1   -1    0    0    0  501  0.00000000000E+00  0.00000000000E+00  0.13200928857E+04  0.13200928857E+04  0.50400001928E-02 0. -1.
        1   -1    0    0  501    0  0.00000000000E+00  0.00000000000E+00 -0.47317502513E+02  0.47317502782E+02  0.50400001928E-02 0.  1.
    10030    2    1    2    0    0  0.00000000000E+00  0.00000000000E+00  0.12727753831E+04  0.13674103884E+04  0.49985397318E+03 0.  0.
        4    1    3    3  502    0  0.10803505616E+03 -0.97272186565E+02  0.11925226579E+04  0.12013514698E+04  0.12699999809E+01 0. -1.
       -4    1    3    3    0  502 -0.10803505616E+03  0.97272186565E+02  0.80252725283E+02  0.16605891862E+03  0.12699999809E+01 0.  1.
</event>
<event>
 5   0  0.1923706E-02  0.4989805E+03  0.7818609E-02  0.1014045E+00
       -2   -1    0    0    0  501  0.00000000000E+00  0.00000000000E+00  0.17074719000E+03  0.17074719001E+03  0.25500000920E-02 0. -1.
        2   -1    0    0  501    0  0.00000000000E+00  0.00000000000E+00 -0.36454704138E+03  0.36454704139E+03  0.25500000920E-02 0.  1.
    10030    2    1    2    0    0  0.00000000000E+00  0.00000000000E+00 -0.19379985139E+03  0.53529423141E+03  0.49898049238E+03 0.  0.
        3    1    3    3  502    0 -0.32532059852E+02 -0.12900919938E+03 -0.32331324219E+03  0.34961860823E+03  0.10100000352E+00 0.  1.
       -3    1    3    3    0  502  0.32532059852E+02  0.12900919938E+03  0.12951339081E+03  0.18567562318E+03  0.10100000352E+00 0. -1.
</event>
<event>
 5   0  0.1923706E-02  0.4923501E+03  0.7818609E-02  0.1015795E+00
       -2   -1    0    0    0  501  0.00000000000E+00  0.00000000000E+00  0.55690750012E+02  0.55690750071E+02  0.25500000920E-02 0. -1.
        2   -1    0    0  501    0  0.00000000000E+00  0.00000000000E+00 -0.10881904922E+04  0.10881904922E+04  0.25500000920E-02 0.  1.
    10030    2    1    2    0    0  0.00000000000E+00  0.00000000000E+00 -0.10324997422E+04  0.11438812423E+04  0.49235005718E+03 0.  0.
        3    1    3    3  502    0  0.18679464585E+03 -0.66945887309E+02 -0.17774653947E+03  0.26639788670E+03  0.10100000352E+00 0. -1.
       -3    1    3    3    0  502 -0.18679464585E+03  0.66945887309E+02 -0.85475320270E+03  0.87748335555E+03  0.10100000352E+00 0.  1.
</event>
<event>
 5   0  0.1941387E-02  0.5002135E+03  0.7818609E-02  0.1013723E+00
       -2   -1    0    0    0  501  0.00000000000E+00  0.00000000000E+00  0.11177379993E+03  0.11177379996E+03  0.25500000920E-02 0.  1.
        2   -1    0    0  501    0  0.00000000000E+00  0.00000000000E+00 -0.55964267604E+03  0.55964267605E+03  0.25500000920E-02 0. -1.
    10030    2    1    2    0    0  0.00000000000E+00  0.00000000000E+00 -0.44786887611E+03  0.67141647601E+03  0.50021350848E+03 0.  0.
        4    1    3    3  502    0  0.19713123854E+03 -0.82585261262E+02 -0.39827701138E+03  0.45200358547E+03  0.12699999809E+01 0. -1.
       -4    1    3    3    0  502 -0.19713123854E+03  0.82585261262E+02 -0.49591864724E+02  0.21941289053E+03  0.12699999809E+01 0.  1.
</event>
<event>
 5   0  0.1217270E-02  0.5001407E+03  0.7818609E-02  0.1013742E+00
        1   -1    0    0  501    0  0.00000000000E+00  0.00000000000E+00  0.30586951676E+03  0.30586951680E+03  0.50400001928E-02 0. -1.
       -1   -1    0    0    0  501  0.00000000000E+00  0.00000000000E+00 -0.20445054885E+03  0.20445054891E+03  0.50400001928E-02 0.  1.
    10030    2    1    2    0    0  0.00000000000E+00  0.00000000000E+00  0.10141896792E+03  0.51032006571E+03  0.50014074261E+03 0.  0.
        2    1    3    3  502    0  0.15231267285E+03  0.33506671202E+02  0.25017045467E+03  0.29480010807E+03  0.25500000920E-02 0. -1.
       -2    1    3    3    0  502 -0.15231267285E+03 -0.33506671202E+02 -0.14875148675E+03  0.21551995764E+03  0.25500000920E-02 0.  1.
</event>
<event>
 5   0  0.1209831E-02  0.5001938E+03  0.7818609E-02  0.1013728E+00
       -1   -1    0    0    0  501  0.00000000000E+00  0.00000000000E+00  0.53127551470E+02  0.53127551709E+02  0.50400001928E-02 0. -1.
        1   -1    0    0  501    0  0.00000000000E+00  0.00000000000E+00 -0.11773263069E+04  0.11773263069E+04  0.50400001928E-02 0.  1.
    10030    2    1    2    0    0  0.00000000000E+00  0.00000000000E+00 -0.11241987554E+04  0.12304538586E+04  0.50019381891E+03 0.  0.
        4    1    3    3  502    0  0.12090306053E+03  0.99180856650E+02 -0.10422157493E+04  0.10538831403E+04  0.12699999809E+01 0.  1.
       -4    1    3    3    0  502 -0.12090306053E+03 -0.99180856650E+02 -0.81983006079E+02  0.17657071829E+03  0.12699999809E+01 0. -1.
</event>
<event>
 5   0  0.1923706E-02  0.4978792E+03  0.7818609E-02  0.1014334E+00
       -2   -1    0    0    0  501  0.00000000000E+00  0.00000000000E+00  0.27815261818E+02  0.27815261935E+02  0.25500000920E-02 0. -1.
        2   -1    0    0  501    0  0.00000000000E+00  0.00000000000E+00 -0.22279463939E+04  0.22279463939E+04  0.25500000920E-02 0.  1.
    10030    2    1    2    0    0  0.00000000000E+00  0.00000000000E+00 -0.22001311321E+04  0.22557616558E+04  0.49787915159E+03 0.  0.
        3    1    3    3  502    0 -0.73837084734E+02 -0.94380623214E+02 -0.11145733706E+03  0.16365318605E+03  0.10100000352E+00 0. -1.
       -3    1    3    3    0  502  0.73837084734E+02  0.94380623214E+02 -0.20886737950E+04  0.20921084698E+04  0.10100000352E+00 0.  1.
</event>
<event>
 5   0  0.1209831E-02  0.4966086E+03  0.7818609E-02  0.1014668E+00
        1   -1    0    0  501    0  0.00000000000E+00  0.00000000000E+00  0.22344764186E+03  0.22344764192E+03  0.50400001928E-02 0.  1.
       -1   -1    0    0    0  501  0.00000000000E+00  0.00000000000E+00 -0.27592600439E+03  0.27592600444E+03  0.50400001928E-02 0. -1.
    10030    2    1    2    0    0  0.00000000000E+00  0.00000000000E+00 -0.52478362532E+02  0.49937364636E+03  0.49660855826E+03 0.  0.
        4    1    3    3  502    0 -0.22611133383E+03  0.94354935695E+01 -0.12897475794E+03  0.26048313747E+03  0.12699999809E+01 0.  1.
       -4    1    3    3    0  502  0.22611133383E+03 -0.94354935695E+01  0.76496395405E+02  0.23889050888E+03  0.12699999809E+01 0. -1.
</event>
<event>
 5   0  0.1923706E-02  0.4995368E+03  0.7818609E-02  0.1013900E+00
        2   -1    0    0  501    0  0.00000000000E+00  0.00000000000E+00  0.11234457666E+04  0.11234457666E+04  0.25500000920E-02 0.  1.
       -2   -1    0    0    0  501  0.00000000000E+00  0.00000000000E+00 -0.55529380729E+02  0.55529380787E+02  0.25500000920E-02 0. -1.
    10030    2    1    2    0    0  0.00000000000E+00  0.00000000000E+00  0.10679163859E+04  0.11789751474E+04  0.49953677639E+03 0.  0.
        3    1    3    3  502    0 -0.18609497665E+00 -0.11089923211E+03  0.57641919492E+01  0.11104913517E+03  0.10100000352E+00 0. -1.
       -3    1    3    3    0  502  0.18609497665E+00  0.11089923211E+03  0.10621521940E+04  0.10679260123E+04  0.10100000352E+00 0.  1.
</event>
<event>
 5   0  0.1923706E-02  0.5002675E+03  0.7818609E-02  0.1013709E+00
        2   -1    0    0  501    0  0.00000000000E+00  0.00000000000E+00  0.64058569958E+03  0.64058569959E+03  0.25500000920E-02 0.  1.
       -2   -1    0    0    0  501  0.00000000000E+00  0.00000000000E+00 -0.97671385908E+02  0.97671385941E+02  0.25500000920E-02 0. -1.
    10030    2    1    2    0    0  0.00000000000E+00  0.00000000000E+00  0.54291431367E+03  0.73825708553E+03  0.50026750078E+03 0.  0.
        3    1    3    3  502    0  0.50957950248E+02  0.20944528561E+03  0.84192160528E+02  0.23141385104E+03  0.10100000352E+00 0. -1.
       -3    1    3    3    0  502 -0.50957950248E+02 -0.20944528561E+03  0.45872215314E+03  0.50684323449E+03  0.10100000352E+00 0.  1.
</event>
<event>
 5   0  0.1209831E-02  0.4998189E+03  0.7818609E-02  0.1013826E+00
       -1   -1    0    0    0  501  0.00000000000E+00  0.00000000000E+00  0.68330792996E+02  0.68330793182E+02  0.50400001928E-02 0.  1.
        1   -1    0    0  501    0  0.00000000000E+00  0.00000000000E+00 -0.91400571364E+03  0.91400571365E+03  0.50400001928E-02 0. -1.
    10030    2    1    2    0    0  0.00000000000E+00  0.00000000000E+00 -0.84567492064E+03  0.98233650683E+03  0.49981890846E+03 0.  0.
        4    1    3    3  502    0 -0.23022949226E+03 -0.61044743384E+02 -0.27418051868E+03  0.36319230378E+03  0.12699999809E+01 0.  1.
       -4    1    3    3    0  502  0.23022949226E+03  0.61044743384E+02 -0.57149440197E+03  0.61914420306E+03  0.12699999809E+01 0. -1.
</event>
<event>
 5   0  0.1225989E-02  0.4999665E+03  0.7818609E-02  0.1013788E+00
       -1   -1    0    0    0  501  0.00000000000E+00  0.00000000000E+00  0.48526940243E+02  0.48526940505E+02  0.50400001928E-02 0. -1.
        1   -1    0    0  501    0  0.00000000000E+00  0.00000000000E+00 -0.12877720493E+04  0.12877720493E+04  0.50400001928E-02 0.  1.
    10030    2    1    2    0    0  0.00000000000E+00  0.00000000000E+00 -0.12392451090E+04  0.13362989898E+04  0.49996654873E+03 0.  0.
        3    1    3    3  502    0  0.61422634543E+01  0.11359971963E+03 -0.12145721241E+04  0.12198885517E+04  0.10100000352E+00 0.  1.
       -3    1    3    3    0  502 -0.61422634543E+01 -0.11359971963E+03 -0.24672984869E+02  0.11641043804E+03  0.10100000352E+00 0. -1.
</event>
<event>
 5   0  0.1217270E-02  0.4979653E+03  0.7818609E-02  0.1014311E+00
        1   -1    0    0  501    0  0.00000000000E+00  0.00000000000E+00  0.72200942395E+03  0.72200942397E+03  0.50400001928E-02 0.  1.
       -1   -1    0    0    0  501  0.00000000000E+00  0.00000000000E+00 -0.85860861771E+02  0.85860861919E+02  0.50400001928E-02 0. -1.
    10030    2    1    2    0    0  0.00000000000E+00  0.00000000000E+00  0.63614856218E+03  0.80787028588E+03  0.49796526551E+03 0.  0.
        2    1    3    3  502    0 -0.15966407830E+03 -0.16961739144E+03  0.17544024420E+03  0.29161954096E+03  0.25500000920E-02 0. -1.
       -2    1    3    3    0  502  0.15966407830E+03  0.16961739144E+03  0.46070831797E+03  0.51625074492E+03  0.25500000920E-02 0.  1.
</event>
<event>
 5   0  0.1967813E-02  0.5001724E+03  0.7818609E-02  0.1013734E+00
       -2   -1    0    0    0  501  0.00000000000E+00  0.00000000000E+00  0.97318954712E+02  0.97318954746E+02  0.25500000920E-02 0.  1.
        2   -1    0    0  501    0  0.00000000000E+00  0.00000000000E+00 -0.64266108234E+03  0.64266108234E+03  0.25500000920E-02 0. -1.
    10030    2    1    2    0    0  0.00000000000E+00  0.00000000000E+00 -0.54534212762E+03  0.73998003709E+03  0.50017238941E+03 0.  0.
        5    1    3    3  502    0  0.17815621451E+03  0.16847335585E+03 -0.34512041693E+03  0.42338292429E+03  0.46999998093E+01 0.  1.
       -5    1    3    3    0  502 -0.17815621451E+03 -0.16847335585E+03 -0.20022171069E+03  0.31659711279E+03  0.46999998093E+01 0. -1.
</event>
<event>
 5   0  0.1209831E-02  0.4996254E+03  0.7818609E-02  0.1013877E+00
        1   -1    0    0  501    0  0.00000000000E+00  0.00000000000E+00  0.45269218380E+03  0.45269218383E+03  0.50400001928E-02 0. -1.
       -1   -1    0    0    0  501  0.00000000000E+00  0.00000000000E+00 -0.13785610149E+03  0.13785610159E+03  0.50400001928E-02 0.  1.
    10030    2    1    2    0    0  0.00000000000E+00  0.00000000000E+00  0.31483608231E+03  0.59054828542E+03  0.49962537834E+03 0.  0.
        4    1    3    3  502    0 -0.23678265928E+03 -0.27468613270E+02  0.24574473240E+03  0.34236331411E+03  0.12699999809E+01 0.  1.
       -4    1    3    3    0  502  0.23678265928E+03  0.27468613270E+02  0.69091349914E+02  0.24818497131E+03  0.12699999809E+01 0. -1.
</event>
<event>
 5   0  0.1227864E-02  0.5004269E+03  0.7818609E-02  0.1013668E+00
        1   -1    0    0  501    0  0.00000000000E+00  0.00000000000E+00  0.17712118104E+03  0.17712118111E+03  0.50400001928E-02 0. -1.
       -1   -1    0    0    0  501  0.00000000000E+00  0.00000000000E+00 -0.35346856464E+03  0.35346856467E+03  0.50400001928E-02 0.  1.
    10030    2    1    2    0    0  0.00000000000E+00  0.00000000000E+00 -0.17634738359E+03  0.53058974579E+03  0.50042689639E+03 0.  0.
        5    1    3    3  502    0 -0.35385157715E+02  0.89105421036E+02  0.15682261274E+03  0.18386763530E+03  0.46999998093E+01 0. -1.
       -5    1    3    3    0  502  0.35385157715E+02 -0.89105421036E+02 -0.33316999634E+03  0.34672211049E+03  0.46999998093E+01 0.  1.
</event>
<event>
 5   0  0.1217270E-02  0.4998482E+03  0.7818609E-02  0.1013819E+00
       -1   -1    0    0    0  501  0.00000000000E+00  0.00000000000E+00  0.21264803335E+03  0.21264803341E+03  0.50400001928E-02 0.  1.
        1   -1    0    0  501    0  0.00000000000E+00  0.00000000000E+00 -0.29373452020E+03  0.29373452024E+03  0.50400001928E-02 0. -1.
    10030    2    1    2    0    0  0.00000000000E+00  0.00000000000E+00 -0.81086486852E+02  0.50638255365E+03  0.49984824926E+03 0.  0.
        2    1    3    3  502    0 -0.15209714623E+03 -0.95403926299E+02  0.13558756600E+03  0.22498764212E+03  0.25500000920E-02 0.  1.
       -2    1    3    3    0  502  0.15209714623E+03  0.95403926299E+02 -0.21667405286E+03  0.28139491153E+03  0.25500000920E-02 0. -1.
</event>
<event>
 5   0  0.1227864E-02  0.5001609E+03  0.7818609E-02  0.1013737E+00
        1   -1    0    0  501    0  0.00000000000E+00  0.00000000000E+00  0.86791893504E+03  0.86791893506E+03  0.50400001928E-02 0. -1.
       -1   -1    0    0    0  501  0.00000000000E+00  0.00000000000E+00 -0.72057699974E+02  0.72057700150E+02  0.50400001928E-02 0.  1.
    10030    2    1    2    0    0  0.00000000000E+00  0.00000000000E+00  0.79586123507E+03  0.93997663521E+03  0.50016094335E+03 0.  0.
        5    1    3    3  502    0  0.48427647654E+02 -0.18440916074E+03  0.93927933510E+02  0.21259473726E+03  0.46999998093E+01 0.  1.
       -5    1    3    3    0  502 -0.48427647654E+02  0.18440916074E+03  0.70193330156E+03  0.72738189794E+03  0.46999998093E+01 0. -1.
</event>
<event>
 5   0  0.1982847E-02  0.5004032E+03  0.7818609E-02  0.1013674E+00
       -2   -1    0    0    0  501  0.00000000000E+00  0.00000000000E+00  0.27847392145E+03  0.27847392146E+03  0.25500000920E-02 0.  1.
        2   -1    0    0  501    0  0.00000000000E+00  0.00000000000E+00 -0.22479966670E+03  0.22479966671E+03  0.25500000920E-02 0. -1.
    10030    2    1    2    0    0  0.00000000000E+00  0.00000000000E+00  0.53674254757E+02  0.50327358817E+03  0.50040321635E+03 0.  0.
        2    1    3    3  502    0  0.67937131022E+02 -0.19308579373E+03 -0.11787452100E+03  0.23620326039E+03  0.25500000920E-02 0. -1.
       -2    1    3    3    0  502 -0.67937131022E+02  0.19308579373E+03  0.17154877576E+03  0.26707032778E+03  0.25500000920E-02 0.  1.
</event>
<event>
 5   0  0.1941387E-02  0.5012328E+03  0.7818609E-02  0.1013458E+00
        2   -1    0    0  501    0  0.00000000000E+00  0.00000000000E+00  0.25402333510E+03  0.25402333511E+03  0.25500000920E-02 0.  1.
       -2   -1    0    0    0  501  0.00000000000E+00  0.00000000000E+00 -0.24725512672E+03  0.24725512673E+03  0.25500000920E-02 0. -1.
    10030    2    1    2    0    0  0.00000000000E+00  0.00000000000E+00  0.67682083840E+01  0.50127846185E+03  0.50123276795E+03 0.  0.
        4    1    3    3  502    0  0.19660078415E+03 -0.11315800063E+03 -0.10316366511E+03  0.24920063429E+03  0.12699999809E+01 0. -1.
       -4    1    3    3    0  502 -0.19660078415E+03  0.11315800063E+03  0.10993187350E+03  0.25207782755E+03  0.12699999809E+01 0.  1.
</event>
<event>
 5   0  0.1923706E-02  0.4994101E+03  0.7818609E-02  0.1013933E+00
        2   -1    0    0  501    0  0.00000000000E+00  0.00000000000E+00  0.86815111413E+02  0.86815111450E+02  0.25500000920E-02 0. -1.
       -2   -1    0    0    0  501  0.00000000000E+00  0.00000000000E+00 -0.71822294358E+03  0.71822294358E+03  0.25500000920E-02 0.  1.
    10030    2    1    2    0    0  0.00000000000E+00  0.00000000000E+00 -0.63140783216E+03  0.80503805503E+03  0.49941007152E+03 0.  0.
        3    1    3    3  502    0 -0.22117330517E+03 -0.10123832705E+03 -0.40668811493E+03  0.47387979785E+03  0.10100000352E+00 0.  1.
       -3    1    3    3    0  502  0.22117330517E+03  0.10123832705E+03 -0.22471971723E+03  0.33115825718E+03  0.10100000352E+00 0. -1.
</event>
<event>
 5   0  0.1209831E-02  0.4911520E+03  0.7818609E-02  0.1016115E+00
       -1   -1    0    0    0  501  0.00000000000E+00  0.00000000000E+00  0.98001712906E+02  0.98001713035E+02  0.50400001928E-02 0.  1.
        1   -1    0    0  501    0  0.00000000000E+00  0.00000000000E+00 -0.61537254671E+03  0.61537254673E+03  0.50400001928E-02 0. -1.
    10030    2    1    2    0    0  0.00000000000E+00  0.00000000000E+00 -0.51737083381E+03  0.71337425977E+03  0.49115196714E+03 0.  0.
        4    1    3    3  502    0 -0.11017392866E+03  0.10638742012E+01 -0.57745303846E+03  0.58787162792E+03  0.12699999809E+01 0. -1.
       -4    1    3    3    0  502  0.11017392866E+03 -0.10638742012E+01  0.60082204654E+02  0.12550263185E+03  0.12699999809E+01 0.  1.
</event>
<event>
 5   0  0.1180937E-02  0.5032781E+03  0.7818609E-02  0.1012927E+00
       -1   -1    0    0    0  501  0.00000000000E+00  0.00000000000E+00  0.18657420092E+03  0.18657420099E+03  0.50400001928E-02 0. -1.
        1   -1    0    0  501    0  0.00000000000E+00  0.00000000000E+00 -0.33939423106E+03  0.33939423110E+03  0.50400001928E-02 0.  1.
    10030    2    1    2    0    0  0.00000000000E+00  0.00000000000E+00 -0.15282003014E+03  0.52596843209E+03  0.50327808411E+03 0.  0.
        1    1    3    3  502    0 -0.19656409903E+03  0.88781938684E+02  0.59058695605E+02  0.22362380735E+03  0.50400001928E-02 0. -1.
       -1    1    3    3    0  502  0.19656409903E+03 -0.88781938684E+02 -0.21187872575E+03  0.30234462474E+03  0.50400001928E-02 0.  1.
</event>
<event>
 5   0  0.1227864E-02  0.4996525E+03  0.7818609E-02  0.1013870E+00
       -1   -1    0    0    0  501  0.00000000000E+00  0.00000000000E+00  0.26404586920E+03  0.26404586925E+03  0.50400001928E-02 0.  1.
        1   -1    0    0  501    0  0.00000000000E+00  0.00000000000E+00 -0.23637239486E+03  0.23637239492E+03  0.50400001928E-02 0. -1.
    10030    2    1    2    0    0  0.00000000000E+00  0.00000000000E+00  0.27673474334E+02  0.50041826416E+03  0.49965249717E+03 0.  0.
        5    1    3    3  502    0 -0.20673946030E+03 -0.30803645058E+02  0.15079790566E+03  0.25778317894E+03  0.46999998093E+01 0.  1.
       -5    1    3    3    0  502  0.20673946030E+03  0.30803645058E+02 -0.12312443133E+03  0.24263508522E+03  0.46999998093E+01 0. -1.
</event>
<event>
 5   0  0.1227864E-02  0.4999822E+03  0.7818609E-02  0.1013784E+00
       -1   -1    0    0    0  501  0.00000000000E+00  0.00000000000E+00  0.17549725196E+03  0.17549725203E+03  0.50400001928E-02 0.  1.
        1   -1    0    0  501    0  0.00000000000E+00  0.00000000000E+00 -0.35610563562E+03  0.35610563566E+03  0.50400001928E-02 0. -1.
    10030    2    1    2    0    0  0.00000000000E+00  0.00000000000E+00 -0.18060838367E+03  0.53160288769E+03  0.49998224164E+03 0.  0.
        5    1    3    3  502    0  0.16030852476E+03 -0.53641616609E+02  0.10545169037E+03  0.19929474440E+03  0.46999998093E+01 0.  1.
       -5    1    3    3    0  502 -0.16030852476E+03  0.53641616609E+02 -0.28606007404E+03  0.33230814329E+03  0.46999998093E+01 0. -1.
</event>
<event>
 5   0  0.8012875E-03  0.4982022E+03  0.7818609E-02  0.1014249E+00
       -3   -1    0    0    0  501  0.00000000000E+00  0.00000000000E+00  0.18115451432E+04  0.18115451460E+04  0.10100000352E+00 0. -1.
        3   -1    0    0  501    0  0.00000000000E+00  0.00000000000E+00 -0.34253203187E+02  0.34253352093E+02  0.10100000352E+00 0.  1.
    10030    2    1    2    0    0  0.00000000000E+00  0.00000000000E+00  0.17772919400E+04  0.18457984981E+04  0.49820222358E+03 0.  0.
        5    1    3    3  502    0  0.24013510948E+03  0.33508451427E+02  0.10995852469E+04  0.11260095436E+04  0.46999998093E+01 0. -1.
       -5    1    3    3    0  502 -0.24013510948E+03 -0.33508451427E+02  0.67770669313E+03  0.71978895451E+03  0.46999998093E+01 0.  1.
</event>
<event>
 5   0  0.1982847E-02  0.4998526E+03  0.7818609E-02  0.1013817E+00
        2   -1    0    0  501    0  0.00000000000E+00  0.00000000000E+00  0.61954098239E+02  0.61954098292E+02  0.25500000920E-02 0.  1.
       -2   -1    0    0    0  501  0.00000000000E+00  0.00000000000E+00 -0.10082166253E+04  0.10082166253E+04  0.25500000920E-02 0. -1.
    10030    2    1    2    0    0  0.00000000000E+00  0.00000000000E+00 -0.94626252707E+03  0.10701707236E+04  0.49985258579E+03 0.  0.
        2    1    3    3  502    0 -0.67520573693E+02 -0.22842793780E+03 -0.31114009842E+03  0.39185011355E+03  0.25500000920E-02 0.  1.
       -2    1    3    3    0  502  0.67520573693E+02  0.22842793780E+03 -0.63512242865E+03  0.67832061005E+03  0.25500000920E-02 0. -1.
</event>
<event>
 5   0  0.1982847E-02  0.5002691E+03  0.7818609E-02  0.1013709E+00
       -2   -1    0    0    0  501  0.00000000000E+00  0.00000000000E+00  0.94358937942E+02  0.94358937976E+02  0.25500000920E-02 0. -1.
        2   -1    0    0  501    0  0.00000000000E+00  0.00000000000E+00 -0.66307756448E+03  0.66307756449E+03  0.25500000920E-02 0.  1.
    10030    2    1    2    0    0  0.00000000000E+00  0.00000000000E+00 -0.56871862654E+03  0.75743650246E+03  0.50026910667E+03 0.  0.
        2    1    3    3  502    0 -0.19486981469E+02 -0.20317935046E+03 -0.65444604075E+02  0.21434688500E+03  0.25500000920E-02 0. -1.
       -2    1    3    3    0  502  0.19486981469E+02  0.20317935046E+03 -0.50327402246E+03  0.54308961746E+03  0.25500000920E-02 0.  1.
</event>
<event>
 5   0  0.1180937E-02  0.5002918E+03  0.7818609E-02  0.1013703E+00
       -1   -1    0    0    0  501  0.00000000000E+00  0.00000000000E+00  0.71996877467E+02  0.71996877643E+02  0.50400001928E-02 0. -1.
        1   -1    0    0  501    0  0.00000000000E+00  0.00000000000E+00 -0.86910681867E+03  0.86910681868E+03  0.50400001928E-02 0.  1.
    10030    2    1    2    0    0  0.00000000000E+00  0.00000000000E+00 -0.79710994120E+03  0.94110369632E+03  0.50029182371E+03 0.  0.
        1    1    3    3  502    0  0.21833653161E+02 -0.24693308529E+03 -0.46151793280E+03  0.52388115002E+03  0.50400001928E-02 0.  1.
       -1    1    3    3    0  502 -0.21833653161E+02  0.24693308529E+03 -0.33559200840E+03  0.41722254631E+03  0.50400001928E-02 0. -1.
</event>
<event>
 5   0  0.1209831E-02  0.5013187E+03  0.7818609E-02  0.1013435E+00
        1   -1    0    0  501    0  0.00000000000E+00  0.00000000000E+00  0.17359016340E+03  0.17359016348E+03  0.50400001928E-02 0. -1.
       -1   -1    0    0    0  501  0.00000000000E+00  0.00000000000E+00 -0.36194517532E+03  0.36194517536E+03  0.50400001928E-02 0.  1.
    10030    2    1    2    0    0  0.00000000000E+00  0.00000000000E+00 -0.18835501192E+03  0.53553533884E+03  0.50131874953E+03 0.  0.
        4    1    3    3  502    0 -0.89570968371E+02 -0.16766608647E+03  0.80355689471E+02  0.20638198724E+03  0.12699999809E+01 0. -1.
       -4    1    3    3    0  502  0.89570968371E+02  0.16766608647E+03 -0.26871070139E+03  0.32915335160E+03  0.12699999809E+01 0.  1.
</event>
<event>
 5   0  0.1855407E-02  0.4991822E+03  0.7818609E-02  0.1013993E+00
        2   -1    0    0  501    0  0.00000000000E+00  0.00000000000E+00  0.61396426574E+03  0.61396426575E+03  0.25500000920E-02 0. -1.
       -2   -1    0    0    0  501  0.00000000000E+00  0.00000000000E+00 -0.10146473863E+03  0.10146473866E+03  0.25500000920E-02 0.  1.
    10030    2    1    2    0    0  0.00000000000E+00  0.00000000000E+00  0.51249952712E+03  0.71542900441E+03  0.49918222630E+03 0.  0.
        1    1    3    3  502    0 -0.20709795095E+03  0.70087888689E+02  0.42879354639E+03  0.48131671369E+03  0.50400001928E-02 0.  1.
       -1    1    3    3    0  502  0.20709795095E+03 -0.70087888689E+02  0.83705980726E+02  0.23411229072E+03  0.50400001928E-02 0. -1.
</event>
<event>
 5   0  0.1967813E-02  0.5002429E+03  0.7818609E-02  0.1013716E+00
       -2   -1    0    0    0  501  0.00000000000E+00  0.00000000000E+00  0.36848385349E+02  0.36848385438E+02  0.25500000920E-02 0. -1.
        2   -1    0    0  501    0  0.00000000000E+00  0.00000000000E+00 -0.16977881142E+04  0.16977881142E+04  0.25500000920E-02 0.  1.
    10030    2    1    2    0    0  0.00000000000E+00  0.00000000000E+00 -0.16609397288E+04  0.17346364996E+04  0.50024294398E+03 0.  0.
        5    1    3    3  502    0  0.22576939090E+03 -0.39182602770E+02 -0.48316418310E+03  0.53476799835E+03  0.46999998093E+01 0. -1.
       -5    1    3    3    0  502 -0.22576939090E+03  0.39182602770E+02 -0.11777755457E+04  0.11998685012E+04  0.46999998093E+01 0.  1.
</event>
<event>
 5   0  0.1217270E-02  0.4983248E+03  0.7818609E-02  0.1014217E+00
       -1   -1    0    0    0  501  0.00000000000E+00  0.00000000000E+00  0.65264456016E+02  0.65264456211E+02  0.50400001928E-02 0.  1.
        1   -1    0    0  501    0  0.00000000000E+00  0.00000000000E+00 -0.95123618419E+03  0.95123618420E+03  0.50400001928E-02 0. -1.
    10030    2    1    2    0    0  0.00000000000E+00  0.00000000000E+00 -0.88597172817E+03  0.10165006404E+04  0.49832484269E+03 0.  0.
        2    1    3    3  502    0  0.12806415952E+02  0.12145934298E+03  0.17990440691E-01  0.12213261897E+03  0.25500000920E-02 0.  1.
       -2    1    3    3    0  502 -0.12806415952E+02 -0.12145934298E+03 -0.88598971861E+03  0.89436802144E+03  0.25500000920E-02 0. -1.
</event>
<event>
 5   0  0.1217270E-02  0.4980726E+03  0.7818609E-02  0.1014283E+00
        1   -1    0    0  501    0  0.00000000000E+00  0.00000000000E+00  0.90825279210E+03  0.90825279211E+03  0.50400001928E-02 0.  1.
       -1   -1    0    0    0  501  0.00000000000E+00  0.00000000000E+00 -0.68283937000E+02  0.68283937186E+02  0.50400001928E-02 0. -1.
    10030    2    1    2    0    0  0.00000000000E+00  0.00000000000E+00  0.83996885510E+03  0.97653672930E+03  0.49807259123E+03 0.  0.
        2    1    3    3  502    0  0.20590981885E+03  0.13594507016E+03  0.35381026105E+03  0.43134860197E+03  0.25500000920E-02 0. -1.
       -2    1    3    3    0  502 -0.20590981885E+03 -0.13594507016E+03  0.48615859405E+03  0.54518812732E+03  0.25500000920E-02 0.  1.
</event>
<event>
 5   0  0.1225989E-02  0.4994407E+03  0.7818609E-02  0.1013925E+00
       -1   -1    0    0    0  501  0.00000000000E+00  0.00000000000E+00  0.75713224634E+02  0.75713224802E+02  0.50400001928E-02 0. -1.
        1   -1    0    0  501    0  0.00000000000E+00  0.00000000000E+00 -0.82363747494E+03  0.82363747495E+03  0.50400001928E-02 0.  1.
    10030    2    1    2    0    0  0.00000000000E+00  0.00000000000E+00 -0.74792425030E+03  0.89935069975E+03  0.49944068412E+03 0.  0.
        3    1    3    3  502    0 -0.26973187077E+02 -0.22001799964E+02 -0.81924751328E+03  0.81998666467E+03  0.10100000352E+00 0.  1.
       -3    1    3    3    0  502  0.26973187077E+02  0.22001799964E+02  0.71323262974E+02  0.79364035086E+02  0.10100000352E+00 0. -1.
</event>
<event>
 5   0  0.1923706E-02  0.5009443E+03  0.7818609E-02  0.1013533E+00
       -2   -1    0    0    0  501  0.00000000000E+00  0.00000000000E+00  0.78782838329E+02  0.78782838370E+02  0.25500000920E-02 0.  1.
        2   -1    0    0  501    0  0.00000000000E+00  0.00000000000E+00 -0.79631942693E+03  0.79631942693E+03  0.25500000920E-02 0. -1.
    10030    2    1    2    0    0  0.00000000000E+00  0.00000000000E+00 -0.71753658860E+03  0.87510226530E+03  0.50094432700E+03 0.  0.
        3    1    3    3  502    0  0.31260218196E+01  0.10225979143E+03 -0.75815475836E+03  0.76502646018E+03  0.10100000352E+00 0. -1.
       -3    1    3    3    0  502 -0.31260218196E+01 -0.10225979143E+03  0.40618169761E+02  0.11007580512E+03  0.10100000352E+00 0.  1.
</event>
<event>
 5   0  0.1225989E-02  0.4998272E+03  0.7818609E-02  0.1013824E+00
       -1   -1    0    0    0  501  0.00000000000E+00  0.00000000000E+00  0.15934288506E+03  0.15934288514E+03  0.50400001928E-02 0.  1.
        1   -1    0    0  501    0  0.00000000000E+00  0.00000000000E+00 -0.39196490633E+03  0.39196490636E+03  0.50400001928E-02 0. -1.
    10030    2    1    2    0    0  0.00000000000E+00  0.00000000000E+00 -0.23262202127E+03  0.55130779150E+03  0.49982724635E+03 0.  0.
        3    1    3    3  502    0 -0.23998407467E+03 -0.66249585331E+01 -0.19289236993E+03  0.30796708063E+03  0.10100000352E+00 0. -1.
       -3    1    3    3    0  502  0.23998407467E+03  0.66249585331E+01 -0.39729651332E+02  0.24334071087E+03  0.10100000352E+00 0.  1.
</event>
<event>
 5   0  0.1217270E-02  0.4996113E+03  0.7818609E-02  0.1013880E+00
       -1   -1    0    0    0  501  0.00000000000E+00  0.00000000000E+00  0.14780245313E+03  0.14780245322E+03  0.50400001928E-02 0.  1.
        1   -1    0    0  501    0  0.00000000000E+00  0.00000000000E+00 -0.42220455038E+03  0.42220455041E+03  0.50400001928E-02 0. -1.
    10030    2    1    2    0    0  0.00000000000E+00  0.00000000000E+00 -0.27440209725E+03  0.57000700363E+03  0.49961132215E+03 0.  0.
        2    1    3    3  502    0  0.19102301296E+03 -0.36459330603E+02 -0.31608540981E+03  0.37111866104E+03  0.25500000920E-02 0. -1.
       -2    1    3    3    0  502 -0.19102301296E+03  0.36459330603E+02  0.41683312562E+02  0.19888834260E+03  0.25500000920E-02 0.  1.
</event>
<event>
 5   0  0.1855407E-02  0.5009714E+03  0.7818609E-02  0.1013526E+00
        2   -1    0    0  501    0  0.00000000000E+00  0.00000000000E+00  0.40291762677E+03  0.40291762678E+03  0.25500000920E-02 0.  1.
       -2   -1    0    0    0  501  0.00000000000E+00  0.00000000000E+00 -0.15572189259E+03  0.15572189261E+03  0.25500000920E-02 0. -1.
    10030    2    1    2    0    0  0.00000000000E+00  0.00000000000E+00  0.24719573418E+03  0.55863951939E+03  0.50097143794E+03 0.  0.
        1    1    3    3  502    0 -0.21091462675E+03 -0.13510959092E+03  0.12150750034E+03  0.27839478084E+03  0.50400001928E-02 0. -1.
       -1    1    3    3    0  502  0.21091462675E+03  0.13510959092E+03  0.12568823384E+03  0.28024473855E+03  0.50400001928E-02 0.  1.
</event>
<event>
 5   0  0.1967813E-02  0.5004910E+03  0.7818609E-02  0.1013651E+00
       -2   -1    0    0    0  501  0.00000000000E+00  0.00000000000E+00  0.12160107043E+03  0.12160107046E+03  0.25500000920E-02 0. -1.
        2   -1    0    0  501    0  0.00000000000E+00  0.00000000000E+00 -0.51498565648E+03  0.51498565648E+03  0.25500000920E-02 0.  1.
    10030    2    1    2    0    0  0.00000000000E+00  0.00000000000E+00 -0.39338458604E+03  0.63658672694E+03  0.50049098731E+03 0.  0.
        5    1    3    3  502    0 -0.11057598622E+03  0.39241765214E+02 -0.47776674051E+03  0.49198588719E+03  0.46999998093E+01 0.  1.
       -5    1    3    3    0  502  0.11057598622E+03 -0.39241765214E+02  0.84382154463E+02  0.14460083975E+03  0.46999998093E+01 0. -1.
</event>
<event>
 5   0  0.1967813E-02  0.5000655E+03  0.7818609E-02  0.1013762E+00
        2   -1    0    0  501    0  0.00000000000E+00  0.00000000000E+00  0.87101777851E+03  0.87101777852E+03  0.25500000920E-02 0.  1.
       -2   -1    0    0    0  501  0.00000000000E+00  0.00000000000E+00 -0.71773947851E+02  0.71773947896E+02  0.25500000920E-02 0. -1.
    10030    2    1    2    0    0  0.00000000000E+00  0.00000000000E+00  0.79924383066E+03  0.94279172641E+03  0.50006553425E+03 0.  0.
        5    1    3    3  502    0  0.12274884816E+03 -0.14076884488E+03  0.71290075787E+03  0.73697539171E+03  0.46999998093E+01 0.  1.
       -5    1    3    3    0  502 -0.12274884816E+03  0.14076884488E+03  0.86343072789E+02  0.20581633470E+03  0.46999998093E+01 0. -1.
</event>
<event>
 5   0  0.1967813E-02  0.5002414E+03  0.7818609E-02  0.1013716E+00
       -2   -1    0    0    0  501  0.00000000000E+00  0.00000000000E+00  0.77786937577E+02  0.77786937619E+02  0.25500000920E-02 0.  1.
        2   -1    0    0  501    0  0.00000000000E+00  0.00000000000E+00 -0.80425280003E+03  0.80425280003E+03  0.25500000920E-02 0. -1.
    10030    2    1    2    0    0  0.00000000000E+00  0.00000000000E+00 -0.72646586245E+03  0.88203973765E+03  0.50024139122E+03 0.  0.
        5    1    3    3  502    0  0.20869152630E+03 -0.78023147723E+02 -0.56348557600E+03  0.60595201880E+03  0.46999998093E+01 0. -1.
       -5    1    3    3    0  502 -0.20869152630E+03  0.78023147723E+02 -0.16298028645E+03  0.27608771885E+03  0.46999998093E+01 0.  1.
</event>
<event>
 5   0  0.1982847E-02  0.5001549E+03  0.7818609E-02  0.1013738E+00
        2   -1    0    0  501    0  0.00000000000E+00  0.00000000000E+00  0.64793744958E+03  0.64793744958E+03  0.25500000920E-02 0.  1.
       -2   -1    0    0    0  501  0.00000000000E+00  0.00000000000E+00 -0.96519716039E+02  0.96519716073E+02  0.25500000920E-02 0. -1.
    10030    2    1    2    0    0  0.00000000000E+00  0.00000000000E+00  0.55141773354E+03  0.74445716565E+03  0.50015493063E+03 0.  0.
        2    1    3    3  502    0 -0.84627924747E+02  0.35966768975E+02  0.62186061458E+03  0.62862239706E+03  0.25500000920E-02 0.  1.
       -2    1    3    3    0  502  0.84627924747E+02 -0.35966768975E+02 -0.70442881045E+02  0.11583476859E+03  0.25500000920E-02 0. -1.
</event>
<event>
 5   0  0.1941387E-02  0.5002741E+03  0.7818609E-02  0.1013707E+00
       -2   -1    0    0    0  501  0.00000000000E+00  0.00000000000E+00  0.11896673867E+03  0.11896673870E+03  0.25500000920E-02 0. -1.
        2   -1    0    0  501    0  0.00000000000E+00  0.00000000000E+00 -0.52593315284E+03  0.52593315285E+03  0.25500000920E-02 0.  1.
    10030    2    1    2    0    0  0.00000000000E+00  0.00000000000E+00 -0.40696641418E+03  0.64489989155E+03  0.50027413270E+03 0.  0.
        4    1    3    3  502    0  0.21777543641E+03 -0.78582093336E+02 -0.32554372783E+03  0.39947667983E+03  0.12699999809E+01 0.  1.
       -4    1    3    3    0  502 -0.21777543641E+03  0.78582093336E+02 -0.81422686349E+02  0.24542321172E+03  0.12699999809E+01 0. -1.
</event>
<event>
 5   0  0.1923706E-02  0.5032317E+03  0.7818609E-02  0.1012939E+00
       -2   -1    0    0    0  501  0.00000000000E+00  0.00000000000E+00  0.20444345036E+03  0.20444345037E+03  0.25500000920E-02 0. -1.
        2   -1    0    0  501    0  0.00000000000E+00  0.00000000000E+00 -0.30967259950E+03  0.30967259951E+03  0.25500000920E-02 0.  1.
    10030    2    1    2    0    0  0.00000000000E+00  0.00000000000E+00 -0.10522914915E+03  0.51411604988E+03  0.50323169507E+03 0.  0.
        3    1    3    3  502    0  0.12214069482E+03 -0.16368882145E+03 -0.20275629953E+03  0.28778899701E+03  0.10100000352E+00 0.  1.
       -3    1    3    3    0  502 -0.12214069482E+03  0.16368882145E+03  0.97527150387E+02  0.22632705287E+03  0.10100000352E+00 0. -1.
</event>
<event>
 5   0  0.1967813E-02  0.4898562E+03  0.7818609E-02  0.1016461E+00
       -2   -1    0    0    0  501  0.00000000000E+00  0.00000000000E+00  0.25074177654E+03  0.25074177656E+03  0.25500000920E-02 0.  1.
        2   -1    0    0  501    0  0.00000000000E+00  0.00000000000E+00 -0.23924922796E+03  0.23924922798E+03  0.25500000920E-02 0. -1.
    10030    2    1    2    0    0  0.00000000000E+00  0.00000000000E+00  0.11492548581E+02  0.48999100453E+03  0.48985620936E+03 0.  0.
        5    1    3    3  502    0 -0.16145959587E+03 -0.17175157525E+03  0.72096131520E+02  0.24655171238E+03  0.46999998093E+01 0.  1.
       -5    1    3    3    0  502  0.16145959587E+03  0.17175157525E+03 -0.60603582939E+02  0.24343929215E+03  0.46999998093E+01 0. -1.
</event>
<event>
 5   0  0.1855407E-02  0.4997622E+03  0.7818609E-02  0.1013841E+00
        2   -1    0    0  501    0  0.00000000000E+00  0.00000000000E+00  0.25591281991E+03  0.25591281992E+03  0.25500000920E-02 0. -1.
       -2   -1    0    0    0  501  0.00000000000E+00  0.00000000000E+00 -0.24399156141E+03  0.24399156142E+03  0.25500000920E-02 0.  1.
    10030    2    1    2    0    0  0.00000000000E+00  0.00000000000E+00  0.11921258496E+02  0.49990438134E+03  0.49976221754E+03 0.  0.
        1    1    3    3  502    0  0.22712020544E+03  0.97562697939E+02  0.42556562902E+02  0.25082489673E+03  0.50400001928E-02 0.  1.
       -1    1    3    3    0  502 -0.22712020544E+03 -0.97562697939E+02 -0.30635304406E+02  0.24907948461E+03  0.50400001928E-02 0. -1.
</event>
<event>
 5   0  0.1227864E-02  0.4998192E+03  0.7818609E-02  0.1013826E+00
        1   -1    0    0  501    0  0.00000000000E+00  0.00000000000E+00  0.36981470330E+03  0.36981470333E+03  0.50400001928E-02 0. -1.
       -1   -1    0    0    0  501  0.00000000000E+00  0.00000000000E+00 -0.16888136217E+03  0.16888136225E+03  0.50400001928E-02 0.  1.
    10030    2    1    2    0    0  0.00000000000E+00  0.00000000000E+00  0.20093334113E+03  0.53869606558E+03  0.49981921081E+03 0.  0.
        5    1    3    3  502    0  0.34579619961E+02  0.21333553191E+03  0.23561948795E+03  0.31975996058E+03  0.46999998093E+01 0. -1.
       -5    1    3    3    0  502 -0.34579619961E+02 -0.21333553191E+03 -0.34686146825E+02  0.21893610500E+03  0.46999998093E+01 0.  1.
</event>
<event>
 5   0  0.1855407E-02  0.4999416E+03  0.7818609E-02  0.1013794E+00
       -2   -1    0    0    0  501  0.00000000000E+00  0.00000000000E+00  0.42945239665E+02  0.42945239740E+02  0.25500000920E-02 0. -1.
        2   -1    0    0  501    0  0.00000000000E+00  0.00000000000E+00 -0.14550015620E+04  0.14550015620E+04  0.25500000920E-02 0.  1.
    10030    2    1    2    0    0  0.00000000000E+00  0.00000000000E+00 -0.14120563223E+04  0.14979468017E+04  0.49994155999E+03 0.  0.
        1    1    3    3  502    0 -0.16249955308E+03 -0.12520351950E+03 -0.11340126664E+04  0.11524177861E+04  0.50400001928E-02 0.  1.
       -1    1    3    3    0  502  0.16249955308E+03  0.12520351950E+03 -0.27804365592E+03  0.34552901566E+03  0.50400001928E-02 0. -1.
</event>
<event>
 5   0  0.8012875E-03  0.5017674E+03  0.7818609E-02  0.1013319E+00
       -4   -1    0    0    0  501  0.00000000000E+00  0.00000000000E+00  0.24626683086E+03  0.24627010554E+03  0.12699999809E+01 0. -1.
        4   -1    0    0  501    0  0.00000000000E+00  0.00000000000E+00 -0.25558053083E+03  0.25558368617E+03  0.12699999809E+01 0.  1.
    10030    2    1    2    0    0  0.00000000000E+00  0.00000000000E+00 -0.93136999692E+01  0.50185379171E+03  0.50176735969E+03 0.  0.
        3    1    3    3  502    0 -0.23271128823E+03  0.92207781985E+02  0.12251442360E+02  0.25061310175E+03  0.10100000352E+00 0. -1.
       -3    1    3    3    0  502  0.23271128823E+03 -0.92207781985E+02 -0.21565142329E+02  0.25124068996E+03  0.10100000352E+00 0.  1.
</event>
<event>
 5   0  0.1923706E-02  0.5002349E+03  0.7818609E-02  0.1013718E+00
        2   -1    0    0  501    0  0.00000000000E+00  0.00000000000E+00  0.24150167122E+04  0.24150167122E+04  0.25500000920E-02 0.  1.
       -2   -1    0    0    0  501  0.00000000000E+00  0.00000000000E+00 -0.25904056122E+02  0.25904056248E+02  0.25500000920E-02 0. -1.
    10030    2    1    2    0    0  0.00000000000E+00  0.00000000000E+00  0.23891126561E+04  0.24409207685E+04  0.50023485926E+03 0.  0.
        3    1    3    3  502    0  0.35514516874E+02  0.22122491036E+03  0.65213614505E+03  0.68955297386E+03  0.10100000352E+00 0. -1.
       -3    1    3    3    0  502 -0.35514516874E+02 -0.22122491036E+03  0.17369765110E+04  0.17513677946E+04  0.10100000352E+00 0.  1.
</event>
<event>
 5   0  0.1209831E-02  0.4999086E+03  0.7818609E-02  0.1013803E+00
        1   -1    0    0  501    0  0.00000000000E+00  0.00000000000E+00  0.16669520041E+03  0.16669520048E+03  0.50400001928E-02 0. -1.
       -1   -1    0    0    0  501  0.00000000000E+00  0.00000000000E+00 -0.37479871978E+03  0.37479871981E+03  0.50400001928E-02 0.  1.
    10030    2    1    2    0    0  0.00000000000E+00  0.00000000000E+00 -0.20810351937E+03  0.54149392029E+03  0.49990858258E+03 0.  0.
        4    1    3    3  502    0 -0.24586884275E+03 -0.35078853951E+02 -0.73538949642E+02  0.25902046993E+03  0.12699999809E+01 0. -1.
       -4    1    3    3    0  502  0.24586884275E+03  0.35078853951E+02 -0.13456456973E+03  0.28247345036E+03  0.12699999809E+01 0.  1.
</event>
<event>
 5   0  0.1180937E-02  0.5085775E+03  0.7818609E-02  0.1011564E+00
        1   -1    0    0  501    0  0.00000000000E+00  0.00000000000E+00  0.30460610373E+03  0.30460610378E+03  0.50400001928E-02 0. -1.
       -1   -1    0    0    0  501  0.00000000000E+00  0.00000000000E+00 -0.21228322294E+03  0.21228322300E+03  0.50400001928E-02 0.  1.
    10030    2    1    2    0    0  0.00000000000E+00  0.00000000000E+00  0.92322880790E+02  0.51688932678E+03  0.50857748851E+03 0.  0.
        1    1    3    3  502    0 -0.22003658496E+03  0.51296179152E+02 -0.72430489109E+02  0.23726266561E+03  0.50400001928E-02 0.  1.
       -1    1    3    3    0  502  0.22003658496E+03 -0.51296179152E+02  0.16475336990E+03  0.27962666117E+03  0.50400001928E-02 0. -1.
</event>
<event>
 5   0  0.1227864E-02  0.4937118E+03  0.7818609E-02  0.1015433E+00
        1   -1    0    0  501    0  0.00000000000E+00  0.00000000000E+00  0.60364936183E+02  0.60364936394E+02  0.50400001928E-02 0. -1.
       -1   -1    0    0    0  501  0.00000000000E+00  0.00000000000E+00 -0.10094906189E+04  0.10094906189E+04  0.50400001928E-02 0.  1.
    10030    2    1    2    0    0  0.00000000000E+00  0.00000000000E+00 -0.94912568275E+03  0.10698555553E+04  0.49371180625E+03 0.  0.
        5    1    3    3  502    0 -0.58448315844E+02 -0.47293330867E+02  0.34848252739E+02  0.83002141458E+02  0.46999998093E+01 0. -1.
       -5    1    3    3    0  502  0.58448315844E+02  0.47293330867E+02 -0.98397393549E+03  0.98685341388E+03  0.46999998093E+01 0.  1.
</event>
<event>
 5   0  0.1941387E-02  0.5002700E+03  0.7818609E-02  0.1013708E+00
        2   -1    0    0  501    0  0.00000000000E+00  0.00000000000E+00  0.31632255383E+03  0.31632255384E+03  0.25500000920E-02 0.  1.
       -2   -1    0    0    0  501  0.00000000000E+00  0.00000000000E+00 -0.19779655782E+03  0.19779655784E+03  0.25500000920E-02 0. -1.
    10030    2    1    2    0    0  0.00000000000E+00  0.00000000000E+00  0.11852599601E+03  0.51411911168E+03  0.50026997638E+03 0.  0.
        4    1    3    3  502    0  0.14187754328E+03 -0.18232353475E+03  0.15780700903E+03  0.27977807922E+03  0.12699999809E+01 0.  1.
       -4    1    3    3    0  502 -0.14187754328E+03  0.18232353475E+03 -0.39281013021E+02  0.23434103246E+03  0.12699999809E+01 0. -1.
</event>
<event>
 5   0  0.1217270E-02  0.4997579E+03  0.7818609E-02  0.1013842E+00
        1   -1    0    0  501    0  0.00000000000E+00  0.00000000000E+00  0.41417316378E+03  0.41417316381E+03  0.50400001928E-02 0. -1.
       -1   -1    0    0    0  501  0.00000000000E+00  0.00000000000E+00 -0.15075698721E+03  0.15075698730E+03  0.50400001928E-02 0.  1.
    10030    2    1    2    0    0  0.00000000000E+00  0.00000000000E+00  0.26341617656E+03  0.56493015110E+03  0.49975793495E+03 0.  0.
        2    1    3    3  502    0 -0.12248277590E+03  0.15226150364E+03  0.30775396982E+03  0.36455191925E+03  0.25500000920E-02 0. -1.
       -2    1    3    3    0  502  0.12248277590E+03 -0.15226150364E+03 -0.44337793254E+02  0.20037823185E+03  0.25500000920E-02 0.  1.
</event>
<event>
 5   0  0.1982847E-02  0.4999103E+03  0.7818609E-02  0.1013802E+00
        2   -1    0    0  501    0  0.00000000000E+00  0.00000000000E+00  0.27465898992E+04  0.27465898992E+04  0.25500000920E-02 0.  1.
       -2   -1    0    0    0  501  0.00000000000E+00  0.00000000000E+00 -0.22747321932E+02  0.22747322074E+02  0.25500000920E-02 0. -1.
    10030    2    1    2    0    0  0.00000000000E+00  0.00000000000E+00  0.27238425773E+04  0.27693372213E+04  0.49991025135E+03 0.  0.
        2    1    3    3  502    0  0.92909262591E+02 -0.21876697143E+03  0.93330533283E+03  0.96309395344E+03  0.25500000920E-02 0. -1.
       -2    1    3    3    0  502 -0.92909262591E+02  0.21876697143E+03  0.17905372444E+04  0.18062432678E+04  0.25500000920E-02 0.  1.
</event>
<event>
 5   0  0.8012875E-03  0.5033261E+03  0.7818609E-02  0.1012914E+00
       -3   -1    0    0    0  501  0.00000000000E+00  0.00000000000E+00  0.84210377233E+02  0.84210437801E+02  0.10100000352E+00 0.  1.
        3   -1    0    0  501    0  0.00000000000E+00  0.00000000000E+00 -0.75209556983E+03  0.75209557661E+03  0.10100000352E+00 0. -1.
    10030    2    1    2    0    0  0.00000000000E+00  0.00000000000E+00 -0.66788519260E+03  0.83630601441E+03  0.50332605660E+03 0.  0.
        4    1    3    3  502    0 -0.23981357440E+03  0.58106781752E+01 -0.20752914442E+03  0.31719753015E+03  0.12699999809E+01 0.  1.
       -4    1    3    3    0  502  0.23981357440E+03 -0.58106781752E+01 -0.46035604817E+03  0.51910848427E+03  0.12699999809E+01 0. -1.
</event>
<event>
 5   0  0.8012875E-03  0.4977570E+03  0.7818609E-02  0.1014366E+00
       -3   -1    0    0    0  501  0.00000000000E+00  0.00000000000E+00  0.57327012669E+03  0.57327013558E+03  0.10100000352E+00 0.  1.
        3   -1    0    0  501    0  0.00000000000E+00  0.00000000000E+00 -0.10804763749E+03  0.10804768470E+03  0.10100000352E+00 0. -1.
    10030    2    1    2    0    0  0.00000000000E+00  0.00000000000E+00  0.46522248920E+03  0.68131782028E+03  0.49775697662E+03 0.  0.
        1    1    3    3  502    0  0.20299806683E+03  0.62167358584E+02  0.54841506287E+02  0.21927285843E+03  0.50400001928E-02 0. -1.
       -1    1    3    3    0  502 -0.20299806683E+03 -0.62167358584E+02  0.41038098291E+03  0.46204496185E+03  0.50400001928E-02 0.  1.
</event>
<event>
 5   0  0.1855407E-02  0.4992357E+03  0.7818609E-02  0.1013979E+00
       -2   -1    0    0    0  501  0.00000000000E+00  0.00000000000E+00  0.40385528180E+02  0.40385528260E+02  0.25500000920E-02 0.  1.
        2   -1    0    0  501    0  0.00000000000E+00  0.00000000000E+00 -0.15428565183E+04  0.15428565183E+04  0.25500000920E-02 0. -1.
    10030    2    1    2    0    0  0.00000000000E+00  0.00000000000E+00 -0.15024709901E+04  0.15832420465E+04  0.49923571772E+03 0.  0.
        1    1    3    3  502    0 -0.14401229362E+03  0.15493963614E+03 -0.11715206318E+04  0.11904647926E+04  0.50400001928E-02 0. -1.
       -1    1    3    3    0  502  0.14401229362E+03 -0.15493963614E+03 -0.33095035829E+03  0.39277725398E+03  0.50400001928E-02 0.  1.
</event>
<event>
 5   0  0.1967813E-02  0.4993267E+03  0.7818609E-02  0.1013955E+00
        2   -1    0    0  501    0  0.00000000000E+00  0.00000000000E+00  0.15606868840E+04  0.15606868840E+04  0.25500000920E-02 0.  1.
       -2   -1    0    0    0  501  0.00000000000E+00  0.00000000000E+00 -0.39938688590E+02  0.39938688671E+02  0.25500000920E-02 0. -1.
    10030    2    1    2    0    0  0.00000000000E+00  0.00000000000E+00  0.15207481954E+04  0.16006255726E+04  0.49932669671E+03 0.  0.
        5    1    3    3  502    0 -0.38723194152E+02 -0.94578456030E+02  0.30340766316E+02  0.10671092826E+03  0.46999998093E+01 0. -1.
       -5    1    3    3    0  502  0.38723194152E+02  0.94578456030E+02  0.14904074291E+04  0.14939146444E+04  0.46999998093E+01 0.  1.
</event>
<event>
 5   0  0.8012875E-03  0.4996560E+03  0.7818609E-02  0.1013869E+00
        4   -1    0    0  501    0  0.00000000000E+00  0.00000000000E+00  0.44068017615E+03  0.44068200615E+03  0.12699999809E+01 0.  1.
       -4   -1    0    0    0  501  0.00000000000E+00  0.00000000000E+00 -0.14162612684E+03  0.14163182094E+03  0.12699999809E+01 0. -1.
    10030    2    1    2    0    0  0.00000000000E+00  0.00000000000E+00  0.29905404931E+03  0.58231382709E+03  0.49965595045E+03 0.  0.
        3    1    3    3  502    0 -0.23283775212E+03  0.60137438253E+02  0.70620670556E+02  0.25063363622E+03  0.10100000352E+00 0. -1.
       -3    1    3    3    0  502  0.23283775212E+03 -0.60137438253E+02  0.22843337875E+03  0.33168019088E+03  0.10100000352E+00 0.  1.
</event>
<event>
 5   0  0.1209831E-02  0.4975427E+03  0.7818609E-02  0.1014422E+00
       -1   -1    0    0    0  501  0.00000000000E+00  0.00000000000E+00  0.87409373042E+02  0.87409373187E+02  0.50400001928E-02 0. -1.
        1   -1    0    0  501    0  0.00000000000E+00  0.00000000000E+00 -0.70801537889E+03  0.70801537891E+03  0.50400001928E-02 0.  1.
    10030    2    1    2    0    0  0.00000000000E+00  0.00000000000E+00 -0.62060600585E+03  0.79542475210E+03  0.49754268335E+03 0.  0.
        4    1    3    3  502    0  0.20598200025E+03 -0.13383870595E+03 -0.24748006139E+03  0.34869668384E+03  0.12699999809E+01 0.  1.
       -4    1    3    3    0  502 -0.20598200025E+03  0.13383870595E+03 -0.37312594446E+03  0.44672806825E+03  0.12699999809E+01 0. -1.
</event>
<event>
 5   0  0.1941387E-02  0.5002882E+03  0.7818609E-02  0.1013704E+00
        2   -1    0    0  501    0  0.00000000000E+00  0.00000000000E+00  0.11855028491E+04  0.11855028491E+04  0.25500000920E-02 0. -1.
       -2   -1    0    0    0  501  0.00000000000E+00  0.00000000000E+00 -0.52781039140E+02  0.52781039201E+02  0.25500000920E-02 0.  1.
    10030    2    1    2    0    0  0.00000000000E+00  0.00000000000E+00  0.11327218099E+04  0.12382838883E+04  0.50028820621E+03 0.  0.
        4    1    3    3  502    0 -0.23400533237E+03  0.76853413427E+02  0.67440631829E+03  0.71797662760E+03  0.12699999809E+01 0. -1.
       -4    1    3    3    0  502  0.23400533237E+03 -0.76853413427E+02  0.45831549164E+03  0.52030726068E+03  0.12699999809E+01 0.  1.
</event>
<event>
 5   0  0.1923706E-02  0.5002024E+03  0.7818609E-02  0.1013726E+00
       -2   -1    0    0    0  501  0.00000000000E+00  0.00000000000E+00  0.24864747821E+03  0.24864747823E+03  0.25500000920E-02 0. -1.
        2   -1    0    0  501    0  0.00000000000E+00  0.00000000000E+00 -0.25156339445E+03  0.25156339446E+03  0.25500000920E-02 0.  1.
    10030    2    1    2    0    0  0.00000000000E+00  0.00000000000E+00 -0.29159162333E+01  0.50021087269E+03  0.50020237363E+03 0.  0.
        3    1    3    3  502    0  0.68855569115E+02  0.18894525620E+03 -0.15015209229E+03  0.25097223006E+03  0.10100000352E+00 0.  1.
       -3    1    3    3    0  502 -0.68855569115E+02 -0.18894525620E+03  0.14723617606E+03  0.24923864263E+03  0.10100000352E+00 0. -1.
</event>
<event>
 5   0  0.1180937E-02  0.5008954E+03  0.7818609E-02  0.1013545E+00
       -1   -1    0    0    0  501  0.00000000000E+00  0.00000000000E+00  0.95424898553E+02  0.95424898686E+02  0.50400001928E-02 0.  1.
        1   -1    0    0  501    0  0.00000000000E+00  0.00000000000E+00 -0.65731325303E+03  0.65731325304E+03  0.50400001928E-02 0. -1.
    10030    2    1    2    0    0  0.00000000000E+00  0.00000000000E+00 -0.56188835447E+03  0.75273815173E+03  0.50089540044E+03 0.  0.
        1    1    3    3  502    0 -0.16811435872E+03 -0.13975481452E+03 -0.97320040897E+02  0.23930114119E+03  0.50400001928E-02 0.  1.
       -1    1    3    3    0  502  0.16811435872E+03  0.13975481452E+03 -0.46456831358E+03  0.51343701054E+03  0.50400001928E-02 0. -1.
</event>
<event>
 5   0  0.1180937E-02  0.5000578E+03  0.7818609E-02  0.1013764E+00
       -1   -1    0    0    0  501  0.00000000000E+00  0.00000000000E+00  0.35420711002E+03  0.35420711006E+03  0.50400001928E-02 0. -1.
        1   -1    0    0  501    0  0.00000000000E+00  0.00000000000E+00 -0.17649125900E+03  0.17649125907E+03  0.50400001928E-02 0.  1.
    10030    2    1    2    0    0  0.00000000000E+00  0.00000000000E+00  0.17771585102E+03  0.53069836913E+03  0.50005783195E+03 0.  0.
        1    1    3    3  502    0 -0.15618517843E+03  0.91836214872E+02  0.27171379655E+03  0.32658243612E+03  0.50400001928E-02 0. -1.
       -1    1    3    3    0  502  0.15618517843E+03 -0.91836214872E+02 -0.93997945521E+02  0.20411593301E+03  0.50400001928E-02 0.  1.
</event>
<event>
 5   0  0.1217270E-02  0.5000062E+03  0.7818609E-02  0.1013777E+00
        1   -1    0    0  501    0  0.00000000000E+00  0.00000000000E+00  0.11471594673E+04  0.11471594673E+04  0.50400001928E-02 0.  1.
       -1   -1    0    0    0  501  0.00000000000E+00  0.00000000000E+00 -0.54483751615E+02  0.54483751848E+02  0.50400001928E-02 0. -1.
    10030    2    1    2    0    0  0.00000000000E+00  0.00000000000E+00  0.10926757157E+04  0.12016432192E+04  0.50000620647E+03 0.  0.
        2    1    3    3  502    0  0.72453679842E+02  0.16846819865E+03  0.95468278223E+03  0.97213696790E+03  0.25500000920E-02 0.  1.
       -2    1    3    3    0  502 -0.72453679842E+02 -0.16846819865E+03  0.13799293348E+03  0.22950625127E+03  0.25500000920E-02 0. -1.
</event>
<event>
 5   0  0.1217270E-02  0.5013552E+03  0.7818609E-02  0.1013426E+00
        1   -1    0    0  501    0  0.00000000000E+00  0.00000000000E+00  0.18655560816E+03  0.18655560823E+03  0.50400001928E-02 0. -1.
       -1   -1    0    0    0  501  0.00000000000E+00  0.00000000000E+00 -0.33683927335E+03  0.33683927339E+03  0.50400001928E-02 0.  1.
    10030    2    1    2    0    0  0.00000000000E+00  0.00000000000E+00 -0.15028366520E+03  0.52339488162E+03  0.50135518555E+03 0.  0.
        2    1    3    3  502    0  0.13579024816E+03  0.64333958124E+02  0.13433134839E+03  0.20155088893E+03  0.25500000920E-02 0. -1.
       -2    1    3    3    0  502 -0.13579024816E+03 -0.64333958124E+02 -0.28461501358E+03  0.32184399268E+03  0.25500000920E-02 0.  1.
</event>
<event>
 5   0  0.1967813E-02  0.4995987E+03  0.7818609E-02  0.1013884E+00
        2   -1    0    0  501    0  0.00000000000E+00  0.00000000000E+00  0.62743428705E+03  0.62743428706E+03  0.25500000920E-02 0.  1.
       -2   -1    0    0    0  501  0.00000000000E+00  0.00000000000E+00 -0.99452191677E+02  0.99452191710E+02  0.25500000920E-02 0. -1.
    10030    2    1    2    0    0  0.00000000000E+00  0.00000000000E+00  0.52798209537E+03  0.72688647877E+03  0.49959869894E+03 0.  0.
        5    1    3    3  502    0  0.17982510162E+03 -0.13061493396E+01  0.51615729521E+03  0.54660700380E+03  0.46999998093E+01 0.  1.
       -5    1    3    3    0  502 -0.17982510162E+03  0.13061493396E+01  0.11824800160E+02  0.18027947497E+03  0.46999998093E+01 0. -1.
</event>
<event>
 5   0  0.1227864E-02  0.4995610E+03  0.7818609E-02  0.1013894E+00
       -1   -1    0    0    0  501  0.00000000000E+00  0.00000000000E+00  0.88171510774E+02  0.88171510918E+02  0.50400001928E-02 0.  1.
        1   -1    0    0  501    0  0.00000000000E+00  0.00000000000E+00 -0.70760166002E+03  0.70760166004E+03  0.50400001928E-02 0. -1.
    10030    2    1    2    0    0  0.00000000000E+00  0.00000000000E+00 -0.61943014925E+03  0.79577317096E+03  0.49956103713E+03 0.  0.
        5    1    3    3  502    0 -0.65042953277E+02 -0.39850569781E+02 -0.68851977916E+03  0.69274831647E+03  0.46999998093E+01 0. -1.
       -5    1    3    3    0  502  0.65042953277E+02  0.39850569781E+02  0.69089629910E+02  0.10302485449E+03  0.46999998093E+01 0.  1.
</event>
<event>
 5   0  0.1180937E-02  0.5004850E+03  0.7818609E-02  0.1013652E+00
       -1   -1    0    0    0  501  0.00000000000E+00  0.00000000000E+00  0.29628051450E+03  0.29628051454E+03  0.50400001928E-02 0. -1.
        1   -1    0    0  501    0  0.00000000000E+00  0.00000000000E+00 -0.21135813844E+03  0.21135813850E+03  0.50400001928E-02 0.  1.
    10030    2    1    2    0    0  0.00000000000E+00  0.00000000000E+00  0.84922376060E+02  0.50763865304E+03  0.50048495692E+03 0.  0.
        1    1    3    3  502    0 -0.77921235295E+02  0.12945014616E+03  0.24479238068E+03  0.28766711476E+03  0.50400001928E-02 0. -1.
       -1    1    3    3    0  502  0.77921235295E+02 -0.12945014616E+03 -0.15987000462E+03  0.21997153828E+03  0.50400001928E-02 0.  1.
</event>
<event>
 5   0  0.1225989E-02  0.4993738E+03  0.7818609E-02  0.1013942E+00
       -1   -1    0    0    0  501  0.00000000000E+00  0.00000000000E+00  0.92009407638E+03  0.92009407639E+03  0.50400001928E-02 0.  1.
        1   -1    0    0  501    0  0.00000000000E+00  0.00000000000E+00 -0.67757794764E+02  0.67757794951E+02  0.50400001928E-02 0. -1.
    10030    2    1    2    0    0  0.00000000000E+00  0.00000000000E+00  0.85233628161E+03  0.98785187134E+03  0.49937379062E+03 0.  0.
        3    1    3    3  502    0 -0.60414054042E+02  0.19244635878E+03  0.13504547176E+03  0.24274008440E+03  0.10100000352E+00 0. -1.
       -3    1    3    3    0  502  0.60414054042E+02 -0.19244635878E+03  0.71729080985E+03  0.74511178694E+03  0.10100000352E+00 0.  1.
</event>
<event>
 5   0  0.1209831E-02  0.4998764E+03  0.7818609E-02  0.1013811E+00
       -1   -1    0    0    0  501  0.00000000000E+00  0.00000000000E+00  0.56290204683E+02  0.56290204909E+02  0.50400001928E-02 0.  1.
        1   -1    0    0  501    0  0.00000000000E+00  0.00000000000E+00 -0.11097686294E+04  0.11097686294E+04  0.50400001928E-02 0. -1.
    10030    2    1    2    0    0  0.00000000000E+00  0.00000000000E+00 -0.10534784247E+04  0.11660588343E+04  0.49987639846E+03 0.  0.
        4    1    3    3  502    0  0.16489976097E+03 -0.18595191236E+03 -0.46513462988E+03  0.52737262130E+03  0.12699999809E+01 0.  1.
       -4    1    3    3    0  502 -0.16489976097E+03  0.18595191236E+03 -0.58834379478E+03  0.63868621297E+03  0.12699999809E+01 0. -1.
</event>
<event>
 5   0  0.1982847E-02  0.4877077E+03  0.7818609E-02  0.1017038E+00
       -2   -1    0    0    0  501  0.00000000000E+00  0.00000000000E+00  0.13962153807E+03  0.13962153809E+03  0.25500000920E-02 0. -1.
        2   -1    0    0  501    0  0.00000000000E+00  0.00000000000E+00 -0.42589925856E+03  0.42589925857E+03  0.25500000920E-02 0.  1.
    10030    2    1    2    0    0  0.00000000000E+00  0.00000000000E+00 -0.28627772050E+03  0.56552079666E+03  0.48770773851E+03 0.  0.
        2    1    3    3  502    0 -0.15987470953E+03  0.15314127661E+03 -0.26168837316E+03  0.34277248723E+03  0.25500000920E-02 0.  1.
       -2    1    3    3    0  502  0.15987470953E+03 -0.15314127661E+03 -0.24589347341E+02  0.22274830944E+03  0.25500000920E-02 0. -1.
</event>
<event>
 5   0  0.1855407E-02  0.5007393E+03  0.7818609E-02  0.1013586E+00
        2   -1    0    0  501    0  0.00000000000E+00  0.00000000000E+00  0.89383756062E+03  0.89383756062E+03  0.25500000920E-02 0. -1.
       -2   -1    0    0    0  501  0.00000000000E+00  0.00000000000E+00 -0.70130141977E+02  0.70130142024E+02  0.25500000920E-02 0.  1.
    10030    2    1    2    0    0  0.00000000000E+00  0.00000000000E+00  0.82370741864E+03  0.96396770265E+03  0.50073927370E+03 0.  0.
        1    1    3    3  502    0 -0.10404367486E+03  0.98024548008E+02  0.16150460462E+02  0.14385664979E+03  0.50400001928E-02 0.  1.
       -1    1    3    3    0  502  0.10404367486E+03 -0.98024548008E+02  0.80755695818E+03  0.82011105286E+03  0.50400001928E-02 0. -1.
</event>
<event>
 5   0  0.1227864E-02  0.4998456E+03  0.7818609E-02  0.1013819E+00
       -1   -1    0    0    0  501  0.00000000000E+00  0.00000000000E+00  0.67752317271E+03  0.67752317273E+03  0.50400001928E-02 0.  1.
        1   -1    0    0  501    0  0.00000000000E+00  0.00000000000E+00 -0.92190804865E+02  0.92190805003E+02  0.50400001928E-02 0. -1.
    10030    2    1    2    0    0  0.00000000000E+00  0.00000000000E+00  0.58533236785E+03  0.76971397773E+03  0.49984560283E+03 0.  0.
        5    1    3    3  502    0  0.21092016520E+03 -0.13156092103E+03  0.33173619763E+03  0.41456795203E+03  0.46999998093E+01 0.  1.
       -5    1    3    3    0  502 -0.21092016520E+03  0.13156092103E+03  0.25359617022E+03  0.35514602571E+03  0.46999998093E+01 0. -1.
</event>
<event>
 5   0  0.1217270E-02  0.4976472E+03  0.7818609E-02  0.1014395E+00
        1   -1    0    0  501    0  0.00000000000E+00  0.00000000000E+00  0.54919001167E+03  0.54919001169E+03  0.50400001928E-02 0.  1.
       -1   -1    0    0    0  501  0.00000000000E+00  0.00000000000E+00 -0.11273546242E+03  0.11273546253E+03  0.50400001928E-02 0. -1.
    10030    2    1    2    0    0  0.00000000000E+00  0.00000000000E+00  0.43645454925E+03  0.66192547422E+03  0.49764722431E+03 0.  0.
        2    1    3    3  502    0 -0.28030267248E+02 -0.21193750467E+03  0.48879747861E+02  0.21929986668E+03  0.25500000920E-02 0. -1.
       -2    1    3    3    0  502  0.28030267248E+02  0.21193750467E+03  0.38757480139E+03  0.44262560754E+03  0.25500000920E-02 0.  1.
</event>
<event>
 5   0  0.1180937E-02  0.4985441E+03  0.7818609E-02  0.1014160E+00
        1   -1    0    0  501    0  0.00000000000E+00  0.00000000000E+00  0.50502220391E+03  0.50502220393E+03  0.50400001928E-02 0.  1.
       -1   -1    0    0    0  501  0.00000000000E+00  0.00000000000E+00 -0.12303728602E+03  0.12303728612E+03  0.50400001928E-02 0. -1.
    10030    2    1    2    0    0  0.00000000000E+00  0.00000000000E+00  0.38198491789E+03  0.62805949006E+03  0.49854412598E+03 0.  0.
        1    1    3    3  502    0  0.17393059990E+03 -0.14224040654E+03  0.32698165183E+03  0.39673818507E+03  0.50400001928E-02 0.  1.
       -1    1    3    3    0  502 -0.17393059990E+03  0.14224040654E+03  0.55003266061E+02  0.23132130498E+03  0.50400001928E-02 0. -1.
</event>
<event>
 5   0  0.1982847E-02  0.4997729E+03  0.7818609E-02  0.1013838E+00
        2   -1    0    0  501    0  0.00000000000E+00  0.00000000000E+00  0.22862546637E+03  0.22862546639E+03  0.25500000920E-02 0. -1.
       -2   -1    0    0    0  501  0.00000000000E+00  0.00000000000E+00 -0.27312463148E+03  0.27312463149E+03  0.25500000920E-02 0.  1.
    10030    2    1    2    0    0  0.00000000000E+00  0.00000000000E+00 -0.44499165110E+02  0.50175009788E+03  0.49977293347E+03 0.  0.
        2    1    3    3  502    0 -0.70625106518E+02 -0.14104005895E+03 -0.21682820025E+03  0.26813181894E+03  0.25500000920E-02 0.  1.
       -2    1    3    3    0  502  0.70625106518E+02  0.14104005895E+03  0.17232903514E+03  0.23361827894E+03  0.25500000920E-02 0. -1.
</event>
<event>
 5   0  0.1855407E-02  0.4995874E+03  0.7818609E-02  0.1013887E+00
        2   -1    0    0  501    0  0.00000000000E+00  0.00000000000E+00  0.31028270934E+03  0.31028270935E+03  0.25500000920E-02 0.  1.
       -2   -1    0    0    0  501  0.00000000000E+00  0.00000000000E+00 -0.20109687599E+03  0.20109687600E+03  0.25500000920E-02 0. -1.
    10030    2    1    2    0    0  0.00000000000E+00  0.00000000000E+00  0.10918583335E+03  0.51137958535E+03  0.49958736384E+03 0.  0.
        1    1    3    3  502    0 -0.23392936261E+03 -0.85553398551E+01  0.14383299951E+03  0.27474364835E+03  0.50400001928E-02 0.  1.
       -1    1    3    3    0  502  0.23392936261E+03  0.85553398551E+01 -0.34647166163E+02  0.23663593700E+03  0.50400001928E-02 0. -1.
</event>
<event>
 5   0  0.1209831E-02  0.4997238E+03  0.7818609E-02  0.1013851E+00
        1   -1    0    0  501    0  0.00000000000E+00  0.00000000000E+00  0.59617325421E+03  0.59617325423E+03  0.50400001928E-02 0.  1.
       -1   -1    0    0    0  501  0.00000000000E+00  0.00000000000E+00 -0.10471949862E+03  0.10471949875E+03  0.50400001928E-02 0. -1.
    10030    2    1    2    0    0  0.00000000000E+00  0.00000000000E+00  0.49145375559E+03  0.70089275298E+03  0.49972378100E+03 0.  0.
        4    1    3    3  502    0 -0.13840357924E+03  0.17793042510E+03  0.94571703864E+02  0.24445900882E+03  0.12699999809E+01 0. -1.
       -4    1    3    3    0  502  0.13840357924E+03 -0.17793042510E+03  0.39688205172E+03  0.45643374415E+03  0.12699999809E+01 0.  1.
</event>
<event>
 5   0  0.1982847E-02  0.5002185E+03  0.7818609E-02  0.1013722E+00
       -2   -1    0    0    0  501  0.00000000000E+00  0.00000000000E+00  0.19146776347E+03  0.19146776349E+03  0.25500000920E-02 0.  1.
        2   -1    0    0  501    0  0.00000000000E+00  0.00000000000E+00 -0.32671103970E+03  0.32671103971E+03  0.25500000920E-02 0. -1.
    10030    2    1    2    0    0  0.00000000000E+00  0.00000000000E+00 -0.13524327623E+03  0.51817880320E+03  0.50021848059E+03 0.  0.
        2    1    3    3  502    0  0.18986831372E+02 -0.12123328255E+03  0.15814058837E+03  0.20016606670E+03  0.25500000920E-02 0.  1.
       -2    1    3    3    0  502 -0.18986831372E+02  0.12123328255E+03 -0.29338386460E+03  0.31801273650E+03  0.25500000920E-02 0. -1.
</event>
<event>
 5   0  0.1217270E-02  0.5006371E+03  0.7818609E-02  0.1013613E+00
        1   -1    0    0  501    0  0.00000000000E+00  0.00000000000E+00  0.12162668249E+04  0.12162668249E+04  0.50400001928E-02 0.  1.
       -1   -1    0    0    0  501  0.00000000000E+00  0.00000000000E+00 -0.51517782969E+02  0.51517783215E+02  0.50400001928E-02 0. -1.
    10030    2    1    2    0    0  0.00000000000E+00  0.00000000000E+00  0.11647490419E+04  0.12677846081E+04  0.50063707604E+03 0.  0.
        2    1    3    3  502    0  0.17909415822E+03 -0.52018099863E+02  0.15955087000E+03  0.24543243540E+03  0.25500000920E-02 0. -1.
       -2    1    3    3    0  502 -0.17909415822E+03  0.52018099863E+02  0.10051981719E+04  0.10223521727E+04  0.25500000920E-02 0.  1.
</event>
<event>
 5   0  0.1227864E-02  0.5000982E+03  0.7818609E-02  0.1013753E+00
        1   -1    0    0  501    0  0.00000000000E+00  0.00000000000E+00  0.66762488871E+03  0.66762488873E+03  0.50400001928E-02 0. -1.
       -1   -1    0    0    0  501  0.00000000000E+00  0.00000000000E+00 -0.93652223322E+02  0.93652223458E+02  0.50400001928E-02 0.  1.
    10030    2    1    2    0    0  0.00000000000E+00  0.00000000000E+00  0.57397266539E+03  0.76127711219E+03  0.50009821128E+03 0.  0.
        5    1    3    3  502    0 -0.27872784882E+02 -0.18845663216E+03  0.53343033633E+03  0.56644753336E+03  0.46999998093E+01 0. -1.
       -5    1    3    3    0  502  0.27872784882E+02  0.18845663216E+03  0.40542329060E+02  0.19482957882E+03  0.46999998093E+01 0.  1.
</event>
<event>
 5   0  0.1180937E-02  0.4998938E+03  0.7818609E-02  0.1013807E+00
       -1   -1    0    0    0  501  0.00000000000E+00  0.00000000000E+00  0.71923204504E+02  0.71923204681E+02  0.50400001928E-02 0.  1.
        1   -1    0    0  501    0  0.00000000000E+00  0.00000000000E+00 -0.86861338712E+03  0.86861338713E+03  0.50400001928E-02 0. -1.
    10030    2    1    2    0    0  0.00000000000E+00  0.00000000000E+00 -0.79669018261E+03  0.94053659181E+03  0.49989382219E+03 0.  0.
        1    1    3    3  502    0  0.20543127714E+03 -0.94358458868E+02 -0.59894864455E+03  0.64019138328E+03  0.50400001928E-02 0. -1.
       -1    1    3    3    0  502 -0.20543127714E+03  0.94358458868E+02 -0.19774153806E+03  0.30034520853E+03  0.50400001928E-02 0.  1.
</event>
<event>
 5   0  0.1967813E-02  0.5003114E+03  0.7818609E-02  0.1013698E+00
        2   -1    0    0  501    0  0.00000000000E+00  0.00000000000E+00  0.27233946810E+03  0.27233946811E+03  0.25500000920E-02 0. -1.
       -2   -1    0    0    0  501  0.00000000000E+00  0.00000000000E+00 -0.22977890573E+03  0.22977890574E+03  0.25500000920E-02 0.  1.
    10030    2    1    2    0    0  0.00000000000E+00  0.00000000000E+00  0.42560562369E+02  0.50211837385E+03  0.50031136295E+03 0.  0.
        5    1    3    3  502    0  0.11435468158E+02  0.18275124422E+03 -0.14970815175E+03  0.23656586375E+03  0.46999998093E+01 0.  1.
       -5    1    3    3    0  502 -0.11435468158E+02 -0.18275124422E+03  0.19226871412E+03  0.26555251010E+03  0.46999998093E+01 0. -1.
</event>
<event>
 5   0  0.1982847E-02  0.5010597E+03  0.7818609E-02  0.1013503E+00
        2   -1    0    0  501    0  0.00000000000E+00  0.00000000000E+00  0.70560118045E+03  0.70560118046E+03  0.25500000920E-02 0.  1.
       -2   -1    0    0    0  501  0.00000000000E+00  0.00000000000E+00 -0.88952791161E+02  0.88952791197E+02  0.25500000920E-02 0. -1.
    10030    2    1    2    0    0  0.00000000000E+00  0.00000000000E+00  0.61664838929E+03  0.79455397165E+03  0.50105965499E+03 0.  0.
        2    1    3    3  502    0 -0.20366477642E+03  0.99997007628E+02  0.13985803227E+03  0.26653144633E+03  0.25500000920E-02 0. -1.
       -2    1    3    3    0  502  0.20366477642E+03 -0.99997007628E+02  0.47679035702E+03  0.52802252532E+03  0.25500000920E-02 0.  1.
</event>
<event>
 5   0  0.1227864E-02  0.5006175E+03  0.7818609E-02  0.1013618E+00
       -1   -1    0    0    0  501  0.00000000000E+00  0.00000000000E+00  0.15861419819E+03  0.15861419827E+03  0.50400001928E-02 0. -1.
        1   -1    0    0  501    0  0.00000000000E+00  0.00000000000E+00 -0.39501175137E+03  0.39501175140E+03  0.50400001928E-02 0.  1.
    10030    2    1    2    0    0  0.00000000000E+00  0.00000000000E+00 -0.23639755318E+03  0.55362594967E+03  0.50061750768E+03 0.  0.
        5    1    3    3  502    0  0.11348627202E+03 -0.17162194938E+03  0.39362460605E+02  0.20953453355E+03  0.46999998093E+01 0. -1.
       -5    1    3    3    0  502 -0.11348627202E+03  0.17162194938E+03 -0.27576001379E+03  0.34409141612E+03  0.46999998093E+01 0.  1.
</event>
<event>
 5   0  0.8012875E-03  0.4945355E+03  0.7818609E-02  0.1015215E+00
       -3   -1    0    0    0  501  0.00000000000E+00  0.00000000000E+00  0.22545425764E+03  0.22545428026E+03  0.10100000352E+00 0. -1.
        3   -1    0    0  501    0  0.00000000000E+00  0.00000000000E+00 -0.27119177185E+03  0.27119179066E+03  0.10100000352E+00 0.  1.
    10030    2    1    2    0    0  0.00000000000E+00  0.00000000000E+00 -0.45737514216E+02  0.49664607092E+03  0.49453553922E+03 0.  0.
        1    1    3    3  502    0 -0.21953823999E+03 -0.11318971214E+03 -0.34424388330E+02  0.24938722559E+03  0.50400001928E-02 0.  1.
       -1    1    3    3    0  502  0.21953823999E+03  0.11318971214E+03 -0.11313125886E+02  0.24725884533E+03  0.50400001928E-02 0. -1.
</event>
<event>
 5   0  0.1227864E-02  0.4999981E+03  0.7818609E-02  0.1013779E+00
        1   -1    0    0  501    0  0.00000000000E+00  0.00000000000E+00  0.37306185163E+03  0.37306185167E+03  0.50400001928E-02 0.  1.
       -1   -1    0    0    0  501  0.00000000000E+00  0.00000000000E+00 -0.16753124307E+03  0.16753124315E+03  0.50400001928E-02 0. -1.
    10030    2    1    2    0    0  0.00000000000E+00  0.00000000000E+00  0.20553060856E+03  0.54059309481E+03  0.49999806310E+03 0.  0.
        5    1    3    3  502    0  0.70973481334E+02  0.16449063601E+03 -0.85694029587E+02  0.19864531481E+03  0.46999998093E+01 0. -1.
       -5    1    3    3    0  502 -0.70973481334E+02 -0.16449063601E+03  0.29122463815E+03  0.34194778001E+03  0.46999998093E+01 0.  1.
</event>
<event>
 5   0  0.8012875E-03  0.4975619E+03  0.7818609E-02  0.1014417E+00
       -4   -1    0    0    0  501  0.00000000000E+00  0.00000000000E+00  0.17827023545E+03  0.17827475914E+03  0.12699999809E+01 0.  1.
        4   -1    0    0  501    0  0.00000000000E+00  0.00000000000E+00 -0.34717042787E+03  0.34717275079E+03  0.12699999809E+01 0. -1.
    10030    2    1    2    0    0  0.00000000000E+00  0.00000000000E+00 -0.16890019242E+03  0.52544750993E+03  0.49756186620E+03 0.  0.
        3    1    3    3  502    0  0.26144774234E+02 -0.34949212839E+02  0.17419879766E+03  0.17958348478E+03  0.10100000352E+00 0.  1.
       -3    1    3    3    0  502 -0.26144774234E+02  0.34949212839E+02 -0.34309899008E+03  0.34586402515E+03  0.10100000352E+00 0. -1.
</event>
<event>
 5   0  0.1209831E-02  0.4993610E+03  0.7818609E-02  0.1013946E+00
       -1   -1    0    0    0  501  0.00000000000E+00  0.00000000000E+00  0.93376364932E+03  0.93376364934E+03  0.50400001928E-02 0.  1.
        1   -1    0    0  501    0  0.00000000000E+00  0.00000000000E+00 -0.66762442327E+02  0.66762442517E+02  0.50400001928E-02 0. -1.
    10030    2    1    2    0    0  0.00000000000E+00  0.00000000000E+00  0.86700120700E+03  0.10005260919E+04  0.49936095917E+03 0.  0.
        4    1    3    3  502    0  0.66531254764E+02  0.39291643425E+02  0.90919937033E+03  0.91247758822E+03  0.12699999809E+01 0.  1.
       -4    1    3    3    0  502 -0.66531254764E+02 -0.39291643425E+02 -0.42198163331E+02  0.88048503633E+02  0.12699999809E+01 0. -1.
</event>
<event>
 5   0  0.1982847E-02  0.5001752E+03  0.7818609E-02  0.1013733E+00
        2   -1    0    0  501    0  0.00000000000E+00  0.00000000000E+00  0.15526957129E+04  0.15526957129E+04  0.25500000920E-02 0. -1.
       -2   -1    0    0    0  501  0.00000000000E+00  0.00000000000E+00 -0.40280785586E+02  0.40280785666E+02  0.25500000920E-02 0.  1.
    10030    2    1    2    0    0  0.00000000000E+00  0.00000000000E+00  0.15124149273E+04  0.15929764985E+04  0.50017518193E+03 0.  0.
        2    1    3    3  502    0  0.82811356286E+02  0.11256536941E+03  0.95669475418E+02  0.16935563661E+03  0.25500000920E-02 0.  1.
       -2    1    3    3    0  502 -0.82811356286E+02 -0.11256536941E+03  0.14167454519E+04  0.14236208619E+04  0.25500000920E-02 0. -1.
</event>
<event>
 5   0  0.1180937E-02  0.4995658E+03  0.7818609E-02  0.1013892E+00
        1   -1    0    0  501    0  0.00000000000E+00  0.00000000000E+00  0.32174521451E+03  0.32174521455E+03  0.50400001928E-02 0.  1.
       -1   -1    0    0    0  501  0.00000000000E+00  0.00000000000E+00 -0.19391584561E+03  0.19391584567E+03  0.50400001928E-02 0. -1.
    10030    2    1    2    0    0  0.00000000000E+00  0.00000000000E+00  0.12782936890E+03  0.51566106022E+03  0.49956579294E+03 0.  0.
        1    1    3    3  502    0  0.35947219657E+01 -0.24555189440E+03  0.16806144077E+02  0.24615259774E+03  0.50400001928E-02 0.  1.
       -1    1    3    3    0  502 -0.35947219657E+01  0.24555189440E+03  0.11102322482E+03  0.26950846248E+03  0.50400001928E-02 0. -1.
</event>
<event>
 5   0  0.8012875E-03  0.4999542E+03  0.7818609E-02  0.1013791E+00
       -3   -1    0    0    0  501  0.00000000000E+00  0.00000000000E+00  0.16710563689E+03  0.16710566741E+03  0.10100000352E+00 0. -1.
        3   -1    0    0  501    0  0.00000000000E+00  0.00000000000E+00 -0.37394624985E+03  0.37394626349E+03  0.10100000352E+00 0.  1.
    10030    2    1    2    0    0  0.00000000000E+00  0.00000000000E+00 -0.20684061297E+03  0.54105193090E+03  0.49995415066E+03 0.  0.
        2    1    3    3  502    0 -0.14942182311E+02 -0.11855554741E+03 -0.34103684779E+03  0.36136521442E+03  0.25500000920E-02 0.  1.
       -2    1    3    3    0  502  0.14942182311E+02  0.11855554741E+03  0.13419623482E+03  0.17968671648E+03  0.25500000920E-02 0. -1.
</event>
<event>
 5   0  0.8012875E-03  0.5004846E+03  0.7818609E-02  0.1013653E+00
       -3   -1    0    0    0  501  0.00000000000E+00  0.00000000000E+00  0.26426784616E+03  0.26426786546E+03  0.10100000352E+00 0. -1.
        3   -1    0    0  501    0  0.00000000000E+00  0.00000000000E+00 -0.23696105843E+03  0.23696107996E+03  0.10100000352E+00 0.  1.
    10030    2    1    2    0    0  0.00000000000E+00  0.00000000000E+00  0.27306787727E+02  0.50122894542E+03  0.50048456027E+03 0.  0.
        1    1    3    3  502    0 -0.11776280823E+03  0.16445541065E+03  0.16120731000E+03  0.25865316142E+03  0.50400001928E-02 0. -1.
       -1    1    3    3    0  502  0.11776280823E+03 -0.16445541065E+03 -0.13390052227E+03  0.24257578400E+03  0.50400001928E-02 0.  1.
</event>
<event>
 5   0  0.1967813E-02  0.5000840E+03  0.7818609E-02  0.1013757E+00
        2   -1    0    0  501    0  0.00000000000E+00  0.00000000000E+00  0.65092163176E+03  0.65092163176E+03  0.25500000920E-02 0.  1.
       -2   -1    0    0    0  501  0.00000000000E+00  0.00000000000E+00 -0.96049984285E+02  0.96049984319E+02  0.25500000920E-02 0. -1.
    10030    2    1    2    0    0  0.00000000000E+00  0.00000000000E+00  0.55487164747E+03  0.74697161608E+03  0.50008404300E+03 0.  0.
        5    1    3    3  502    0  0.48352869332E+02 -0.14730688300E+03 -0.15501562938E+02  0.15588363033E+03  0.46999998093E+01 0. -1.
       -5    1    3    3    0  502 -0.48352869332E+02  0.14730688300E+03  0.57037321041E+03  0.59108798575E+03  0.46999998093E+01 0.  1.
</event>
<event>
 5   0  0.1225989E-02  0.5000772E+03  0.7818609E-02  0.1013759E+00
       -1   -1    0    0    0  501  0.00000000000E+00  0.00000000000E+00  0.50575386551E+02  0.50575386802E+02  0.50400001928E-02 0. -1.
        1   -1    0    0  501    0  0.00000000000E+00  0.00000000000E+00 -0.12361607060E+04  0.12361607060E+04  0.50400001928E-02 0.  1.
    10030    2    1    2    0    0  0.00000000000E+00  0.00000000000E+00 -0.11855853194E+04  0.12867360928E+04  0.50007721689E+03 0.  0.
        3    1    3    3  502    0 -0.57962310179E+02 -0.67557140137E+02 -0.11940101817E+04  0.11973236491E+04  0.10100000352E+00 0.  1.
       -3    1    3    3    0  502  0.57962310179E+02  0.67557140137E+02  0.84248622195E+01  0.89412443704E+02  0.10100000352E+00 0. -1.
</event>
<event>
 5   0  0.1227864E-02  0.5002181E+03  0.7818609E-02  0.1013722E+00
        1   -1    0    0  501    0  0.00000000000E+00  0.00000000000E+00  0.61688511683E+03  0.61688511685E+03  0.50400001928E-02 0.  1.
       -1   -1    0    0    0  501  0.00000000000E+00  0.00000000000E+00 -0.10140386731E+03  0.10140386744E+03  0.50400001928E-02 0. -1.
    10030    2    1    2    0    0  0.00000000000E+00  0.00000000000E+00  0.51548124952E+03  0.71828898429E+03  0.50021809878E+03 0.  0.
        5    1    3    3  502    0 -0.11511995664E+03  0.16244539466E+03  0.47499842312E+03  0.51505990198E+03  0.46999998093E+01 0.  1.
       -5    1    3    3    0  502  0.11511995664E+03 -0.16244539466E+03  0.40482826396E+02  0.20322908231E+03  0.46999998093E+01 0. -1.
</event>
<event>
 5   0  0.1225989E-02  0.5000539E+03  0.7818609E-02  0.1013765E+00
        1   -1    0    0  501    0  0.00000000000E+00  0.00000000000E+00  0.50588588047E+03  0.50588588049E+03  0.50400001928E-02 0.  1.
       -1   -1    0    0    0  501  0.00000000000E+00  0.00000000000E+00 -0.12357227803E+03  0.12357227813E+03  0.50400001928E-02 0. -1.
    10030    2    1    2    0    0  0.00000000000E+00  0.00000000000E+00  0.38231360244E+03  0.62945815863E+03  0.50005387995E+03 0.  0.
        3    1    3    3  502    0  0.23394420121E+03 -0.87580899054E+02  0.20454713673E+03  0.32286195890E+03  0.10100000352E+00 0. -1.
       -3    1    3    3    0  502 -0.23394420121E+03  0.87580899054E+02  0.17776646570E+03  0.30659619973E+03  0.10100000352E+00 0.  1.
</event>
<event>
 5   0  0.1982847E-02  0.5000294E+03  0.7818609E-02  0.1013771E+00
       -2   -1    0    0    0  501  0.00000000000E+00  0.00000000000E+00  0.52727327390E+02  0.52727327452E+02  0.25500000920E-02 0. -1.
        2   -1    0    0  501    0  0.00000000000E+00  0.00000000000E+00 -0.11854828837E+04  0.11854828837E+04  0.25500000920E-02 0.  1.
    10030    2    1    2    0    0  0.00000000000E+00  0.00000000000E+00 -0.11327555563E+04  0.12382102112E+04  0.50002937580E+03 0.  0.
        2    1    3    3  502    0 -0.11565726986E+03  0.69544852981E+02 -0.45216001930E+02  0.14232911679E+03  0.25500000920E-02 0. -1.
       -2    1    3    3    0  502  0.11565726986E+03 -0.69544852981E+02 -0.10875395544E+04  0.10958810944E+04  0.25500000920E-02 0.  1.
</event>
<event>
 5   0  0.1227864E-02  0.4998924E+03  0.7818609E-02  0.1013807E+00
        1   -1    0    0  501    0  0.00000000000E+00  0.00000000000E+00  0.11228543931E+04  0.11228543931E+04  0.50400001928E-02 0. -1.
       -1   -1    0    0    0  501  0.00000000000E+00  0.00000000000E+00 -0.55637749602E+02  0.55637749830E+02  0.50400001928E-02 0.  1.
    10030    2    1    2    0    0  0.00000000000E+00  0.00000000000E+00  0.10672166435E+04  0.11784921430E+04  0.49989235523E+03 0.  0.
        5    1    3    3  502    0  0.43640406900E+02  0.22722844291E+03  0.75618540824E+03  0.79080700048E+03  0.46999998093E+01 0. -1.
       -5    1    3    3    0  502 -0.43640406900E+02 -0.22722844291E+03  0.31103123527E+03  0.38768514247E+03  0.46999998093E+01 0.  1.
</event>
<event>
 5   0  0.1180937E-02  0.4997230E+03  0.7818609E-02  0.1013851E+00
       -1   -1    0    0    0  501  0.00000000000E+00  0.00000000000E+00  0.19597356668E+03  0.19597356675E+03  0.50400001928E-02 0.  1.
        1   -1    0    0  501    0  0.00000000000E+00  0.00000000000E+00 -0.31856733250E+03  0.31856733254E+03  0.50400001928E-02 0. -1.
    10030    2    1    2    0    0  0.00000000000E+00  0.00000000000E+00 -0.12259376581E+03  0.51454089928E+03  0.49972302891E+03 0.  0.
        1    1    3    3  502    0  0.11179576930E+03 -0.18963618267E+03  0.60405218051E+02  0.22827388419E+03  0.50400001928E-02 0.  1.
       -1    1    3    3    0  502 -0.11179576930E+03  0.18963618267E+03 -0.18299898386E+03  0.28626701509E+03  0.50400001928E-02 0. -1.
</event>
<event>
 5   0  0.1982847E-02  0.4999778E+03  0.7818609E-02  0.1013785E+00
       -2   -1    0    0    0  501  0.00000000000E+00  0.00000000000E+00  0.11509727938E+03  0.11509727941E+03  0.25500000920E-02 0.  1.
        2   -1    0    0  501    0  0.00000000000E+00  0.00000000000E+00 -0.54297074826E+03  0.54297074827E+03  0.25500000920E-02 0. -1.
    10030    2    1    2    0    0  0.00000000000E+00  0.00000000000E+00 -0.42787346888E+03  0.65806802768E+03  0.49997782319E+03 0.  0.
        2    1    3    3  502    0  0.10477890318E+03 -0.86927983014E+02  0.62023017336E+02  0.14960597404E+03  0.25500000920E-02 0.  1.
       -2    1    3    3    0  502 -0.10477890318E+03  0.86927983014E+02 -0.48989648621E+03  0.50846205364E+03  0.25500000920E-02 0. -1.
</event>
<event>
 5   0  0.8012875E-03  0.4992105E+03  0.7818609E-02  0.1013985E+00
        4   -1    0    0  501    0  0.00000000000E+00  0.00000000000E+00  0.27566890433E+03  0.27567182974E+03  0.12699999809E+01 0. -1.
       -4   -1    0    0    0  501  0.00000000000E+00  0.00000000000E+00 -0.22599994580E+03  0.22600351413E+03  0.12699999809E+01 0.  1.
    10030    2    1    2    0    0  0.00000000000E+00  0.00000000000E+00  0.49668958533E+02  0.50167534387E+03  0.49921052193E+03 0.  0.
        4    1    3    3  502    0 -0.58957929721E+02  0.16020702095E+02 -0.21836966844E+03  0.22675895873E+03  0.12699999809E+01 0.  1.
       -4    1    3    3    0  502  0.58957929721E+02 -0.16020702095E+02  0.26803862697E+03  0.27491638514E+03  0.12699999809E+01 0. -1.
</event>
<event>
 5   0  0.1217270E-02  0.4997402E+03  0.7818609E-02  0.1013847E+00
        1   -1    0    0  501    0  0.00000000000E+00  0.00000000000E+00  0.16275550617E+03  0.16275550624E+03  0.50400001928E-02 0. -1.
       -1   -1    0    0    0  501  0.00000000000E+00  0.00000000000E+00 -0.38361256094E+03  0.38361256097E+03  0.50400001928E-02 0.  1.
    10030    2    1    2    0    0  0.00000000000E+00  0.00000000000E+00 -0.22085705477E+03  0.54636806721E+03  0.49974015871E+03 0.  0.
        2    1    3    3  502    0 -0.13229050384E+03 -0.15217081194E+03 -0.27177269734E+03  0.33840380086E+03  0.25500000920E-02 0.  1.
       -2    1    3    3    0  502  0.13229050384E+03  0.15217081194E+03  0.50915642569E+02  0.20796426635E+03  0.25500000920E-02 0. -1.
</event>
<event>
 5   0  0.1217270E-02  0.5001423E+03  0.7818609E-02  0.1013742E+00
       -1   -1    0    0    0  501  0.00000000000E+00  0.00000000000E+00  0.38851402676E+03  0.38851402680E+03  0.50400001928E-02 0.  1.
        1   -1    0    0  501    0  0.00000000000E+00  0.00000000000E+00 -0.16096092849E+03  0.16096092857E+03  0.50400001928E-02 0. -1.
    10030    2    1    2    0    0  0.00000000000E+00  0.00000000000E+00  0.22755309827E+03  0.54947495537E+03  0.50014229380E+03 0.  0.
        2    1    3    3  502    0 -0.10550644188E+03 -0.20987213789E+03  0.20801410846E+03  0.31376391263E+03  0.25500000920E-02 0.  1.
       -2    1    3    3    0  502  0.10550644188E+03  0.20987213789E+03  0.19538989803E+02  0.23571104274E+03  0.25500000920E-02 0. -1.
</event>
<event>
 5   0  0.1209831E-02  0.4999036E+03  0.7818609E-02  0.1013804E+00
       -1   -1    0    0    0  501  0.00000000000E+00  0.00000000000E+00  0.69669452112E+03  0.69669452114E+03  0.50400001928E-02 0. -1.
        1   -1    0    0  501    0  0.00000000000E+00  0.00000000000E+00 -0.89674758316E+02  0.89674758457E+02  0.50400001928E-02 0.  1.
    10030    2    1    2    0    0  0.00000000000E+00  0.00000000000E+00  0.60701976280E+03  0.78636927960E+03  0.49990364217E+03 0.  0.
        4    1    3    3  502    0  0.15213825165E+03 -0.80702707891E+02  0.58846639909E+03  0.61315030003E+03  0.12699999809E+01 0. -1.
       -4    1    3    3    0  502 -0.15213825165E+03  0.80702707891E+02  0.18553363716E+02  0.17321897956E+03  0.12699999809E+01 0.  1.
</event>
<event>
 5   0  0.1227864E-02  0.5000465E+03  0.7818609E-02  0.1013767E+00
        1   -1    0    0  501    0  0.00000000000E+00  0.00000000000E+00  0.15683471183E+04  0.15683471183E+04  0.50400001928E-02 0.  1.
       -1   -1    0    0    0  501  0.00000000000E+00  0.00000000000E+00 -0.39858282614E+02  0.39858282933E+02  0.50400001928E-02 0. -1.
    10030    2    1    2    0    0  0.00000000000E+00  0.00000000000E+00  0.15284888356E+04  0.16082054012E+04  0.50004648959E+03 0.  0.
        5    1    3    3  502    0  0.20102671036E+03  0.14115858498E+03  0.91344041296E+03  0.94590325215E+03  0.46999998093E+01 0.  1.
       -5    1    3    3    0  502 -0.20102671036E+03 -0.14115858498E+03  0.61504842268E+03  0.66230214905E+03  0.46999998093E+01 0. -1.
</event>
<event>
 5   0  0.1225989E-02  0.4998819E+03  0.7818609E-02  0.1013810E+00
        1   -1    0    0  501    0  0.00000000000E+00  0.00000000000E+00  0.26111765451E+03  0.26111765456E+03  0.50400001928E-02 0.  1.
       -1   -1    0    0    0  501  0.00000000000E+00  0.00000000000E+00 -0.23924262396E+03  0.23924262401E+03  0.50400001928E-02 0. -1.
    10030    2    1    2    0    0  0.00000000000E+00  0.00000000000E+00  0.21875030556E+02  0.50036027857E+03  0.49988187745E+03 0.  0.
        3    1    3    3  502    0 -0.22371235413E+01  0.14015153398E+03  0.21807276175E+03  0.25923579386E+03  0.10100000352E+00 0.  1.
       -3    1    3    3    0  502  0.22371235413E+01 -0.14015153398E+03 -0.19619773120E+03  0.24112448471E+03  0.10100000352E+00 0. -1.
</event>
<event>
 5   0  0.1923706E-02  0.5016010E+03  0.7818609E-02  0.1013362E+00
        2   -1    0    0  501    0  0.00000000000E+00  0.00000000000E+00  0.23604531954E+04  0.23604531954E+04  0.25500000920E-02 0. -1.
       -2   -1    0    0    0  501  0.00000000000E+00  0.00000000000E+00 -0.26647797813E+02  0.26647797935E+02  0.25500000920E-02 0.  1.
    10030    2    1    2    0    0  0.00000000000E+00  0.00000000000E+00  0.23338053976E+04  0.23871009934E+04  0.50160095553E+03 0.  0.
        3    1    3    3  502    0  0.10803409366E+03 -0.18581361908E+02  0.22404076997E+04  0.22430878947E+04  0.10100000352E+00 0. -1.
       -3    1    3    3    0  502 -0.10803409366E+03  0.18581361908E+02  0.93397697927E+02  0.14401309865E+03  0.10100000352E+00 0.  1.
</event>
<event>
 5   0  0.1227864E-02  0.5001720E+03  0.7818609E-02  0.1013734E+00
        1   -1    0    0  501    0  0.00000000000E+00  0.00000000000E+00  0.82914829740E+03  0.82914829742E+03  0.50400001928E-02 0. -1.
       -1   -1    0    0    0  501  0.00000000000E+00  0.00000000000E+00 -0.75430422588E+02  0.75430422757E+02  0.50400001928E-02 0.  1.
    10030    2    1    2    0    0  0.00000000000E+00  0.00000000000E+00  0.75371787481E+03  0.90457872017E+03  0.50017199660E+03 0.  0.
        5    1    3    3  502    0 -0.93178224388E+01 -0.24916175860E+03  0.41081477345E+03  0.48058222174E+03  0.46999998093E+01 0.  1.
       -5    1    3    3    0  502  0.93178224388E+01  0.24916175860E+03  0.34290310136E+03  0.42399649844E+03  0.46999998093E+01 0. -1.
</event>
<event>
 5   0  0.1855407E-02  0.4997730E+03  0.7818609E-02  0.1013838E+00
       -2   -1    0    0    0  501  0.00000000000E+00  0.00000000000E+00  0.77687258737E+02  0.77687258779E+02  0.25500000920E-02 0.  1.
        2   -1    0    0  501    0  0.00000000000E+00  0.00000000000E+00 -0.80377729202E+03  0.80377729202E+03  0.25500000920E-02 0. -1.
    10030    2    1    2    0    0  0.00000000000E+00  0.00000000000E+00 -0.72609003328E+03  0.88146455080E+03  0.49977296634E+03 0.  0.
        1    1    3    3  502    0 -0.25864190700E+01 -0.21535272360E+03 -0.58655747852E+03  0.62484650976E+03  0.50400001928E-02 0. -1.
       -1    1    3    3    0  502  0.25864190700E+01  0.21535272360E+03 -0.13953255476E+03  0.25661804104E+03  0.50400001928E-02 0.  1.
</event>
<event>
 5   0  0.1225989E-02  0.4992637E+03  0.7818609E-02  0.1013971E+00
        1   -1    0    0  501    0  0.00000000000E+00  0.00000000000E+00  0.75762792457E+03  0.75762792459E+03  0.50400001928E-02 0. -1.
       -1   -1    0    0    0  501  0.00000000000E+00  0.00000000000E+00 -0.82251540709E+02  0.82251540864E+02  0.50400001928E-02 0.  1.
    10030    2    1    2    0    0  0.00000000000E+00  0.00000000000E+00  0.67537638386E+03  0.83987946545E+03  0.49926371449E+03 0.  0.
        3    1    3    3  502    0  0.11140114189E+03 -0.16298392244E+03  0.80674215197E+02  0.21326582611E+03  0.10100000352E+00 0.  1.
       -3    1    3    3    0  502 -0.11140114189E+03  0.16298392244E+03  0.59470216867E+03  0.62661363934E+03  0.10100000352E+00 0. -1.
</event>
<event>
 5   0  0.1217270E-02  0.4999790E+03  0.7818609E-02  0.1013784E+00
        1   -1    0    0  501    0  0.00000000000E+00  0.00000000000E+00  0.11337807251E+04  0.11337807251E+04  0.50400001928E-02 0. -1.
       -1   -1    0    0    0  501  0.00000000000E+00  0.00000000000E+00 -0.55120662403E+02  0.55120662633E+02  0.50400001928E-02 0.  1.
    10030    2    1    2    0    0  0.00000000000E+00  0.00000000000E+00  0.10786600627E+04  0.11889013878E+04  0.49997897849E+03 0.  0.
        2    1    3    3  502    0 -0.12097546648E+03  0.18225020264E+03  0.25156896867E+03  0.33337238316E+03  0.25500000920E-02 0.  1.
       -2    1    3    3    0  502  0.12097546648E+03 -0.18225020264E+03  0.82709109407E+03  0.85552900462E+03  0.25500000920E-02 0. -1.
</event>
<event>
 5   0  0.1227864E-02  0.4995536E+03  0.7818609E-02  0.1013896E+00
        1   -1    0    0  501    0  0.00000000000E+00  0.00000000000E+00  0.15432169359E+03  0.15432169367E+03  0.50400001928E-02 0. -1.
       -1   -1    0    0    0  501  0.00000000000E+00  0.00000000000E+00 -0.40427525612E+03  0.40427525615E+03  0.50400001928E-02 0.  1.
    10030    2    1    2    0    0  0.00000000000E+00  0.00000000000E+00 -0.24995356253E+03  0.55859694982E+03  0.49955356963E+03 0.  0.
        5    1    3    3  502    0  0.17056853539E+02  0.21944415677E+03 -0.25690299197E+03  0.33833106785E+03  0.46999998093E+01 0. -1.
       -5    1    3    3    0  502 -0.17056853539E+02 -0.21944415677E+03  0.69494294406E+01  0.22026588197E+03  0.46999998093E+01 0.  1.
</event>
<event>
 5   0  0.1855407E-02  0.4998405E+03  0.7818609E-02  0.1013821E+00
       -2   -1    0    0    0  501  0.00000000000E+00  0.00000000000E+00  0.17089412643E+03  0.17089412645E+03  0.25500000920E-02 0.  1.
        2   -1    0    0  501    0  0.00000000000E+00  0.00000000000E+00 -0.36549024091E+03  0.36549024092E+03  0.25500000920E-02 0. -1.
    10030    2    1    2    0    0  0.00000000000E+00  0.00000000000E+00 -0.19459611448E+03  0.53638436737E+03  0.49984051635E+03 0.  0.
        1    1    3    3  502    0  0.28195314195E+02 -0.24625728971E+03 -0.62983548317E+02  0.25574314431E+03  0.50400001928E-02 0. -1.
       -1    1    3    3    0  502 -0.28195314195E+02  0.24625728971E+03 -0.13161256617E+03  0.28064122305E+03  0.50400001928E-02 0.  1.
</event>
<event>
 5   0  0.1923706E-02  0.4991294E+03  0.7818609E-02  0.1014006E+00
       -2   -1    0    0    0  501  0.00000000000E+00  0.00000000000E+00  0.17824881887E+03  0.17824881889E+03  0.25500000920E-02 0. -1.
        2   -1    0    0  501    0  0.00000000000E+00  0.00000000000E+00 -0.34941343952E+03  0.34941343953E+03  0.25500000920E-02 0.  1.
    10030    2    1    2    0    0  0.00000000000E+00  0.00000000000E+00 -0.17116462065E+03  0.52766225842E+03  0.49912937361E+03 0.  0.
        3    1    3    3  502    0 -0.27417586888E+02  0.93169013858E+02  0.15745154105E+03  0.18499510046E+03  0.10100000352E+00 0. -1.
       -3    1    3    3    0  502  0.27417586888E+02 -0.93169013858E+02 -0.32861616170E+03  0.34266715796E+03  0.10100000352E+00 0.  1.
</event>
<event>
 5   0  0.8012875E-03  0.4995798E+03  0.7818609E-02  0.1013889E+00
        3   -1    0    0  501    0  0.00000000000E+00  0.00000000000E+00  0.98836287093E+03  0.98836287609E+03  0.10100000352E+00 0.  1.
       -3   -1    0    0    0  501  0.00000000000E+00  0.00000000000E+00 -0.63129600445E+02  0.63129681239E+02  0.10100000352E+00 0. -1.
    10030    2    1    2    0    0  0.00000000000E+00  0.00000000000E+00  0.92523327049E+03  0.10514925573E+04  0.49957981675E+03 0.  0.
        3    1    3    3  502    0 -0.21545999371E+03 -0.91824955983E+02  0.64538099284E+03  0.68656497693E+03  0.10100000352E+00 0.  1.
       -3    1    3    3    0  502  0.21545999371E+03  0.91824955983E+02  0.27985227764E+03  0.36492758040E+03  0.10100000352E+00 0. -1.
</event>
<event>
 5   0  0.1855407E-02  0.4989853E+03  0.7818609E-02  0.1014044E+00
       -2   -1    0    0    0  501  0.00000000000E+00  0.00000000000E+00  0.56711319440E+02  0.56711319497E+02  0.25500000920E-02 0. -1.
        2   -1    0    0  501    0  0.00000000000E+00  0.00000000000E+00 -0.10976041941E+04  0.10976041941E+04  0.25500000920E-02 0.  1.
    10030    2    1    2    0    0  0.00000000000E+00  0.00000000000E+00 -0.10408928746E+04  0.11543155136E+04  0.49898529879E+03 0.  0.
        1    1    3    3  502    0  0.22804378302E+03  0.99449283162E+02 -0.56387632757E+03  0.61632024120E+03  0.50400001928E-02 0.  1.
       -1    1    3    3    0  502 -0.22804378302E+03 -0.99449283162E+02 -0.47701654705E+03  0.53799527236E+03  0.50400001928E-02 0. -1.
</event>
<event>
 5   0  0.1923706E-02  0.4996829E+03  0.7818609E-02  0.1013862E+00
       -2   -1    0    0    0  501  0.00000000000E+00  0.00000000000E+00  0.12111679807E+03  0.12111679810E+03  0.25500000920E-02 0.  1.
        2   -1    0    0  501    0  0.00000000000E+00  0.00000000000E+00 -0.51537651472E+03  0.51537651472E+03  0.25500000920E-02 0. -1.
    10030    2    1    2    0    0  0.00000000000E+00  0.00000000000E+00 -0.39425971664E+03  0.63649331282E+03  0.49968291256E+03 0.  0.
        3    1    3    3  502    0 -0.21661516365E+03  0.25327866342E+02 -0.35239235381E+03  0.41442009020E+03  0.10100000352E+00 0. -1.
       -3    1    3    3    0  502  0.21661516365E+03 -0.25327866342E+02 -0.41867362834E+02  0.22207322263E+03  0.10100000352E+00 0.  1.
</event>
<event>
 5   0  0.1982847E-02  0.4985388E+03  0.7818609E-02  0.1014161E+00
        2   -1    0    0  501    0  0.00000000000E+00  0.00000000000E+00  0.18732314780E+04  0.18732314780E+04  0.25500000920E-02 0. -1.
       -2   -1    0    0    0  501  0.00000000000E+00  0.00000000000E+00 -0.33170071668E+02  0.33170071766E+02  0.25500000920E-02 0.  1.
    10030    2    1    2    0    0  0.00000000000E+00  0.00000000000E+00  0.18400614063E+04  0.19064015497E+04  0.49853875464E+03 0.  0.
        2    1    3    3  502    0 -0.68217333043E+02  0.73549610770E+02  0.47425315063E+02  0.11096085025E+03  0.25500000920E-02 0.  1.
       -2    1    3    3    0  502  0.68217333043E+02 -0.73549610770E+02  0.17926360912E+04  0.17954406995E+04  0.25500000920E-02 0. -1.
</event>
<event>
 5   0  0.1855407E-02  0.4999554E+03  0.7818609E-02  0.1013791E+00
        2   -1    0    0  501    0  0.00000000000E+00  0.00000000000E+00  0.26662191761E+03  0.26662191763E+03  0.25500000920E-02 0. -1.
       -2   -1    0    0    0  501  0.00000000000E+00  0.00000000000E+00 -0.23437255288E+03  0.23437255289E+03  0.25500000920E-02 0.  1.
    10030    2    1    2    0    0  0.00000000000E+00  0.00000000000E+00  0.32249364732E+02  0.50099447052E+03  0.49995543598E+03 0.  0.
        1    1    3    3  502    0  0.15432751082E+03  0.19646127541E+03  0.74553365985E+01  0.24993918340E+03  0.50400001928E-02 0. -1.
       -1    1    3    3    0  502 -0.15432751082E+03 -0.19646127541E+03  0.24794028134E+02  0.25105528712E+03  0.50400001928E-02 0.  1.
</event>
<event>
 5   0  0.1227864E-02  0.5011093E+03  0.7818609E-02  0.1013490E+00
       -1   -1    0    0    0  501  0.00000000000E+00  0.00000000000E+00  0.54859619956E+03  0.54859619959E+03  0.50400001928E-02 0.  1.
        1   -1    0    0  501    0  0.00000000000E+00  0.00000000000E+00 -0.11443321283E+03  0.11443321294E+03  0.50400001928E-02 0. -1.
    10030    2    1    2    0    0  0.00000000000E+00  0.00000000000E+00  0.43416298673E+03  0.66302941253E+03  0.50110927235E+03 0.  0.
        5    1    3    3  502    0  0.16143986247E+03  0.35153472075E+02  0.46622580809E+03  0.49465866001E+03  0.46999998093E+01 0.  1.
       -5    1    3    3    0  502 -0.16143986247E+03 -0.35153472075E+02 -0.32062821359E+02  0.16837075252E+03  0.46999998093E+01 0. -1.
</event>
<event>
 5   0  0.1225989E-02  0.5006185E+03  0.7818609E-02  0.1013618E+00
       -1   -1    0    0    0  501  0.00000000000E+00  0.00000000000E+00  0.11692892646E+03  0.11692892657E+03  0.50400001928E-02 0.  1.
        1   -1    0    0  501    0  0.00000000000E+00  0.00000000000E+00 -0.53583587117E+03  0.53583587119E+03  0.50400001928E-02 0. -1.
    10030    2    1    2    0    0  0.00000000000E+00  0.00000000000E+00 -0.41890694471E+03  0.65276479775E+03  0.50061847036E+03 0.  0.
        3    1    3    3  502    0  0.20896719503E+03 -0.38666593982E+02 -0.38190753354E+03  0.43705350756E+03  0.10100000352E+00 0. -1.
       -3    1    3    3    0  502 -0.20896719503E+03  0.38666593982E+02 -0.36999411164E+02  0.21571129020E+03  0.10100000352E+00 0.  1.
</event>
<event>
 5   0  0.1982847E-02  0.5003562E+03  0.7818609E-02  0.1013686E+00
        2   -1    0    0  501    0  0.00000000000E+00  0.00000000000E+00  0.87175243276E+03  0.87175243276E+03  0.25500000920E-02 0. -1.
       -2   -1    0    0    0  501  0.00000000000E+00  0.00000000000E+00 -0.71796865738E+02  0.71796865783E+02  0.25500000920E-02 0.  1.
    10030    2    1    2    0    0  0.00000000000E+00  0.00000000000E+00  0.79995556702E+03  0.94354929854E+03  0.50035624267E+03 0.  0.
        2    1    3    3  502    0 -0.34248114536E+02 -0.13490585374E+03  0.79558022086E+01  0.13941240088E+03  0.25500000920E-02 0.  1.
       -2    1    3    3    0  502  0.34248114536E+02  0.13490585374E+03  0.79199976481E+03  0.80413689767E+03  0.25500000920E-02 0. -1.
</event>
<event>
 5   0  0.1225989E-02  0.5000916E+03  0.7818609E-02  0.1013755E+00
        1   -1    0    0  501    0  0.00000000000E+00  0.00000000000E+00  0.32617636205E+03  0.32617636209E+03  0.50400001928E-02 0.  1.
       -1   -1    0    0    0  501  0.00000000000E+00  0.00000000000E+00 -0.19168432723E+03  0.19168432730E+03  0.50400001928E-02 0. -1.
    10030    2    1    2    0    0  0.00000000000E+00  0.00000000000E+00  0.13449203482E+03  0.51786068939E+03  0.50009157780E+03 0.  0.
        3    1    3    3  502    0 -0.22718481179E+02 -0.28985365130E+02  0.32335251364E+03  0.32544298895E+03  0.10100000352E+00 0.  1.
       -3    1    3    3    0  502  0.22718481179E+02  0.28985365130E+02 -0.18886047882E+03  0.19241770043E+03  0.10100000352E+00 0. -1.
</event>
<event>
 5   0  0.1225989E-02  0.5003828E+03  0.7818609E-02  0.1013679E+00
        1   -1    0    0  501    0  0.00000000000E+00  0.00000000000E+00  0.34112600270E+03  0.34112600273E+03  0.50400001928E-02 0. -1.
       -1   -1    0    0    0  501  0.00000000000E+00  0.00000000000E+00 -0.18349743395E+03  0.18349743402E+03  0.50400001928E-02 0.  1.
    10030    2    1    2    0    0  0.00000000000E+00  0.00000000000E+00  0.15762856874E+03  0.52462343676E+03  0.50038283814E+03 0.  0.
        3    1    3    3  502    0 -0.21550462062E+03 -0.87228311632E+02 -0.18101407692E+02  0.23319239057E+03  0.10100000352E+00 0.  1.
       -3    1    3    3    0  502  0.21550462062E+03  0.87228311632E+02  0.17572997644E+03  0.29143104618E+03  0.10100000352E+00 0. -1.
</event>
<event>
 5   0  0.1967813E-02  0.5008474E+03  0.7818609E-02  0.1013558E+00
        2   -1    0    0  501    0  0.00000000000E+00  0.00000000000E+00  0.66812678534E+03  0.66812678535E+03  0.25500000920E-02 0. -1.
       -2   -1    0    0    0  501  0.00000000000E+00  0.00000000000E+00 -0.93862456523E+02  0.93862456558E+02  0.25500000920E-02 0.  1.
    10030    2    1    2    0    0  0.00000000000E+00  0.00000000000E+00  0.57426432882E+03  0.76198924190E+03  0.50084736739E+03 0.  0.
        5    1    3    3  502    0  0.72755694410E+02 -0.11418888487E+03 -0.33293044251E+02  0.13950988958E+03  0.46999998093E+01 0.  1.
       -5    1    3    3    0  502 -0.72755694410E+02  0.11418888487E+03  0.60755737307E+03  0.62247935232E+03  0.46999998093E+01 0. -1.
</event>
<event>
 5   0  0.1923706E-02  0.4997326E+03  0.7818609E-02  0.1013849E+00
       -2   -1    0    0    0  501  0.00000000000E+00  0.00000000000E+00  0.22155880501E+03  0.22155880502E+03  0.25500000920E-02 0. -1.
        2   -1    0    0  501    0  0.00000000000E+00  0.00000000000E+00 -0.28179054511E+03  0.28179054512E+03  0.25500000920E-02 0.  1.
    10030    2    1    2    0    0  0.00000000000E+00  0.00000000000E+00 -0.60231740102E+02  0.50334935015E+03  0.49973263429E+03 0.  0.
        3    1    3    3  502    0  0.18311299062E+03 -0.15766437748E+03  0.33942703860E+02  0.24400930434E+03  0.10100000352E+00 0. -1.
       -3    1    3    3    0  502 -0.18311299062E+03  0.15766437748E+03 -0.94174443962E+02  0.25934004580E+03  0.10100000352E+00 0.  1.
</event>
<event>
 5   0  0.8012875E-03  0.5034654E+03  0.7818609E-02  0.1012878E+00
       -3   -1    0    0    0  501  0.00000000000E+00  0.00000000000E+00  0.10438096106E+03  0.10438100993E+03  0.10100000352E+00 0. -1.
        3   -1    0    0  501    0  0.00000000000E+00  0.00000000000E+00 -0.60709657589E+03  0.60709658429E+03  0.10100000352E+00 0.  1.
    10030    2    1    2    0    0  0.00000000000E+00  0.00000000000E+00 -0.50271561482E+03  0.71147759422E+03  0.50346536890E+03 0.  0.
        3    1    3    3  502    0  0.13632463042E+03 -0.16471474762E+03 -0.63593536192E+02  0.22306837739E+03  0.10100000352E+00 0. -1.
       -3    1    3    3    0  502 -0.13632463042E+03  0.16471474762E+03 -0.43912207863E+03  0.48840921683E+03  0.10100000352E+00 0.  1.
</event>
<event>
 5   0  0.1227864E-02  0.5006087E+03  0.7818609E-02  0.1013620E+00
        1   -1    0    0  501    0  0.00000000000E+00  0.00000000000E+00  0.38196042458E+03  0.38196042461E+03  0.50400001928E-02 0. -1.
       -1   -1    0    0    0  501  0.00000000000E+00  0.00000000000E+00 -0.16402815818E+03  0.16402815826E+03  0.50400001928E-02 0.  1.
    10030    2    1    2    0    0  0.00000000000E+00  0.00000000000E+00  0.21793226640E+03  0.54598858286E+03  0.50060868938E+03 0.  0.
        5    1    3    3  502    0 -0.17011508625E+03 -0.57034815585E+01  0.30905944567E+03  0.35286187557E+03  0.46999998093E+01 0. -1.
       -5    1    3    3    0  502  0.17011508625E+03  0.57034815585E+01 -0.91127179275E+02  0.19312670730E+03  0.46999998093E+01 0.  1.
</event>
<event>
 5   0  0.1982847E-02  0.5004661E+03  0.7818609E-02  0.1013657E+00
       -2   -1    0    0    0  501  0.00000000000E+00  0.00000000000E+00  0.11543838753E+03  0.11543838756E+03  0.25500000920E-02 0.  1.
        2   -1    0    0  501    0  0.00000000000E+00  0.00000000000E+00 -0.54242418169E+03  0.54242418170E+03  0.25500000920E-02 0. -1.
    10030    2    1    2    0    0  0.00000000000E+00  0.00000000000E+00 -0.42698579416E+03  0.65786256926E+03  0.50046607440E+03 0.  0.
        2    1    3    3  502    0 -0.16394101760E+03 -0.10199788085E+03 -0.42587604422E+01  0.19312783848E+03  0.25500000920E-02 0.  1.
       -2    1    3    3    0  502  0.16394101760E+03  0.10199788085E+03 -0.42272703371E+03  0.46473473078E+03  0.25500000920E-02 0. -1.
</event>
<event>
 5   0  0.1180937E-02  0.5002172E+03  0.7818609E-02  0.1013722E+00
       -1   -1    0    0    0  501  0.00000000000E+00  0.00000000000E+00  0.22943874124E+03  0.22943874129E+03  0.50400001928E-02 0. -1.
        1   -1    0    0  501    0  0.00000000000E+00  0.00000000000E+00 -0.27264059730E+03  0.27264059735E+03  0.50400001928E-02 0.  1.
    10030    2    1    2    0    0  0.00000000000E+00  0.00000000000E+00 -0.43201856065E+02  0.50207933864E+03  0.50021721474E+03 0.  0.
        1    1    3    3  502    0 -0.82572688994E+01 -0.57186075901E+02  0.22264809251E+03  0.23002304860E+03  0.50400001928E-02 0. -1.
       -1    1    3    3    0  502  0.82572688994E+01  0.57186075901E+02 -0.26584994857E+03  0.27205629003E+03  0.50400001928E-02 0.  1.
</event>
<event>
 5   0  0.1227864E-02  0.4991250E+03  0.7818609E-02  0.1014008E+00
        1   -1    0    0  501    0  0.00000000000E+00  0.00000000000E+00  0.26042924618E+03  0.26042924623E+03  0.50400001928E-02 0. -1.
       -1   -1    0    0    0  501  0.00000000000E+00  0.00000000000E+00 -0.23914915721E+03  0.23914915726E+03  0.50400001928E-02 0.  1.
    10030    2    1    2    0    0  0.00000000000E+00  0.00000000000E+00  0.21280088970E+02  0.49957840349E+03  0.49912497338E+03 0.  0.
        5    1    3    3  502    0  0.13520212232E+03 -0.11338618784E+03  0.18721829035E+03  0.25731074542E+03  0.46999998093E+01 0. -1.
       -5    1    3    3    0  502 -0.13520212232E+03  0.11338618784E+03 -0.16593820138E+03  0.24226765807E+03  0.46999998093E+01 0.  1.
</event>
<event>
 5   0  0.1855407E-02  0.4998970E+03  0.7818609E-02  0.1013806E+00
       -2   -1    0    0    0  501  0.00000000000E+00  0.00000000000E+00  0.18999618395E+03  0.18999618397E+03  0.25500000920E-02 0. -1.
        2   -1    0    0  501    0  0.00000000000E+00  0.00000000000E+00 -0.32881839868E+03  0.32881839869E+03  0.25500000920E-02 0.  1.
    10030    2    1    2    0    0  0.00000000000E+00  0.00000000000E+00 -0.13882221472E+03  0.51881458266E+03  0.49989695326E+03 0.  0.
        1    1    3    3  502    0  0.23404195714E+03 -0.36503338888E+02  0.13396214061E+02  0.23725005801E+03  0.50400001928E-02 0. -1.
       -1    1    3    3    0  502 -0.23404195714E+03  0.36503338888E+02 -0.15221842878E+03  0.28156452464E+03  0.50400001928E-02 0.  1.
</event>
<event>
 5   0  0.8012875E-03  0.4995181E+03  0.7818609E-02  0.1013905E+00
       -4   -1    0    0    0  501  0.00000000000E+00  0.00000000000E+00  0.15520134915E+03  0.15520654522E+03  0.12699999809E+01 0. -1.
        4   -1    0    0  501    0  0.00000000000E+00  0.00000000000E+00 -0.40191395810E+03  0.40191596462E+03  0.12699999809E+01 0.  1.
    10030    2    1    2    0    0  0.00000000000E+00  0.00000000000E+00 -0.24671260895E+03  0.55712250984E+03  0.49951814738E+03 0.  0.
        3    1    3    3  502    0  0.12420995760E+03  0.31925319290E+02  0.11567692117E+03  0.17270929295E+03  0.10100000352E+00 0. -1.
       -3    1    3    3    0  502 -0.12420995760E+03 -0.31925319290E+02 -0.36238953012E+03  0.38441321689E+03  0.10100000352E+00 0.  1.
</event>
<event>
 5   0  0.1225989E-02  0.4991415E+03  0.7818609E-02  0.1014003E+00
       -1   -1    0    0    0  501  0.00000000000E+00  0.00000000000E+00  0.17339898296E+03  0.17339898303E+03  0.50400001928E-02 0. -1.
        1   -1    0    0  501    0  0.00000000000E+00  0.00000000000E+00 -0.35920374633E+03  0.35920374637E+03  0.50400001928E-02 0.  1.
    10030    2    1    2    0    0  0.00000000000E+00  0.00000000000E+00 -0.18580476337E+03  0.53260272940E+03  0.49914152028E+03 0.  0.
        3    1    3    3  502    0  0.15673722943E+03 -0.73970421185E+02 -0.28451621218E+03  0.33314811645E+03  0.10100000352E+00 0.  1.
       -3    1    3    3    0  502 -0.15673722943E+03  0.73970421185E+02  0.98711448804E+02  0.19945461295E+03  0.10100000352E+00 0. -1.
</event>
<event>
 5   0  0.1227864E-02  0.5001801E+03  0.7818609E-02  0.1013732E+00
        1   -1    0    0  501    0  0.00000000000E+00  0.00000000000E+00  0.40469339358E+03  0.40469339361E+03  0.50400001928E-02 0.  1.
       -1   -1    0    0    0  501  0.00000000000E+00  0.00000000000E+00 -0.15454921089E+03  0.15454921097E+03  0.50400001928E-02 0. -1.
    10030    2    1    2    0    0  0.00000000000E+00  0.00000000000E+00  0.25014418269E+03  0.55924260457E+03  0.50018014618E+03 0.  0.
        5    1    3    3  502    0 -0.53237260801E+02  0.23219222859E+01 -0.14807741718E+03  0.15744398603E+03  0.46999998093E+01 0. -1.
       -5    1    3    3    0  502  0.53237260801E+02 -0.23219222859E+01  0.39822159987E+03  0.40179861854E+03  0.46999998093E+01 0.  1.
</event>
<event>
 5   0  0.1217270E-02  0.4977283E+03  0.7818609E-02  0.1014374E+00
       -1   -1    0    0    0  501  0.00000000000E+00  0.00000000000E+00  0.12546128552E+03  0.12546128563E+03  0.50400001928E-02 0. -1.
        1   -1    0    0  501    0  0.00000000000E+00  0.00000000000E+00 -0.49364522220E+03  0.49364522223E+03  0.50400001928E-02 0.  1.
    10030    2    1    2    0    0  0.00000000000E+00  0.00000000000E+00 -0.36818393668E+03  0.61910650785E+03  0.49772829620E+03 0.  0.
        2    1    3    3  502    0  0.17911877250E+03  0.60974756635E+02 -0.38516721171E+03  0.42913312223E+03  0.25500000920E-02 0.  1.
       -2    1    3    3    0  502 -0.17911877250E+03 -0.60974756635E+02  0.16983275032E+02  0.18997338563E+03  0.25500000920E-02 0. -1.
</event>
<event>
 5   0  0.8012875E-03  0.4991712E+03  0.7818609E-02  0.1013995E+00
       -3   -1    0    0    0  501  0.00000000000E+00  0.00000000000E+00  0.68304873647E+02  0.68304948319E+02  0.10100000352E+00 0.  1.
        3   -1    0    0  501    0  0.00000000000E+00  0.00000000000E+00 -0.91198371646E+03  0.91198372205E+03  0.10100000352E+00 0. -1.
    10030    2    1    2    0    0  0.00000000000E+00  0.00000000000E+00 -0.84367884281E+03  0.98028867037E+03  0.49917120054E+03 0.  0.
        3    1    3    3  502    0 -0.13308374794E+03  0.23867674966E+02 -0.83383264479E+03  0.84472352850E+03  0.10100000352E+00 0. -1.
       -3    1    3    3    0  502  0.13308374794E+03 -0.23867674966E+02 -0.98461980212E+01  0.13556514187E+03  0.10100000352E+00 0.  1.
</event>
<event>
 5   0  0.8012875E-03  0.4987706E+03  0.7818609E-02  0.1014100E+00
       -3   -1    0    0    0  501  0.00000000000E+00  0.00000000000E+00  0.63974445487E+02  0.63974525214E+02  0.10100000352E+00 0. -1.
        3   -1    0    0  501    0  0.00000000000E+00  0.00000000000E+00 -0.97215340036E+03  0.97215340560E+03  0.10100000352E+00 0.  1.
    10030    2    1    2    0    0  0.00000000000E+00  0.00000000000E+00 -0.90817895487E+03  0.10361279308E+04  0.49877056344E+03 0.  0.
        4    1    3    3  502    0  0.37623662856E+02 -0.10194734296E+03 -0.92037601469E+03  0.92676988625E+03  0.12699999809E+01 0.  1.
       -4    1    3    3    0  502 -0.37623662856E+02  0.10194734296E+03  0.12197059825E+02  0.10935804456E+03  0.12699999809E+01 0. -1.
</event>
<event>
 5   0  0.1941387E-02  0.5021173E+03  0.7818609E-02  0.1013228E+00
        2   -1    0    0  501    0  0.00000000000E+00  0.00000000000E+00  0.15431987725E+04  0.15431987726E+04  0.25500000920E-02 0. -1.
       -2   -1    0    0    0  501  0.00000000000E+00  0.00000000000E+00 -0.40844020920E+02  0.40844021000E+02  0.25500000920E-02 0.  1.
    10030    2    1    2    0    0  0.00000000000E+00  0.00000000000E+00  0.15023547516E+04  0.15840427936E+04  0.50211728915E+03 0.  0.
        4    1    3    3  502    0 -0.87686149102E+02 -0.66591354799E+02  0.14629550273E+04  0.14670931443E+04  0.12699999809E+01 0. -1.
       -4    1    3    3    0  502  0.87686149102E+02  0.66591354799E+02  0.39399724315E+02  0.11694964923E+03  0.12699999809E+01 0.  1.
</event>
<event>
 5   0  0.1209831E-02  0.5013260E+03  0.7818609E-02  0.1013433E+00
        1   -1    0    0  501    0  0.00000000000E+00  0.00000000000E+00  0.39367361011E+03  0.39367361014E+03  0.50400001928E-02 0. -1.
       -1   -1    0    0    0  501  0.00000000000E+00  0.00000000000E+00 -0.15960416798E+03  0.15960416806E+03  0.50400001928E-02 0.  1.
    10030    2    1    2    0    0  0.00000000000E+00  0.00000000000E+00  0.23406944213E+03  0.55327777820E+03  0.50132603773E+03 0.  0.
        4    1    3    3  502    0 -0.10430542829E+02 -0.30033719616E+02 -0.15736632646E+03  0.16055090826E+03  0.12699999809E+01 0.  1.
       -4    1    3    3    0  502  0.10430542829E+02  0.30033719616E+02  0.39143576860E+03  0.39272686994E+03  0.12699999809E+01 0. -1.
</event>
<event>
 5   0  0.1225989E-02  0.5001341E+03  0.7818609E-02  0.1013744E+00
       -1   -1    0    0    0  501  0.00000000000E+00  0.00000000000E+00  0.12700087715E+03  0.12700087725E+03  0.50400001928E-02 0.  1.
        1   -1    0    0  501    0  0.00000000000E+00  0.00000000000E+00 -0.49238652528E+03  0.49238652531E+03  0.50400001928E-02 0. -1.
    10030    2    1    2    0    0  0.00000000000E+00  0.00000000000E+00 -0.36538564813E+03  0.61938740256E+03  0.50013406461E+03 0.  0.
        3    1    3    3  502    0 -0.24336853164E+03  0.31514753260E+02 -0.24224233056E+03  0.34482282230E+03  0.10100000352E+00 0. -1.
       -3    1    3    3    0  502  0.24336853164E+03 -0.31514753260E+02 -0.12314331758E+03  0.27456458026E+03  0.10100000352E+00 0.  1.
</event>
<event>
 5   0  0.1967813E-02  0.5000062E+03  0.7818609E-02  0.1013777E+00
        2   -1    0    0  501    0  0.00000000000E+00  0.00000000000E+00  0.64942202646E+03  0.64942202646E+03  0.25500000920E-02 0. -1.
       -2   -1    0    0    0  501  0.00000000000E+00  0.00000000000E+00 -0.96241820626E+02  0.96241820660E+02  0.25500000920E-02 0.  1.
    10030    2    1    2    0    0  0.00000000000E+00  0.00000000000E+00  0.55318020583E+03  0.74566384712E+03  0.50000623274E+03 0.  0.
        5    1    3    3  502    0  0.38856644692E+01 -0.10939078462E+03 -0.58533387141E+02  0.12421630149E+03  0.46999998093E+01 0.  1.
       -5    1    3    3    0  502 -0.38856644692E+01  0.10939078462E+03  0.61171359297E+03  0.62144754563E+03  0.46999998093E+01 0. -1.
</event>
<event>
 5   0  0.1855407E-02  0.5001388E+03  0.7818609E-02  0.1013743E+00
        2   -1    0    0  501    0  0.00000000000E+00  0.00000000000E+00  0.24903188715E+04  0.24903188715E+04  0.25500000920E-02 0.  1.
       -2   -1    0    0    0  501  0.00000000000E+00  0.00000000000E+00 -0.25111120185E+02  0.25111120314E+02  0.25500000920E-02 0. -1.
    10030    2    1    2    0    0  0.00000000000E+00  0.00000000000E+00  0.24652077513E+04  0.25154299918E+04  0.50013876732E+03 0.  0.
        1    1    3    3  502    0  0.16720703557E+03 -0.71915873725E+02  0.37016279627E+03  0.41249312892E+03  0.50400001928E-02 0. -1.
       -1    1    3    3    0  502 -0.16720703557E+03  0.71915873725E+02  0.20950449550E+04  0.21029368629E+04  0.50400001928E-02 0.  1.
</event>
<event>
 5   0  0.1923706E-02  0.5002590E+03  0.7818609E-02  0.1013711E+00
       -2   -1    0    0    0  501  0.00000000000E+00  0.00000000000E+00  0.57825353604E+02  0.57825353660E+02  0.25500000920E-02 0. -1.
        2   -1    0    0  501    0  0.00000000000E+00  0.00000000000E+00 -0.10819607684E+04  0.10819607684E+04  0.25500000920E-02 0.  1.
    10030    2    1    2    0    0  0.00000000000E+00  0.00000000000E+00 -0.10241354148E+04  0.11397861221E+04  0.50025898913E+03 0.  0.
        3    1    3    3  502    0 -0.45886521030E+02  0.20710646912E+03 -0.21009615355E+03  0.29856166248E+03  0.10100000352E+00 0. -1.
       -3    1    3    3    0  502  0.45886521030E+02 -0.20710646912E+03 -0.81403926124E+03  0.84122445958E+03  0.10100000352E+00 0.  1.
</event>
<event>
 5   0  0.1923706E-02  0.5000270E+03  0.7818609E-02  0.1013772E+00
       -2   -1    0    0    0  501  0.00000000000E+00  0.00000000000E+00  0.85470958184E+02  0.85470958222E+02  0.25500000920E-02 0. -1.
        2   -1    0    0  501    0  0.00000000000E+00  0.00000000000E+00 -0.73132144653E+03  0.73132144654E+03  0.25500000920E-02 0.  1.
    10030    2    1    2    0    0  0.00000000000E+00  0.00000000000E+00 -0.64585048835E+03  0.81679240476E+03  0.50002697845E+03 0.  0.
        3    1    3    3  502    0 -0.14728148089E+03  0.73906954050E+02 -0.63006024782E+03  0.65125263804E+03  0.10100000352E+00 0.  1.
       -3    1    3    3    0  502  0.14728148089E+03 -0.73906954050E+02 -0.15790240530E+02  0.16553976672E+03  0.10100000352E+00 0. -1.
</event>
<event>
 5   0  0.1209831E-02  0.5015008E+03  0.7818609E-02  0.1013388E+00
        1   -1    0    0  501    0  0.00000000000E+00  0.00000000000E+00  0.52934337077E+03  0.52934337079E+03  0.50400001928E-02 0.  1.
       -1   -1    0    0    0  501  0.00000000000E+00  0.00000000000E+00 -0.11878065676E+03  0.11878065686E+03  0.50400001928E-02 0. -1.
    10030    2    1    2    0    0  0.00000000000E+00  0.00000000000E+00  0.41056271401E+03  0.64812402765E+03  0.50150076080E+03 0.  0.
        4    1    3    3  502    0  0.50761988079E+02  0.23737306280E+03  0.28651977806E+03  0.37552356317E+03  0.12699999809E+01 0.  1.
       -4    1    3    3    0  502 -0.50761988079E+02 -0.23737306280E+03  0.12404293595E+03  0.27260046448E+03  0.12699999809E+01 0. -1.
</event>
<event>
 5   0  0.1855407E-02  0.5002173E+03  0.7818609E-02  0.1013722E+00
        2   -1    0    0  501    0  0.00000000000E+00  0.00000000000E+00  0.78080289511E+03  0.78080289511E+03  0.25500000920E-02 0. -1.
       -2   -1    0    0    0  501  0.00000000000E+00  0.00000000000E+00 -0.80115413746E+02  0.80115413786E+02  0.25500000920E-02 0.  1.
    10030    2    1    2    0    0  0.00000000000E+00  0.00000000000E+00  0.70068748136E+03  0.86091830890E+03  0.50021734082E+03 0.  0.
        1    1    3    3  502    0 -0.13507314560E+03  0.43111041618E+02 -0.42632712140E+01  0.14185024525E+03  0.50400001928E-02 0.  1.
       -1    1    3    3    0  502  0.13507314560E+03 -0.43111041618E+02  0.70495075258E+03  0.71906806365E+03  0.50400001928E-02 0. -1.
</event>
<event>
 5   0  0.1217270E-02  0.5000182E+03  0.7818609E-02  0.1013774E+00
        1   -1    0    0  501    0  0.00000000000E+00  0.00000000000E+00  0.16147185987E+03  0.16147185995E+03  0.50400001928E-02 0. -1.
       -1   -1    0    0    0  501  0.00000000000E+00  0.00000000000E+00 -0.38709245211E+03  0.38709245214E+03  0.50400001928E-02 0.  1.
    10030    2    1    2    0    0  0.00000000000E+00  0.00000000000E+00 -0.22562059223E+03  0.54856431209E+03  0.50001815253E+03 0.  0.
        2    1    3    3  502    0  0.17459249211E+03  0.13002071659E+03  0.22076372565E+02  0.21880423048E+03  0.25500000920E-02 0. -1.
       -2    1    3    3    0  502 -0.17459249211E+03 -0.13002071659E+03 -0.24769696480E+03  0.32976008161E+03  0.25500000920E-02 0.  1.
</event>
<event>
 5   0  0.1180937E-02  0.5039644E+03  0.7818609E-02  0.1012749E+00
        1   -1    0    0  501    0  0.00000000000E+00  0.00000000000E+00  0.95088614549E+03  0.95088614550E+03  0.50400001928E-02 0.  1.
       -1   -1    0    0    0  501  0.00000000000E+00  0.00000000000E+00 -0.66774579863E+02  0.66774580054E+02  0.50400001928E-02 0. -1.
    10030    2    1    2    0    0  0.00000000000E+00  0.00000000000E+00  0.88411156563E+03  0.10176607256E+04  0.50396437559E+03 0.  0.
        1    1    3    3  502    0  0.45199772662E+02  0.22160175279E+03  0.21769711131E+03  0.31391461990E+03  0.50400001928E-02 0.  1.
       -1    1    3    3    0  502 -0.45199772662E+02 -0.22160175279E+03  0.66641445432E+03  0.70374610566E+03  0.50400001928E-02 0. -1.
</event>
<event>
 5   0  0.1227864E-02  0.4942035E+03  0.7818609E-02  0.1015303E+00
        1   -1    0    0  501    0  0.00000000000E+00  0.00000000000E+00  0.20395654132E+03  0.20395654139E+03  0.50400001928E-02 0.  1.
       -1   -1    0    0    0  501  0.00000000000E+00  0.00000000000E+00 -0.29937395529E+03  0.29937395534E+03  0.50400001928E-02 0. -1.
    10030    2    1    2    0    0  0.00000000000E+00  0.00000000000E+00 -0.95417413969E+02  0.50333049672E+03  0.49420350671E+03 0.  0.
        5    1    3    3  502    0  0.13856996644E+03 -0.15106180370E+03  0.92736092871E+02  0.22504083419E+03  0.46999998093E+01 0.  1.
       -5    1    3    3    0  502 -0.13856996644E+03  0.15106180370E+03 -0.18815350684E+03  0.27828966253E+03  0.46999998093E+01 0. -1.
</event>
<event>
 5   0  0.1982847E-02  0.5000629E+03  0.7818609E-02  0.1013762E+00
        2   -1    0    0  501    0  0.00000000000E+00  0.00000000000E+00  0.34426059493E+03  0.34426059494E+03  0.25500000920E-02 0. -1.
       -2   -1    0    0    0  501  0.00000000000E+00  0.00000000000E+00 -0.18159422797E+03  0.18159422799E+03  0.25500000920E-02 0.  1.
    10030    2    1    2    0    0  0.00000000000E+00  0.00000000000E+00  0.16266636695E+03  0.52585482293E+03  0.50006294390E+03 0.  0.
        2    1    3    3  502    0 -0.12571893964E+03  0.40962630766E+02  0.30448706675E+03  0.33195717002E+03  0.25500000920E-02 0. -1.
       -2    1    3    3    0  502  0.12571893964E+03 -0.40962630766E+02 -0.14182069980E+03  0.19389765291E+03  0.25500000920E-02 0.  1.
</event>
<event>
 5   0  0.1855407E-02  0.4997976E+03  0.7818609E-02  0.1013832E+00
       -2   -1    0    0    0  501  0.00000000000E+00  0.00000000000E+00  0.94219933285E+02  0.94219933320E+02  0.25500000920E-02 0.  1.
        2   -1    0    0  501    0  0.00000000000E+00  0.00000000000E+00 -0.66280454515E+03  0.66280454515E+03  0.25500000920E-02 0. -1.
    10030    2    1    2    0    0  0.00000000000E+00  0.00000000000E+00 -0.56858461186E+03  0.75702447847E+03  0.49979755918E+03 0.  0.
        1    1    3    3  502    0  0.12647528530E+03 -0.38855624893E+02  0.36814807215E+02  0.13733567429E+03  0.50400001928E-02 0.  1.
       -1    1    3    3    0  502 -0.12647528530E+03  0.38855624893E+02 -0.60539941908E+03  0.61968880418E+03  0.50400001928E-02 0. -1.
</event>
<event>
 5   0  0.1923706E-02  0.4992895E+03  0.7818609E-02  0.1013965E+00
       -2   -1    0    0    0  501  0.00000000000E+00  0.00000000000E+00  0.36072155814E+03  0.36072155815E+03  0.25500000920E-02 0. -1.
        2   -1    0    0  501    0  0.00000000000E+00  0.00000000000E+00 -0.17277173609E+03  0.17277173611E+03  0.25500000920E-02 0.  1.
    10030    2    1    2    0    0  0.00000000000E+00  0.00000000000E+00  0.18794982205E+03  0.53349329425E+03  0.49928945453E+03 0.  0.
        3    1    3    3  502    0 -0.53060904963E+01 -0.36005062676E+02 -0.16992195261E+03  0.17377571554E+03  0.10100000352E+00 0.  1.
       -3    1    3    3    0  502  0.53060904963E+01  0.36005062676E+02  0.35787177466E+03  0.35971757871E+03  0.10100000352E+00 0. -1.
</event>
<event>
 5   0  0.1227864E-02  0.5001544E+03  0.7818609E-02  0.1013739E+00
        1   -1    0    0  501    0  0.00000000000E+00  0.00000000000E+00  0.20942252093E+04  0.20942252093E+04  0.50400001928E-02 0.  1.
       -1   -1    0    0    0  501  0.00000000000E+00  0.00000000000E+00 -0.29862404392E+02  0.29862404817E+02  0.50400001928E-02 0. -1.
    10030    2    1    2    0    0  0.00000000000E+00  0.00000000000E+00  0.20643628049E+04  0.21240876142E+04  0.50015437835E+03 0.  0.
        5    1    3    3  502    0  0.45703693719E+02  0.18455155889E+03  0.34256071341E+03  0.39181377959E+03  0.46999998093E+01 0. -1.
       -5    1    3    3    0  502 -0.45703693719E+02 -0.18455155889E+03  0.17218020915E+04  0.17322738346E+04  0.46999998093E+01 0.  1.
</event>
<event>
 5   0  0.1967813E-02  0.5013724E+03  0.7818609E-02  0.1013421E+00
        2   -1    0    0  501    0  0.00000000000E+00  0.00000000000E+00  0.56463063572E+03  0.56463063573E+03  0.25500000920E-02 0. -1.
       -2   -1    0    0    0  501  0.00000000000E+00  0.00000000000E+00 -0.11130031992E+03  0.11130031995E+03  0.25500000920E-02 0.  1.
    10030    2    1    2    0    0  0.00000000000E+00  0.00000000000E+00  0.45333031580E+03  0.67593095568E+03  0.50137239815E+03 0.  0.
        5    1    3    3  502    0 -0.49011444776E+02  0.23877883004E+03  0.30532236859E+03  0.39071894010E+03  0.46999998093E+01 0. -1.
       -5    1    3    3    0  502  0.49011444776E+02 -0.23877883004E+03  0.14800794721E+03  0.28521201558E+03  0.46999998093E+01 0.  1.
</event>
<event>
 5   0  0.1941387E-02  0.5006902E+03  0.7818609E-02  0.1013599E+00
       -2   -1    0    0    0  501  0.00000000000E+00  0.00000000000E+00  0.21765979109E+03  0.21765979111E+03  0.25500000920E-02 0.  1.
        2   -1    0    0  501    0  0.00000000000E+00  0.00000000000E+00 -0.28793861155E+03  0.28793861156E+03  0.25500000920E-02 0. -1.
    10030    2    1    2    0    0  0.00000000000E+00  0.00000000000E+00 -0.70278820461E+02  0.50559840267E+03  0.50069015586E+03 0.  0.
        4    1    3    3  502    0  0.25570803329E+02 -0.24010558486E+03 -0.10186658545E+03  0.26207436348E+03  0.12699999809E+01 0.  1.
       -4    1    3    3    0  502 -0.25570803329E+02  0.24010558486E+03  0.31587764990E+02  0.24352403919E+03  0.12699999809E+01 0. -1.
</event>
<event>
 5   0  0.1855407E-02  0.5005076E+03  0.7818609E-02  0.1013647E+00
        2   -1    0    0  501    0  0.00000000000E+00  0.00000000000E+00  0.11813783119E+04  0.11813783119E+04  0.25500000920E-02 0.  1.
       -2   -1    0    0    0  501  0.00000000000E+00  0.00000000000E+00 -0.53011772196E+02  0.53011772257E+02  0.25500000920E-02 0. -1.
    10030    2    1    2    0    0  0.00000000000E+00  0.00000000000E+00  0.11283665397E+04  0.12343900841E+04  0.50050757431E+03 0.  0.
        1    1    3    3  502    0  0.29926037938E+02  0.73555006419E+02  0.11494814131E+04  0.11522210838E+04  0.50400001928E-02 0.  1.
       -1    1    3    3    0  502 -0.29926037938E+02 -0.73555006419E+02 -0.21114873449E+02  0.82169000372E+02  0.50400001928E-02 0. -1.
</event>
<event>
 5   0  0.1209831E-02  0.5004656E+03  0.7818609E-02  0.1013657E+00
       -1   -1    0    0    0  501  0.00000000000E+00  0.00000000000E+00  0.38884116352E+03  0.38884116355E+03  0.50400001928E-02 0. -1.
        1   -1    0    0  501    0  0.00000000000E+00  0.00000000000E+00 -0.16103351360E+03  0.16103351368E+03  0.50400001928E-02 0.  1.
    10030    2    1    2    0    0  0.00000000000E+00  0.00000000000E+00  0.22780764992E+03  0.54987467724E+03  0.50046561851E+03 0.  0.
        4    1    3    3  502    0  0.12512651135E+03 -0.87723200843E+02  0.33161480843E+03  0.36513284963E+03  0.12699999809E+01 0. -1.
       -4    1    3    3    0  502 -0.12512651135E+03  0.87723200843E+02 -0.10380715851E+03  0.18474182761E+03  0.12699999809E+01 0.  1.
</event>
<event>
 5   0  0.1225989E-02  0.4997886E+03  0.7818609E-02  0.1013834E+00
       -1   -1    0    0    0  501  0.00000000000E+00  0.00000000000E+00  0.11419829352E+03  0.11419829363E+03  0.50400001928E-02 0.  1.
        1   -1    0    0  501    0  0.00000000000E+00  0.00000000000E+00 -0.54683096413E+03  0.54683096415E+03  0.50400001928E-02 0. -1.
    10030    2    1    2    0    0  0.00000000000E+00  0.00000000000E+00 -0.43263267061E+03  0.66102925778E+03  0.49978860727E+03 0.  0.
        3    1    3    3  502    0  0.14420505619E+03 -0.11887985921E+03 -0.43572594962E+03  0.47411457743E+03  0.10100000352E+00 0. -1.
       -3    1    3    3    0  502 -0.14420505619E+03  0.11887985921E+03  0.30932790045E+01  0.18691468035E+03  0.10100000352E+00 0.  1.
</event>
<event>
 5   0  0.1967813E-02  0.4995538E+03  0.7818609E-02  0.1013895E+00
       -2   -1    0    0    0  501  0.00000000000E+00  0.00000000000E+00  0.25771615229E+02  0.25771615355E+02  0.25500000920E-02 0. -1.
        2   -1    0    0  501    0  0.00000000000E+00  0.00000000000E+00 -0.24208219077E+04  0.24208219077E+04  0.25500000920E-02 0.  1.
    10030    2    1    2    0    0  0.00000000000E+00  0.00000000000E+00 -0.23950502925E+04  0.24465935231E+04  0.49955376448E+03 0.  0.
        5    1    3    3  502    0 -0.12143982255E+02 -0.18373961951E+03 -0.37132182292E+03  0.41449934892E+03  0.46999998093E+01 0. -1.
       -5    1    3    3    0  502  0.12143982255E+02  0.18373961951E+03 -0.20237284696E+04  0.20320941742E+04  0.46999998093E+01 0.  1.
</event>
<event>
 5   0  0.1967813E-02  0.5010005E+03  0.7818609E-02  0.1013518E+00
        2   -1    0    0  501    0  0.00000000000E+00  0.00000000000E+00  0.10885894214E+03  0.10885894217E+03  0.25500000920E-02 0. -1.
       -2   -1    0    0    0  501  0.00000000000E+00  0.00000000000E+00 -0.57643759924E+03  0.57643759925E+03  0.25500000920E-02 0.  1.
    10030    2    1    2    0    0  0.00000000000E+00  0.00000000000E+00 -0.46757865710E+03  0.68529654142E+03  0.50100054801E+03 0.  0.
        5    1    3    3  502    0  0.20588023129E+03 -0.68745612348E+02 -0.40472024793E+03  0.45927464325E+03  0.46999998093E+01 0.  1.
       -5    1    3    3    0  502 -0.20588023129E+03  0.68745612348E+02 -0.62858409173E+02  0.22602189817E+03  0.46999998093E+01 0. -1.
</event>
<event>
 5   0  0.1967813E-02  0.4993581E+03  0.7818609E-02  0.1013947E+00
        2   -1    0    0  501    0  0.00000000000E+00  0.00000000000E+00  0.10637145171E+04  0.10637145171E+04  0.25500000920E-02 0. -1.
       -2   -1    0    0    0  501  0.00000000000E+00  0.00000000000E+00 -0.58605601184E+02  0.58605601240E+02  0.25500000920E-02 0.  1.
    10030    2    1    2    0    0  0.00000000000E+00  0.00000000000E+00  0.10051089160E+04  0.11223201184E+04  0.49935810316E+03 0.  0.
        5    1    3    3  502    0 -0.88743515499E+02  0.12229872607E+02 -0.21136163339E+02  0.92161861559E+02  0.46999998093E+01 0.  1.
       -5    1    3    3    0  502  0.88743515499E+02 -0.12229872607E+02  0.10262450793E+04  0.10301582568E+04  0.46999998093E+01 0. -1.
</event>
<event>
 5   0  0.1941387E-02  0.5003440E+03  0.7818609E-02  0.1013689E+00
       -2   -1    0    0    0  501  0.00000000000E+00  0.00000000000E+00  0.28638201131E+02  0.28638201245E+02  0.25500000920E-02 0.  1.
        2   -1    0    0  501    0  0.00000000000E+00  0.00000000000E+00 -0.21854038198E+04  0.21854038198E+04  0.25500000920E-02 0. -1.
    10030    2    1    2    0    0  0.00000000000E+00  0.00000000000E+00 -0.21567656186E+04  0.22140420210E+04  0.50034401873E+03 0.  0.
        4    1    3    3  502    0 -0.19558073047E+03 -0.14000291591E+03 -0.13827722245E+04  0.14035359904E+04  0.12699999809E+01 0. -1.
       -4    1    3    3    0  502  0.19558073047E+03  0.14000291591E+03 -0.77399339411E+03  0.81050603059E+03  0.12699999809E+01 0.  1.
</event>
<event>
 5   0  0.1941387E-02  0.4975299E+03  0.7818609E-02  0.1014426E+00
       -2   -1    0    0    0  501  0.00000000000E+00  0.00000000000E+00  0.57256556404E+02  0.57256556461E+02  0.25500000920E-02 0.  1.
        2   -1    0    0  501    0  0.00000000000E+00  0.00000000000E+00 -0.10808196238E+04  0.10808196239E+04  0.25500000920E-02 0. -1.
    10030    2    1    2    0    0  0.00000000000E+00  0.00000000000E+00 -0.10235630674E+04  0.11380761803E+04  0.49752993795E+03 0.  0.
        4    1    3    3  502    0  0.11123270500E+03  0.67662967552E+02 -0.26909523374E+02  0.13295385360E+03  0.12699999809E+01 0. -1.
       -4    1    3    3    0  502 -0.11123270500E+03 -0.67662967552E+02 -0.99665354407E+03  0.10051223267E+04  0.12699999809E+01 0.  1.
</event>
<event>
 5   0  0.1225989E-02  0.5008456E+03  0.7818609E-02  0.1013558E+00
        1   -1    0    0  501    0  0.00000000000E+00  0.00000000000E+00  0.41179422878E+03  0.41179422881E+03  0.50400001928E-02 0. -1.
       -1   -1    0    0    0  501  0.00000000000E+00  0.00000000000E+00 -0.15228861028E+03  0.15228861036E+03  0.50400001928E-02 0.  1.
    10030    2    1    2    0    0  0.00000000000E+00  0.00000000000E+00  0.25950561849E+03  0.56408283917E+03  0.50084556843E+03 0.  0.
        3    1    3    3  502    0  0.11701042830E+03  0.76461064036E+02 -0.10426522161E+03  0.17438171144E+03  0.10100000352E+00 0.  1.
       -3    1    3    3    0  502 -0.11701042830E+03 -0.76461064036E+02  0.36377084011E+03  0.38970112773E+03  0.10100000352E+00 0. -1.
</event>
<event>
 5   0  0.1855407E-02  0.5003612E+03  0.7818609E-02  0.1013685E+00
        2   -1    0    0  501    0  0.00000000000E+00  0.00000000000E+00  0.10715309292E+04  0.10715309292E+04  0.25500000920E-02 0. -1.
       -2   -1    0    0    0  501  0.00000000000E+00  0.00000000000E+00 -0.58412057283E+02  0.58412057338E+02  0.25500000920E-02 0.  1.
    10030    2    1    2    0    0  0.00000000000E+00  0.00000000000E+00  0.10131188720E+04  0.11299429866E+04  0.50036117376E+03 0.  0.
        1    1    3    3  502    0 -0.15821382063E+03  0.18542083702E+03  0.63386224829E+03  0.67911254566E+03  0.50400001928E-02 0.  1.
       -1    1    3    3    0  502  0.15821382063E+03 -0.18542083702E+03  0.37925662367E+03  0.45083044092E+03  0.50400001928E-02 0. -1.
</event>
<event>
 5   0  0.1982847E-02  0.4998656E+03  0.7818609E-02  0.1013814E+00
       -2   -1    0    0    0  501  0.00000000000E+00  0.00000000000E+00  0.18850934469E+03  0.18850934471E+03  0.25500000920E-02 0. -1.
        2   -1    0    0  501    0  0.00000000000E+00  0.00000000000E+00 -0.33137031404E+03  0.33137031405E+03  0.25500000920E-02 0.  1.
    10030    2    1    2    0    0  0.00000000000E+00  0.00000000000E+00 -0.14286096935E+03  0.51987965876E+03  0.49986558496E+03 0.  0.
        2    1    3    3  502    0 -0.12735976481E+02 -0.11335833296E+03  0.15985622034E+03  0.19638311521E+03  0.25500000920E-02 0. -1.
       -2    1    3    3    0  502  0.12735976481E+02  0.11335833296E+03 -0.30271718969E+03  0.32349654356E+03  0.25500000920E-02 0.  1.
</event>
<event>
 5   0  0.1180937E-02  0.5018309E+03  0.7818609E-02  0.1013302E+00
       -1   -1    0    0    0  501  0.00000000000E+00  0.00000000000E+00  0.97877999660E+02  0.97877999789E+02  0.50400001928E-02 0.  1.
        1   -1    0    0  501    0  0.00000000000E+00  0.00000000000E+00 -0.64323514894E+03  0.64323514896E+03  0.50400001928E-02 0. -1.
    10030    2    1    2    0    0  0.00000000000E+00  0.00000000000E+00 -0.54535714928E+03  0.74111314875E+03  0.50183092668E+03 0.  0.
        1    1    3    3  502    0  0.93590264677E+02 -0.96738543562E+02 -0.58540541613E+03  0.60068043477E+03  0.50400001928E-02 0. -1.
       -1    1    3    3    0  502 -0.93590264677E+02  0.96738543562E+02  0.40048266851E+02  0.14043271398E+03  0.50400001928E-02 0.  1.
</event>
<event>
 5   0  0.1967813E-02  0.4996103E+03  0.7818609E-02  0.1013881E+00
       -2   -1    0    0    0  501  0.00000000000E+00  0.00000000000E+00  0.78446463292E+02  0.78446463333E+02  0.25500000920E-02 0. -1.
        2   -1    0    0  501    0  0.00000000000E+00  0.00000000000E+00 -0.79548024039E+03  0.79548024039E+03  0.25500000920E-02 0.  1.
    10030    2    1    2    0    0  0.00000000000E+00  0.00000000000E+00 -0.71703377709E+03  0.87392670372E+03  0.49961029412E+03 0.  0.
        5    1    3    3  502    0  0.29121093050E+00  0.88807808505E+02  0.49817936697E+02  0.10193541323E+03  0.46999998093E+01 0. -1.
       -5    1    3    3    0  502 -0.29121093050E+00 -0.88807808505E+02 -0.76685171379E+03  0.77199129049E+03  0.46999998093E+01 0.  1.
</event>
<event>
 5   0  0.1982847E-02  0.4999036E+03  0.7818609E-02  0.1013804E+00
        2   -1    0    0  501    0  0.00000000000E+00  0.00000000000E+00  0.42344524532E+03  0.42344524533E+03  0.25500000920E-02 0.  1.
       -2   -1    0    0    0  501  0.00000000000E+00  0.00000000000E+00 -0.14754187106E+03  0.14754187109E+03  0.25500000920E-02 0. -1.
    10030    2    1    2    0    0  0.00000000000E+00  0.00000000000E+00  0.27590337426E+03  0.57098711641E+03  0.49990360589E+03 0.  0.
        2    1    3    3  502    0  0.38387959357E+02  0.21181972998E+03  0.28303587668E+03  0.35559884832E+03  0.25500000920E-02 0.  1.
       -2    1    3    3    0  502 -0.38387959357E+02 -0.21181972998E+03 -0.71325024259E+01  0.21538826809E+03  0.25500000920E-02 0. -1.
</event>
<event>
 5   0  0.1180937E-02  0.5007903E+03  0.7818609E-02  0.1013573E+00
        1   -1    0    0  501    0  0.00000000000E+00  0.00000000000E+00  0.10216553832E+04  0.10216553833E+04  0.50400001928E-02 0.  1.
       -1   -1    0    0    0  501  0.00000000000E+00  0.00000000000E+00 -0.61368765670E+02  0.61368765877E+02  0.50400001928E-02 0. -1.
    10030    2    1    2    0    0  0.00000000000E+00  0.00000000000E+00  0.96028661758E+03  0.10830241491E+04  0.50079029515E+03 0.  0.
        1    1    3    3  502    0  0.50302923104E+02 -0.74043106196E+02 -0.25583763674E+02  0.93098306306E+02  0.50400001928E-02 0. -1.
       -1    1    3    3    0  502 -0.50302923104E+02  0.74043106196E+02  0.98587038125E+03  0.98992584283E+03  0.50400001928E-02 0.  1.
</event>
<event>
 5   0  0.1967813E-02  0.4967501E+03  0.7818609E-02  0.1014631E+00
       -2   -1    0    0    0  501  0.00000000000E+00  0.00000000000E+00  0.14302847024E+03  0.14302847026E+03  0.25500000920E-02 0. -1.
        2   -1    0    0  501    0  0.00000000000E+00  0.00000000000E+00 -0.43131381505E+03  0.43131381506E+03  0.25500000920E-02 0.  1.
    10030    2    1    2    0    0  0.00000000000E+00  0.00000000000E+00 -0.28828534482E+03  0.57434228532E+03  0.49675005855E+03 0.  0.
        5    1    3    3  502    0 -0.52092657374E+02 -0.21874383582E+03 -0.26598634724E+03  0.34832935216E+03  0.46999998093E+01 0.  1.
       -5    1    3    3    0  502  0.52092657374E+02  0.21874383582E+03 -0.22298997578E+02  0.22601293316E+03  0.46999998093E+01 0. -1.
</event>
<event>
 5   0  0.1967813E-02  0.5001671E+03  0.7818609E-02  0.1013735E+00
        2   -1    0    0  501    0  0.00000000000E+00  0.00000000000E+00  0.98421012963E+03  0.98421012963E+03  0.25500000920E-02 0.  1.
       -2   -1    0    0    0  501  0.00000000000E+00  0.00000000000E+00 -0.63545146845E+02  0.63545146897E+02  0.25500000920E-02 0. -1.
    10030    2    1    2    0    0  0.00000000000E+00  0.00000000000E+00  0.92066498278E+03  0.10477552765E+04  0.50016708105E+03 0.  0.
        5    1    3    3  502    0 -0.10594516756E+02 -0.15593333535E+02 -0.61961759723E+02  0.64936472820E+02  0.46999998093E+01 0. -1.
       -5    1    3    3    0  502  0.10594516756E+02  0.15593333535E+02  0.98262674251E+03  0.98281880371E+03  0.46999998093E+01 0.  1.
</event>
<event>
 5   0  0.8012875E-03  0.4990216E+03  0.7818609E-02  0.1014035E+00
       -3   -1    0    0    0  501  0.00000000000E+00  0.00000000000E+00  0.20299322224E+03  0.20299324737E+03  0.10100000352E+00 0.  1.
        3   -1    0    0  501    0  0.00000000000E+00  0.00000000000E+00 -0.30668819633E+03  0.30668821296E+03  0.10100000352E+00 0. -1.
    10030    2    1    2    0    0  0.00000000000E+00  0.00000000000E+00 -0.10369497409E+03  0.50968146032E+03  0.49902158605E+03 0.  0.
        5    1    3    3  502    0  0.65497838554E+02 -0.12454622296E+03 -0.26223759699E+03  0.29764471402E+03  0.46999998093E+01 0. -1.
       -5    1    3    3    0  502 -0.65497838554E+02  0.12454622296E+03  0.15854262290E+03  0.21203674631E+03  0.46999998093E+01 0.  1.
</event>
<event>
 5   0  0.1923706E-02  0.5005300E+03  0.7818609E-02  0.1013641E+00
       -2   -1    0    0    0  501  0.00000000000E+00  0.00000000000E+00  0.39502615121E+03  0.39502615122E+03  0.25500000920E-02 0.  1.
        2   -1    0    0  501    0  0.00000000000E+00  0.00000000000E+00 -0.15855300090E+03  0.15855300092E+03  0.25500000920E-02 0. -1.
    10030    2    1    2    0    0  0.00000000000E+00  0.00000000000E+00  0.23647315032E+03  0.55357915214E+03  0.50053004591E+03 0.  0.
        3    1    3    3  502    0 -0.12390108812E+03  0.97815245197E-01  0.35872450194E+03  0.37951912692E+03  0.10100000352E+00 0.  1.
       -3    1    3    3    0  502  0.12390108812E+03 -0.97815245197E-01 -0.12225135162E+03  0.17406002522E+03  0.10100000352E+00 0. -1.
</event>
<event>
 5   0  0.8012875E-03  0.4978288E+03  0.7818609E-02  0.1014347E+00
       -4   -1    0    0    0  501  0.00000000000E+00  0.00000000000E+00  0.15119806791E+03  0.15120340155E+03  0.12699999809E+01 0. -1.
        4   -1    0    0  501    0  0.00000000000E+00  0.00000000000E+00 -0.40976940002E+03  0.40977136807E+03  0.12699999809E+01 0.  1.
    10030    2    1    2    0    0  0.00000000000E+00  0.00000000000E+00 -0.25857133211E+03  0.56097476962E+03  0.49782884444E+03 0.  0.
        4    1    3    3  502    0  0.83772335275E+02  0.11426502923E+03 -0.35989636118E+03  0.38678327879E+03  0.12699999809E+01 0.  1.
       -4    1    3    3    0  502 -0.83772335275E+02 -0.11426502923E+03  0.10132502906E+03  0.17419149083E+03  0.12699999809E+01 0. -1.
</event>
<event>
 5   0  0.1227864E-02  0.4953085E+03  0.7818609E-02  0.1015011E+00
       -1   -1    0    0    0  501  0.00000000000E+00  0.00000000000E+00  0.13691936062E+03  0.13691936071E+03  0.50400001928E-02 0. -1.
        1   -1    0    0  501    0  0.00000000000E+00  0.00000000000E+00 -0.44794702587E+03  0.44794702590E+03  0.50400001928E-02 0.  1.
    10030    2    1    2    0    0  0.00000000000E+00  0.00000000000E+00 -0.31102766525E+03  0.58486638661E+03  0.49530847120E+03 0.  0.
        5    1    3    3  502    0 -0.13180278268E+03  0.20883285753E+03 -0.13414815851E+03  0.28107108413E+03  0.46999998093E+01 0. -1.
       -5    1    3    3    0  502  0.13180278268E+03 -0.20883285753E+03 -0.17687950674E+03  0.30379530248E+03  0.46999998093E+01 0.  1.
</event>
<event>
 5   0  0.1982847E-02  0.4994560E+03  0.7818609E-02  0.1013921E+00
        2   -1    0    0  501    0  0.00000000000E+00  0.00000000000E+00  0.53818699658E+03  0.53818699659E+03  0.25500000920E-02 0. -1.
       -2   -1    0    0    0  501  0.00000000000E+00  0.00000000000E+00 -0.11587805624E+03  0.11587805626E+03  0.25500000920E-02 0.  1.
    10030    2    1    2    0    0  0.00000000000E+00  0.00000000000E+00  0.42230894035E+03  0.65406505285E+03  0.49945595628E+03 0.  0.
        2    1    3    3  502    0  0.20586645215E+03 -0.12589256086E+03  0.29535519228E+03  0.38139824674E+03  0.25500000920E-02 0. -1.
       -2    1    3    3    0  502 -0.20586645215E+03  0.12589256086E+03  0.12695374807E+03  0.27266680612E+03  0.25500000920E-02 0.  1.
</event>
<event>
 5   0  0.1855407E-02  0.4996365E+03  0.7818609E-02  0.1013874E+00
        2   -1    0    0  501    0  0.00000000000E+00  0.00000000000E+00  0.91787860215E+03  0.91787860216E+03  0.25500000920E-02 0. -1.
       -2   -1    0    0    0  501  0.00000000000E+00  0.00000000000E+00 -0.67992811016E+02  0.67992811063E+02  0.25500000920E-02 0.  1.
    10030    2    1    2    0    0  0.00000000000E+00  0.00000000000E+00  0.84988579114E+03  0.98587141322E+03  0.49963645326E+03 0.  0.
        1    1    3    3  502    0 -0.20224328612E+03 -0.31557507333E+02  0.14235161197E+03  0.24932349369E+03  0.50400001928E-02 0.  1.
       -1    1    3    3    0  502  0.20224328612E+03  0.31557507333E+02  0.70753417917E+03  0.73654791953E+03  0.50400001928E-02 0. -1.
</event>
<event>
 5   0  0.1217270E-02  0.4993544E+03  0.7818609E-02  0.1013948E+00
        1   -1    0    0  501    0  0.00000000000E+00  0.00000000000E+00  0.18146625099E+03  0.18146625106E+03  0.50400001928E-02 0.  1.
       -1   -1    0    0    0  501  0.00000000000E+00  0.00000000000E+00 -0.34352777256E+03  0.34352777260E+03  0.50400001928E-02 0. -1.
    10030    2    1    2    0    0  0.00000000000E+00  0.00000000000E+00 -0.16206152157E+03  0.52499402366E+03  0.49935437126E+03 0.  0.
        2    1    3    3  502    0  0.12871123430E+03  0.15196153934E+03 -0.23936147427E+03  0.31137245647E+03  0.25500000920E-02 0. -1.
       -2    1    3    3    0  502 -0.12871123430E+03 -0.15196153934E+03  0.77299952702E+02  0.21362156719E+03  0.25500000920E-02 0.  1.
</event>
<event>
 5   0  0.1180937E-02  0.4969191E+03  0.7818609E-02  0.1014586E+00
       -1   -1    0    0    0  501  0.00000000000E+00  0.00000000000E+00  0.12768073781E+03  0.12768073791E+03  0.50400001928E-02 0.  1.
        1   -1    0    0  501    0  0.00000000000E+00  0.00000000000E+00 -0.48348838778E+03  0.48348838781E+03  0.50400001928E-02 0. -1.
    10030    2    1    2    0    0  0.00000000000E+00  0.00000000000E+00 -0.35580764998E+03  0.61116912572E+03  0.49691912466E+03 0.  0.
        1    1    3    3  502    0 -0.15425912960E+02 -0.24766436269E+03 -0.16251468431E+03  0.29662538323E+03  0.50400001928E-02 0.  1.
       -1    1    3    3    0  502  0.15425912960E+02  0.24766436269E+03 -0.19329296567E+03  0.31454374249E+03  0.50400001928E-02 0. -1.
</event>
<event>
 5   0  0.1982847E-02  0.4999426E+03  0.7818609E-02  0.1013794E+00
        2   -1    0    0  501    0  0.00000000000E+00  0.00000000000E+00  0.11779329019E+04  0.11779329019E+04  0.25500000920E-02 0. -1.
       -2   -1    0    0    0  501  0.00000000000E+00  0.00000000000E+00 -0.53046862185E+02  0.53046862246E+02  0.25500000920E-02 0.  1.
    10030    2    1    2    0    0  0.00000000000E+00  0.00000000000E+00  0.11248860397E+04  0.12309797642E+04  0.49994257410E+03 0.  0.
        2    1    3    3  502    0 -0.16648436473E+03 -0.18439895875E+03  0.63057307610E+03  0.67774805348E+03  0.25500000920E-02 0. -1.
       -2    1    3    3    0  502  0.16648436473E+03  0.18439895875E+03  0.49431296362E+03  0.55323171068E+03  0.25500000920E-02 0.  1.
</event>
<event>
 5   0  0.1180937E-02  0.4947777E+03  0.7818609E-02  0.1015151E+00
        1   -1    0    0  501    0  0.00000000000E+00  0.00000000000E+00  0.32507937006E+03  0.32507937010E+03  0.50400001928E-02 0.  1.
       -1   -1    0    0    0  501  0.00000000000E+00  0.00000000000E+00 -0.18826553448E+03  0.18826553455E+03  0.50400001928E-02 0. -1.
    10030    2    1    2    0    0  0.00000000000E+00  0.00000000000E+00  0.13681383558E+03  0.51334490465E+03  0.49477769303E+03 0.  0.
        1    1    3    3  502    0  0.12585079766E+02 -0.24640147820E+03  0.49583070762E+02  0.25165562506E+03  0.50400001928E-02 0.  1.
       -1    1    3    3    0  502 -0.12585079766E+02  0.24640147820E+03  0.87230764817E+02  0.26168927959E+03  0.50400001928E-02 0. -1.
</event>
<event>
 5   0  0.1209831E-02  0.5005125E+03  0.7818609E-02  0.1013645E+00
        1   -1    0    0  501    0  0.00000000000E+00  0.00000000000E+00  0.20212127551E+03  0.20212127557E+03  0.50400001928E-02 0.  1.
       -1   -1    0    0    0  501  0.00000000000E+00  0.00000000000E+00 -0.30985455850E+03  0.30985455854E+03  0.50400001928E-02 0. -1.
    10030    2    1    2    0    0  0.00000000000E+00  0.00000000000E+00 -0.10773328299E+03  0.51197583412E+03  0.50051253177E+03 0.  0.
        4    1    3    3  502    0 -0.13646046315E+03  0.16507347947E+03 -0.18627580763E+03  0.28385031449E+03  0.12699999809E+01 0. -1.
       -4    1    3    3    0  502  0.13646046315E+03 -0.16507347947E+03  0.78542524637E+02  0.22812551963E+03  0.12699999809E+01 0.  1.
</event>
<event>
 5   0  0.1217270E-02  0.4998961E+03  0.7818609E-02  0.1013806E+00
        1   -1    0    0  501    0  0.00000000000E+00  0.00000000000E+00  0.19107806989E+03  0.19107806995E+03  0.50400001928E-02 0.  1.
       -1   -1    0    0    0  501  0.00000000000E+00  0.00000000000E+00 -0.32695556998E+03  0.32695557002E+03  0.50400001928E-02 0. -1.
    10030    2    1    2    0    0  0.00000000000E+00  0.00000000000E+00 -0.13587750009E+03  0.51803363997E+03  0.49989614632E+03 0.  0.
        2    1    3    3  502    0 -0.14018711484E+03 -0.40514935825E+02  0.14235295731E+03  0.20385841080E+03  0.25500000920E-02 0.  1.
       -2    1    3    3    0  502  0.14018711484E+03  0.40514935825E+02 -0.27823045740E+03  0.31417522917E+03  0.25500000920E-02 0. -1.
</event>
<event>
 5   0  0.1941387E-02  0.4969506E+03  0.7818609E-02  0.1014578E+00
        2   -1    0    0  501    0  0.00000000000E+00  0.00000000000E+00  0.60249735277E+03  0.60249735277E+03  0.25500000920E-02 0. -1.
       -2   -1    0    0    0  501  0.00000000000E+00  0.00000000000E+00 -0.10247343112E+03  0.10247343115E+03  0.25500000920E-02 0.  1.
    10030    2    1    2    0    0  0.00000000000E+00  0.00000000000E+00  0.50002392165E+03  0.70497078392E+03  0.49695058503E+03 0.  0.
        4    1    3    3  502    0  0.25877046423E+02 -0.17376236797E+03  0.74538919272E+00  0.17568480458E+03  0.12699999809E+01 0.  1.
       -4    1    3    3    0  502 -0.25877046423E+02  0.17376236797E+03  0.49927853246E+03  0.52928597934E+03  0.12699999809E+01 0. -1.
</event>
<event>
 5   0  0.1967813E-02  0.4992972E+03  0.7818609E-02  0.1013963E+00
        2   -1    0    0  501    0  0.00000000000E+00  0.00000000000E+00  0.18258686099E+03  0.18258686100E+03  0.25500000920E-02 0.  1.
       -2   -1    0    0    0  501  0.00000000000E+00  0.00000000000E+00 -0.34134128896E+03  0.34134128897E+03  0.25500000920E-02 0. -1.
    10030    2    1    2    0    0  0.00000000000E+00  0.00000000000E+00 -0.15875442797E+03  0.52392814997E+03  0.49929724407E+03 0.  0.
        5    1    3    3  502    0  0.15492860320E+03 -0.13491861777E+03 -0.22813240108E+03  0.30703808874E+03  0.46999998093E+01 0. -1.
       -5    1    3    3    0  502 -0.15492860320E+03  0.13491861777E+03  0.69377973113E+02  0.21689006124E+03  0.46999998093E+01 0.  1.
</event>
<event>
 5   0  0.1941387E-02  0.5001414E+03  0.7818609E-02  0.1013742E+00
        2   -1    0    0  501    0  0.00000000000E+00  0.00000000000E+00  0.19133279175E+03  0.19133279177E+03  0.25500000920E-02 0. -1.
       -2   -1    0    0    0  501  0.00000000000E+00  0.00000000000E+00 -0.32684072461E+03  0.32684072462E+03  0.25500000920E-02 0.  1.
    10030    2    1    2    0    0  0.00000000000E+00  0.00000000000E+00 -0.13550793286E+03  0.51817351639E+03  0.50014137323E+03 0.  0.
        4    1    3    3  502    0  0.14208445776E+03 -0.13064483679E+02  0.14501598423E+03  0.20344513376E+03  0.12699999809E+01 0. -1.
       -4    1    3    3    0  502 -0.14208445776E+03  0.13064483679E+02 -0.28052391709E+03  0.31472838263E+03  0.12699999809E+01 0.  1.
</event>
<event>
 5   0  0.1855407E-02  0.5001508E+03  0.7818609E-02  0.1013740E+00
       -2   -1    0    0    0  501  0.00000000000E+00  0.00000000000E+00  0.60423709838E+02  0.60423709892E+02  0.25500000920E-02 0. -1.
        2   -1    0    0  501    0  0.00000000000E+00  0.00000000000E+00 -0.10349861766E+04  0.10349861766E+04  0.25500000920E-02 0.  1.
    10030    2    1    2    0    0  0.00000000000E+00  0.00000000000E+00 -0.97456246678E+03  0.10954098865E+04  0.50015079507E+03 0.  0.
        1    1    3    3  502    0  0.63342235358E+02  0.23426237971E+02  0.40072897961E+02  0.78529386742E+02  0.50400001928E-02 0. -1.
       -1    1    3    3    0  502 -0.63342235358E+02 -0.23426237971E+02 -0.10146353647E+04  0.10168804998E+04  0.50400001928E-02 0.  1.
</event>
<event>
 5   0  0.1967813E-02  0.4879921E+03  0.7818609E-02  0.1016962E+00
       -2   -1    0    0    0  501  0.00000000000E+00  0.00000000000E+00  0.17694365347E+03  0.17694365349E+03  0.25500000920E-02 0.  1.
        2   -1    0    0  501    0  0.00000000000E+00  0.00000000000E+00 -0.33645786458E+03  0.33645786459E+03  0.25500000920E-02 0. -1.
    10030    2    1    2    0    0  0.00000000000E+00  0.00000000000E+00 -0.15951421111E+03  0.51340151808E+03  0.48799214668E+03 0.  0.
        5    1    3    3  502    0  0.51833249280E+02 -0.10722927231E+03  0.14423036207E+03  0.18710769603E+03  0.46999998093E+01 0.  1.
       -5    1    3    3    0  502 -0.51833249280E+02  0.10722927231E+03 -0.30374457318E+03  0.32629382205E+03  0.46999998093E+01 0. -1.
</event>
<event>
 5   0  0.1923706E-02  0.4996197E+03  0.7818609E-02  0.1013878E+00
        2   -1    0    0  501    0  0.00000000000E+00  0.00000000000E+00  0.73302364865E+03  0.73302364866E+03  0.25500000920E-02 0.  1.
       -2   -1    0    0    0  501  0.00000000000E+00  0.00000000000E+00 -0.85133623655E+02  0.85133623694E+02  0.25500000920E-02 0. -1.
    10030    2    1    2    0    0  0.00000000000E+00  0.00000000000E+00  0.64789002500E+03  0.81815727235E+03  0.49961969318E+03 0.  0.
        3    1    3    3  502    0 -0.57776417869E+02 -0.23320935323E+03  0.21191588489E+03  0.32036396390E+03  0.10100000352E+00 0.  1.
       -3    1    3    3    0  502  0.57776417869E+02  0.23320935323E+03  0.43597414010E+03  0.49779330845E+03  0.10100000352E+00 0. -1.
</event>
<event>
 5   0  0.1941387E-02  0.5004007E+03  0.7818609E-02  0.1013674E+00
       -2   -1    0    0    0  501  0.00000000000E+00  0.00000000000E+00  0.43833910817E+02  0.43833910891E+02  0.25500000920E-02 0.  1.
        2   -1    0    0  501    0  0.00000000000E+00  0.00000000000E+00 -0.14281231618E+04  0.14281231618E+04  0.25500000920E-02 0. -1.
    10030    2    1    2    0    0  0.00000000000E+00  0.00000000000E+00 -0.13842892510E+04  0.14719570727E+04  0.50040073288E+03 0.  0.
        4    1    3    3  502    0  0.23539368222E+03 -0.65087289032E+02 -0.53232117341E+03  0.58567395826E+03  0.12699999809E+01 0.  1.
       -4    1    3    3    0  502 -0.23539368222E+03  0.65087289032E+02 -0.85196807759E+03  0.88628311445E+03  0.12699999809E+01 0. -1.
</event>
<event>
 5   0  0.1180937E-02  0.5009104E+03  0.7818609E-02  0.1013542E+00
       -1   -1    0    0    0  501  0.00000000000E+00  0.00000000000E+00  0.13610505406E+03  0.13610505415E+03  0.50400001928E-02 0.  1.
        1   -1    0    0  501    0  0.00000000000E+00  0.00000000000E+00 -0.46087795236E+03  0.46087795239E+03  0.50400001928E-02 0. -1.
    10030    2    1    2    0    0  0.00000000000E+00  0.00000000000E+00 -0.32477289830E+03  0.59698300654E+03  0.50091044572E+03 0.  0.
        1    1    3    3  502    0  0.11600379041E+03 -0.19985531786E+03 -0.47276048350E+02  0.23586871823E+03  0.50400001928E-02 0.  1.
       -1    1    3    3    0  502 -0.11600379041E+03  0.19985531786E+03 -0.27749684995E+03  0.36111428831E+03  0.50400001928E-02 0. -1.
</event>
<event>
 5   0  0.1217270E-02  0.5002455E+03  0.7818609E-02  0.1013715E+00
       -1   -1    0    0    0  501  0.00000000000E+00  0.00000000000E+00  0.36713922746E+02  0.36713923092E+02  0.50400001928E-02 0.  1.
        1   -1    0    0  501    0  0.00000000000E+00  0.00000000000E+00 -0.17040237152E+04  0.17040237152E+04  0.50400001928E-02 0. -1.
    10030    2    1    2    0    0  0.00000000000E+00  0.00000000000E+00 -0.16673097924E+04  0.17407376383E+04  0.50024552109E+03 0.  0.
        2    1    3    3  502    0 -0.13301559854E+03  0.20517097890E+03 -0.65040907725E+03  0.69485268065E+03  0.25500000920E-02 0. -1.
       -2    1    3    3    0  502  0.13301559854E+03 -0.20517097890E+03 -0.10169007152E+04  0.10458849576E+04  0.25500000920E-02 0.  1.
</event>
<event>
 5   0  0.1225989E-02  0.4992287E+03  0.7818609E-02  0.1013980E+00
        1   -1    0    0  501    0  0.00000000000E+00  0.00000000000E+00  0.44781917245E+03  0.44781917248E+03  0.50400001928E-02 0. -1.
       -1   -1    0    0    0  501  0.00000000000E+00  0.00000000000E+00 -0.13913498945E+03  0.13913498954E+03  0.50400001928E-02 0.  1.
    10030    2    1    2    0    0  0.00000000000E+00  0.00000000000E+00  0.30868418300E+03  0.58695416202E+03  0.49922866852E+03 0.  0.
        3    1    3    3  502    0  0.11956650777E+03 -0.21878865507E+03  0.14029822561E+03  0.28609129256E+03  0.10100000352E+00 0.  1.
       -3    1    3    3    0  502 -0.11956650777E+03  0.21878865507E+03  0.16838595740E+03  0.30086286946E+03  0.10100000352E+00 0. -1.
</event>
<event>
 5   0  0.1941387E-02  0.4997537E+03  0.7818609E-02  0.1013843E+00
       -2   -1    0    0    0  501  0.00000000000E+00  0.00000000000E+00  0.36229373426E+03  0.36229373427E+03  0.25500000920E-02 0. -1.
        2   -1    0    0  501    0  0.00000000000E+00  0.00000000000E+00 -0.17234204535E+03  0.17234204537E+03  0.25500000920E-02 0.  1.
    10030    2    1    2    0    0  0.00000000000E+00  0.00000000000E+00  0.18995168891E+03  0.53463577964E+03  0.49975371210E+03 0.  0.
        4    1    3    3  502    0  0.11449942286E+03  0.86534805938E+02  0.31379721392E+03  0.34506332004E+03  0.12699999809E+01 0. -1.
       -4    1    3    3    0  502 -0.11449942286E+03 -0.86534805938E+02 -0.12384552501E+03  0.18957245960E+03  0.12699999809E+01 0.  1.
</event>
<event>
 5   0  0.1209831E-02  0.4995392E+03  0.7818609E-02  0.1013899E+00
        1   -1    0    0  501    0  0.00000000000E+00  0.00000000000E+00  0.16976295078E+03  0.16976295085E+03  0.50400001928E-02 0. -1.
       -1   -1    0    0    0  501  0.00000000000E+00  0.00000000000E+00 -0.36748212784E+03  0.36748212787E+03  0.50400001928E-02 0.  1.
    10030    2    1    2    0    0  0.00000000000E+00  0.00000000000E+00 -0.19771917706E+03  0.53724507872E+03  0.49953918929E+03 0.  0.
        4    1    3    3  502    0 -0.21793228429E+03  0.80529173935E+02 -0.26774871564E+00  0.23233835882E+03  0.12699999809E+01 0. -1.
       -4    1    3    3    0  502  0.21793228429E+03 -0.80529173935E+02 -0.19745142834E+03  0.30490671991E+03  0.12699999809E+01 0.  1.
</event>
<event>
 5   0  0.1227864E-02  0.4943086E+03  0.7818609E-02  0.1015275E+00
       -1   -1    0    0    0  501  0.00000000000E+00  0.00000000000E+00  0.10415937951E+03  0.10415937963E+03  0.50400001928E-02 0. -1.
        1   -1    0    0  501    0  0.00000000000E+00  0.00000000000E+00 -0.58645948010E+03  0.58645948012E+03  0.50400001928E-02 0.  1.
    10030    2    1    2    0    0  0.00000000000E+00  0.00000000000E+00 -0.48230010059E+03  0.69061885975E+03  0.49430863073E+03 0.  0.
        5    1    3    3  502    0 -0.23458528558E+03 -0.58214498014E+01 -0.13293681044E+03  0.26973770789E+03  0.46999998093E+01 0. -1.
       -5    1    3    3    0  502  0.23458528558E+03  0.58214498014E+01 -0.34936329015E+03  0.42088115186E+03  0.46999998093E+01 0.  1.
</event>
<event>
 5   0  0.1209831E-02  0.5004557E+03  0.7818609E-02  0.1013660E+00
        1   -1    0    0  501    0  0.00000000000E+00  0.00000000000E+00  0.19776868002E+03  0.19776868009E+03  0.50400001928E-02 0. -1.
       -1   -1    0    0    0  501  0.00000000000E+00  0.00000000000E+00 -0.31660208309E+03  0.31660208313E+03  0.50400001928E-02 0.  1.
    10030    2    1    2    0    0  0.00000000000E+00  0.00000000000E+00 -0.11883340307E+03  0.51437076322E+03  0.50045569671E+03 0.  0.
        4    1    3    3  502    0  0.28664544009E+02  0.20895077820E+03  0.78975904221E+02  0.22521298839E+03  0.12699999809E+01 0. -1.
       -4    1    3    3    0  502 -0.28664544009E+02 -0.20895077820E+03 -0.19780930729E+03  0.28915777483E+03  0.12699999809E+01 0.  1.
</event>
<event>
 5   0  0.1217270E-02  0.5014637E+03  0.7818609E-02  0.1013398E+00
        1   -1    0    0  501    0  0.00000000000E+00  0.00000000000E+00  0.50065711498E+03  0.50065711501E+03  0.50400001928E-02 0.  1.
       -1   -1    0    0    0  501  0.00000000000E+00  0.00000000000E+00 -0.12556789107E+03  0.12556789118E+03  0.50400001928E-02 0. -1.
    10030    2    1    2    0    0  0.00000000000E+00  0.00000000000E+00  0.37508922391E+03  0.62622500618E+03  0.50146369009E+03 0.  0.
        2    1    3    3  502    0  0.62812612550E+02  0.15493462134E+01  0.49066646403E+03  0.49467302706E+03  0.25500000920E-02 0.  1.
       -2    1    3    3    0  502 -0.62812612550E+02 -0.15493462134E+01 -0.11557724013E+03  0.13155197912E+03  0.25500000920E-02 0. -1.
</event>
<event>
 5   0  0.1967813E-02  0.5015632E+03  0.7818609E-02  0.1013372E+00
        2   -1    0    0  501    0  0.00000000000E+00  0.00000000000E+00  0.17377853079E+04  0.17377853079E+04  0.25500000920E-02 0.  1.
       -2   -1    0    0    0  501  0.00000000000E+00  0.00000000000E+00 -0.36190547097E+02  0.36190547187E+02  0.25500000920E-02 0. -1.
    10030    2    1    2    0    0  0.00000000000E+00  0.00000000000E+00  0.17015947608E+04  0.17739758551E+04  0.50156316097E+03 0.  0.
        5    1    3    3  502    0 -0.39979534351E+01  0.13066084978E+03  0.16075693581E+04  0.16128823802E+04  0.46999998093E+01 0.  1.
       -5    1    3    3    0  502  0.39979534351E+01 -0.13066084978E+03  0.94025402715E+02  0.16109347489E+03  0.46999998093E+01 0. -1.
</event>
<event>
 5   0  0.1941387E-02  0.5017898E+03  0.7818609E-02  0.1013313E+00
       -2   -1    0    0    0  501  0.00000000000E+00  0.00000000000E+00  0.18579947977E+03  0.18579947979E+03  0.25500000920E-02 0. -1.
        2   -1    0    0  501    0  0.00000000000E+00  0.00000000000E+00 -0.33879674785E+03  0.33879674786E+03  0.25500000920E-02 0.  1.
    10030    2    1    2    0    0  0.00000000000E+00  0.00000000000E+00 -0.15299726808E+03  0.52459622765E+03  0.50178983452E+03 0.  0.
        4    1    3    3  502    0 -0.53601408652E+02 -0.80784269869E+02 -0.31841912210E+03  0.33285366077E+03  0.12699999809E+01 0.  1.
       -4    1    3    3    0  502  0.53601408652E+02  0.80784269869E+02  0.16542185402E+03  0.19174256688E+03  0.12699999809E+01 0. -1.
</event>
<event>
 5   0  0.1225989E-02  0.4854072E+03  0.7818609E-02  0.1017660E+00
       -1   -1    0    0    0  501  0.00000000000E+00  0.00000000000E+00  0.48716352851E+02  0.48716353112E+02  0.50400001928E-02 0. -1.
        1   -1    0    0  501    0  0.00000000000E+00  0.00000000000E+00 -0.12091429013E+04  0.12091429014E+04  0.50400001928E-02 0.  1.
    10030    2    1    2    0    0  0.00000000000E+00  0.00000000000E+00 -0.11604265485E+04  0.12578592545E+04  0.48540717918E+03 0.  0.
        3    1    3    3  502    0  0.10961555620E+03  0.19195661966E+02 -0.21292470390E+02  0.11330235256E+03  0.10100000352E+00 0. -1.
       -3    1    3    3    0  502 -0.10961555620E+03 -0.19195661966E+02 -0.11391340781E+04  0.11445569019E+04  0.10100000352E+00 0.  1.
</event>
<event>
 5   0  0.8012875E-03  0.4998601E+03  0.7818609E-02  0.1013815E+00
       -4   -1    0    0    0  501  0.00000000000E+00  0.00000000000E+00  0.12635648118E+03  0.12636286336E+03  0.12699999809E+01 0. -1.
        4   -1    0    0  501    0  0.00000000000E+00  0.00000000000E+00 -0.49433588873E+03  0.49433752011E+03  0.12699999809E+01 0.  1.
    10030    2    1    2    0    0  0.00000000000E+00  0.00000000000E+00 -0.36797940755E+03  0.62070038347E+03  0.49986010209E+03 0.  0.
        4    1    3    3  502    0 -0.14989833554E+03 -0.17809306008E+03 -0.29695991570E+03  0.37732406957E+03  0.12699999809E+01 0. -1.
       -4    1    3    3    0  502  0.14989833554E+03  0.17809306008E+03 -0.71019491852E+02  0.24337631390E+03  0.12699999809E+01 0.  1.
</event>
<event>
 5   0  0.1941387E-02  0.4995975E+03  0.7818609E-02  0.1013884E+00
       -2   -1    0    0    0  501  0.00000000000E+00  0.00000000000E+00  0.32702904607E+03  0.32702904608E+03  0.25500000920E-02 0. -1.
        2   -1    0    0  501    0  0.00000000000E+00  0.00000000000E+00 -0.19080693368E+03  0.19080693370E+03  0.25500000920E-02 0.  1.
    10030    2    1    2    0    0  0.00000000000E+00  0.00000000000E+00  0.13622211239E+03  0.51783597978E+03  0.49959747603E+03 0.  0.
        4    1    3    3  502    0  0.64189487478E+02  0.17903879459E+03  0.23595667023E+03  0.30307151532E+03  0.12699999809E+01 0. -1.
       -4    1    3    3    0  502 -0.64189487478E+02 -0.17903879459E+03 -0.99734557840E+02  0.21476446447E+03  0.12699999809E+01 0.  1.
</event>
<event>
 5   0  0.1209831E-02  0.5010604E+03  0.7818609E-02  0.1013503E+00
        1   -1    0    0  501    0  0.00000000000E+00  0.00000000000E+00  0.36300454088E+03  0.36300454092E+03  0.50400001928E-02 0.  1.
       -1   -1    0    0    0  501  0.00000000000E+00  0.00000000000E+00 -0.17290520209E+03  0.17290520217E+03  0.50400001928E-02 0. -1.
    10030    2    1    2    0    0  0.00000000000E+00  0.00000000000E+00  0.19009933879E+03  0.53590974309E+03  0.50106036974E+03 0.  0.
        4    1    3    3  502    0 -0.16345522646E+03 -0.14110590797E+03  0.23090908679E+03  0.31614728780E+03  0.12699999809E+01 0.  1.
       -4    1    3    3    0  502  0.16345522646E+03  0.14110590797E+03 -0.40809748004E+02  0.21976245528E+03  0.12699999809E+01 0. -1.
</event>
<event>
 5   0  0.1855407E-02  0.5000820E+03  0.7818609E-02  0.1013758E+00
       -2   -1    0    0    0  501  0.00000000000E+00  0.00000000000E+00  0.12018931137E+03  0.12018931139E+03  0.25500000920E-02 0. -1.
        2   -1    0    0  501    0  0.00000000000E+00  0.00000000000E+00 -0.52018361189E+03  0.52018361190E+03  0.25500000920E-02 0.  1.
    10030    2    1    2    0    0  0.00000000000E+00  0.00000000000E+00 -0.39999430053E+03  0.64037292329E+03  0.50008203370E+03 0.  0.
        1    1    3    3  502    0 -0.29549000638E+02 -0.12325999000E+03  0.76000168216E+02  0.14779104901E+03  0.50400001928E-02 0. -1.
       -1    1    3    3    0  502  0.29549000638E+02  0.12325999000E+03 -0.47599446874E+03  0.49258187428E+03  0.50400001928E-02 0.  1.
</event>
<event>
 5   0  0.1209831E-02  0.5002073E+03  0.7818609E-02  0.1013725E+00
       -1   -1    0    0    0  501  0.00000000000E+00  0.00000000000E+00  0.62827415196E+02  0.62827415398E+02  0.50400001928E-02 0.  1.
        1   -1    0    0  501    0  0.00000000000E+00  0.00000000000E+00 -0.99561356782E+03  0.99561356783E+03  0.50400001928E-02 0. -1.
    10030    2    1    2    0    0  0.00000000000E+00  0.00000000000E+00 -0.93278615262E+03  0.10584409832E+04  0.50020726550E+03 0.  0.
        4    1    3    3  502    0 -0.18164269377E+03  0.87341228856E+02 -0.77973085065E+03  0.80535977725E+03  0.12699999809E+01 0. -1.
       -4    1    3    3    0  502  0.18164269377E+03 -0.87341228856E+02 -0.15305530198E+03  0.25308120598E+03  0.12699999809E+01 0.  1.
</event>
<event>
 5   0  0.1180937E-02  0.5005334E+03  0.7818609E-02  0.1013640E+00
       -1   -1    0    0    0  501  0.00000000000E+00  0.00000000000E+00  0.10505804119E+03  0.10505804131E+03  0.50400001928E-02 0.  1.
        1   -1    0    0  501    0  0.00000000000E+00  0.00000000000E+00 -0.59617931621E+03  0.59617931623E+03  0.50400001928E-02 0. -1.
    10030    2    1    2    0    0  0.00000000000E+00  0.00000000000E+00 -0.49112127502E+03  0.70123735754E+03  0.50053344027E+03 0.  0.
        1    1    3    3  502    0  0.10579581022E+03 -0.13284108117E+03  0.11983260144E+02  0.17024425058E+03  0.50400001928E-02 0.  1.
       -1    1    3    3    0  502 -0.10579581022E+03  0.13284108117E+03 -0.50310453516E+03  0.53099310695E+03  0.50400001928E-02 0. -1.
</event>
<event>
 5   0  0.1923706E-02  0.5005260E+03  0.7818609E-02  0.1013642E+00
        2   -1    0    0  501    0  0.00000000000E+00  0.00000000000E+00  0.95191597770E+03  0.95191597771E+03  0.25500000920E-02 0.  1.
       -2   -1    0    0    0  501  0.00000000000E+00  0.00000000000E+00 -0.65795273480E+02  0.65795273530E+02  0.25500000920E-02 0. -1.
    10030    2    1    2    0    0  0.00000000000E+00  0.00000000000E+00  0.88612070422E+03  0.10177112512E+04  0.50052601175E+03 0.  0.
        3    1    3    3  502    0  0.60194485284E+02 -0.59053737268E+02  0.92216010343E+03  0.92600755208E+03  0.10100000352E+00 0.  1.
       -3    1    3    3    0  502 -0.60194485284E+02  0.59053737268E+02 -0.36039399205E+02  0.91703699162E+02  0.10100000352E+00 0. -1.
</event>
<event>
 5   0  0.1227864E-02  0.4997360E+03  0.7818609E-02  0.1013848E+00
       -1   -1    0    0    0  501  0.00000000000E+00  0.00000000000E+00  0.41235827832E+02  0.41235828140E+02  0.50400001928E-02 0. -1.
        1   -1    0    0  501    0  0.00000000000E+00  0.00000000000E+00 -0.15140719098E+04  0.15140719098E+04  0.50400001928E-02 0.  1.
    10030    2    1    2    0    0  0.00000000000E+00  0.00000000000E+00 -0.14728360820E+04  0.15553077380E+04  0.49973596566E+03 0.  0.
        5    1    3    3  502    0 -0.32982884018E+02 -0.24185569146E+03 -0.90197947424E+03  0.93443625147E+03  0.46999998093E+01 0. -1.
       -5    1    3    3    0  502  0.32982884018E+02  0.24185569146E+03 -0.57085660774E+03  0.62087148649E+03  0.46999998093E+01 0.  1.
</event>
<event>
 5   0  0.1923706E-02  0.5012378E+03  0.7818609E-02  0.1013456E+00
        2   -1    0    0  501    0  0.00000000000E+00  0.00000000000E+00  0.94678886475E+03  0.94678886475E+03  0.25500000920E-02 0.  1.
       -2   -1    0    0    0  501  0.00000000000E+00  0.00000000000E+00 -0.66339862880E+02  0.66339862929E+02  0.25500000920E-02 0. -1.
    10030    2    1    2    0    0  0.00000000000E+00  0.00000000000E+00  0.88044900187E+03  0.10131287277E+04  0.50123784171E+03 0.  0.
        3    1    3    3  502    0  0.22719019011E+03 -0.86640500752E+02  0.56297092305E+03  0.61323586755E+03  0.10100000352E+00 0.  1.
       -3    1    3    3    0  502 -0.22719019011E+03  0.86640500752E+02  0.31747807882E+03  0.39989286013E+03  0.10100000352E+00 0. -1.
</event>
<event>
 5   0  0.1941387E-02  0.4999824E+03  0.7818609E-02  0.1013784E+00
        2   -1    0    0  501    0  0.00000000000E+00  0.00000000000E+00  0.62422778125E+03  0.62422778126E+03  0.25500000920E-02 0. -1.
       -2   -1    0    0    0  501  0.00000000000E+00  0.00000000000E+00 -0.10011666975E+03  0.10011666978E+03  0.25500000920E-02 0.  1.
    10030    2    1    2    0    0  0.00000000000E+00  0.00000000000E+00  0.52411111150E+03  0.72434445104E+03  0.49998242624E+03 0.  0.
        4    1    3    3  502    0  0.10669469556E+03 -0.18523819007E+03  0.74293908201E+02  0.22631425677E+03  0.12699999809E+01 0.  1.
       -4    1    3    3    0  502 -0.10669469556E+03  0.18523819007E+03  0.44981720330E+03  0.49803019427E+03  0.12699999809E+01 0. -1.
</event>
<event>
 5   0  0.1923706E-02  0.5021635E+03  0.7818609E-02  0.1013216E+00
        2   -1    0    0  501    0  0.00000000000E+00  0.00000000000E+00  0.12000867391E+04  0.12000867391E+04  0.25500000920E-02 0. -1.
       -2   -1    0    0    0  501  0.00000000000E+00  0.00000000000E+00 -0.52531235317E+02  0.52531235379E+02  0.25500000920E-02 0.  1.
    10030    2    1    2    0    0  0.00000000000E+00  0.00000000000E+00  0.11475555038E+04  0.12526179745E+04  0.50216347511E+03 0.  0.
        3    1    3    3  502    0 -0.46818884404E+02  0.28996478357E+02 -0.37280379129E+02  0.66502936499E+02  0.10100000352E+00 0.  1.
       -3    1    3    3    0  502  0.46818884404E+02 -0.28996478357E+02  0.11848358829E+04  0.11861150380E+04  0.10100000352E+00 0. -1.
</event>
<event>
 5   0  0.1855407E-02  0.5014481E+03  0.7818609E-02  0.1013402E+00
        2   -1    0    0  501    0  0.00000000000E+00  0.00000000000E+00  0.10689647216E+04  0.10689647216E+04  0.25500000920E-02 0.  1.
       -2   -1    0    0    0  501  0.00000000000E+00  0.00000000000E+00 -0.58806943955E+02  0.58806944010E+02  0.25500000920E-02 0. -1.
    10030    2    1    2    0    0  0.00000000000E+00  0.00000000000E+00  0.10101577776E+04  0.11277716656E+04  0.50144809703E+03 0.  0.
        1    1    3    3  502    0  0.25032304675E+03  0.53816463825E+01  0.47558668834E+03  0.53746933680E+03  0.50400001928E-02 0. -1.
       -1    1    3    3    0  502 -0.25032304675E+03 -0.53816463825E+01  0.53457108928E+03  0.59030232879E+03  0.50400001928E-02 0.  1.
</event>
<event>
 5   0  0.8012875E-03  0.5010961E+03  0.7818609E-02  0.1013493E+00
       -4   -1    0    0    0  501  0.00000000000E+00  0.00000000000E+00  0.60054583543E+03  0.60054717829E+03  0.12699999809E+01 0. -1.
        4   -1    0    0  501    0  0.00000000000E+00  0.00000000000E+00 -0.10452344597E+03  0.10453116118E+03  0.12699999809E+01 0.  1.
    10030    2    1    2    0    0  0.00000000000E+00  0.00000000000E+00  0.49602238946E+03  0.70507833947E+03  0.50109605262E+03 0.  0.
        4    1    3    3  502    0  0.55460829616E+01 -0.96212504324E+02 -0.77400217382E+02  0.12361234394E+03  0.12699999809E+01 0.  1.
       -4    1    3    3    0  502 -0.55460829616E+01  0.96212504324E+02  0.57342260684E+03  0.58146599553E+03  0.12699999809E+01 0. -1.
</event>
<event>
 5   0  0.1217270E-02  0.4995304E+03  0.7818609E-02  0.1013902E+00
        1   -1    0    0  501    0  0.00000000000E+00  0.00000000000E+00  0.51601187118E+03  0.51601187120E+03  0.50400001928E-02 0.  1.
       -1   -1    0    0    0  501  0.00000000000E+00  0.00000000000E+00 -0.12089382789E+03  0.12089382800E+03  0.50400001928E-02 0. -1.
    10030    2    1    2    0    0  0.00000000000E+00  0.00000000000E+00  0.39511804329E+03  0.63690569920E+03  0.49953038100E+03 0.  0.
        2    1    3    3  502    0 -0.11653018330E+03 -0.22087878414E+03  0.20264780547E+03  0.32160978525E+03  0.25500000920E-02 0. -1.
       -2    1    3    3    0  502  0.11653018330E+03  0.22087878414E+03  0.19247023781E+03  0.31529591395E+03  0.25500000920E-02 0.  1.
</event>
<event>
 5   0  0.1967813E-02  0.4996367E+03  0.7818609E-02  0.1013874E+00
        2   -1    0    0  501    0  0.00000000000E+00  0.00000000000E+00  0.28301004493E+03  0.28301004494E+03  0.25500000920E-02 0.  1.
       -2   -1    0    0    0  501  0.00000000000E+00  0.00000000000E+00 -0.22051940848E+03  0.22051940849E+03  0.25500000920E-02 0. -1.
    10030    2    1    2    0    0  0.00000000000E+00  0.00000000000E+00  0.62490636451E+02  0.50352945343E+03  0.49963669884E+03 0.  0.
        5    1    3    3  502    0  0.10386239669E+03 -0.17433551081E+03  0.17800563165E+03  0.26997844853E+03  0.46999998093E+01 0.  1.
       -5    1    3    3    0  502 -0.10386239669E+03  0.17433551081E+03 -0.11551499520E+03  0.23355100490E+03  0.46999998093E+01 0. -1.
</event>
<event>
 5   0  0.1209831E-02  0.5008928E+03  0.7818609E-02  0.1013546E+00
       -1   -1    0    0    0  501  0.00000000000E+00  0.00000000000E+00  0.29686570735E+03  0.29686570739E+03  0.50400001928E-02 0. -1.
        1   -1    0    0  501    0  0.00000000000E+00  0.00000000000E+00 -0.21128540294E+03  0.21128540300E+03  0.50400001928E-02 0.  1.
    10030    2    1    2    0    0  0.00000000000E+00  0.00000000000E+00  0.85580304411E+02  0.50815111039E+03  0.50089276546E+03 0.  0.
        4    1    3    3  502    0 -0.47558624045E+02 -0.15260978039E+03  0.23837969288E+03  0.28701578122E+03  0.12699999809E+01 0. -1.
       -4    1    3    3    0  502  0.47558624045E+02  0.15260978039E+03 -0.15279938847E+03  0.22113532917E+03  0.12699999809E+01 0.  1.
</event>
<event>
 5   0  0.8012875E-03  0.5001366E+03  0.7818609E-02  0.1013743E+00
        3   -1    0    0  501    0  0.00000000000E+00  0.00000000000E+00  0.59008725605E+02  0.59008812041E+02  0.10100000352E+00 0. -1.
       -3   -1    0    0    0  501  0.00000000000E+00  0.00000000000E+00 -0.10597433219E+04  0.10597433267E+04  0.10100000352E+00 0.  1.
    10030    2    1    2    0    0  0.00000000000E+00  0.00000000000E+00 -0.10007345962E+04  0.11187521387E+04  0.50013659707E+03 0.  0.
        4    1    3    3  502    0  0.98498832566E+02 -0.16204383622E+03 -0.13573095763E+03  0.23320534006E+03  0.12699999809E+01 0. -1.
       -4    1    3    3    0  502 -0.98498832566E+02  0.16204383622E+03 -0.86500363861E+03  0.88554679864E+03  0.12699999809E+01 0.  1.
</event>
<event>
 5   0  0.1209831E-02  0.4992242E+03  0.7818609E-02  0.1013982E+00
       -1   -1    0    0    0  501  0.00000000000E+00  0.00000000000E+00  0.44963628726E+02  0.44963629008E+02  0.50400001928E-02 0.  1.
        1   -1    0    0  501    0  0.00000000000E+00  0.00000000000E+00 -0.13857022799E+04  0.13857022799E+04  0.50400001928E-02 0. -1.
    10030    2    1    2    0    0  0.00000000000E+00  0.00000000000E+00 -0.13407386511E+04  0.14306659089E+04  0.49922421033E+03 0.  0.
        4    1    3    3  502    0 -0.22052268241E+03 -0.11566989123E+03 -0.62116357415E+03  0.66922012518E+03  0.12699999809E+01 0. -1.
       -4    1    3    3    0  502  0.22052268241E+03  0.11566989123E+03 -0.71957507700E+03  0.76144578372E+03  0.12699999809E+01 0.  1.
</event>
<event>
 5   0  0.1225989E-02  0.4995508E+03  0.7818609E-02  0.1013896E+00
       -1   -1    0    0    0  501  0.00000000000E+00  0.00000000000E+00  0.19358544621E+03  0.19358544627E+03  0.50400001928E-02 0.  1.
        1   -1    0    0  501    0  0.00000000000E+00  0.00000000000E+00 -0.32227495194E+03  0.32227495198E+03  0.50400001928E-02 0. -1.
    10030    2    1    2    0    0  0.00000000000E+00  0.00000000000E+00 -0.12868950573E+03  0.51586039825E+03  0.49955075978E+03 0.  0.
        3    1    3    3  502    0 -0.80044491933E+02 -0.21143023022E+03  0.45319745042E+02  0.23057266193E+03  0.10100000352E+00 0. -1.
       -3    1    3    3    0  502  0.80044491933E+02  0.21143023022E+03 -0.17400925078E+03  0.28528773632E+03  0.10100000352E+00 0.  1.
</event>
<event>
 5   0  0.1941387E-02  0.5010325E+03  0.7818609E-02  0.1013510E+00
        2   -1    0    0  501    0  0.00000000000E+00  0.00000000000E+00  0.11187341995E+03  0.11187341998E+03  0.25500000920E-02 0.  1.
       -2   -1    0    0    0  501  0.00000000000E+00  0.00000000000E+00 -0.56097671079E+03  0.56097671079E+03  0.25500000920E-02 0. -1.
    10030    2    1    2    0    0  0.00000000000E+00  0.00000000000E+00 -0.44910329084E+03  0.67285013077E+03  0.50103246665E+03 0.  0.
        4    1    3    3  502    0 -0.29075652995E+02  0.19646128381E+03 -0.19499630616E+02  0.19956021179E+03  0.12699999809E+01 0.  1.
       -4    1    3    3    0  502  0.29075652995E+02 -0.19646128381E+03 -0.42960366022E+03  0.47328991898E+03  0.12699999809E+01 0. -1.
</event>
<event>
 5   0  0.1180937E-02  0.5003196E+03  0.7818609E-02  0.1013696E+00
       -1   -1    0    0    0  501  0.00000000000E+00  0.00000000000E+00  0.17974833720E+03  0.17974833727E+03  0.50400001928E-02 0.  1.
        1   -1    0    0  501    0  0.00000000000E+00  0.00000000000E+00 -0.34815305950E+03  0.34815305954E+03  0.50400001928E-02 0. -1.
    10030    2    1    2    0    0  0.00000000000E+00  0.00000000000E+00 -0.16840472230E+03  0.52790139681E+03  0.50031963210E+03 0.  0.
        1    1    3    3  502    0 -0.70263715076E+02 -0.25229902683E+02  0.16772019767E+03  0.18358540895E+03  0.50400001928E-02 0.  1.
       -1    1    3    3    0  502  0.70263715076E+02  0.25229902683E+02 -0.33612491997E+03  0.34431598786E+03  0.50400001928E-02 0. -1.
</event>
<event>
 5   0  0.1982847E-02  0.5001301E+03  0.7818609E-02  0.1013745E+00
       -2   -1    0    0    0  501  0.00000000000E+00  0.00000000000E+00  0.11622652489E+03  0.11622652492E+03  0.25500000920E-02 0.  1.
        2   -1    0    0  501    0  0.00000000000E+00  0.00000000000E+00 -0.53802282601E+03  0.53802282602E+03  0.25500000920E-02 0. -1.
    10030    2    1    2    0    0  0.00000000000E+00  0.00000000000E+00 -0.42179630113E+03  0.65424935094E+03  0.50013007664E+03 0.  0.
        2    1    3    3  502    0  0.20678844130E+03  0.66308270078E+02 -0.37310070222E+03  0.43169709304E+03  0.25500000920E-02 0. -1.
       -2    1    3    3    0  502 -0.20678844130E+03 -0.66308270078E+02 -0.48695598901E+02  0.22255225790E+03  0.25500000920E-02 0.  1.
</event>
<event>
 5   0  0.1967813E-02  0.4999596E+03  0.7818609E-02  0.1013789E+00
       -2   -1    0    0    0  501  0.00000000000E+00  0.00000000000E+00  0.23699706688E+03  0.23699706689E+03  0.25500000920E-02 0. -1.
        2   -1    0    0  501    0  0.00000000000E+00  0.00000000000E+00 -0.26367369357E+03  0.26367369358E+03  0.25500000920E-02 0.  1.
    10030    2    1    2    0    0  0.00000000000E+00  0.00000000000E+00 -0.26676626688E+02  0.50067076047E+03  0.49995956634E+03 0.  0.
        5    1    3    3  502    0 -0.18538595207E+03  0.14308765746E+03  0.74111580091E+02  0.24567589471E+03  0.46999998093E+01 0.  1.
       -5    1    3    3    0  502  0.18538595207E+03 -0.14308765746E+03 -0.10078820678E+03  0.25499486576E+03  0.46999998093E+01 0. -1.
</event>
<event>
 5   0  0.1225989E-02  0.4999890E+03  0.7818609E-02  0.1013782E+00
        1   -1    0    0  501    0  0.00000000000E+00  0.00000000000E+00  0.43144302964E+03  0.43144302967E+03  0.50400001928E-02 0.  1.
       -1   -1    0    0    0  501  0.00000000000E+00  0.00000000000E+00 -0.14485629898E+03  0.14485629906E+03  0.50400001928E-02 0. -1.
    10030    2    1    2    0    0  0.00000000000E+00  0.00000000000E+00  0.28658673067E+03  0.57629932874E+03  0.49998896199E+03 0.  0.
        3    1    3    3  502    0 -0.18121540638E+02  0.17745594232E+03  0.34517780036E+03  0.38854436782E+03  0.10100000352E+00 0.  1.
       -3    1    3    3    0  502  0.18121540638E+02 -0.17745594232E+03 -0.58591069698E+02  0.18775496092E+03  0.10100000352E+00 0. -1.
</event>
<event>
 5   0  0.1227864E-02  0.4993087E+03  0.7818609E-02  0.1013959E+00
        1   -1    0    0  501    0  0.00000000000E+00  0.00000000000E+00  0.14607310980E+03  0.14607310989E+03  0.50400001928E-02 0. -1.
       -1   -1    0    0    0  501  0.00000000000E+00  0.00000000000E+00 -0.42668569438E+03  0.42668569441E+03  0.50400001928E-02 0.  1.
    10030    2    1    2    0    0  0.00000000000E+00  0.00000000000E+00 -0.28061258458E+03  0.57275880430E+03  0.49930874745E+03 0.  0.
        5    1    3    3  502    0 -0.23697144315E+03  0.55912130486E+02 -0.20338222753E+03  0.31728229021E+03  0.46999998093E+01 0. -1.
       -5    1    3    3    0  502  0.23697144315E+03 -0.55912130486E+02 -0.77230357045E+02  0.25547651409E+03  0.46999998093E+01 0.  1.
</event>
<event>
 5   0  0.1225989E-02  0.4998092E+03  0.7818609E-02  0.1013829E+00
        1   -1    0    0  501    0  0.00000000000E+00  0.00000000000E+00  0.40204775858E+03  0.40204775861E+03  0.50400001928E-02 0. -1.
       -1   -1    0    0    0  501  0.00000000000E+00  0.00000000000E+00 -0.15533552865E+03  0.15533552873E+03  0.50400001928E-02 0.  1.
    10030    2    1    2    0    0  0.00000000000E+00  0.00000000000E+00  0.24671222994E+03  0.55738328734E+03  0.49980916819E+03 0.  0.
        3    1    3    3  502    0 -0.59100208352E+02  0.22396175051E+03  0.18738302626E+02  0.23238509958E+03  0.10100000352E+00 0.  1.
       -3    1    3    3    0  502  0.59100208352E+02 -0.22396175051E+03  0.22797392731E+03  0.32499818777E+03  0.10100000352E+00 0. -1.
</event>
<event>
 5   0  0.1982847E-02  0.4970670E+03  0.7818609E-02  0.1014547E+00
       -2   -1    0    0    0  501  0.00000000000E+00  0.00000000000E+00  0.23351341048E+03  0.23351341049E+03  0.25500000920E-02 0. -1.
        2   -1    0    0  501    0  0.00000000000E+00  0.00000000000E+00 -0.26451966984E+03  0.26451966985E+03  0.25500000920E-02 0.  1.
    10030    2    1    2    0    0  0.00000000000E+00  0.00000000000E+00 -0.31006259360E+02  0.49803308034E+03  0.49706695826E+03 0.  0.
        2    1    3    3  502    0  0.14048606538E+03  0.11728978583E+03 -0.18398364599E+03  0.25950570403E+03  0.25500000920E-02 0.  1.
       -2    1    3    3    0  502 -0.14048606538E+03 -0.11728978583E+03  0.15297738663E+03  0.23852737632E+03  0.25500000920E-02 0. -1.
</event>
<event>
 5   0  0.1209831E-02  0.4998581E+03  0.7818609E-02  0.1013816E+00
        1   -1    0    0  501    0  0.00000000000E+00  0.00000000000E+00  0.50453533410E+03  0.50453533413E+03  0.50400001928E-02 0.  1.
       -1   -1    0    0    0  501  0.00000000000E+00  0.00000000000E+00 -0.12380604598E+03  0.12380604608E+03  0.50400001928E-02 0. -1.
    10030    2    1    2    0    0  0.00000000000E+00  0.00000000000E+00  0.38072928813E+03  0.62834138021E+03  0.49985807910E+03 0.  0.
        4    1    3    3  502    0  0.23787654161E+03  0.80449854260E+01  0.28620466633E+03  0.37224279008E+03  0.12699999809E+01 0. -1.
       -4    1    3    3    0  502 -0.23787654161E+03 -0.80449854260E+01  0.94524621798E+02  0.25609859013E+03  0.12699999809E+01 0.  1.
</event>
<event>
 5   0  0.1923706E-02  0.5000236E+03  0.7818609E-02  0.1013773E+00
       -2   -1    0    0    0  501  0.00000000000E+00  0.00000000000E+00  0.43380303517E+02  0.43380303592E+02  0.25500000920E-02 0. -1.
        2   -1    0    0  501    0  0.00000000000E+00  0.00000000000E+00 -0.14408819104E+04  0.14408819104E+04  0.25500000920E-02 0.  1.
    10030    2    1    2    0    0  0.00000000000E+00  0.00000000000E+00 -0.13975016069E+04  0.14842622140E+04  0.50002357809E+03 0.  0.
        3    1    3    3  502    0 -0.14176846081E+03 -0.19294931957E+03 -0.48514778769E+03  0.54101397626E+03  0.10100000352E+00 0. -1.
       -3    1    3    3    0  502  0.14176846081E+03  0.19294931957E+03 -0.91235381919E+03  0.94324823774E+03  0.10100000352E+00 0.  1.
</event>
<event>
 5   0  0.1967813E-02  0.5003286E+03  0.7818609E-02  0.1013693E+00
        2   -1    0    0  501    0  0.00000000000E+00  0.00000000000E+00  0.17428523448E+03  0.17428523450E+03  0.25500000920E-02 0. -1.
       -2   -1    0    0    0  501  0.00000000000E+00  0.00000000000E+00 -0.35907903329E+03  0.35907903330E+03  0.25500000920E-02 0.  1.
    10030    2    1    2    0    0  0.00000000000E+00  0.00000000000E+00 -0.18479379882E+03  0.53336426780E+03  0.50032858611E+03 0.  0.
        5    1    3    3  502    0 -0.94338690855E+02  0.41208042156E+02 -0.33540028972E+03  0.35087509982E+03  0.46999998093E+01 0.  1.
       -5    1    3    3    0  502  0.94338690855E+02 -0.41208042156E+02  0.15060649090E+03  0.18248916798E+03  0.46999998093E+01 0. -1.
</event>
<event>
 5   0  0.1855407E-02  0.4993387E+03  0.7818609E-02  0.1013952E+00
       -2   -1    0    0    0  501  0.00000000000E+00  0.00000000000E+00  0.88562150621E+02  0.88562150658E+02  0.25500000920E-02 0.  1.
        2   -1    0    0  501    0  0.00000000000E+00  0.00000000000E+00 -0.70385360200E+03  0.70385360200E+03  0.25500000920E-02 0. -1.
    10030    2    1    2    0    0  0.00000000000E+00  0.00000000000E+00 -0.61529145138E+03  0.79241575266E+03  0.49933871763E+03 0.  0.
        1    1    3    3  502    0 -0.18498168197E+03  0.65623812654E+01 -0.41753188347E+02  0.18974882417E+03  0.50400001928E-02 0.  1.
       -1    1    3    3    0  502  0.18498168197E+03 -0.65623812654E+01 -0.57353826303E+03  0.60266692849E+03  0.50400001928E-02 0. -1.
</event>
<event>
 5   0  0.1209831E-02  0.4998230E+03  0.7818609E-02  0.1013825E+00
        1   -1    0    0  501    0  0.00000000000E+00  0.00000000000E+00  0.30879734939E+03  0.30879734943E+03  0.50400001928E-02 0.  1.
       -1   -1    0    0    0  501  0.00000000000E+00  0.00000000000E+00 -0.20225479886E+03  0.20225479892E+03  0.50400001928E-02 0. -1.
    10030    2    1    2    0    0  0.00000000000E+00  0.00000000000E+00  0.10654255053E+03  0.51105214835E+03  0.49982295191E+03 0.  0.
        4    1    3    3  502    0 -0.25681287088E+02 -0.10215287060E+03  0.28498885018E+03  0.30383382812E+03  0.12699999809E+01 0.  1.
       -4    1    3    3    0  502  0.25681287088E+02  0.10215287060E+03 -0.17844629966E+03  0.20721832023E+03  0.12699999809E+01 0. -1.
</event>
<event>
 5   0  0.1855407E-02  0.4986986E+03  0.7818609E-02  0.1014119E+00
        2   -1    0    0  501    0  0.00000000000E+00  0.00000000000E+00  0.37056778011E+03  0.37056778012E+03  0.25500000920E-02 0. -1.
       -2   -1    0    0    0  501  0.00000000000E+00  0.00000000000E+00 -0.16778324159E+03  0.16778324161E+03  0.25500000920E-02 0.  1.
    10030    2    1    2    0    0  0.00000000000E+00  0.00000000000E+00  0.20278453852E+03  0.53835102173E+03  0.49869855979E+03 0.  0.
        1    1    3    3  502    0 -0.19549705445E+03 -0.10437375219E+03  0.22476911957E+03  0.31564875350E+03  0.50400001928E-02 0. -1.
       -1    1    3    3    0  502  0.19549705445E+03  0.10437375219E+03 -0.21984581056E+02  0.22270226823E+03  0.50400001928E-02 0.  1.
</event>
<event>
 5   0  0.1209831E-02  0.4999089E+03  0.7818609E-02  0.1013803E+00
        1   -1    0    0  501    0  0.00000000000E+00  0.00000000000E+00  0.48319356812E+03  0.48319356815E+03  0.50400001928E-02 0.  1.
       -1   -1    0    0    0  501  0.00000000000E+00  0.00000000000E+00 -0.12930059764E+03  0.12930059774E+03  0.50400001928E-02 0. -1.
    10030    2    1    2    0    0  0.00000000000E+00  0.00000000000E+00  0.35389297048E+03  0.61249416589E+03  0.49990886039E+03 0.  0.
        4    1    3    3  502    0 -0.24292406147E+02 -0.24413615650E+03  0.11840469285E+03  0.27242222394E+03  0.12699999809E+01 0.  1.
       -4    1    3    3    0  502  0.24292406147E+02  0.24413615650E+03  0.23548827762E+03  0.34007194195E+03  0.12699999809E+01 0. -1.
</event>
<event>
 5   0  0.1941387E-02  0.4999327E+03  0.7818609E-02  0.1013796E+00
       -2   -1    0    0    0  501  0.00000000000E+00  0.00000000000E+00  0.13808764990E+03  0.13808764992E+03  0.25500000920E-02 0. -1.
        2   -1    0    0  501    0  0.00000000000E+00  0.00000000000E+00 -0.45248928995E+03  0.45248928995E+03  0.25500000920E-02 0.  1.
    10030    2    1    2    0    0  0.00000000000E+00  0.00000000000E+00 -0.31440164005E+03  0.59057693987E+03  0.49993272612E+03 0.  0.
        4    1    3    3  502    0  0.77175989267E+02  0.27845560786E+02 -0.43612591671E+03  0.44377802638E+03  0.12699999809E+01 0.  1.
       -4    1    3    3    0  502 -0.77175989267E+02 -0.27845560786E+02  0.12172427666E+03  0.14679891349E+03  0.12699999809E+01 0. -1.
</event>
<event>
 5   0  0.1180937E-02  0.5010780E+03  0.7818609E-02  0.1013498E+00
        1   -1    0    0  501    0  0.00000000000E+00  0.00000000000E+00  0.37794003667E+03  0.37794003671E+03  0.50400001928E-02 0. -1.
       -1   -1    0    0    0  501  0.00000000000E+00  0.00000000000E+00 -0.16608401554E+03  0.16608401562E+03  0.50400001928E-02 0.  1.
    10030    2    1    2    0    0  0.00000000000E+00  0.00000000000E+00  0.21185602113E+03  0.54402405232E+03  0.50107803366E+03 0.  0.
        1    1    3    3  502    0 -0.18166389329E+03 -0.10255729996E+03 -0.44707870152E+02  0.21335079934E+03  0.50400001928E-02 0.  1.
       -1    1    3    3    0  502  0.18166389329E+03  0.10255729996E+03  0.25656389129E+03  0.33067325298E+03  0.50400001928E-02 0. -1.
</event>
<event>
 5   0  0.1967813E-02  0.4991079E+03  0.7818609E-02  0.1014012E+00
       -2   -1    0    0    0  501  0.00000000000E+00  0.00000000000E+00  0.14247552605E+03  0.14247552607E+03  0.25500000920E-02 0.  1.
        2   -1    0    0  501    0  0.00000000000E+00  0.00000000000E+00 -0.43710778803E+03  0.43710778804E+03  0.25500000920E-02 0. -1.
    10030    2    1    2    0    0  0.00000000000E+00  0.00000000000E+00 -0.29463226198E+03  0.57958331411E+03  0.49910785227E+03 0.  0.
        5    1    3    3  502    0  0.12674846031E+02 -0.81479883311E+02  0.12614372712E+03  0.15077782661E+03  0.46999998093E+01 0.  1.
       -5    1    3    3    0  502 -0.12674846031E+02  0.81479883311E+02 -0.42077598911E+03  0.42880548750E+03  0.46999998093E+01 0. -1.
</event>
<event>
 5   0  0.1967813E-02  0.5000368E+03  0.7818609E-02  0.1013769E+00
        2   -1    0    0  501    0  0.00000000000E+00  0.00000000000E+00  0.52660673305E+03  0.52660673305E+03  0.25500000920E-02 0. -1.
       -2   -1    0    0    0  501  0.00000000000E+00  0.00000000000E+00 -0.11870186349E+03  0.11870186352E+03  0.25500000920E-02 0.  1.
    10030    2    1    2    0    0  0.00000000000E+00  0.00000000000E+00  0.40790486956E+03  0.64530859657E+03  0.50003680084E+03 0.  0.
        5    1    3    3  502    0 -0.15242429744E+03 -0.18296675641E+03  0.10586332191E+03  0.26065136356E+03  0.46999998093E+01 0. -1.
       -5    1    3    3    0  502  0.15242429744E+03  0.18296675641E+03  0.30204154765E+03  0.38465723301E+03  0.46999998093E+01 0.  1.
</event>
<event>
 5   0  0.1982847E-02  0.5022088E+03  0.7818609E-02  0.1013204E+00
        2   -1    0    0  501    0  0.00000000000E+00  0.00000000000E+00  0.34804133558E+03  0.34804133559E+03  0.25500000920E-02 0. -1.
       -2   -1    0    0    0  501  0.00000000000E+00  0.00000000000E+00 -0.18116647769E+03  0.18116647771E+03  0.25500000920E-02 0.  1.
    10030    2    1    2    0    0  0.00000000000E+00  0.00000000000E+00  0.16687485789E+03  0.52920781330E+03  0.50220881261E+03 0.  0.
        2    1    3    3  502    0  0.76950920395E+02 -0.23796932194E+03  0.59813901565E+02  0.25715471056E+03  0.25500000920E-02 0.  1.
       -2    1    3    3    0  502 -0.76950920395E+02  0.23796932194E+03  0.10706095633E+03  0.27205310274E+03  0.25500000920E-02 0. -1.
</event>
<event>
 5   0  0.1982847E-02  0.4997437E+03  0.7818609E-02  0.1013846E+00
       -2   -1    0    0    0  501  0.00000000000E+00  0.00000000000E+00  0.30614775478E+02  0.30614775584E+02  0.25500000920E-02 0.  1.
        2   -1    0    0  501    0  0.00000000000E+00  0.00000000000E+00 -0.20394051161E+04  0.20394051161E+04  0.25500000920E-02 0. -1.
    10030    2    1    2    0    0  0.00000000000E+00  0.00000000000E+00 -0.20087903407E+04  0.20700198917E+04  0.49974365369E+03 0.  0.
        2    1    3    3  502    0  0.94187291158E+02  0.23129915923E+03 -0.10378885947E+04  0.10675126613E+04  0.25500000920E-02 0.  1.
       -2    1    3    3    0  502 -0.94187291158E+02 -0.23129915923E+03 -0.97090174592E+03  0.10025072305E+04  0.25500000920E-02 0. -1.
</event>
<event>
 5   0  0.1855407E-02  0.4900728E+03  0.7818609E-02  0.1016403E+00
        2   -1    0    0  501    0  0.00000000000E+00  0.00000000000E+00  0.18581070016E+03  0.18581070018E+03  0.25500000920E-02 0. -1.
       -2   -1    0    0    0  501  0.00000000000E+00  0.00000000000E+00 -0.32313989046E+03  0.32313989047E+03  0.25500000920E-02 0.  1.
    10030    2    1    2    0    0  0.00000000000E+00  0.00000000000E+00 -0.13732919030E+03  0.50895059065E+03  0.49007284889E+03 0.  0.
        1    1    3    3  502    0  0.30315202376E+02 -0.23524634582E+03 -0.47893119187E+01  0.23723994658E+03  0.50400001928E-02 0.  1.
       -1    1    3    3    0  502 -0.30315202376E+02  0.23524634582E+03 -0.13253987838E+03  0.27171064408E+03  0.50400001928E-02 0. -1.
</event>
<event>
 5   0  0.1225989E-02  0.5059492E+03  0.7818609E-02  0.1012238E+00
        1   -1    0    0  501    0  0.00000000000E+00  0.00000000000E+00  0.13030925945E+04  0.13030925946E+04  0.50400001928E-02 0. -1.
       -1   -1    0    0    0  501  0.00000000000E+00  0.00000000000E+00 -0.49110976550E+02  0.49110976809E+02  0.50400001928E-02 0.  1.
    10030    2    1    2    0    0  0.00000000000E+00  0.00000000000E+00  0.12539816180E+04  0.13522035714E+04  0.50594920708E+03 0.  0.
        3    1    3    3  502    0  0.87068307904E+02  0.12132357702E+03  0.81256171781E+02  0.17000845930E+03  0.10100000352E+00 0.  1.
       -3    1    3    3    0  502 -0.87068307904E+02 -0.12132357702E+03  0.11727254462E+04  0.11821951121E+04  0.10100000352E+00 0. -1.
</event>
<event>
 5   0  0.1225989E-02  0.5000335E+03  0.7818609E-02  0.1013770E+00
       -1   -1    0    0    0  501  0.00000000000E+00  0.00000000000E+00  0.23167873638E+03  0.23167873643E+03  0.50400001928E-02 0. -1.
        1   -1    0    0  501    0  0.00000000000E+00  0.00000000000E+00 -0.26980631935E+03  0.26980631940E+03  0.50400001928E-02 0.  1.
    10030    2    1    2    0    0  0.00000000000E+00  0.00000000000E+00 -0.38127582974E+02  0.50148505583E+03  0.50003354751E+03 0.  0.
        3    1    3    3  502    0 -0.91721857684E+02 -0.11089985848E+02 -0.25205797561E+03  0.26845692436E+03  0.10100000352E+00 0.  1.
       -3    1    3    3    0  502  0.91721857684E+02  0.11089985848E+02  0.21393039264E+03  0.23302813148E+03  0.10100000352E+00 0. -1.
</event>
<event>
 5   0  0.1227864E-02  0.4998471E+03  0.7818609E-02  0.1013819E+00
       -1   -1    0    0    0  501  0.00000000000E+00  0.00000000000E+00  0.11772764365E+03  0.11772764376E+03  0.50400001928E-02 0.  1.
        1   -1    0    0  501    0  0.00000000000E+00  0.00000000000E+00 -0.53056170205E+03  0.53056170208E+03  0.50400001928E-02 0. -1.
    10030    2    1    2    0    0  0.00000000000E+00  0.00000000000E+00 -0.41283405840E+03  0.64828934584E+03  0.49984709277E+03 0.  0.
        5    1    3    3  502    0 -0.21774281128E+03  0.11495173955E+03 -0.15117966239E+03  0.28896922778E+03  0.46999998093E+01 0.  1.
       -5    1    3    3    0  502  0.21774281128E+03 -0.11495173955E+03 -0.26165439601E+03  0.35932011806E+03  0.46999998093E+01 0. -1.
</event>
<event>
 5   0  0.8012875E-03  0.5007830E+03  0.7818609E-02  0.1013575E+00
       -3   -1    0    0    0  501  0.00000000000E+00  0.00000000000E+00  0.57209196552E+03  0.57209197444E+03  0.10100000352E+00 0.  1.
        3   -1    0    0  501    0  0.00000000000E+00  0.00000000000E+00 -0.10959058200E+03  0.10959062854E+03  0.10100000352E+00 0. -1.
    10030    2    1    2    0    0  0.00000000000E+00  0.00000000000E+00  0.46250138352E+03  0.68168260297E+03  0.50078302830E+03 0.  0.
        5    1    3    3  502    0 -0.11825854053E+03 -0.54633894891E+02 -0.59760118725E+02  0.14339911669E+03  0.46999998093E+01 0. -1.
       -5    1    3    3    0  502  0.11825854053E+03  0.54633894891E+02  0.52226150225E+03  0.53828348629E+03  0.46999998093E+01 0.  1.
</event>
<event>
 5   0  0.1923706E-02  0.4974690E+03  0.7818609E-02  0.1014442E+00
        2   -1    0    0  501    0  0.00000000000E+00  0.00000000000E+00  0.96852910997E+03  0.96852910998E+03  0.25500000920E-02 0.  1.
       -2   -1    0    0    0  501  0.00000000000E+00  0.00000000000E+00 -0.63879192525E+02  0.63879192576E+02  0.25500000920E-02 0. -1.
    10030    2    1    2    0    0  0.00000000000E+00  0.00000000000E+00  0.90464991745E+03  0.10324083026E+04  0.49746902420E+03 0.  0.
        3    1    3    3  502    0  0.17831724662E+03 -0.55447778349E+01  0.92622764006E+02  0.20101435674E+03  0.10100000352E+00 0. -1.
       -3    1    3    3    0  502 -0.17831724662E+03  0.55447778349E+01  0.81202715344E+03  0.83139394581E+03  0.10100000352E+00 0.  1.
</event>
<event>
 5   0  0.8012875E-03  0.5004693E+03  0.7818609E-02  0.1013656E+00
       -3   -1    0    0    0  501  0.00000000000E+00  0.00000000000E+00  0.59102100235E+02  0.59102186535E+02  0.10100000352E+00 0.  1.
        3   -1    0    0  501    0  0.00000000000E+00  0.00000000000E+00 -0.10594771306E+04  0.10594771354E+04  0.10100000352E+00 0. -1.
    10030    2    1    2    0    0  0.00000000000E+00  0.00000000000E+00 -0.10003750304E+04  0.11185793220E+04  0.50046927790E+03 0.  0.
        3    1    3    3  502    0 -0.18215923116E+03 -0.57398400857E+02 -0.13882023991E+03  0.23610936264E+03  0.10100000352E+00 0.  1.
       -3    1    3    3    0  502  0.18215923116E+03  0.57398400857E+02 -0.86155479048E+03  0.88246995933E+03  0.10100000352E+00 0. -1.
</event>
<event>
 5   0  0.1209831E-02  0.5001404E+03  0.7818609E-02  0.1013742E+00
       -1   -1    0    0    0  501  0.00000000000E+00  0.00000000000E+00  0.59269616036E+02  0.59269616251E+02  0.50400001928E-02 0.  1.
        1   -1    0    0  501    0  0.00000000000E+00  0.00000000000E+00 -0.10550954632E+04  0.10550954632E+04  0.50400001928E-02 0. -1.
    10030    2    1    2    0    0  0.00000000000E+00  0.00000000000E+00 -0.99582584716E+03  0.11143650795E+04  0.50014039274E+03 0.  0.
        4    1    3    3  502    0  0.12920267109E+03  0.37101435320E+01 -0.97488549977E+03  0.98341773725E+03  0.12699999809E+01 0. -1.
       -4    1    3    3    0  502 -0.12920267109E+03 -0.37101435320E+01 -0.20940347389E+02  0.13094734221E+03  0.12699999809E+01 0.  1.
</event>
<event>
 5   0  0.1982847E-02  0.4998678E+03  0.7818609E-02  0.1013813E+00
        2   -1    0    0  501    0  0.00000000000E+00  0.00000000000E+00  0.43000263436E+03  0.43000263436E+03  0.25500000920E-02 0.  1.
       -2   -1    0    0    0  501  0.00000000000E+00  0.00000000000E+00 -0.14527112135E+03  0.14527112137E+03  0.25500000920E-02 0. -1.
    10030    2    1    2    0    0  0.00000000000E+00  0.00000000000E+00  0.28473151301E+03  0.57527375573E+03  0.49986784207E+03 0.  0.
        2    1    3    3  502    0 -0.20422588989E+03  0.12753948603E+03  0.65229237504E+02  0.24945818895E+03  0.25500000920E-02 0. -1.
       -2    1    3    3    0  502  0.20422588989E+03 -0.12753948603E+03  0.21950227551E+03  0.32581556679E+03  0.25500000920E-02 0.  1.
</event>
<event>
 5   0  0.1209831E-02  0.5009577E+03  0.7818609E-02  0.1013529E+00
        1   -1    0    0  501    0  0.00000000000E+00  0.00000000000E+00  0.27497397658E+03  0.27497397662E+03  0.50400001928E-02 0.  1.
       -1   -1    0    0    0  501  0.00000000000E+00  0.00000000000E+00 -0.22816581445E+03  0.22816581451E+03  0.50400001928E-02 0. -1.
    10030    2    1    2    0    0  0.00000000000E+00  0.00000000000E+00  0.46808162121E+02  0.50313979113E+03  0.50095772814E+03 0.  0.
        4    1    3    3  502    0 -0.17260215277E+03  0.48759276539E+02 -0.15219763522E+03  0.23523329538E+03  0.12699999809E+01 0. -1.
       -4    1    3    3    0  502  0.17260215277E+03 -0.48759276539E+02  0.19900579734E+03  0.26790649575E+03  0.12699999809E+01 0.  1.
</event>
<event>
 5   0  0.1209831E-02  0.4998009E+03  0.7818609E-02  0.1013831E+00
       -1   -1    0    0    0  501  0.00000000000E+00  0.00000000000E+00  0.14312891070E+03  0.14312891079E+03  0.50400001928E-02 0.  1.
        1   -1    0    0  501    0  0.00000000000E+00  0.00000000000E+00 -0.43632159063E+03  0.43632159066E+03  0.50400001928E-02 0. -1.
    10030    2    1    2    0    0  0.00000000000E+00  0.00000000000E+00 -0.29319267992E+03  0.57945050145E+03  0.49980089642E+03 0.  0.
        4    1    3    3  502    0  0.19452956525E+03  0.18772264351E+02  0.33961029885E+02  0.19836611131E+03  0.12699999809E+01 0.  1.
       -4    1    3    3    0  502 -0.19452956525E+03 -0.18772264351E+02 -0.32715370981E+03  0.38108439014E+03  0.12699999809E+01 0. -1.
</event>
<event>
 5   0  0.8012875E-03  0.4889536E+03  0.7818609E-02  0.1016703E+00
       -4   -1    0    0    0  501  0.00000000000E+00  0.00000000000E+00  0.95434015391E+02  0.95442465358E+02  0.12699999809E+01 0. -1.
        4   -1    0    0  501    0  0.00000000000E+00  0.00000000000E+00 -0.62624831141E+03  0.62624959915E+03  0.12699999809E+01 0.  1.
    10030    2    1    2    0    0  0.00000000000E+00  0.00000000000E+00 -0.53081429601E+03  0.72169206451E+03  0.48895359608E+03 0.  0.
        5    1    3    3  502    0 -0.12229335324E+03 -0.15008409864E+03 -0.48565138222E+03  0.52283865194E+03  0.46999998093E+01 0.  1.
       -5    1    3    3    0  502  0.12229335324E+03  0.15008409864E+03 -0.45162913797E+02  0.19885341257E+03  0.46999998093E+01 0. -1.
</event>
<event>
 5   0  0.1225989E-02  0.4999210E+03  0.7818609E-02  0.1013800E+00
       -1   -1    0    0    0  501  0.00000000000E+00  0.00000000000E+00  0.17265306723E+03  0.17265306731E+03  0.50400001928E-02 0.  1.
        1   -1    0    0  501    0  0.00000000000E+00  0.00000000000E+00 -0.36188328902E+03  0.36188328905E+03  0.50400001928E-02 0. -1.
    10030    2    1    2    0    0  0.00000000000E+00  0.00000000000E+00 -0.18923022179E+03  0.53453635636E+03  0.49992103320E+03 0.  0.
        3    1    3    3  502    0 -0.26979249214E+02 -0.23430857799E+03 -0.61076092838E+01  0.23593580208E+03  0.10100000352E+00 0.  1.
       -3    1    3    3    0  502  0.26979249214E+02  0.23430857799E+03 -0.18312261250E+03  0.29860055429E+03  0.10100000352E+00 0. -1.
</event>
<event>
 5   0  0.1941387E-02  0.5003571E+03  0.7818609E-02  0.1013686E+00
        2   -1    0    0  501    0  0.00000000000E+00  0.00000000000E+00  0.14011210136E+04  0.14011210136E+04  0.25500000920E-02 0. -1.
       -2   -1    0    0    0  501  0.00000000000E+00  0.00000000000E+00 -0.44670886435E+02  0.44670886508E+02  0.25500000920E-02 0.  1.
    10030    2    1    2    0    0  0.00000000000E+00  0.00000000000E+00  0.13564501271E+04  0.14457919001E+04  0.50035714338E+03 0.  0.
        4    1    3    3  502    0  0.13166036119E+03  0.10958847727E+03  0.15138373517E+03  0.22861043990E+03  0.12699999809E+01 0.  1.
       -4    1    3    3    0  502 -0.13166036119E+03 -0.10958847727E+03  0.12050663920E+04  0.12171814602E+04  0.12699999809E+01 0. -1.
</event>
<event>
 5   0  0.1941387E-02  0.4996982E+03  0.7818609E-02  0.1013858E+00
        2   -1    0    0  501    0  0.00000000000E+00  0.00000000000E+00  0.14832747128E+04  0.14832747128E+04  0.25500000920E-02 0. -1.
       -2   -1    0    0    0  501  0.00000000000E+00  0.00000000000E+00 -0.42085650613E+02  0.42085650690E+02  0.25500000920E-02 0.  1.
    10030    2    1    2    0    0  0.00000000000E+00  0.00000000000E+00  0.14411890621E+04  0.15253603634E+04  0.49969823448E+03 0.  0.
        4    1    3    3  502    0 -0.16510264078E+03  0.18678723964E+03  0.77117998643E+03  0.81047426810E+03  0.12699999809E+01 0.  1.
       -4    1    3    3    0  502  0.16510264078E+03 -0.18678723964E+03  0.67000907572E+03  0.71488609535E+03  0.12699999809E+01 0. -1.
</event>
<event>
 5   0  0.1217270E-02  0.4965102E+03  0.7818609E-02  0.1014694E+00
       -1   -1    0    0    0  501  0.00000000000E+00  0.00000000000E+00  0.41100753848E+02  0.41100754157E+02  0.50400001928E-02 0.  1.
        1   -1    0    0  501    0  0.00000000000E+00  0.00000000000E+00 -0.14995003279E+04  0.14995003280E+04  0.50400001928E-02 0. -1.
    10030    2    1    2    0    0  0.00000000000E+00  0.00000000000E+00 -0.14583995741E+04  0.15406010821E+04  0.49651019775E+03 0.  0.
        2    1    3    3  502    0 -0.87619835202E+01  0.76807676277E+02 -0.14612009794E+04  0.14632445092E+04  0.25500000920E-02 0. -1.
       -2    1    3    3    0  502  0.87619835202E+01 -0.76807676277E+02  0.28014053303E+01  0.77356572886E+02  0.25500000920E-02 0.  1.
</event>
<event>
 5   0  0.1941387E-02  0.4988548E+03  0.7818609E-02  0.1014078E+00
        2   -1    0    0  501    0  0.00000000000E+00  0.00000000000E+00  0.30907634432E+03  0.30907634433E+03  0.25500000920E-02 0. -1.
       -2   -1    0    0    0  501  0.00000000000E+00  0.00000000000E+00 -0.20129016624E+03  0.20129016625E+03  0.25500000920E-02 0.  1.
    10030    2    1    2    0    0  0.00000000000E+00  0.00000000000E+00  0.10778617808E+03  0.51036651058E+03  0.49885480346E+03 0.  0.
        4    1    3    3  502    0 -0.50753268691E+01  0.81930937096E+02  0.29485736834E+03  0.30607338656E+03  0.12699999809E+01 0. -1.
       -4    1    3    3    0  502  0.50753268691E+01 -0.81930937096E+02 -0.18707119026E+03  0.20429312402E+03  0.12699999809E+01 0.  1.
</event>
<event>
 5   0  0.1855407E-02  0.4994501E+03  0.7818609E-02  0.1013923E+00
       -2   -1    0    0    0  501  0.00000000000E+00  0.00000000000E+00  0.72861982156E+02  0.72861982201E+02  0.25500000920E-02 0.  1.
        2   -1    0    0  501    0  0.00000000000E+00  0.00000000000E+00 -0.85590035437E+03  0.85590035438E+03  0.25500000920E-02 0. -1.
    10030    2    1    2    0    0  0.00000000000E+00  0.00000000000E+00 -0.78303837222E+03  0.92876233658E+03  0.49945008307E+03 0.  0.
        1    1    3    3  502    0  0.19581232711E+03  0.26122179915E+02 -0.10743824625E+03  0.22487288079E+03  0.50400001928E-02 0.  1.
       -1    1    3    3    0  502 -0.19581232711E+03 -0.26122179915E+02 -0.67560012597E+03  0.70388945579E+03  0.50400001928E-02 0. -1.
</event>
<event>
 5   0  0.8012875E-03  0.4997344E+03  0.7818609E-02  0.1013848E+00
       -3   -1    0    0    0  501  0.00000000000E+00  0.00000000000E+00  0.44750648689E+03  0.44750649829E+03  0.10100000352E+00 0. -1.
        3   -1    0    0  501    0  0.00000000000E+00  0.00000000000E+00 -0.13951443754E+03  0.13951447410E+03  0.10100000352E+00 0.  1.
    10030    2    1    2    0    0  0.00000000000E+00  0.00000000000E+00  0.30799204935E+03  0.58702097238E+03  0.49973444904E+03 0.  0.
        4    1    3    3  502    0  0.95696560812E+02 -0.49656983755E+02  0.41877406091E+03  0.43243146830E+03  0.12699999809E+01 0. -1.
       -4    1    3    3    0  502 -0.95696560812E+02  0.49656983755E+02 -0.11078201156E+03  0.15458950408E+03  0.12699999809E+01 0.  1.
</event>
<event>
 5   0  0.1941387E-02  0.5007464E+03  0.7818609E-02  0.1013584E+00
       -2   -1    0    0    0  501  0.00000000000E+00  0.00000000000E+00  0.12522042701E+03  0.12522042703E+03  0.25500000920E-02 0. -1.
        2   -1    0    0  501    0  0.00000000000E+00  0.00000000000E+00 -0.50061113252E+03  0.50061113253E+03  0.25500000920E-02 0.  1.
    10030    2    1    2    0    0  0.00000000000E+00  0.00000000000E+00 -0.37539070552E+03  0.62583155956E+03  0.50074640204E+03 0.  0.
        4    1    3    3  502    0 -0.38090713695E+02  0.14132048059E+03  0.66178916761E+02  0.16063512264E+03  0.12699999809E+01 0. -1.
       -4    1    3    3    0  502  0.38090713695E+02 -0.14132048059E+03 -0.44156962228E+03  0.46519643692E+03  0.12699999809E+01 0.  1.
</event>
<event>
 5   0  0.1225989E-02  0.5003344E+03  0.7818609E-02  0.1013692E+00
        1   -1    0    0  501    0  0.00000000000E+00  0.00000000000E+00  0.27893354523E+03  0.27893354528E+03  0.50400001928E-02 0. -1.
       -1   -1    0    0    0  501  0.00000000000E+00  0.00000000000E+00 -0.22436754096E+03  0.22436754102E+03  0.50400001928E-02 0.  1.
    10030    2    1    2    0    0  0.00000000000E+00  0.00000000000E+00  0.54566004273E+02  0.50330108630E+03  0.50033442281E+03 0.  0.
        3    1    3    3  502    0  0.17952057051E+02 -0.11177539017E+03 -0.19712630965E+03  0.22732093251E+03  0.10100000352E+00 0.  1.
       -3    1    3    3    0  502 -0.17952057051E+02  0.11177539017E+03  0.25169231392E+03  0.27598015379E+03  0.10100000352E+00 0. -1.
</event>
<event>
 5   0  0.1967813E-02  0.5000245E+03  0.7818609E-02  0.1013773E+00
        2   -1    0    0  501    0  0.00000000000E+00  0.00000000000E+00  0.37371865340E+03  0.37371865341E+03  0.25500000920E-02 0.  1.
       -2   -1    0    0    0  501  0.00000000000E+00  0.00000000000E+00 -0.16725448760E+03  0.16725448762E+03  0.25500000920E-02 0. -1.
    10030    2    1    2    0    0  0.00000000000E+00  0.00000000000E+00  0.20646416580E+03  0.54097314103E+03  0.50002448696E+03 0.  0.
        5    1    3    3  502    0 -0.21374536646E+01 -0.10696325574E+03  0.34764977403E+03  0.36376938047E+03  0.46999998093E+01 0.  1.
       -5    1    3    3    0  502  0.21374536646E+01  0.10696325574E+03 -0.14118560823E+03  0.17720376056E+03  0.46999998093E+01 0. -1.
</event>
<event>
 5   0  0.1225989E-02  0.5000301E+03  0.7818609E-02  0.1013771E+00
        1   -1    0    0  501    0  0.00000000000E+00  0.00000000000E+00  0.80944694114E+03  0.80944694115E+03  0.50400001928E-02 0.  1.
       -1   -1    0    0    0  501  0.00000000000E+00  0.00000000000E+00 -0.77222496687E+02  0.77222496852E+02  0.50400001928E-02 0. -1.
    10030    2    1    2    0    0  0.00000000000E+00  0.00000000000E+00  0.73222444445E+03  0.88666943800E+03  0.50003005434E+03 0.  0.
        3    1    3    3  502    0 -0.22819401226E+03 -0.92313229331E+02  0.44367495258E+03  0.50738714340E+03  0.10100000352E+00 0. -1.
       -3    1    3    3    0  502  0.22819401226E+03  0.92313229331E+02  0.28854949187E+03  0.37928229460E+03  0.10100000352E+00 0.  1.
</event>
<event>
 5   0  0.1225989E-02  0.5002101E+03  0.7818609E-02  0.1013724E+00
        1   -1    0    0  501    0  0.00000000000E+00  0.00000000000E+00  0.48712886024E+03  0.48712886026E+03  0.50400001928E-02 0. -1.
       -1   -1    0    0    0  501  0.00000000000E+00  0.00000000000E+00 -0.12841063903E+03  0.12841063913E+03  0.50400001928E-02 0.  1.
    10030    2    1    2    0    0  0.00000000000E+00  0.00000000000E+00  0.35871822121E+03  0.61553949940E+03  0.50021006896E+03 0.  0.
        3    1    3    3  502    0 -0.26477486968E+02 -0.13755318974E+03  0.43432781618E+03  0.45635797290E+03  0.10100000352E+00 0. -1.
       -3    1    3    3    0  502  0.26477486968E+02  0.13755318974E+03 -0.75609594977E+02  0.15918152649E+03  0.10100000352E+00 0.  1.
</event>
<event>
 5   0  0.1923706E-02  0.4996621E+03  0.7818609E-02  0.1013867E+00
        2   -1    0    0  501    0  0.00000000000E+00  0.00000000000E+00  0.16461789188E+04  0.16461789188E+04  0.25500000920E-02 0. -1.
       -2   -1    0    0    0  501  0.00000000000E+00  0.00000000000E+00 -0.37915416137E+02  0.37915416223E+02  0.25500000920E-02 0.  1.
    10030    2    1    2    0    0  0.00000000000E+00  0.00000000000E+00  0.16082635027E+04  0.16840943350E+04  0.49966212110E+03 0.  0.
        3    1    3    3  502    0  0.53037315552E+02 -0.13581545457E+03  0.12036095918E+03  0.18906497623E+03  0.10100000352E+00 0.  1.
       -3    1    3    3    0  502 -0.53037315552E+02  0.13581545457E+03  0.14879025435E+04  0.14950293588E+04  0.10100000352E+00 0. -1.
</event>
<event>
 5   0  0.8012875E-03  0.4998122E+03  0.7818609E-02  0.1013828E+00
       -3   -1    0    0    0  501  0.00000000000E+00  0.00000000000E+00  0.28527713629E+03  0.28527715417E+03  0.10100000352E+00 0.  1.
        3   -1    0    0  501    0  0.00000000000E+00  0.00000000000E+00 -0.21892059693E+03  0.21892062023E+03  0.10100000352E+00 0. -1.
    10030    2    1    2    0    0  0.00000000000E+00  0.00000000000E+00  0.66356539360E+02  0.50419777440E+03  0.49981217011E+03 0.  0.
        1    1    3    3  502    0 -0.70200686177E+02 -0.18554220336E+03  0.18649542092E+03  0.27227667476E+03  0.50400001928E-02 0.  1.
       -1    1    3    3    0  502  0.70200686177E+02  0.18554220336E+03 -0.12013888156E+03  0.23192109964E+03  0.50400001928E-02 0. -1.
</event>
<event>
 5   0  0.1209831E-02  0.4998677E+03  0.7818609E-02  0.1013813E+00
        1   -1    0    0  501    0  0.00000000000E+00  0.00000000000E+00  0.43458524307E+03  0.43458524310E+03  0.50400001928E-02 0.  1.
       -1   -1    0    0    0  501  0.00000000000E+00  0.00000000000E+00 -0.14373919175E+03  0.14373919184E+03  0.50400001928E-02 0. -1.
    10030    2    1    2    0    0  0.00000000000E+00  0.00000000000E+00  0.29084605133E+03  0.57832443494E+03  0.49986770897E+03 0.  0.
        4    1    3    3  502    0  0.15132613035E+03  0.30549111034E+01 -0.84681296574E+02  0.17344009080E+03  0.12699999809E+01 0. -1.
       -4    1    3    3    0  502 -0.15132613035E+03 -0.30549111034E+01  0.37552734790E+03  0.40488434414E+03  0.12699999809E+01 0.  1.
</event>
<event>
 5   0  0.1209831E-02  0.5001178E+03  0.7818609E-02  0.1013748E+00
        1   -1    0    0  501    0  0.00000000000E+00  0.00000000000E+00  0.76217697943E+03  0.76217697945E+03  0.50400001928E-02 0. -1.
       -1   -1    0    0    0  501  0.00000000000E+00  0.00000000000E+00 -0.82040595849E+02  0.82040596004E+02  0.50400001928E-02 0.  1.
    10030    2    1    2    0    0  0.00000000000E+00  0.00000000000E+00  0.68013638358E+03  0.84421757545E+03  0.50011780055E+03 0.  0.
        4    1    3    3  502    0  0.10482133904E+03 -0.11166997235E+03  0.64078521571E+01  0.15329830173E+03  0.12699999809E+01 0.  1.
       -4    1    3    3    0  502 -0.10482133904E+03  0.11166997235E+03  0.67372853143E+03  0.69091927372E+03  0.12699999809E+01 0. -1.
</event>
<event>
 5   0  0.1227864E-02  0.5008810E+03  0.7818609E-02  0.1013549E+00
        1   -1    0    0  501    0  0.00000000000E+00  0.00000000000E+00  0.36119994743E+03  0.36119994746E+03  0.50400001928E-02 0. -1.
       -1   -1    0    0    0  501  0.00000000000E+00  0.00000000000E+00 -0.17364468664E+03  0.17364468672E+03  0.50400001928E-02 0.  1.
    10030    2    1    2    0    0  0.00000000000E+00  0.00000000000E+00  0.18755526078E+03  0.53484463418E+03  0.50088103064E+03 0.  0.
        5    1    3    3  502    0 -0.23366269685E+03  0.86857133890E+02  0.11895489966E+03  0.27625129097E+03  0.46999998093E+01 0. -1.
       -5    1    3    3    0  502  0.23366269685E+03 -0.86857133890E+02  0.68600361121E+02  0.25859334321E+03  0.46999998093E+01 0.  1.
</event>
<event>
 5   0  0.8012875E-03  0.5000700E+03  0.7818609E-02  0.1013761E+00
       -3   -1    0    0    0  501  0.00000000000E+00  0.00000000000E+00  0.24932671910E+03  0.24932673956E+03  0.10100000352E+00 0.  1.
        3   -1    0    0  501    0  0.00000000000E+00  0.00000000000E+00 -0.25074523587E+03  0.25074525621E+03  0.10100000352E+00 0. -1.
    10030    2    1    2    0    0  0.00000000000E+00  0.00000000000E+00 -0.14185167692E+01  0.50007199577E+03  0.50006998386E+03 0.  0.
        4    1    3    3  502    0  0.24962529135E+03  0.13588038767E+01 -0.14895642033E+02  0.25007623934E+03  0.12699999809E+01 0. -1.
       -4    1    3    3    0  502 -0.24962529135E+03 -0.13588038767E+01  0.13477125264E+02  0.24999575643E+03  0.12699999809E+01 0.  1.
</event>
<event>
 5   0  0.1209831E-02  0.5003369E+03  0.7818609E-02  0.1013691E+00
        1   -1    0    0  501    0  0.00000000000E+00  0.00000000000E+00  0.54632301010E+03  0.54632301012E+03  0.50400001928E-02 0.  1.
       -1   -1    0    0    0  501  0.00000000000E+00  0.00000000000E+00 -0.11455541350E+03  0.11455541361E+03  0.50400001928E-02 0. -1.
    10030    2    1    2    0    0  0.00000000000E+00  0.00000000000E+00  0.43176759660E+03  0.66087842374E+03  0.50033691997E+03 0.  0.
        4    1    3    3  502    0  0.12098099642E+03 -0.10446767883E+01  0.50510583182E+03  0.51939484699E+03  0.12699999809E+01 0.  1.
       -4    1    3    3    0  502 -0.12098099642E+03  0.10446767883E+01 -0.73338235220E+02  0.14148357675E+03  0.12699999809E+01 0. -1.
</event>
<event>
 5   0  0.1180937E-02  0.4998394E+03  0.7818609E-02  0.1013821E+00
       -1   -1    0    0    0  501  0.00000000000E+00  0.00000000000E+00  0.10303466428E+03  0.10303466440E+03  0.50400001928E-02 0.  1.
        1   -1    0    0  501    0  0.00000000000E+00  0.00000000000E+00 -0.60620243876E+03  0.60620243878E+03  0.50400001928E-02 0. -1.
    10030    2    1    2    0    0  0.00000000000E+00  0.00000000000E+00 -0.50316777448E+03  0.70923710318E+03  0.49983943348E+03 0.  0.
        1    1    3    3  502    0  0.96609030976E+02 -0.45543160642E+02  0.69020108060E+02  0.12716626789E+03  0.50400001928E-02 0.  1.
       -1    1    3    3    0  502 -0.96609030976E+02  0.45543160642E+02 -0.57218788254E+03  0.58207083529E+03  0.50400001928E-02 0. -1.
</event>
<event>
 5   0  0.1941387E-02  0.5005153E+03  0.7818609E-02  0.1013644E+00
        2   -1    0    0  501    0  0.00000000000E+00  0.00000000000E+00  0.65109635123E+03  0.65109635124E+03  0.25500000920E-02 0. -1.
       -2   -1    0    0    0  501  0.00000000000E+00  0.00000000000E+00 -0.96189911915E+02  0.96189911949E+02  0.25500000920E-02 0.  1.
    10030    2    1    2    0    0  0.00000000000E+00  0.00000000000E+00  0.55490643932E+03  0.74728626319E+03  0.50051533718E+03 0.  0.
        4    1    3    3  502    0 -0.71425371159E+02 -0.23980159116E+03  0.27062742272E+03  0.36857455365E+03  0.12699999809E+01 0.  1.
       -4    1    3    3    0  502  0.71425371159E+02  0.23980159116E+03  0.28427901660E+03  0.37871170954E+03  0.12699999809E+01 0. -1.
</event>
<event>
 5   0  0.1209831E-02  0.4998738E+03  0.7818609E-02  0.1013812E+00
        1   -1    0    0  501    0  0.00000000000E+00  0.00000000000E+00  0.39467160028E+03  0.39467160031E+03  0.50400001928E-02 0. -1.
       -1   -1    0    0    0  501  0.00000000000E+00  0.00000000000E+00 -0.15827958350E+03  0.15827958358E+03  0.50400001928E-02 0.  1.
    10030    2    1    2    0    0  0.00000000000E+00  0.00000000000E+00  0.23639201679E+03  0.55295118389E+03  0.49987381024E+03 0.  0.
        4    1    3    3  502    0  0.68443765769E+02 -0.23988261407E+03  0.13528377580E+03  0.28378077894E+03  0.12699999809E+01 0. -1.
       -4    1    3    3    0  502 -0.68443765769E+02  0.23988261407E+03  0.10110824099E+03  0.26917040495E+03  0.12699999809E+01 0.  1.
</event>
<event>
 5   0  0.1209831E-02  0.5002963E+03  0.7818609E-02  0.1013702E+00
        1   -1    0    0  501    0  0.00000000000E+00  0.00000000000E+00  0.15205233045E+04  0.15205233045E+04  0.50400001928E-02 0. -1.
       -1   -1    0    0    0  501  0.00000000000E+00  0.00000000000E+00 -0.41153008336E+02  0.41153008644E+02  0.50400001928E-02 0.  1.
    10030    2    1    2    0    0  0.00000000000E+00  0.00000000000E+00  0.14793702962E+04  0.15616763132E+04  0.50029634607E+03 0.  0.
        4    1    3    3  502    0  0.32477380070E+02  0.15400406987E+03  0.13465783112E+04  0.13557458445E+04  0.12699999809E+01 0. -1.
       -4    1    3    3    0  502 -0.32477380070E+02 -0.15400406987E+03  0.13279198495E+03  0.20593046865E+03  0.12699999809E+01 0.  1.
</event>
<event>
 5   0  0.1225989E-02  0.4993587E+03  0.7818609E-02  0.1013946E+00
       -1   -1    0    0    0  501  0.00000000000E+00  0.00000000000E+00  0.76411099449E+02  0.76411099615E+02  0.50400001928E-02 0. -1.
        1   -1    0    0  501    0  0.00000000000E+00  0.00000000000E+00 -0.81584730592E+03  0.81584730593E+03  0.50400001928E-02 0.  1.
    10030    2    1    2    0    0  0.00000000000E+00  0.00000000000E+00 -0.73943620647E+03  0.89225840555E+03  0.49935874763E+03 0.  0.
        3    1    3    3  502    0 -0.64466312630E+02  0.13956591374E+03 -0.18187766039E+02  0.15480747649E+03  0.10100000352E+00 0. -1.
       -3    1    3    3    0  502  0.64466312630E+02 -0.13956591374E+03 -0.72124844043E+03  0.73745092906E+03  0.10100000352E+00 0.  1.
</event>
<event>
 5   0  0.1225989E-02  0.5000445E+03  0.7818609E-02  0.1013767E+00
       -1   -1    0    0    0  501  0.00000000000E+00  0.00000000000E+00  0.20466825181E+03  0.20466825187E+03  0.50400001928E-02 0. -1.
        1   -1    0    0  501    0  0.00000000000E+00  0.00000000000E+00 -0.30542652861E+03  0.30542652865E+03  0.50400001928E-02 0.  1.
    10030    2    1    2    0    0  0.00000000000E+00  0.00000000000E+00 -0.10075827680E+03  0.51009478053E+03  0.50004445280E+03 0.  0.
        3    1    3    3  502    0  0.15952254967E+03 -0.33425799185E+02 -0.24378508352E+03  0.29325058406E+03  0.10100000352E+00 0.  1.
       -3    1    3    3    0  502 -0.15952254967E+03  0.33425799185E+02  0.14302680672E+03  0.21684419647E+03  0.10100000352E+00 0. -1.
</event>
<event>
 5   0  0.8012875E-03  0.4999591E+03  0.7818609E-02  0.1013790E+00
       -3   -1    0    0    0  501  0.00000000000E+00  0.00000000000E+00  0.80003503156E+03  0.80003503793E+03  0.10100000352E+00 0.  1.
        3   -1    0    0  501    0  0.00000000000E+00  0.00000000000E+00 -0.78108748084E+02  0.78108813384E+02  0.10100000352E+00 0. -1.
    10030    2    1    2    0    0  0.00000000000E+00  0.00000000000E+00  0.72192628347E+03  0.87814385132E+03  0.49995906316E+03 0.  0.
        4    1    3    3  502    0 -0.20291721810E+03 -0.13709596495E+03  0.27283556175E+03  0.36662181831E+03  0.12699999809E+01 0.  1.
       -4    1    3    3    0  502  0.20291721810E+03  0.13709596495E+03  0.44909072172E+03  0.51152203300E+03  0.12699999809E+01 0. -1.
</event>
<event>
 5   0  0.1941387E-02  0.5005670E+03  0.7818609E-02  0.1013631E+00
        2   -1    0    0  501    0  0.00000000000E+00  0.00000000000E+00  0.12098836593E+04  0.12098836593E+04  0.25500000920E-02 0. -1.
       -2   -1    0    0    0  501  0.00000000000E+00  0.00000000000E+00 -0.51775076005E+02  0.51775076068E+02  0.25500000920E-02 0.  1.
    10030    2    1    2    0    0  0.00000000000E+00  0.00000000000E+00  0.11581085833E+04  0.12616587354E+04  0.50056695241E+03 0.  0.
        4    1    3    3  502    0 -0.96206000496E+02  0.30744548074E+02  0.11562306250E+04  0.11606341770E+04  0.12699999809E+01 0. -1.
       -4    1    3    3    0  502  0.96206000496E+02 -0.30744548074E+02  0.18779583161E+01  0.10102455838E+03  0.12699999809E+01 0.  1.
</event>
<event>
 5   0  0.1217270E-02  0.5004882E+03  0.7818609E-02  0.1013652E+00
        1   -1    0    0  501    0  0.00000000000E+00  0.00000000000E+00  0.67871310083E+03  0.67871310085E+03  0.50400001928E-02 0. -1.
       -1   -1    0    0    0  501  0.00000000000E+00  0.00000000000E+00 -0.92265964019E+02  0.92265964157E+02  0.50400001928E-02 0.  1.
    10030    2    1    2    0    0  0.00000000000E+00  0.00000000000E+00  0.58644713682E+03  0.77097906501E+03  0.50048823603E+03 0.  0.
        2    1    3    3  502    0 -0.10639866016E+03  0.29253450478E+02  0.63921129979E+03  0.64866595798E+03  0.25500000920E-02 0. -1.
       -2    1    3    3    0  502  0.10639866016E+03 -0.29253450478E+02 -0.52764162980E+02  0.12231310703E+03  0.25500000920E-02 0.  1.
</event>
<event>
 5   0  0.1209831E-02  0.5028301E+03  0.7818609E-02  0.1013043E+00
       -1   -1    0    0    0  501  0.00000000000E+00  0.00000000000E+00  0.23137382405E+03  0.23137382410E+03  0.50400001928E-02 0.  1.
        1   -1    0    0  501    0  0.00000000000E+00  0.00000000000E+00 -0.27319217273E+03  0.27319217278E+03  0.50400001928E-02 0. -1.
    10030    2    1    2    0    0  0.00000000000E+00  0.00000000000E+00 -0.41818348681E+02  0.50456599688E+03  0.50283006167E+03 0.  0.
        4    1    3    3  502    0 -0.87927766041E+02 -0.16528248191E+03  0.14747453373E+03  0.23832738379E+03  0.12699999809E+01 0.  1.
       -4    1    3    3    0  502  0.87927766041E+02  0.16528248191E+03 -0.18929288241E+03  0.26623861309E+03  0.12699999809E+01 0. -1.
</event>
<event>
 5   0  0.1941387E-02  0.4953794E+03  0.7818609E-02  0.1014992E+00
        2   -1    0    0  501    0  0.00000000000E+00  0.00000000000E+00  0.71153038561E+03  0.71153038561E+03  0.25500000920E-02 0. -1.
       -2   -1    0    0    0  501  0.00000000000E+00  0.00000000000E+00 -0.86222860973E+02  0.86222861011E+02  0.25500000920E-02 0.  1.
    10030    2    1    2    0    0  0.00000000000E+00  0.00000000000E+00  0.62530752463E+03  0.79775324662E+03  0.49537939212E+03 0.  0.
        4    1    3    3  502    0  0.24610227768E+03  0.21531134803E+02  0.34140051700E+03  0.42140935769E+03  0.12699999809E+01 0.  1.
       -4    1    3    3    0  502 -0.24610227768E+03 -0.21531134803E+02  0.28390700764E+03  0.37634388893E+03  0.12699999809E+01 0. -1.
</event>
<event>
 5   0  0.1967813E-02  0.5011629E+03  0.7818609E-02  0.1013476E+00
        2   -1    0    0  501    0  0.00000000000E+00  0.00000000000E+00  0.34699449904E+03  0.34699449905E+03  0.25500000920E-02 0. -1.
       -2   -1    0    0    0  501  0.00000000000E+00  0.00000000000E+00 -0.18095692889E+03  0.18095692891E+03  0.25500000920E-02 0.  1.
    10030    2    1    2    0    0  0.00000000000E+00  0.00000000000E+00  0.16603757015E+03  0.52795142796E+03  0.50116288328E+03 0.  0.
        5    1    3    3  502    0 -0.14880218873E+03  0.19934398109E+03  0.11442607499E+03  0.27385311903E+03  0.46999998093E+01 0. -1.
       -5    1    3    3    0  502  0.14880218873E+03 -0.19934398109E+03  0.51611495158E+02  0.25409830893E+03  0.46999998093E+01 0.  1.
</event>
<event>
 5   0  0.1217270E-02  0.4994088E+03  0.7818609E-02  0.1013933E+00
        1   -1    0    0  501    0  0.00000000000E+00  0.00000000000E+00  0.13362564887E+03  0.13362564896E+03  0.50400001928E-02 0.  1.
       -1   -1    0    0    0  501  0.00000000000E+00  0.00000000000E+00 -0.46661916057E+03  0.46661916060E+03  0.50400001928E-02 0. -1.
    10030    2    1    2    0    0  0.00000000000E+00  0.00000000000E+00 -0.33299351170E+03  0.60024480957E+03  0.49940880306E+03 0.  0.
        2    1    3    3  502    0  0.10136642871E+03 -0.14874155540E+03  0.41517451932E+02  0.18472385334E+03  0.25500000920E-02 0.  1.
       -2    1    3    3    0  502 -0.10136642871E+03  0.14874155540E+03 -0.37451096364E+03  0.41552095622E+03  0.25500000920E-02 0. -1.
</event>
<event>
 5   0  0.1941387E-02  0.5012981E+03  0.7818609E-02  0.1013441E+00
       -2   -1    0    0    0  501  0.00000000000E+00  0.00000000000E+00  0.68742577049E+03  0.68742577050E+03  0.25500000920E-02 0. -1.
        2   -1    0    0  501    0  0.00000000000E+00  0.00000000000E+00 -0.91391589757E+02  0.91391589792E+02  0.25500000920E-02 0.  1.
    10030    2    1    2    0    0  0.00000000000E+00  0.00000000000E+00  0.59603418074E+03  0.77881736029E+03  0.50129805115E+03 0.  0.
        4    1    3    3  502    0 -0.11163945371E+03  0.16613320473E+03  0.63635775428E+02  0.21003507838E+03  0.12699999809E+01 0.  1.
       -4    1    3    3    0  502  0.11163945371E+03 -0.16613320473E+03  0.53239840531E+03  0.56878228191E+03  0.12699999809E+01 0. -1.
</event>
<event>
 5   0  0.1923706E-02  0.5008247E+03  0.7818609E-02  0.1013564E+00
        2   -1    0    0  501    0  0.00000000000E+00  0.00000000000E+00  0.10780894599E+04  0.10780894599E+04  0.25500000920E-02 0.  1.
       -2   -1    0    0    0  501  0.00000000000E+00  0.00000000000E+00 -0.58164315418E+02  0.58164315473E+02  0.25500000920E-02 0. -1.
    10030    2    1    2    0    0  0.00000000000E+00  0.00000000000E+00  0.10199251445E+04  0.11362537754E+04  0.50082466165E+03 0.  0.
        3    1    3    3  502    0 -0.76633564536E+02 -0.23411952188E+03  0.40795206049E+03  0.47656011961E+03  0.10100000352E+00 0. -1.
       -3    1    3    3    0  502  0.76633564536E+02  0.23411952188E+03  0.61197308402E+03  0.65969365581E+03  0.10100000352E+00 0.  1.
</event>
<event>
 5   0  0.1227864E-02  0.5002958E+03  0.7818609E-02  0.1013702E+00
       -1   -1    0    0    0  501  0.00000000000E+00  0.00000000000E+00  0.61287403564E+02  0.61287403771E+02  0.50400001928E-02 0.  1.
        1   -1    0    0  501    0  0.00000000000E+00  0.00000000000E+00 -0.10209923449E+04  0.10209923449E+04  0.50400001928E-02 0. -1.
    10030    2    1    2    0    0  0.00000000000E+00  0.00000000000E+00 -0.95970494135E+03  0.10822797487E+04  0.50029579250E+03 0.  0.
        5    1    3    3  502    0  0.71984220083E+02  0.22702966093E+03 -0.64499568009E+03  0.68757960427E+03  0.46999998093E+01 0. -1.
       -5    1    3    3    0  502 -0.71984220083E+02 -0.22702966093E+03 -0.31470926127E+03  0.39470014443E+03  0.46999998093E+01 0.  1.
</event>
<event>
 5   0  0.1982847E-02  0.5004245E+03  0.7818609E-02  0.1013668E+00
       -2   -1    0    0    0  501  0.00000000000E+00  0.00000000000E+00  0.10279980475E+03  0.10279980478E+03  0.25500000920E-02 0. -1.
        2   -1    0    0  501    0  0.00000000000E+00  0.00000000000E+00 -0.60901066553E+03  0.60901066553E+03  0.25500000920E-02 0.  1.
    10030    2    1    2    0    0  0.00000000000E+00  0.00000000000E+00 -0.50621086078E+03  0.71181047032E+03  0.50042452985E+03 0.  0.
        2    1    3    3  502    0  0.61907323452E+02  0.20690867377E+03 -0.43281686618E+03  0.48370875083E+03  0.25500000920E-02 0.  1.
       -2    1    3    3    0  502 -0.61907323452E+02 -0.20690867377E+03 -0.73393994603E+02  0.22810171948E+03  0.25500000920E-02 0. -1.
</event>
<event>
 5   0  0.1227864E-02  0.5004375E+03  0.7818609E-02  0.1013665E+00
       -1   -1    0    0    0  501  0.00000000000E+00  0.00000000000E+00  0.81702222467E+02  0.81702222623E+02  0.50400001928E-02 0. -1.
        1   -1    0    0  501    0  0.00000000000E+00  0.00000000000E+00 -0.76631231967E+03  0.76631231969E+03  0.50400001928E-02 0.  1.
    10030    2    1    2    0    0  0.00000000000E+00  0.00000000000E+00 -0.68461009720E+03  0.84801454231E+03  0.50043748738E+03 0.  0.
        5    1    3    3  502    0 -0.60226742582E+02  0.24270718978E+03 -0.35467514478E+03  0.43399376587E+03  0.46999998093E+01 0. -1.
       -5    1    3    3    0  502  0.60226742582E+02 -0.24270718978E+03 -0.32993495243E+03  0.41402077644E+03  0.46999998093E+01 0.  1.
</event>
<event>
 5   0  0.1982847E-02  0.5034460E+03  0.7818609E-02  0.1012883E+00
       -2   -1    0    0    0  501  0.00000000000E+00  0.00000000000E+00  0.13678582087E+03  0.13678582089E+03  0.25500000920E-02 0. -1.
        2   -1    0    0  501    0  0.00000000000E+00  0.00000000000E+00 -0.46323855385E+03  0.46323855386E+03  0.25500000920E-02 0.  1.
    10030    2    1    2    0    0  0.00000000000E+00  0.00000000000E+00 -0.32645273299E+03  0.60002437475E+03  0.50344598858E+03 0.  0.
        2    1    3    3  502    0  0.20314376673E+03 -0.14574490877E+03 -0.12836652811E+03  0.28104614201E+03  0.25500000920E-02 0. -1.
       -2    1    3    3    0  502 -0.20314376673E+03  0.14574490877E+03 -0.19808620488E+03  0.31897823274E+03  0.25500000920E-02 0.  1.
</event>
<event>
 5   0  0.1225989E-02  0.4981292E+03  0.7818609E-02  0.1014268E+00
        1   -1    0    0  501    0  0.00000000000E+00  0.00000000000E+00  0.48973094639E+03  0.48973094641E+03  0.50400001928E-02 0.  1.
       -1   -1    0    0    0  501  0.00000000000E+00  0.00000000000E+00 -0.12666787521E+03  0.12666787531E+03  0.50400001928E-02 0. -1.
    10030    2    1    2    0    0  0.00000000000E+00  0.00000000000E+00  0.36306307118E+03  0.61639882172E+03  0.49812921392E+03 0.  0.
        3    1    3    3  502    0 -0.23505965280E+03 -0.72590957053E+02  0.13343584723E+03  0.27987072542E+03  0.10100000352E+00 0. -1.
       -3    1    3    3    0  502  0.23505965280E+03  0.72590957053E+02  0.22962722395E+03  0.33652809630E+03  0.10100000352E+00 0.  1.
</event>
<event>
 5   0  0.1923706E-02  0.4997712E+03  0.7818609E-02  0.1013839E+00
        2   -1    0    0  501    0  0.00000000000E+00  0.00000000000E+00  0.73554623083E+03  0.73554623084E+03  0.25500000920E-02 0.  1.
       -2   -1    0    0    0  501  0.00000000000E+00  0.00000000000E+00 -0.84893120244E+02  0.84893120282E+02  0.25500000920E-02 0. -1.
    10030    2    1    2    0    0  0.00000000000E+00  0.00000000000E+00  0.65065311059E+03  0.82043935112E+03  0.49977120620E+03 0.  0.
        3    1    3    3  502    0 -0.11399543918E+03 -0.53238581125E+02  0.67975706366E+03  0.69130238135E+03  0.10100000352E+00 0.  1.
       -3    1    3    3    0  502  0.11399543918E+03  0.53238581125E+02 -0.29103953067E+02  0.12913696977E+03  0.10100000352E+00 0. -1.
</event>
<event>
 5   0  0.1217270E-02  0.5000500E+03  0.7818609E-02  0.1013766E+00
        1   -1    0    0  501    0  0.00000000000E+00  0.00000000000E+00  0.64172900307E+03  0.64172900309E+03  0.50400001928E-02 0.  1.
       -1   -1    0    0    0  501  0.00000000000E+00  0.00000000000E+00 -0.97412619910E+02  0.97412620040E+02  0.50400001928E-02 0. -1.
    10030    2    1    2    0    0  0.00000000000E+00  0.00000000000E+00  0.54431638316E+03  0.73914162313E+03  0.50005001157E+03 0.  0.
        2    1    3    3  502    0 -0.52343570765E+02 -0.13033910944E+03 -0.33584997840E+02  0.14441635965E+03  0.25500000920E-02 0. -1.
       -2    1    3    3    0  502  0.52343570765E+02  0.13033910944E+03  0.57790138100E+03  0.59472526348E+03  0.25500000920E-02 0.  1.
</event>
<event>
 5   0  0.1180937E-02  0.5059128E+03  0.7818609E-02  0.1012247E+00
       -1   -1    0    0    0  501  0.00000000000E+00  0.00000000000E+00  0.20354571321E+02  0.20354571945E+02  0.50400001928E-02 0. -1.
        1   -1    0    0  501    0  0.00000000000E+00  0.00000000000E+00 -0.31436157951E+04  0.31436157951E+04  0.50400001928E-02 0.  1.
    10030    2    1    2    0    0  0.00000000000E+00  0.00000000000E+00 -0.31232612237E+04  0.31639703670E+04  0.50591284981E+03 0.  0.
        1    1    3    3  502    0  0.14254253990E+03  0.69654375423E+02 -0.32947143837E+03  0.36567955429E+03  0.50400001928E-02 0. -1.
       -1    1    3    3    0  502 -0.14254253990E+03 -0.69654375423E+02 -0.27937897854E+04  0.27982908127E+04  0.50400001928E-02 0.  1.
</event>
<event>
 5   0  0.1982847E-02  0.5013272E+03  0.7818609E-02  0.1013433E+00
        2   -1    0    0  501    0  0.00000000000E+00  0.00000000000E+00  0.98985236736E+02  0.98985236769E+02  0.25500000920E-02 0. -1.
       -2   -1    0    0    0  501  0.00000000000E+00  0.00000000000E+00 -0.63476372549E+03  0.63476372549E+03  0.25500000920E-02 0.  1.
    10030    2    1    2    0    0  0.00000000000E+00  0.00000000000E+00 -0.53577848875E+03  0.73374896226E+03  0.50132718918E+03 0.  0.
        2    1    3    3  502    0  0.11245190223E+03  0.22383488026E+03 -0.28136352550E+03  0.37671330933E+03  0.25500000920E-02 0.  1.
       -2    1    3    3    0  502 -0.11245190223E+03 -0.22383488026E+03 -0.25441496325E+03  0.35703565293E+03  0.25500000920E-02 0. -1.
</event>
<event>
 5   0  0.1225989E-02  0.4999452E+03  0.7818609E-02  0.1013793E+00
        1   -1    0    0  501    0  0.00000000000E+00  0.00000000000E+00  0.13242435691E+03  0.13242435700E+03  0.50400001928E-02 0.  1.
       -1   -1    0    0    0  501  0.00000000000E+00  0.00000000000E+00 -0.47186408553E+03  0.47186408556E+03  0.50400001928E-02 0. -1.
    10030    2    1    2    0    0  0.00000000000E+00  0.00000000000E+00 -0.33943972863E+03  0.60428844256E+03  0.49994518944E+03 0.  0.
        3    1    3    3  502    0 -0.38876465924E+02  0.96487194713E+02  0.10501935237E+03  0.14781824285E+03  0.10100000352E+00 0.  1.
       -3    1    3    3    0  502  0.38876465924E+02 -0.96487194713E+02 -0.44445908100E+03  0.45647019971E+03  0.10100000352E+00 0. -1.
</event>
<event>
 5   0  0.1941387E-02  0.4991930E+03  0.7818609E-02  0.1013990E+00
       -2   -1    0    0    0  501  0.00000000000E+00  0.00000000000E+00  0.11624790010E+03  0.11624790013E+03  0.25500000920E-02 0.  1.
        2   -1    0    0  501    0  0.00000000000E+00  0.00000000000E+00 -0.53591002812E+03  0.53591002813E+03  0.25500000920E-02 0. -1.
    10030    2    1    2    0    0  0.00000000000E+00  0.00000000000E+00 -0.41966212802E+03  0.65215792826E+03  0.49919301046E+03 0.  0.
        4    1    3    3  502    0  0.24297386590E+03 -0.57093430755E+02 -0.21103068550E+03  0.32685091780E+03  0.12699999809E+01 0. -1.
       -4    1    3    3    0  502 -0.24297386590E+03  0.57093430755E+02 -0.20863144252E+03  0.32530701046E+03  0.12699999809E+01 0.  1.
</event>
<event>
 5   0  0.1923706E-02  0.5001562E+03  0.7818609E-02  0.1013738E+00
        2   -1    0    0  501    0  0.00000000000E+00  0.00000000000E+00  0.12993879743E+03  0.12993879745E+03  0.25500000920E-02 0. -1.
       -2   -1    0    0    0  501  0.00000000000E+00  0.00000000000E+00 -0.48129623995E+03  0.48129623996E+03  0.25500000920E-02 0.  1.
    10030    2    1    2    0    0  0.00000000000E+00  0.00000000000E+00 -0.35135744252E+03  0.61123503741E+03  0.50015619415E+03 0.  0.
        3    1    3    3  502    0  0.16479483530E+03 -0.86711970035E+02  0.28313923185E+02  0.18835602442E+03  0.10100000352E+00 0. -1.
       -3    1    3    3    0  502 -0.16479483530E+03  0.86711970035E+02 -0.37967136571E+03  0.42287901299E+03  0.10100000352E+00 0.  1.
</event>
<event>
 5   0  0.1967813E-02  0.5000939E+03  0.7818609E-02  0.1013754E+00
        2   -1    0    0  501    0  0.00000000000E+00  0.00000000000E+00  0.12507277646E+04  0.12507277646E+04  0.25500000920E-02 0. -1.
       -2   -1    0    0    0  501  0.00000000000E+00  0.00000000000E+00 -0.49989683313E+02  0.49989683378E+02  0.25500000920E-02 0.  1.
    10030    2    1    2    0    0  0.00000000000E+00  0.00000000000E+00  0.12007380813E+04  0.13007174480E+04  0.50009393081E+03 0.  0.
        5    1    3    3  502    0  0.79814062788E+02 -0.17261563307E+03  0.17828623563E+03  0.26071922294E+03  0.46999998093E+01 0.  1.
       -5    1    3    3    0  502 -0.79814062788E+02  0.17261563307E+03  0.10224518457E+04  0.10399982251E+04  0.46999998093E+01 0. -1.
</event>
<event>
 5   0  0.1209831E-02  0.5007335E+03  0.7818609E-02  0.1013588E+00
       -1   -1    0    0    0  501  0.00000000000E+00  0.00000000000E+00  0.96311205250E+02  0.96311205381E+02  0.50400001928E-02 0.  1.
        1   -1    0    0  501    0  0.00000000000E+00  0.00000000000E+00 -0.65084335881E+03  0.65084335883E+03  0.50400001928E-02 0. -1.
    10030    2    1    2    0    0  0.00000000000E+00  0.00000000000E+00 -0.55453215356E+03  0.74715456421E+03  0.50073349547E+03 0.  0.
        4    1    3    3  502    0 -0.12912290382E+03 -0.15308437509E+03 -0.53078577820E+02  0.20718710990E+03  0.12699999809E+01 0.  1.
       -4    1    3    3    0  502  0.12912290382E+03  0.15308437509E+03 -0.50145357574E+03  0.53996745431E+03  0.12699999809E+01 0. -1.
</event>
<event>
 5   0  0.1180937E-02  0.5001160E+03  0.7818609E-02  0.1013749E+00
       -1   -1    0    0    0  501  0.00000000000E+00  0.00000000000E+00  0.72955446267E+03  0.72955446269E+03  0.50400001928E-02 0.  1.
        1   -1    0    0  501    0  0.00000000000E+00  0.00000000000E+00 -0.85708466688E+02  0.85708466836E+02  0.50400001928E-02 0. -1.
    10030    2    1    2    0    0  0.00000000000E+00  0.00000000000E+00  0.64384599598E+03  0.81526292952E+03  0.50011596426E+03 0.  0.
        1    1    3    3  502    0  0.21222572099E+03 -0.10489752415E+03  0.19064045366E+03  0.30395234794E+03  0.50400001928E-02 0. -1.
       -1    1    3    3    0  502 -0.21222572099E+03  0.10489752415E+03  0.45320554232E+03  0.51131058158E+03  0.50400001928E-02 0.  1.
</event>
<event>
 5   0  0.1225989E-02  0.5004769E+03  0.7818609E-02  0.1013655E+00
        1   -1    0    0  501    0  0.00000000000E+00  0.00000000000E+00  0.54764512089E+03  0.54764512091E+03  0.50400001928E-02 0. -1.
       -1   -1    0    0    0  501  0.00000000000E+00  0.00000000000E+00 -0.11434281267E+03  0.11434281279E+03  0.50400001928E-02 0.  1.
    10030    2    1    2    0    0  0.00000000000E+00  0.00000000000E+00  0.43330230821E+03  0.66198793370E+03  0.50047690662E+03 0.  0.
        3    1    3    3  502    0 -0.86807081106E+02 -0.16101832273E+03 -0.92074980819E+01  0.18315883219E+03  0.10100000352E+00 0.  1.
       -3    1    3    3    0  502  0.86807081106E+02  0.16101832273E+03  0.44250980630E+03  0.47882910151E+03  0.10100000352E+00 0. -1.
</event>
<event>
 5   0  0.1941387E-02  0.4988603E+03  0.7818609E-02  0.1014077E+00
        2   -1    0    0  501    0  0.00000000000E+00  0.00000000000E+00  0.65832790936E+03  0.65832790937E+03  0.25500000920E-02 0. -1.
       -2   -1    0    0    0  501  0.00000000000E+00  0.00000000000E+00 -0.94505166596E+02  0.94505166631E+02  0.25500000920E-02 0.  1.
    10030    2    1    2    0    0  0.00000000000E+00  0.00000000000E+00  0.56382274277E+03  0.75283307600E+03  0.49886025604E+03 0.  0.
        4    1    3    3  502    0 -0.62031738117E+02 -0.10325547005E+03 -0.47696712706E+02  0.12956163758E+03  0.12699999809E+01 0.  1.
       -4    1    3    3    0  502  0.62031738117E+02  0.10325547005E+03  0.61151945547E+03  0.62327143842E+03  0.12699999809E+01 0. -1.
</event>
<event>
 5   0  0.1855407E-02  0.5000310E+03  0.7818609E-02  0.1013771E+00
       -2   -1    0    0    0  501  0.00000000000E+00  0.00000000000E+00  0.12062900209E+03  0.12062900212E+03  0.25500000920E-02 0.  1.
        2   -1    0    0  501    0  0.00000000000E+00  0.00000000000E+00 -0.51818184848E+03  0.51818184848E+03  0.25500000920E-02 0. -1.
    10030    2    1    2    0    0  0.00000000000E+00  0.00000000000E+00 -0.39755284638E+03  0.63881085060E+03  0.50003103621E+03 0.  0.
        1    1    3    3  502    0  0.19028391184E+03 -0.10190083056E+03 -0.37603358431E+02  0.21910216559E+03  0.50400001928E-02 0.  1.
       -1    1    3    3    0  502 -0.19028391184E+03  0.10190083056E+03 -0.35994948795E+03  0.41970868501E+03  0.50400001928E-02 0. -1.
</event>
<event>
 5   0  0.1967813E-02  0.4998599E+03  0.7818609E-02  0.1013815E+00
       -2   -1    0    0    0  501  0.00000000000E+00  0.00000000000E+00  0.17554649622E+03  0.17554649624E+03  0.25500000920E-02 0. -1.
        2   -1    0    0  501    0  0.00000000000E+00  0.00000000000E+00 -0.35583155725E+03  0.35583155726E+03  0.25500000920E-02 0.  1.
    10030    2    1    2    0    0  0.00000000000E+00  0.00000000000E+00 -0.18028506103E+03  0.53137805350E+03  0.49985991289E+03 0.  0.
        5    1    3    3  502    0  0.21726693119E+02 -0.29726079580E+02  0.17260003047E+03  0.17654616823E+03  0.46999998093E+01 0. -1.
       -5    1    3    3    0  502 -0.21726693119E+02  0.29726079580E+02 -0.35288509150E+03  0.35483188527E+03  0.46999998093E+01 0.  1.
</event>
<event>
 5   0  0.1941387E-02  0.4994028E+03  0.7818609E-02  0.1013935E+00
        2   -1    0    0  501    0  0.00000000000E+00  0.00000000000E+00  0.47450230153E+03  0.47450230153E+03  0.25500000920E-02 0.  1.
       -2   -1    0    0    0  501  0.00000000000E+00  0.00000000000E+00 -0.13140252525E+03  0.13140252528E+03  0.25500000920E-02 0. -1.
    10030    2    1    2    0    0  0.00000000000E+00  0.00000000000E+00  0.34309977627E+03  0.60590482681E+03  0.49940284608E+03 0.  0.
        4    1    3    3  502    0 -0.23289093251E+03 -0.47425298007E+02  0.78659565917E+02  0.25035232283E+03  0.12699999809E+01 0. -1.
       -4    1    3    3    0  502  0.23289093251E+03  0.47425298007E+02  0.26444021036E+03  0.35555250398E+03  0.12699999809E+01 0.  1.
</event>
<event>
 5   0  0.1982847E-02  0.5007805E+03  0.7818609E-02  0.1013575E+00
        2   -1    0    0  501    0  0.00000000000E+00  0.00000000000E+00  0.89923560118E+03  0.89923560119E+03  0.25500000920E-02 0. -1.
       -2   -1    0    0    0  501  0.00000000000E+00  0.00000000000E+00 -0.69720623794E+02  0.69720623840E+02  0.25500000920E-02 0.  1.
    10030    2    1    2    0    0  0.00000000000E+00  0.00000000000E+00  0.82951497739E+03  0.96895622503E+03  0.50078045919E+03 0.  0.
        2    1    3    3  502    0 -0.17954761460E+03 -0.12124951619E+03  0.17188052272E+03  0.27655325922E+03  0.25500000920E-02 0.  1.
       -2    1    3    3    0  502  0.17954761460E+03  0.12124951619E+03  0.65763445467E+03  0.69240296581E+03  0.25500000920E-02 0. -1.
</event>
<event>
 5   0  0.1967813E-02  0.4994811E+03  0.7818609E-02  0.1013914E+00
       -2   -1    0    0    0  501  0.00000000000E+00  0.00000000000E+00  0.23400849021E+02  0.23400849159E+02  0.25500000920E-02 0. -1.
        2   -1    0    0  501    0  0.00000000000E+00  0.00000000000E+00 -0.26653025188E+04  0.26653025188E+04  0.25500000920E-02 0.  1.
    10030    2    1    2    0    0  0.00000000000E+00  0.00000000000E+00 -0.26419016698E+04  0.26887033680E+04  0.49948109884E+03 0.  0.
        5    1    3    3  502    0  0.13082711174E+03 -0.13950051466E+03 -0.45678130447E+03  0.49522457216E+03  0.46999998093E+01 0. -1.
       -5    1    3    3    0  502 -0.13082711174E+03  0.13950051466E+03 -0.21851203653E+04  0.21934787958E+04  0.46999998093E+01 0.  1.
</event>
<event>
 5   0  0.1967813E-02  0.5001870E+03  0.7818609E-02  0.1013730E+00
       -2   -1    0    0    0  501  0.00000000000E+00  0.00000000000E+00  0.33328101102E+02  0.33328101199E+02  0.25500000920E-02 0. -1.
        2   -1    0    0  501    0  0.00000000000E+00  0.00000000000E+00 -0.18766975105E+04  0.18766975105E+04  0.25500000920E-02 0.  1.
    10030    2    1    2    0    0  0.00000000000E+00  0.00000000000E+00 -0.18433694094E+04  0.19100256117E+04  0.50018702287E+03 0.  0.
        5    1    3    3  502    0 -0.22274658435E+03 -0.10746557939E+03 -0.10624973166E+04  0.10909113297E+04  0.46999998093E+01 0. -1.
       -5    1    3    3    0  502  0.22274658435E+03  0.10746557939E+03 -0.78087209286E+03  0.81911428202E+03  0.46999998093E+01 0.  1.
</event>
<event>
 5   0  0.8012875E-03  0.5006387E+03  0.7818609E-02  0.1013612E+00
       -4   -1    0    0    0  501  0.00000000000E+00  0.00000000000E+00  0.15561349245E+03  0.15561867476E+03  0.12699999809E+01 0.  1.
        4   -1    0    0  501    0  0.00000000000E+00  0.00000000000E+00 -0.40264996740E+03  0.40265197025E+03  0.12699999809E+01 0. -1.
    10030    2    1    2    0    0  0.00000000000E+00  0.00000000000E+00 -0.24703647494E+03  0.55827064500E+03  0.50063868520E+03 0.  0.
        4    1    3    3  502    0  0.12999655897E+03 -0.83269943208E+02 -0.34324202622E+03  0.37636377382E+03  0.12699999809E+01 0. -1.
       -4    1    3    3    0  502 -0.12999655897E+03  0.83269943208E+02  0.96205551274E+02  0.18190687118E+03  0.12699999809E+01 0.  1.
</event>
<event>
 5   0  0.8012875E-03  0.5001238E+03  0.7818609E-02  0.1013747E+00
       -4   -1    0    0    0  501  0.00000000000E+00  0.00000000000E+00  0.93159087069E+02  0.93167743363E+02  0.12699999809E+01 0.  1.
        4   -1    0    0  501    0  0.00000000000E+00  0.00000000000E+00 -0.67118729258E+03  0.67118849411E+03  0.12699999809E+01 0. -1.
    10030    2    1    2    0    0  0.00000000000E+00  0.00000000000E+00 -0.57802820551E+03  0.76435623747E+03  0.50012383606E+03 0.  0.
        1    1    3    3  502    0 -0.27347914335E+02 -0.18593772977E+03 -0.54112072133E+03  0.57282840611E+03  0.50400001928E-02 0. -1.
       -1    1    3    3    0  502  0.27347914335E+02  0.18593772977E+03 -0.36907484180E+02  0.19152783136E+03  0.50400001928E-02 0.  1.
</event>
<event>
 5   0  0.1967813E-02  0.5012486E+03  0.7818609E-02  0.1013454E+00
       -2   -1    0    0    0  501  0.00000000000E+00  0.00000000000E+00  0.27235794789E+03  0.27235794790E+03  0.25500000920E-02 0.  1.
        2   -1    0    0  501    0  0.00000000000E+00  0.00000000000E+00 -0.23062492108E+03  0.23062492110E+03  0.25500000920E-02 0. -1.
    10030    2    1    2    0    0  0.00000000000E+00  0.00000000000E+00  0.41733026803E+02  0.50298286899E+03  0.50124856207E+03 0.  0.
        5    1    3    3  502    0 -0.14425356391E+03  0.99197834338E+02  0.20076631603E+03  0.26641791360E+03  0.46999998093E+01 0.  1.
       -5    1    3    3    0  502  0.14425356391E+03 -0.99197834338E+02 -0.15903328923E+03  0.23656495539E+03  0.46999998093E+01 0. -1.
</event>
<event>
 5   0  0.1225989E-02  0.4992901E+03  0.7818609E-02  0.1013964E+00
        1   -1    0    0  501    0  0.00000000000E+00  0.00000000000E+00  0.75111293611E+03  0.75111293613E+03  0.50400001928E-02 0.  1.
       -1   -1    0    0    0  501  0.00000000000E+00  0.00000000000E+00 -0.82973753782E+02  0.82973753935E+02  0.50400001928E-02 0. -1.
    10030    2    1    2    0    0  0.00000000000E+00  0.00000000000E+00  0.66813918233E+03  0.83408669006E+03  0.49929013567E+03 0.  0.
        3    1    3    3  502    0 -0.12539095588E+02 -0.17788647892E+03  0.62592209828E+03  0.65082971015E+03  0.10100000352E+00 0.  1.
       -3    1    3    3    0  502  0.12539095588E+02  0.17788647892E+03  0.42217084051E+02  0.18325697991E+03  0.10100000352E+00 0. -1.
</event>
<event>
 5   0  0.1923706E-02  0.5004032E+03  0.7818609E-02  0.1013674E+00
        2   -1    0    0  501    0  0.00000000000E+00  0.00000000000E+00  0.31393347291E+03  0.31393347292E+03  0.25500000920E-02 0.  1.
       -2   -1    0    0    0  501  0.00000000000E+00  0.00000000000E+00 -0.19940799247E+03  0.19940799248E+03  0.25500000920E-02 0. -1.
    10030    2    1    2    0    0  0.00000000000E+00  0.00000000000E+00  0.11452548044E+03  0.51334146541E+03  0.50040321186E+03 0.  0.
        3    1    3    3  502    0  0.98827281437E+02 -0.16593219581E+03 -0.10591122987E+03  0.22026693800E+03  0.10100000352E+00 0. -1.
       -3    1    3    3    0  502 -0.98827281437E+02  0.16593219581E+03  0.22043671031E+03  0.29307452741E+03  0.10100000352E+00 0.  1.
</event>
<event>
 5   0  0.8012875E-03  0.4992616E+03  0.7818609E-02  0.1013972E+00
       -3   -1    0    0    0  501  0.00000000000E+00  0.00000000000E+00  0.12628020481E+04  0.12628020522E+04  0.10100000352E+00 0.  1.
        3   -1    0    0  501    0  0.00000000000E+00  0.00000000000E+00 -0.49346980931E+02  0.49347084291E+02  0.10100000352E+00 0. -1.
    10030    2    1    2    0    0  0.00000000000E+00  0.00000000000E+00  0.12134550672E+04  0.13121491365E+04  0.49926161098E+03 0.  0.
        5    1    3    3  502    0 -0.16837410486E+03 -0.63457600134E+01  0.10906505464E+04  0.11035990269E+04  0.46999998093E+01 0.  1.
       -5    1    3    3    0  502  0.16837410486E+03  0.63457600134E+01  0.12280452077E+03  0.20855010951E+03  0.46999998093E+01 0. -1.
</event>
<event>
 5   0  0.1180937E-02  0.4998493E+03  0.7818609E-02  0.1013818E+00
        1   -1    0    0  501    0  0.00000000000E+00  0.00000000000E+00  0.56188076369E+03  0.56188076372E+03  0.50400001928E-02 0. -1.
       -1   -1    0    0    0  501  0.00000000000E+00  0.00000000000E+00 -0.11116651750E+03  0.11116651762E+03  0.50400001928E-02 0.  1.
    10030    2    1    2    0    0  0.00000000000E+00  0.00000000000E+00  0.45071424619E+03  0.67304728133E+03  0.49984928847E+03 0.  0.
        1    1    3    3  502    0  0.65159506826E+02 -0.21331928471E+03  0.37716839867E+03  0.43818589610E+03  0.50400001928E-02 0. -1.
       -1    1    3    3    0  502 -0.65159506826E+02  0.21331928471E+03  0.73545847525E+02  0.23486138523E+03  0.50400001928E-02 0.  1.
</event>
<event>
 5   0  0.8012875E-03  0.4996109E+03  0.7818609E-02  0.1013881E+00
        4   -1    0    0  501    0  0.00000000000E+00  0.00000000000E+00  0.44259025898E+03  0.44259208109E+03  0.12699999809E+01 0.  1.
       -4   -1    0    0    0  501  0.00000000000E+00  0.00000000000E+00 -0.14098945676E+03  0.14099517658E+03  0.12699999809E+01 0. -1.
    10030    2    1    2    0    0  0.00000000000E+00  0.00000000000E+00  0.30160080222E+03  0.58358725767E+03  0.49961089201E+03 0.  0.
        5    1    3    3  502    0 -0.50864051762E+02 -0.23816103816E+03  0.21555100237E+03  0.32525706216E+03  0.46999998093E+01 0.  1.
       -5    1    3    3    0  502  0.50864051762E+02  0.23816103816E+03  0.86049799842E+02  0.25833019551E+03  0.46999998093E+01 0. -1.
</event>
<event>
 5   0  0.1227864E-02  0.5002185E+03  0.7818609E-02  0.1013722E+00
        1   -1    0    0  501    0  0.00000000000E+00  0.00000000000E+00  0.96176875213E+02  0.96176875345E+02  0.50400001928E-02 0. -1.
       -1   -1    0    0    0  501  0.00000000000E+00  0.00000000000E+00 -0.65041250181E+03  0.65041250183E+03  0.50400001928E-02 0.  1.
    10030    2    1    2    0    0  0.00000000000E+00  0.00000000000E+00 -0.55423562660E+03  0.74658937718E+03  0.50021852057E+03 0.  0.
        5    1    3    3  502    0  0.89821827172E+02  0.71052166368E+02  0.54667095903E+02  0.12699193815E+03  0.46999998093E+01 0. -1.
       -5    1    3    3    0  502 -0.89821827172E+02 -0.71052166368E+02 -0.60890272250E+03  0.61959743903E+03  0.46999998093E+01 0.  1.
</event>
<event>
 5   0  0.1982847E-02  0.5018204E+03  0.7818609E-02  0.1013305E+00
       -2   -1    0    0    0  501  0.00000000000E+00  0.00000000000E+00  0.47924374051E+02  0.47924374119E+02  0.25500000920E-02 0.  1.
        2   -1    0    0  501    0  0.00000000000E+00  0.00000000000E+00 -0.13136513686E+04  0.13136513686E+04  0.25500000920E-02 0. -1.
    10030    2    1    2    0    0  0.00000000000E+00  0.00000000000E+00 -0.12657269945E+04  0.13615757427E+04  0.50182036471E+03 0.  0.
        2    1    3    3  502    0 -0.91230735062E+02  0.22220394943E+03 -0.43611325658E+03  0.49788795400E+03  0.25500000920E-02 0. -1.
       -2    1    3    3    0  502  0.91230735062E+02 -0.22220394943E+03 -0.82961373795E+03  0.86368778871E+03  0.25500000920E-02 0.  1.
</event>
<event>
 5   0  0.1941387E-02  0.5027921E+03  0.7818609E-02  0.1013053E+00
       -2   -1    0    0    0  501  0.00000000000E+00  0.00000000000E+00  0.59830756974E+02  0.59830757028E+02  0.25500000920E-02 0.  1.
        2   -1    0    0  501    0  0.00000000000E+00  0.00000000000E+00 -0.10563125563E+04  0.10563125563E+04  0.25500000920E-02 0. -1.
    10030    2    1    2    0    0  0.00000000000E+00  0.00000000000E+00 -0.99648179928E+03  0.11161433133E+04  0.50279212354E+03 0.  0.
        4    1    3    3  502    0 -0.60068989939E+02  0.34530936580E+02 -0.10346910353E+04  0.10370090745E+04  0.12699999809E+01 0. -1.
       -4    1    3    3    0  502  0.60068989939E+02 -0.34530936580E+02  0.38209236020E+02  0.79134238800E+02  0.12699999809E+01 0.  1.
</event>
<event>
 5   0  0.1225989E-02  0.5009073E+03  0.7818609E-02  0.1013542E+00
        1   -1    0    0  501    0  0.00000000000E+00  0.00000000000E+00  0.98828332998E+03  0.98828332999E+03  0.50400001928E-02 0.  1.
       -1   -1    0    0    0  501  0.00000000000E+00  0.00000000000E+00 -0.63470686684E+02  0.63470686884E+02  0.50400001928E-02 0. -1.
    10030    2    1    2    0    0  0.00000000000E+00  0.00000000000E+00  0.92481264329E+03  0.10517540169E+04  0.50090726369E+03 0.  0.
        3    1    3    3  502    0  0.88666925030E+02  0.23215610747E+03  0.39705443176E+03  0.46841276009E+03  0.10100000352E+00 0. -1.
       -3    1    3    3    0  502 -0.88666925030E+02 -0.23215610747E+03  0.52775821153E+03  0.58334125679E+03  0.10100000352E+00 0.  1.
</event>
<event>
 5   0  0.1982847E-02  0.5014474E+03  0.7818609E-02  0.1013402E+00
       -2   -1    0    0    0  501  0.00000000000E+00  0.00000000000E+00  0.94220376506E+02  0.94220376541E+02  0.25500000920E-02 0.  1.
        2   -1    0    0  501    0  0.00000000000E+00  0.00000000000E+00 -0.66718455247E+03  0.66718455247E+03  0.25500000920E-02 0. -1.
    10030    2    1    2    0    0  0.00000000000E+00  0.00000000000E+00 -0.57296417596E+03  0.76140492902E+03  0.50144742395E+03 0.  0.
        2    1    3    3  502    0 -0.19968771071E+03  0.14672826573E+03 -0.22850303444E+03  0.33707269621E+03  0.25500000920E-02 0. -1.
       -2    1    3    3    0  502  0.19968771071E+03 -0.14672826573E+03 -0.34446114153E+03  0.42433223281E+03  0.25500000920E-02 0.  1.
</event>
<event>
 5   0  0.1227864E-02  0.5003888E+03  0.7818609E-02  0.1013677E+00
       -1   -1    0    0    0  501  0.00000000000E+00  0.00000000000E+00  0.28294346481E+02  0.28294346930E+02  0.50400001928E-02 0. -1.
        1   -1    0    0  501    0  0.00000000000E+00  0.00000000000E+00 -0.22123588237E+04  0.22123588237E+04  0.50400001928E-02 0.  1.
    10030    2    1    2    0    0  0.00000000000E+00  0.00000000000E+00 -0.21840644772E+04  0.22406531706E+04  0.50038883923E+03 0.  0.
        5    1    3    3  502    0 -0.12119951039E+03  0.12761034378E+03 -0.18880457419E+04  0.18962364132E+04  0.46999998093E+01 0.  1.
       -5    1    3    3    0  502  0.12119951039E+03 -0.12761034378E+03 -0.29601873533E+03  0.34441675746E+03  0.46999998093E+01 0. -1.
</event>
<event>
 5   0  0.1227864E-02  0.5011776E+03  0.7818609E-02  0.1013472E+00
        1   -1    0    0  501    0  0.00000000000E+00  0.00000000000E+00  0.33719432831E+03  0.33719432834E+03  0.50400001928E-02 0.  1.
       -1   -1    0    0    0  501  0.00000000000E+00  0.00000000000E+00 -0.18622720503E+03  0.18622720510E+03  0.50400001928E-02 0. -1.
    10030    2    1    2    0    0  0.00000000000E+00  0.00000000000E+00  0.15096712327E+03  0.52342153344E+03  0.50117764252E+03 0.  0.
        5    1    3    3  502    0  0.37608379564E+02  0.12627253273E+03 -0.14707919983E+03  0.19751841372E+03  0.46999998093E+01 0. -1.
       -5    1    3    3    0  502 -0.37608379564E+02 -0.12627253273E+03  0.29804632310E+03  0.32590311973E+03  0.46999998093E+01 0.  1.
</event>
<event>
 5   0  0.1209831E-02  0.4997740E+03  0.7818609E-02  0.1013838E+00
       -1   -1    0    0    0  501  0.00000000000E+00  0.00000000000E+00  0.14617196172E+03  0.14617196181E+03  0.50400001928E-02 0.  1.
        1   -1    0    0  501    0  0.00000000000E+00  0.00000000000E+00 -0.42719218784E+03  0.42719218787E+03  0.50400001928E-02 0. -1.
    10030    2    1    2    0    0  0.00000000000E+00  0.00000000000E+00 -0.28102022612E+03  0.57336414968E+03  0.49977402959E+03 0.  0.
        4    1    3    3  502    0  0.24353183139E+03 -0.46117320283E+02 -0.17692227179E+03  0.30452859190E+03  0.12699999809E+01 0. -1.
       -4    1    3    3    0  502 -0.24353183139E+03  0.46117320283E+02 -0.10409795433E+03  0.26883555778E+03  0.12699999809E+01 0.  1.
</event>
<event>
 5   0  0.1217270E-02  0.5000132E+03  0.7818609E-02  0.1013775E+00
        1   -1    0    0  501    0  0.00000000000E+00  0.00000000000E+00  0.35675168979E+03  0.35675168982E+03  0.50400001928E-02 0.  1.
       -1   -1    0    0    0  501  0.00000000000E+00  0.00000000000E+00 -0.17520111037E+03  0.17520111044E+03  0.50400001928E-02 0. -1.
    10030    2    1    2    0    0  0.00000000000E+00  0.00000000000E+00  0.18155057942E+03  0.53195280026E+03  0.50001316865E+03 0.  0.
        2    1    3    3  502    0 -0.30891173786E+02 -0.11767858821E+03  0.32313155419E+03  0.34527744795E+03  0.25500000920E-02 0.  1.
       -2    1    3    3    0  502  0.30891173786E+02  0.11767858821E+03 -0.14158097477E+03  0.18667535232E+03  0.25500000920E-02 0. -1.
</event>
<event>
 5   0  0.1227864E-02  0.5006994E+03  0.7818609E-02  0.1013597E+00
        1   -1    0    0  501    0  0.00000000000E+00  0.00000000000E+00  0.26190314168E+03  0.26190314173E+03  0.50400001928E-02 0. -1.
       -1   -1    0    0    0  501  0.00000000000E+00  0.00000000000E+00 -0.23930595032E+03  0.23930595038E+03  0.50400001928E-02 0.  1.
    10030    2    1    2    0    0  0.00000000000E+00  0.00000000000E+00  0.22597191356E+02  0.50120909211E+03  0.50069943175E+03 0.  0.
        5    1    3    3  502    0  0.85029188098E+02 -0.17553092352E+03 -0.14574264856E+03  0.24352428533E+03  0.46999998093E+01 0.  1.
       -5    1    3    3    0  502 -0.85029188098E+02  0.17553092352E+03  0.16833983992E+03  0.25768480677E+03  0.46999998093E+01 0. -1.
</event>
<event>
 5   0  0.1180937E-02  0.5004937E+03  0.7818609E-02  0.1013650E+00
        1   -1    0    0  501    0  0.00000000000E+00  0.00000000000E+00  0.31605916465E+03  0.31605916469E+03  0.50400001928E-02 0. -1.
       -1   -1    0    0    0  501  0.00000000000E+00  0.00000000000E+00 -0.19813845852E+03  0.19813845858E+03  0.50400001928E-02 0.  1.
    10030    2    1    2    0    0  0.00000000000E+00  0.00000000000E+00  0.11792070613E+03  0.51419762326E+03  0.50049365914E+03 0.  0.
        1    1    3    3  502    0  0.10513557522E+02  0.17503820792E+03  0.24238328414E+03  0.29916310865E+03  0.50400001928E-02 0. -1.
       -1    1    3    3    0  502 -0.10513557522E+02 -0.17503820792E+03 -0.12446257801E+03  0.21503451461E+03  0.50400001928E-02 0.  1.
</event>
<event>
 5   0  0.1923706E-02  0.5010015E+03  0.7818609E-02  0.1013518E+00
       -2   -1    0    0    0  501  0.00000000000E+00  0.00000000000E+00  0.12024006862E+03  0.12024006865E+03  0.25500000920E-02 0.  1.
        2   -1    0    0  501    0  0.00000000000E+00  0.00000000000E+00 -0.52187775586E+03  0.52187775586E+03  0.25500000920E-02 0. -1.
    10030    2    1    2    0    0  0.00000000000E+00  0.00000000000E+00 -0.40163768723E+03  0.64211782451E+03  0.50100146582E+03 0.  0.
        3    1    3    3  502    0  0.99288463000E+02 -0.14964311023E+03  0.23012552920E+02  0.18105481799E+03  0.10100000352E+00 0.  1.
       -3    1    3    3    0  502 -0.99288463000E+02  0.14964311023E+03 -0.42465024015E+03  0.46106300653E+03  0.10100000352E+00 0. -1.
</event>
<event>
 5   0  0.1923706E-02  0.4992003E+03  0.7818609E-02  0.1013988E+00
       -2   -1    0    0    0  501  0.00000000000E+00  0.00000000000E+00  0.35551320989E+02  0.35551321080E+02  0.25500000920E-02 0. -1.
        2   -1    0    0  501    0  0.00000000000E+00  0.00000000000E+00 -0.17524029973E+04  0.17524029973E+04  0.25500000920E-02 0.  1.
    10030    2    1    2    0    0  0.00000000000E+00  0.00000000000E+00 -0.17168516763E+04  0.17879543184E+04  0.49920032670E+03 0.  0.
        3    1    3    3  502    0  0.82729607968E+01 -0.14439708938E+03 -0.12983540329E+03  0.19436101320E+03  0.10100000352E+00 0. -1.
       -3    1    3    3    0  502 -0.82729607968E+01  0.14439708938E+03 -0.15870162730E+04  0.15935933052E+04  0.10100000352E+00 0.  1.
</event>
<event>
 5   0  0.1225989E-02  0.5001641E+03  0.7818609E-02  0.1013736E+00
       -1   -1    0    0    0  501  0.00000000000E+00  0.00000000000E+00  0.27409538149E+03  0.27409538153E+03  0.50400001928E-02 0. -1.
        1   -1    0    0  501    0  0.00000000000E+00  0.00000000000E+00 -0.22817253892E+03  0.22817253897E+03  0.50400001928E-02 0.  1.
    10030    2    1    2    0    0  0.00000000000E+00  0.00000000000E+00  0.45922842571E+02  0.50226792051E+03  0.50016412956E+03 0.  0.
        3    1    3    3  502    0  0.85905923756E+02 -0.63075205741E+02  0.25014899746E+03  0.27190594044E+03  0.10100000352E+00 0. -1.
       -3    1    3    3    0  502 -0.85905923756E+02  0.63075205741E+02 -0.20422615489E+03  0.23036198006E+03  0.10100000352E+00 0.  1.
</event>
<event>
 5   0  0.1180937E-02  0.4996400E+03  0.7818609E-02  0.1013873E+00
        1   -1    0    0  501    0  0.00000000000E+00  0.00000000000E+00  0.23120838436E+03  0.23120838442E+03  0.50400001928E-02 0.  1.
       -1   -1    0    0    0  501  0.00000000000E+00  0.00000000000E+00 -0.26992978030E+03  0.26992978034E+03  0.50400001928E-02 0. -1.
    10030    2    1    2    0    0  0.00000000000E+00  0.00000000000E+00 -0.38721395931E+02  0.50113816476E+03  0.49963998407E+03 0.  0.
        1    1    3    3  502    0  0.92705668381E+01 -0.21389985877E+03  0.10975344136E+03  0.24059283220E+03  0.50400001928E-02 0.  1.
       -1    1    3    3    0  502 -0.92705668381E+01  0.21389985877E+03 -0.14847483729E+03  0.26054533257E+03  0.50400001928E-02 0. -1.
</event>
<event>
 5   0  0.1225989E-02  0.5013969E+03  0.7818609E-02  0.1013415E+00
       -1   -1    0    0    0  501  0.00000000000E+00  0.00000000000E+00  0.29680428687E+03  0.29680428692E+03  0.50400001928E-02 0.  1.
        1   -1    0    0  501    0  0.00000000000E+00  0.00000000000E+00 -0.21175473823E+03  0.21175473829E+03  0.50400001928E-02 0. -1.
    10030    2    1    2    0    0  0.00000000000E+00  0.00000000000E+00  0.85049548640E+02  0.50855902521E+03  0.50139690505E+03 0.  0.
        3    1    3    3  502    0 -0.21738849502E+03 -0.71625465227E+01 -0.83918060436E+02  0.23313367605E+03  0.10100000352E+00 0. -1.
       -3    1    3    3    0  502  0.21738849502E+03  0.71625465227E+01  0.16896760908E+03  0.27542534916E+03  0.10100000352E+00 0.  1.
</event>
<event>
 5   0  0.1982847E-02  0.4989561E+03  0.7818609E-02  0.1014052E+00
        2   -1    0    0  501    0  0.00000000000E+00  0.00000000000E+00  0.65296611211E+03  0.65296611212E+03  0.25500000920E-02 0.  1.
       -2   -1    0    0    0  501  0.00000000000E+00  0.00000000000E+00 -0.95317802761E+02  0.95317802795E+02  0.25500000920E-02 0. -1.
    10030    2    1    2    0    0  0.00000000000E+00  0.00000000000E+00  0.55764830935E+03  0.74828391492E+03  0.49895609065E+03 0.  0.
        2    1    3    3  502    0  0.23192182828E+03  0.71292994898E+02  0.36586962532E+03  0.43901139882E+03  0.25500000920E-02 0.  1.
       -2    1    3    3    0  502 -0.23192182828E+03 -0.71292994898E+02  0.19177868404E+03  0.30927251610E+03  0.25500000920E-02 0. -1.
</event>
<event>
 5   0  0.1982847E-02  0.4994186E+03  0.7818609E-02  0.1013931E+00
        2   -1    0    0  501    0  0.00000000000E+00  0.00000000000E+00  0.59476894163E+03  0.59476894163E+03  0.25500000920E-02 0.  1.
       -2   -1    0    0    0  501  0.00000000000E+00  0.00000000000E+00 -0.10483857095E+03  0.10483857098E+03  0.25500000920E-02 0. -1.
    10030    2    1    2    0    0  0.00000000000E+00  0.00000000000E+00  0.48993037068E+03  0.69960751261E+03  0.49941856553E+03 0.  0.
        2    1    3    3  502    0  0.23064650423E+03  0.69148666586E+02  0.33762630963E+03  0.41469370982E+03  0.25500000920E-02 0. -1.
       -2    1    3    3    0  502 -0.23064650423E+03 -0.69148666586E+02  0.15230406105E+03  0.28491380279E+03  0.25500000920E-02 0.  1.
</event>
<event>
 5   0  0.1209831E-02  0.5004814E+03  0.7818609E-02  0.1013653E+00
       -1   -1    0    0    0  501  0.00000000000E+00  0.00000000000E+00  0.21096804608E+03  0.21096804614E+03  0.50400001928E-02 0.  1.
        1   -1    0    0  501    0  0.00000000000E+00  0.00000000000E+00 -0.29682413523E+03  0.29682413527E+03  0.50400001928E-02 0. -1.
    10030    2    1    2    0    0  0.00000000000E+00  0.00000000000E+00 -0.85856089148E+02  0.50779218142E+03  0.50048139972E+03 0.  0.
        4    1    3    3  502    0 -0.13124186513E+03 -0.54456699713E+02 -0.25191954550E+03  0.28923179219E+03  0.12699999809E+01 0. -1.
       -4    1    3    3    0  502  0.13124186513E+03  0.54456699713E+02  0.16606345635E+03  0.21856038923E+03  0.12699999809E+01 0.  1.
</event>
<event>
 5   0  0.1855407E-02  0.5003513E+03  0.7818609E-02  0.1013687E+00
       -2   -1    0    0    0  501  0.00000000000E+00  0.00000000000E+00  0.14280198682E+03  0.14280198684E+03  0.25500000920E-02 0. -1.
        2   -1    0    0  501    0  0.00000000000E+00  0.00000000000E+00 -0.43828416763E+03  0.43828416764E+03  0.25500000920E-02 0.  1.
    10030    2    1    2    0    0  0.00000000000E+00  0.00000000000E+00 -0.29548218082E+03  0.58108615448E+03  0.50035127635E+03 0.  0.
        1    1    3    3  502    0 -0.22936829329E+03  0.99334485050E+02 -0.15995997414E+03  0.29675637691E+03  0.50400001928E-02 0.  1.
       -1    1    3    3    0  502  0.22936829329E+03 -0.99334485050E+02 -0.13552220668E+03  0.28432977757E+03  0.50400001928E-02 0. -1.
</event>
<event>
 5   0  0.1227864E-02  0.5007999E+03  0.7818609E-02  0.1013570E+00
       -1   -1    0    0    0  501  0.00000000000E+00  0.00000000000E+00  0.12947953390E+03  0.12947953399E+03  0.50400001928E-02 0.  1.
        1   -1    0    0  501    0  0.00000000000E+00  0.00000000000E+00 -0.48424741668E+03  0.48424741671E+03  0.50400001928E-02 0. -1.
    10030    2    1    2    0    0  0.00000000000E+00  0.00000000000E+00 -0.35476788278E+03  0.61372695070E+03  0.50079987955E+03 0.  0.
        5    1    3    3  502    0  0.18916833971E+03  0.13033957901E+03 -0.29934961884E+03  0.37736633515E+03  0.46999998093E+01 0. -1.
       -5    1    3    3    0  502 -0.18916833971E+03 -0.13033957901E+03 -0.55418263943E+02  0.23636061555E+03  0.46999998093E+01 0.  1.
</event>
<event>
 5   0  0.1967813E-02  0.5009271E+03  0.7818609E-02  0.1013537E+00
       -2   -1    0    0    0  501  0.00000000000E+00  0.00000000000E+00  0.81799209152E+02  0.81799209192E+02  0.25500000920E-02 0. -1.
        2   -1    0    0  501    0  0.00000000000E+00  0.00000000000E+00 -0.76690218277E+03  0.76690218277E+03  0.25500000920E-02 0.  1.
    10030    2    1    2    0    0  0.00000000000E+00  0.00000000000E+00 -0.68510297361E+03  0.84870139196E+03  0.50092710873E+03 0.  0.
        5    1    3    3  502    0  0.20662207621E+03  0.32920577558E+02 -0.57567995941E+03  0.61254057210E+03  0.46999998093E+01 0.  1.
       -5    1    3    3    0  502 -0.20662207621E+03 -0.32920577558E+02 -0.10942301421E+03  0.23616081987E+03  0.46999998093E+01 0. -1.
</event>
<event>
 5   0  0.1967813E-02  0.4998136E+03  0.7818609E-02  0.1013828E+00
        2   -1    0    0  501    0  0.00000000000E+00  0.00000000000E+00  0.10569698109E+04  0.10569698109E+04  0.25500000920E-02 0. -1.
       -2   -1    0    0    0  501  0.00000000000E+00  0.00000000000E+00 -0.59087221782E+02  0.59087221837E+02  0.25500000920E-02 0.  1.
    10030    2    1    2    0    0  0.00000000000E+00  0.00000000000E+00  0.99788258912E+03  0.11160570327E+04  0.49981360392E+03 0.  0.
        5    1    3    3  502    0 -0.10492701292E+02  0.27156928897E+02  0.10530708185E+04  0.10534836659E+04  0.46999998093E+01 0. -1.
       -5    1    3    3    0  502  0.10492701292E+02 -0.27156928897E+02 -0.55188229417E+02  0.62573366794E+02  0.46999998093E+01 0.  1.
</event>
<event>
 5   0  0.8012875E-03  0.4991035E+03  0.7818609E-02  0.1014013E+00
       -3   -1    0    0    0  501  0.00000000000E+00  0.00000000000E+00  0.46077916788E+03  0.46077917895E+03  0.10100000352E+00 0.  1.
        3   -1    0    0  501    0  0.00000000000E+00  0.00000000000E+00 -0.13515383552E+03  0.13515387326E+03  0.10100000352E+00 0. -1.
    10030    2    1    2    0    0  0.00000000000E+00  0.00000000000E+00  0.32562533236E+03  0.59593305220E+03  0.49910354200E+03 0.  0.
        4    1    3    3  502    0 -0.15756462622E+03 -0.16127927954E+03  0.35121707043E+02  0.22819457629E+03  0.12699999809E+01 0. -1.
       -4    1    3    3    0  502  0.15756462622E+03  0.16127927954E+03  0.29050362532E+03  0.36773847591E+03  0.12699999809E+01 0.  1.
</event>
<event>
 5   0  0.1982847E-02  0.4999901E+03  0.7818609E-02  0.1013781E+00
       -2   -1    0    0    0  501  0.00000000000E+00  0.00000000000E+00  0.69397840000E+02  0.69397840046E+02  0.25500000920E-02 0.  1.
        2   -1    0    0  501    0  0.00000000000E+00  0.00000000000E+00 -0.90056879856E+03  0.90056879856E+03  0.25500000920E-02 0. -1.
    10030    2    1    2    0    0  0.00000000000E+00  0.00000000000E+00 -0.83117095856E+03  0.96996663861E+03  0.49999011756E+03 0.  0.
        2    1    3    3  502    0  0.19993907283E+03  0.13105066450E+03 -0.27372035525E+03  0.36341813713E+03  0.25500000920E-02 0.  1.
       -2    1    3    3    0  502 -0.19993907283E+03 -0.13105066450E+03 -0.55745060331E+03  0.60654850148E+03  0.25500000920E-02 0. -1.
</event>
<event>
 5   0  0.1227864E-02  0.5023547E+03  0.7818609E-02  0.1013166E+00
        1   -1    0    0  501    0  0.00000000000E+00  0.00000000000E+00  0.62578616400E+03  0.62578616402E+03  0.50400001928E-02 0.  1.
       -1   -1    0    0    0  501  0.00000000000E+00  0.00000000000E+00 -0.10081728169E+03  0.10081728182E+03  0.50400001928E-02 0. -1.
    10030    2    1    2    0    0  0.00000000000E+00  0.00000000000E+00  0.52496888231E+03  0.72660344584E+03  0.50235469553E+03 0.  0.
        5    1    3    3  502    0  0.14404039564E+03 -0.72032395382E+02  0.54119872038E+03  0.56467198132E+03  0.46999998093E+01 0.  1.
       -5    1    3    3    0  502 -0.14404039564E+03  0.72032395382E+02 -0.16229838067E+02  0.16193146452E+03  0.46999998093E+01 0. -1.
</event>
<event>
 5   0  0.1923706E-02  0.4996796E+03  0.7818609E-02  0.1013863E+00
        2   -1    0    0  501    0  0.00000000000E+00  0.00000000000E+00  0.58633385798E+03  0.58633385798E+03  0.25500000920E-02 0. -1.
       -2   -1    0    0    0  501  0.00000000000E+00  0.00000000000E+00 -0.10645800083E+03  0.10645800086E+03  0.25500000920E-02 0.  1.
    10030    2    1    2    0    0  0.00000000000E+00  0.00000000000E+00  0.47987585715E+03  0.69279185884E+03  0.49967961875E+03 0.  0.
        3    1    3    3  502    0  0.11868562262E+03  0.21983449964E+03  0.24345527980E+03  0.34883229167E+03  0.10100000352E+00 0.  1.
       -3    1    3    3    0  502 -0.11868562262E+03 -0.21983449964E+03  0.23642057735E+03  0.34395956717E+03  0.10100000352E+00 0. -1.
</event>
<event>
 5   0  0.1225989E-02  0.5000797E+03  0.7818609E-02  0.1013758E+00
       -1   -1    0    0    0  501  0.00000000000E+00  0.00000000000E+00  0.10510839622E+03  0.10510839634E+03  0.50400001928E-02 0. -1.
        1   -1    0    0  501    0  0.00000000000E+00  0.00000000000E+00 -0.59481378216E+03  0.59481378218E+03  0.50400001928E-02 0.  1.
    10030    2    1    2    0    0  0.00000000000E+00  0.00000000000E+00 -0.48970538594E+03  0.69992217853E+03  0.50007968463E+03 0.  0.
        3    1    3    3  502    0 -0.66621531714E+02  0.77912884217E+02 -0.56404941517E+03  0.57328928036E+03  0.10100000352E+00 0.  1.
       -3    1    3    3    0  502  0.66621531714E+02 -0.77912884217E+02  0.74344029234E+02  0.12663289817E+03  0.10100000352E+00 0. -1.
</event>
<event>
 5   0  0.1941387E-02  0.5040861E+03  0.7818609E-02  0.1012718E+00
       -2   -1    0    0    0  501  0.00000000000E+00  0.00000000000E+00  0.44639602056E+03  0.44639602057E+03  0.25500000920E-02 0.  1.
        2   -1    0    0  501    0  0.00000000000E+00  0.00000000000E+00 -0.14230794649E+03  0.14230794651E+03  0.25500000920E-02 0. -1.
    10030    2    1    2    0    0  0.00000000000E+00  0.00000000000E+00  0.30408807407E+03  0.58870396708E+03  0.50408610779E+03 0.  0.
        4    1    3    3  502    0  0.10748432318E+02 -0.23957752544E+03  0.24259054147E+03  0.34112270989E+03  0.12699999809E+01 0.  1.
       -4    1    3    3    0  502 -0.10748432318E+02  0.23957752544E+03  0.61497532600E+02  0.24758125719E+03  0.12699999809E+01 0. -1.
</event>
<event>
 5   0  0.1217270E-02  0.5009947E+03  0.7818609E-02  0.1013520E+00
        1   -1    0    0  501    0  0.00000000000E+00  0.00000000000E+00  0.56067099003E+03  0.56067099006E+03  0.50400001928E-02 0. -1.
       -1   -1    0    0    0  501  0.00000000000E+00  0.00000000000E+00 -0.11191756785E+03  0.11191756796E+03  0.50400001928E-02 0.  1.
    10030    2    1    2    0    0  0.00000000000E+00  0.00000000000E+00  0.44875342219E+03  0.67258855802E+03  0.50099474493E+03 0.  0.
        2    1    3    3  502    0 -0.15940210734E+03 -0.90472001026E+02 -0.48529081342E+01  0.18335148082E+03  0.25500000920E-02 0.  1.
       -2    1    3    3    0  502  0.15940210734E+03  0.90472001026E+02  0.45360633032E+03  0.48923707720E+03  0.25500000920E-02 0. -1.
</event>
<event>
 5   0  0.1180937E-02  0.5000203E+03  0.7818609E-02  0.1013774E+00
       -1   -1    0    0    0  501  0.00000000000E+00  0.00000000000E+00  0.32382295234E+03  0.32382295238E+03  0.50400001928E-02 0. -1.
        1   -1    0    0  501    0  0.00000000000E+00  0.00000000000E+00 -0.19302238234E+03  0.19302238240E+03  0.50400001928E-02 0.  1.
    10030    2    1    2    0    0  0.00000000000E+00  0.00000000000E+00  0.13080057001E+03  0.51684533478E+03  0.50002031056E+03 0.  0.
        1    1    3    3  502    0 -0.70859630278E+02 -0.77412056010E+02  0.29995283219E+03  0.31778202464E+03  0.50400001928E-02 0. -1.
       -1    1    3    3    0  502  0.70859630278E+02  0.77412056010E+02 -0.16915226218E+03  0.19906331014E+03  0.50400001928E-02 0.  1.
</event>
<event>
 5   0  0.1967813E-02  0.4985015E+03  0.7818609E-02  0.1014171E+00
       -2   -1    0    0    0  501  0.00000000000E+00  0.00000000000E+00  0.77602323092E+02  0.77602323134E+02  0.25500000920E-02 0.  1.
        2   -1    0    0  501    0  0.00000000000E+00  0.00000000000E+00 -0.80056784918E+03  0.80056784918E+03  0.25500000920E-02 0. -1.
    10030    2    1    2    0    0  0.00000000000E+00  0.00000000000E+00 -0.72296552608E+03  0.87817017231E+03  0.49850145400E+03 0.  0.
        5    1    3    3  502    0  0.47005769933E+01 -0.24658526222E+03 -0.42444553763E+03  0.49092004581E+03  0.46999998093E+01 0. -1.
       -5    1    3    3    0  502 -0.47005769933E+01  0.24658526222E+03 -0.29851998845E+03  0.38725012650E+03  0.46999998093E+01 0.  1.
</event>
<event>
 5   0  0.1225989E-02  0.5006575E+03  0.7818609E-02  0.1013607E+00
        1   -1    0    0  501    0  0.00000000000E+00  0.00000000000E+00  0.39707053892E+03  0.39707053895E+03  0.50400001928E-02 0.  1.
       -1   -1    0    0    0  501  0.00000000000E+00  0.00000000000E+00 -0.15781701206E+03  0.15781701215E+03  0.50400001928E-02 0. -1.
    10030    2    1    2    0    0  0.00000000000E+00  0.00000000000E+00  0.23925352686E+03  0.55488755110E+03  0.50065751193E+03 0.  0.
        3    1    3    3  502    0 -0.24315509042E+03 -0.54259451281E+02  0.14668401388E+03  0.28911018000E+03  0.10100000352E+00 0.  1.
       -3    1    3    3    0  502  0.24315509042E+03  0.54259451281E+02  0.92569512979E+02  0.26577737110E+03  0.10100000352E+00 0. -1.
</event>
<event>
 5   0  0.1923706E-02  0.4998490E+03  0.7818609E-02  0.1013818E+00
        2   -1    0    0  501    0  0.00000000000E+00  0.00000000000E+00  0.19863396459E+04  0.19863396459E+04  0.25500000920E-02 0.  1.
       -2   -1    0    0    0  501  0.00000000000E+00  0.00000000000E+00 -0.31445907498E+02  0.31445907601E+02  0.25500000920E-02 0. -1.
    10030    2    1    2    0    0  0.00000000000E+00  0.00000000000E+00  0.19548937384E+04  0.20177855535E+04  0.49984898867E+03 0.  0.
        3    1    3    3  502    0  0.20933398496E+03 -0.13490342549E+03  0.89252147383E+03  0.92661439818E+03  0.10100000352E+00 0.  1.
       -3    1    3    3    0  502 -0.20933398496E+03  0.13490342549E+03  0.10623722645E+04  0.10911711553E+04  0.10100000352E+00 0. -1.
</event>
<event>
 5   0  0.1855407E-02  0.4999770E+03  0.7818609E-02  0.1013785E+00
       -2   -1    0    0    0  501  0.00000000000E+00  0.00000000000E+00  0.55067970435E+02  0.55067970494E+02  0.25500000920E-02 0.  1.
        2   -1    0    0  501    0  0.00000000000E+00  0.00000000000E+00 -0.11348565969E+04  0.11348565969E+04  0.25500000920E-02 0. -1.
    10030    2    1    2    0    0  0.00000000000E+00  0.00000000000E+00 -0.10797886265E+04  0.11899245674E+04  0.49997699772E+03 0.  0.
        1    1    3    3  502    0 -0.98417154497E+02 -0.22856135656E+03 -0.59661624837E+03  0.64643420226E+03  0.50400001928E-02 0.  1.
       -1    1    3    3    0  502  0.98417154497E+02  0.22856135656E+03 -0.48317237811E+03  0.54349036515E+03  0.50400001928E-02 0. -1.
</event>
<event>
 5   0  0.8012875E-03  0.5002751E+03  0.7818609E-02  0.1013707E+00
        4   -1    0    0  501    0  0.00000000000E+00  0.00000000000E+00  0.94273857628E+02  0.94282411573E+02  0.12699999809E+01 0.  1.
       -4   -1    0    0    0  501  0.00000000000E+00  0.00000000000E+00 -0.66365271678E+03  0.66365393195E+03  0.12699999809E+01 0. -1.
    10030    2    1    2    0    0  0.00000000000E+00  0.00000000000E+00 -0.56937885916E+03  0.75793634352E+03  0.50027513988E+03 0.  0.
        3    1    3    3  502    0 -0.21002643484E+03 -0.51249257027E+02 -0.47531483619E+03  0.52217027240E+03  0.10100000352E+00 0. -1.
       -3    1    3    3    0  502  0.21002643484E+03  0.51249257027E+02 -0.94064022970E+02  0.23576607113E+03  0.10100000352E+00 0.  1.
</event>
<event>
 5   0  0.8012875E-03  0.5006369E+03  0.7818609E-02  0.1013613E+00
       -4   -1    0    0    0  501  0.00000000000E+00  0.00000000000E+00  0.69220614605E+02  0.69232264055E+02  0.12699999809E+01 0.  1.
        4   -1    0    0  501    0  0.00000000000E+00  0.00000000000E+00 -0.90512382715E+03  0.90512471814E+03  0.12699999809E+01 0. -1.
    10030    2    1    2    0    0  0.00000000000E+00  0.00000000000E+00 -0.83590321255E+03  0.97435698219E+03  0.50063694230E+03 0.  0.
        1    1    3    3  502    0  0.22218157701E+03  0.11341296984E+03 -0.45841185854E+03  0.52188943941E+03  0.50400001928E-02 0. -1.
       -1    1    3    3    0  502 -0.22218157701E+03 -0.11341296984E+03 -0.37749135401E+03  0.45246754278E+03  0.50400001928E-02 0.  1.
</event>
<event>
 5   0  0.1923706E-02  0.4998352E+03  0.7818609E-02  0.1013822E+00
        2   -1    0    0  501    0  0.00000000000E+00  0.00000000000E+00  0.16107676828E+04  0.16107676828E+04  0.25500000920E-02 0.  1.
       -2   -1    0    0    0  501  0.00000000000E+00  0.00000000000E+00 -0.38775807424E+02  0.38775807508E+02  0.25500000920E-02 0. -1.
    10030    2    1    2    0    0  0.00000000000E+00  0.00000000000E+00  0.15719918754E+04  0.16495434903E+04  0.49983524303E+03 0.  0.
        3    1    3    3  502    0  0.39210643351E+02  0.16245577684E+03  0.13992377340E+04  0.14091826001E+04  0.10100000352E+00 0.  1.
       -3    1    3    3    0  502 -0.39210643351E+02 -0.16245577684E+03  0.17275414138E+03  0.24036089022E+03  0.10100000352E+00 0. -1.
</event>
<event>
 5   0  0.1923706E-02  0.5010903E+03  0.7818609E-02  0.1013495E+00
       -2   -1    0    0    0  501  0.00000000000E+00  0.00000000000E+00  0.65566885750E+02  0.65566885799E+02  0.25500000920E-02 0.  1.
        2   -1    0    0  501    0  0.00000000000E+00  0.00000000000E+00 -0.95738670634E+03  0.95738670634E+03  0.25500000920E-02 0. -1.
    10030    2    1    2    0    0  0.00000000000E+00  0.00000000000E+00 -0.89181982059E+03  0.10229535921E+04  0.50109027059E+03 0.  0.
        3    1    3    3  502    0 -0.18205091995E+03  0.15061015099E+03 -0.61606128883E+03  0.65981624475E+03  0.10100000352E+00 0.  1.
       -3    1    3    3    0  502  0.18205091995E+03 -0.15061015099E+03 -0.27575853176E+03  0.36313734739E+03  0.10100000352E+00 0. -1.
</event>
<event>
 5   0  0.1217270E-02  0.4997852E+03  0.7818609E-02  0.1013835E+00
       -1   -1    0    0    0  501  0.00000000000E+00  0.00000000000E+00  0.35823414767E+02  0.35823415122E+02  0.50400001928E-02 0. -1.
        1   -1    0    0  501    0  0.00000000000E+00  0.00000000000E+00 -0.17431704262E+04  0.17431704262E+04  0.50400001928E-02 0.  1.
    10030    2    1    2    0    0  0.00000000000E+00  0.00000000000E+00 -0.17073470114E+04  0.17789938413E+04  0.49978522390E+03 0.  0.
        2    1    3    3  502    0  0.60048259624E+02 -0.15338369462E+03 -0.18476875371E+03  0.24753150025E+03  0.25500000920E-02 0. -1.
       -2    1    3    3    0  502 -0.60048259624E+02  0.15338369462E+03 -0.15225782577E+04  0.15314623410E+04  0.25500000920E-02 0.  1.
</event>
<event>
 5   0  0.1209831E-02  0.4996645E+03  0.7818609E-02  0.1013867E+00
        1   -1    0    0  501    0  0.00000000000E+00  0.00000000000E+00  0.60922736256E+02  0.60922736464E+02  0.50400001928E-02 0.  1.
       -1   -1    0    0    0  501  0.00000000000E+00  0.00000000000E+00 -0.10245132000E+04  0.10245132000E+04  0.50400001928E-02 0. -1.
    10030    2    1    2    0    0  0.00000000000E+00  0.00000000000E+00 -0.96359046374E+03  0.10854359365E+04  0.49966447780E+03 0.  0.
        4    1    3    3  502    0  0.19263654702E+03  0.14342088140E+03 -0.63129422637E+03  0.67543497216E+03  0.12699999809E+01 0. -1.
       -4    1    3    3    0  502 -0.19263654702E+03 -0.14342088140E+03 -0.33229623737E+03  0.41000096432E+03  0.12699999809E+01 0.  1.
</event>
<event>
 5   0  0.1180937E-02  0.5000559E+03  0.7818609E-02  0.1013764E+00
       -1   -1    0    0    0  501  0.00000000000E+00  0.00000000000E+00  0.27349925796E+03  0.27349925801E+03  0.50400001928E-02 0. -1.
        1   -1    0    0  501    0  0.00000000000E+00  0.00000000000E+00 -0.22857092639E+03  0.22857092644E+03  0.50400001928E-02 0.  1.
    10030    2    1    2    0    0  0.00000000000E+00  0.00000000000E+00  0.44928331576E+02  0.50207018445E+03  0.50005591201E+03 0.  0.
        1    1    3    3  502    0 -0.22718186895E+03  0.67945234842E+02 -0.57138371887E+02  0.24391176701E+03  0.50400001928E-02 0.  1.
       -1    1    3    3    0  502  0.22718186895E+03 -0.67945234842E+02  0.10206670346E+03  0.25815841745E+03  0.50400001928E-02 0. -1.
</event>
<event>
 5   0  0.1180937E-02  0.4999158E+03  0.7818609E-02  0.1013801E+00
        1   -1    0    0  501    0  0.00000000000E+00  0.00000000000E+00  0.69253962801E+03  0.69253962802E+03  0.50400001928E-02 0.  1.
       -1   -1    0    0    0  501  0.00000000000E+00  0.00000000000E+00 -0.90217143713E+02  0.90217143854E+02  0.50400001928E-02 0. -1.
    10030    2    1    2    0    0  0.00000000000E+00  0.00000000000E+00  0.60232248429E+03  0.78275677188E+03  0.49991578174E+03 0.  0.
        1    1    3    3  502    0 -0.76289721358E+01 -0.36309879417E+02 -0.85881477544E+02  0.93553389942E+02  0.50400001928E-02 0. -1.
       -1    1    3    3    0  502  0.76289721358E+01  0.36309879417E+02  0.68820396184E+03  0.68920338194E+03  0.50400001928E-02 0.  1.
</event>
<event>
 5   0  0.1217270E-02  0.5006524E+03  0.7818609E-02  0.1013609E+00
       -1   -1    0    0    0  501  0.00000000000E+00  0.00000000000E+00  0.22053013419E+03  0.22053013425E+03  0.50400001928E-02 0.  1.
        1   -1    0    0  501    0  0.00000000000E+00  0.00000000000E+00 -0.28414803954E+03  0.28414803959E+03  0.50400001928E-02 0. -1.
    10030    2    1    2    0    0  0.00000000000E+00  0.00000000000E+00 -0.63617905351E+02  0.50467817384E+03  0.50065239565E+03 0.  0.
        2    1    3    3  502    0 -0.17868140442E+02  0.24915127236E+03 -0.15319596087E+02  0.25026049826E+03  0.25500000920E-02 0.  1.
       -2    1    3    3    0  502  0.17868140442E+02 -0.24915127236E+03 -0.48298309265E+02  0.25441767557E+03  0.25500000920E-02 0. -1.
</event>
<event>
 5   0  0.1225989E-02  0.4988644E+03  0.7818609E-02  0.1014076E+00
        1   -1    0    0  501    0  0.00000000000E+00  0.00000000000E+00  0.27593708888E+03  0.27593708893E+03  0.50400001928E-02 0. -1.
       -1   -1    0    0    0  501  0.00000000000E+00  0.00000000000E+00 -0.22547320897E+03  0.22547320903E+03  0.50400001928E-02 0.  1.
    10030    2    1    2    0    0  0.00000000000E+00  0.00000000000E+00  0.50463879908E+02  0.50141029795E+03  0.49886439412E+03 0.  0.
        3    1    3    3  502    0 -0.93912619192E+02 -0.22767453509E+03  0.64944804623E+02  0.25470200593E+03  0.10100000352E+00 0. -1.
       -3    1    3    3    0  502  0.93912619192E+02  0.22767453509E+03 -0.14480924715E+02  0.24670829203E+03  0.10100000352E+00 0.  1.
</event>
<event>
 5   0  0.8012875E-03  0.5006386E+03  0.7818609E-02  0.1013612E+00
       -3   -1    0    0    0  501  0.00000000000E+00  0.00000000000E+00  0.68498053918E+03  0.68498054662E+03  0.10100000352E+00 0.  1.
        3   -1    0    0  501    0  0.00000000000E+00  0.00000000000E+00 -0.91476641678E+02  0.91476697436E+02  0.10100000352E+00 0. -1.
    10030    2    1    2    0    0  0.00000000000E+00  0.00000000000E+00  0.59350389750E+03  0.77645724406E+03  0.50063856774E+03 0.  0.
        2    1    3    3  502    0  0.11650599096E+03 -0.22094165630E+03  0.27122589507E+03  0.36871716475E+03  0.25500000920E-02 0. -1.
       -2    1    3    3    0  502 -0.11650599096E+03  0.22094165630E+03  0.32227800243E+03  0.40774007931E+03  0.25500000920E-02 0.  1.
</event>
<event>
 5   0  0.8012875E-03  0.4997795E+03  0.7818609E-02  0.1013836E+00
       -4   -1    0    0    0  501  0.00000000000E+00  0.00000000000E+00  0.22301925715E+03  0.22302287318E+03  0.12699999809E+01 0. -1.
        4   -1    0    0  501    0  0.00000000000E+00  0.00000000000E+00 -0.27999045396E+03  0.27999333422E+03  0.12699999809E+01 0.  1.
    10030    2    1    2    0    0  0.00000000000E+00  0.00000000000E+00 -0.56971196811E+02  0.50301620740E+03  0.49977953904E+03 0.  0.
        5    1    3    3  502    0 -0.57916312653E+02  0.12980503024E+03  0.17831810392E+03  0.22808568857E+03  0.46999998093E+01 0. -1.
       -5    1    3    3    0  502  0.57916312653E+02 -0.12980503024E+03 -0.23528930073E+03  0.27493051883E+03  0.46999998093E+01 0.  1.
</event>
<event>
 5   0  0.1855407E-02  0.4959523E+03  0.7818609E-02  0.1014841E+00
       -2   -1    0    0    0  501  0.00000000000E+00  0.00000000000E+00  0.14173877447E+03  0.14173877449E+03  0.25500000920E-02 0.  1.
        2   -1    0    0  501    0  0.00000000000E+00  0.00000000000E+00 -0.43384153219E+03  0.43384153220E+03  0.25500000920E-02 0. -1.
    10030    2    1    2    0    0  0.00000000000E+00  0.00000000000E+00 -0.29210275772E+03  0.57558030669E+03  0.49595228437E+03 0.  0.
        1    1    3    3  502    0  0.13905811629E+03  0.49903902354E+02 -0.37718738993E+03  0.40508997312E+03  0.50400001928E-02 0. -1.
       -1    1    3    3    0  502 -0.13905811629E+03 -0.49903902354E+02  0.85084632210E+02  0.17049033356E+03  0.50400001928E-02 0.  1.
</event>
<event>
 5   0  0.1855407E-02  0.5011798E+03  0.7818609E-02  0.1013471E+00
        2   -1    0    0  501    0  0.00000000000E+00  0.00000000000E+00  0.78342990994E+03  0.78342990994E+03  0.25500000920E-02 0. -1.
       -2   -1    0    0    0  501  0.00000000000E+00  0.00000000000E+00 -0.80154336523E+02  0.80154336563E+02  0.25500000920E-02 0.  1.
    10030    2    1    2    0    0  0.00000000000E+00  0.00000000000E+00  0.70327557341E+03  0.86358424650E+03  0.50117982666E+03 0.  0.
        1    1    3    3  502    0  0.22078606183E+03  0.58734210322E+02  0.17424094973E+03  0.28732577530E+03  0.50400001928E-02 0.  1.
       -1    1    3    3    0  502 -0.22078606183E+03 -0.58734210322E+02  0.52903462368E+03  0.57625847121E+03  0.50400001928E-02 0. -1.
</event>
<event>
 5   0  0.1982847E-02  0.5003283E+03  0.7818609E-02  0.1013693E+00
       -2   -1    0    0    0  501  0.00000000000E+00  0.00000000000E+00  0.13336956999E+03  0.13336957002E+03  0.25500000920E-02 0.  1.
        2   -1    0    0  501    0  0.00000000000E+00  0.00000000000E+00 -0.46923825493E+03  0.46923825494E+03  0.25500000920E-02 0. -1.
    10030    2    1    2    0    0  0.00000000000E+00  0.00000000000E+00 -0.33586868494E+03  0.60260782496E+03  0.50032830939E+03 0.  0.
        2    1    3    3  502    0 -0.23786520187E+03 -0.76711355586E+02 -0.18099654751E+03  0.30858424547E+03  0.25500000920E-02 0.  1.
       -2    1    3    3    0  502  0.23786520187E+03  0.76711355586E+02 -0.15487213743E+03  0.29402357949E+03  0.25500000920E-02 0. -1.
</event>
<event>
 5   0  0.1217270E-02  0.5000018E+03  0.7818609E-02  0.1013778E+00
        1   -1    0    0  501    0  0.00000000000E+00  0.00000000000E+00  0.14729947697E+04  0.14729947697E+04  0.50400001928E-02 0.  1.
       -1   -1    0    0    0  501  0.00000000000E+00  0.00000000000E+00 -0.42430877461E+02  0.42430877760E+02  0.50400001928E-02 0. -1.
    10030    2    1    2    0    0  0.00000000000E+00  0.00000000000E+00  0.14305638923E+04  0.15154256475E+04  0.50000184323E+03 0.  0.
        2    1    3    3  502    0  0.59384129971E+01  0.21370123290E+03  0.11080884037E+04  0.11285226591E+04  0.25500000920E-02 0.  1.
       -2    1    3    3    0  502 -0.59384129971E+01 -0.21370123290E+03  0.32247548857E+03  0.38690298840E+03  0.25500000920E-02 0. -1.
</event>
<event>
 5   0  0.1217270E-02  0.4996536E+03  0.7818609E-02  0.1013869E+00
       -1   -1    0    0    0  501  0.00000000000E+00  0.00000000000E+00  0.18025573073E+03  0.18025573080E+03  0.50400001928E-02 0.  1.
        1   -1    0    0  501    0  0.00000000000E+00  0.00000000000E+00 -0.34624929394E+03  0.34624929398E+03  0.50400001928E-02 0. -1.
    10030    2    1    2    0    0  0.00000000000E+00  0.00000000000E+00 -0.16599356321E+03  0.52650502478E+03  0.49965355807E+03 0.  0.
        2    1    3    3  502    0 -0.18623080396E+02 -0.99910740279E+02  0.15748797517E+03  0.18743382159E+03  0.25500000920E-02 0.  1.
       -2    1    3    3    0  502  0.18623080396E+02  0.99910740279E+02 -0.32348153838E+03  0.33907120318E+03  0.25500000920E-02 0. -1.
</event>
<event>
 5   0  0.1209831E-02  0.5002139E+03  0.7818609E-02  0.1013723E+00
       -1   -1    0    0    0  501  0.00000000000E+00  0.00000000000E+00  0.29869420424E+02  0.29869420849E+02  0.50400001928E-02 0. -1.
        1   -1    0    0  501    0  0.00000000000E+00  0.00000000000E+00 -0.20942314060E+04  0.20942314060E+04  0.50400001928E-02 0.  1.
    10030    2    1    2    0    0  0.00000000000E+00  0.00000000000E+00 -0.20643619856E+04  0.21241008268E+04  0.50021386941E+03 0.  0.
        4    1    3    3  502    0  0.20511760058E+03 -0.98679595986E+02 -0.59209128262E+03  0.63433791672E+03  0.12699999809E+01 0.  1.
       -4    1    3    3    0  502 -0.20511760058E+03  0.98679595986E+02 -0.14722707029E+04  0.14897629101E+04  0.12699999809E+01 0. -1.
</event>
<event>
 5   0  0.1217270E-02  0.4990763E+03  0.7818609E-02  0.1014020E+00
        1   -1    0    0  501    0  0.00000000000E+00  0.00000000000E+00  0.16703475824E+04  0.16703475824E+04  0.50400001928E-02 0. -1.
       -1   -1    0    0    0  501  0.00000000000E+00  0.00000000000E+00 -0.37279238931E+02  0.37279239272E+02  0.50400001928E-02 0.  1.
    10030    2    1    2    0    0  0.00000000000E+00  0.00000000000E+00  0.16330683434E+04  0.17076268217E+04  0.49907629444E+03 0.  0.
        2    1    3    3  502    0 -0.12558422599E+03  0.32995524540E+02  0.87416076247E+02  0.15653010205E+03  0.25500000920E-02 0.  1.
       -2    1    3    3    0  502  0.12558422599E+03 -0.32995524540E+02  0.15456522672E+04  0.15510967196E+04  0.25500000920E-02 0. -1.
</event>
<event>
 5   0  0.8012875E-03  0.5011212E+03  0.7818609E-02  0.1013487E+00
        4   -1    0    0  501    0  0.00000000000E+00  0.00000000000E+00  0.24750517902E+03  0.24750843732E+03  0.12699999809E+01 0. -1.
       -4   -1    0    0    0  501  0.00000000000E+00  0.00000000000E+00 -0.25364722620E+03  0.25365040560E+03  0.12699999809E+01 0.  1.
    10030    2    1    2    0    0  0.00000000000E+00  0.00000000000E+00 -0.61420471819E+01  0.50115884292E+03  0.50112120399E+03 0.  0.
        4    1    3    3  502    0  0.20555074105E+03 -0.12957137933E+03  0.58082182352E+02  0.24982994675E+03  0.12699999809E+01 0.  1.
       -4    1    3    3    0  502 -0.20555074105E+03  0.12957137933E+03 -0.64224229534E+02  0.25132889616E+03  0.12699999809E+01 0. -1.
</event>
<event>
 5   0  0.1923706E-02  0.5019971E+03  0.7818609E-02  0.1013259E+00
        2   -1    0    0  501    0  0.00000000000E+00  0.00000000000E+00  0.29557858099E+03  0.29557858100E+03  0.25500000920E-02 0.  1.
       -2   -1    0    0    0  501  0.00000000000E+00  0.00000000000E+00 -0.21314222096E+03  0.21314222098E+03  0.25500000920E-02 0. -1.
    10030    2    1    2    0    0  0.00000000000E+00  0.00000000000E+00  0.82436360023E+02  0.50872080198E+03  0.50199711245E+03 0.  0.
        3    1    3    3  502    0 -0.78943605843E+02 -0.23801968148E+03  0.52076323139E+02  0.25611992368E+03  0.10100000352E+00 0.  1.
       -3    1    3    3    0  502  0.78943605843E+02  0.23801968148E+03  0.30360036884E+02  0.25260087829E+03  0.10100000352E+00 0. -1.
</event>
<event>
 5   0  0.1855407E-02  0.4995277E+03  0.7818609E-02  0.1013902E+00
       -2   -1    0    0    0  501  0.00000000000E+00  0.00000000000E+00  0.16010010979E+03  0.16010010981E+03  0.25500000920E-02 0. -1.
        2   -1    0    0  501    0  0.00000000000E+00  0.00000000000E+00 -0.38964351883E+03  0.38964351884E+03  0.25500000920E-02 0.  1.
    10030    2    1    2    0    0  0.00000000000E+00  0.00000000000E+00 -0.22954340905E+03  0.54974362865E+03  0.49952765750E+03 0.  0.
        1    1    3    3  502    0 -0.24665118336E+03 -0.22498332030E+02 -0.79298034210E+02  0.26005991512E+03  0.50400001928E-02 0. -1.
       -1    1    3    3    0  502  0.24665118336E+03  0.22498332030E+02 -0.15024537484E+03  0.28968371353E+03  0.50400001928E-02 0.  1.
</event>
<event>
 5   0  0.1923706E-02  0.4999107E+03  0.7818609E-02  0.1013802E+00
       -2   -1    0    0    0  501  0.00000000000E+00  0.00000000000E+00  0.29847216526E+03  0.29847216527E+03  0.25500000920E-02 0.  1.
        2   -1    0    0  501    0  0.00000000000E+00  0.00000000000E+00 -0.20932498786E+03  0.20932498787E+03  0.25500000920E-02 0. -1.
    10030    2    1    2    0    0  0.00000000000E+00  0.00000000000E+00  0.89147177406E+02  0.50779715315E+03  0.49991072153E+03 0.  0.
        3    1    3    3  502    0 -0.21417862696E+03  0.93032227780E+02  0.13514406123E+03  0.26979882716E+03  0.10100000352E+00 0.  1.
       -3    1    3    3    0  502  0.21417862696E+03 -0.93032227780E+02 -0.45996883823E+02  0.23799832599E+03  0.10100000352E+00 0. -1.
</event>
<event>
 5   0  0.1209831E-02  0.5002261E+03  0.7818609E-02  0.1013720E+00
       -1   -1    0    0    0  501  0.00000000000E+00  0.00000000000E+00  0.65268728235E+03  0.65268728237E+03  0.50400001928E-02 0.  1.
        1   -1    0    0  501    0  0.00000000000E+00  0.00000000000E+00 -0.95844570587E+02  0.95844570720E+02  0.50400001928E-02 0. -1.
    10030    2    1    2    0    0  0.00000000000E+00  0.00000000000E+00  0.55684271176E+03  0.74853185309E+03  0.50022607833E+03 0.  0.
        4    1    3    3  502    0  0.17454990052E+03  0.41398158550E+02  0.17631329990E+02  0.18026078886E+03  0.12699999809E+01 0. -1.
       -4    1    3    3    0  502 -0.17454990052E+03 -0.41398158550E+02  0.53921138177E+03  0.56827106422E+03  0.12699999809E+01 0.  1.
</event>
<event>
 5   0  0.1982847E-02  0.5015354E+03  0.7818609E-02  0.1013379E+00
       -2   -1    0    0    0  501  0.00000000000E+00  0.00000000000E+00  0.61824850930E+02  0.61824850983E+02  0.25500000920E-02 0. -1.
        2   -1    0    0  501    0  0.00000000000E+00  0.00000000000E+00 -0.10171387286E+04  0.10171387286E+04  0.25500000920E-02 0.  1.
    10030    2    1    2    0    0  0.00000000000E+00  0.00000000000E+00 -0.95531387768E+03  0.10789635796E+04  0.50153544362E+03 0.  0.
        2    1    3    3  502    0 -0.15931412066E+03 -0.90559065036E+02 -0.10939433596E+03  0.21342224357E+03  0.25500000920E-02 0. -1.
       -2    1    3    3    0  502  0.15931412066E+03  0.90559065036E+02 -0.84591954172E+03  0.86554133603E+03  0.25500000920E-02 0.  1.
</event>
<event>
 5   0  0.1982847E-02  0.4997082E+03  0.7818609E-02  0.1013855E+00
       -2   -1    0    0    0  501  0.00000000000E+00  0.00000000000E+00  0.71534904826E+02  0.71534904871E+02  0.25500000920E-02 0.  1.
        2   -1    0    0  501    0  0.00000000000E+00  0.00000000000E+00 -0.87267974332E+03  0.87267974333E+03  0.25500000920E-02 0. -1.
    10030    2    1    2    0    0  0.00000000000E+00  0.00000000000E+00 -0.80114483850E+03  0.94421464820E+03  0.49970816445E+03 0.  0.
        2    1    3    3  502    0 -0.95727566871E+02 -0.18537864613E+03 -0.14081807563E+03  0.25171162057E+03  0.25500000920E-02 0. -1.
       -2    1    3    3    0  502  0.95727566871E+02  0.18537864613E+03 -0.66032676287E+03  0.69250302763E+03  0.25500000920E-02 0.  1.
</event>
<event>
 5   0  0.1209831E-02  0.5001819E+03  0.7818609E-02  0.1013731E+00
       -1   -1    0    0    0  501  0.00000000000E+00  0.00000000000E+00  0.44036511251E+02  0.44036511539E+02  0.50400001928E-02 0.  1.
        1   -1    0    0  501    0  0.00000000000E+00  0.00000000000E+00 -0.14203097652E+04  0.14203097652E+04  0.50400001928E-02 0. -1.
    10030    2    1    2    0    0  0.00000000000E+00  0.00000000000E+00 -0.13762732539E+04  0.14643462767E+04  0.50018191559E+03 0.  0.
        4    1    3    3  502    0 -0.49292494780E+01 -0.85321865484E+02 -0.52280844698E-01  0.85473585764E+02  0.12699999809E+01 0.  1.
       -4    1    3    3    0  502  0.49292494780E+01  0.85321865484E+02 -0.13762209731E+04  0.13788726910E+04  0.12699999809E+01 0. -1.
</event>
<event>
 5   0  0.1217270E-02  0.4946270E+03  0.7818609E-02  0.1015191E+00
       -1   -1    0    0    0  501  0.00000000000E+00  0.00000000000E+00  0.86675190354E+02  0.86675190501E+02  0.50400001928E-02 0.  1.
        1   -1    0    0  501    0  0.00000000000E+00  0.00000000000E+00 -0.70566867850E+03  0.70566867852E+03  0.50400001928E-02 0. -1.
    10030    2    1    2    0    0  0.00000000000E+00  0.00000000000E+00 -0.61899348815E+03  0.79234386902E+03  0.49462699927E+03 0.  0.
        2    1    3    3  502    0 -0.16862523184E+03  0.22269160499E+02 -0.21895888813E+02  0.17149289861E+03  0.25500000920E-02 0.  1.
       -2    1    3    3    0  502  0.16862523184E+03 -0.22269160499E+02 -0.59709759934E+03  0.62085097041E+03  0.25500000920E-02 0. -1.
</event>
<event>
 5   0  0.1227864E-02  0.4985024E+03  0.7818609E-02  0.1014171E+00
        1   -1    0    0  501    0  0.00000000000E+00  0.00000000000E+00  0.10191382690E+04  0.10191382691E+04  0.50400001928E-02 0.  1.
       -1   -1    0    0    0  501  0.00000000000E+00  0.00000000000E+00 -0.60959507002E+02  0.60959507211E+02  0.50400001928E-02 0. -1.
    10030    2    1    2    0    0  0.00000000000E+00  0.00000000000E+00  0.95817876204E+03  0.10800977763E+04  0.49850242353E+03 0.  0.
        5    1    3    3  502    0 -0.10345771357E+03  0.21796181064E+03  0.34389748128E+03  0.42011714679E+03  0.46999998093E+01 0. -1.
       -5    1    3    3    0  502  0.10345771357E+03 -0.21796181064E+03  0.61428128076E+03  0.65998062948E+03  0.46999998093E+01 0.  1.
</event>
<event>
 5   0  0.1941387E-02  0.4994548E+03  0.7818609E-02  0.1013921E+00
        2   -1    0    0  501    0  0.00000000000E+00  0.00000000000E+00  0.17175331102E+03  0.17175331104E+03  0.25500000920E-02 0.  1.
       -2   -1    0    0    0  501  0.00000000000E+00  0.00000000000E+00 -0.36310087569E+03  0.36310087570E+03  0.25500000920E-02 0. -1.
    10030    2    1    2    0    0  0.00000000000E+00  0.00000000000E+00 -0.19134756468E+03  0.53485418674E+03  0.49945481334E+03 0.  0.
        4    1    3    3  502    0  0.21223523173E+02 -0.66669829000E+02 -0.35238682459E+03  0.35926785422E+03  0.12699999809E+01 0. -1.
       -4    1    3    3    0  502 -0.21223523173E+02  0.66669829000E+02  0.16103925991E+03  0.17558633252E+03  0.12699999809E+01 0.  1.
</event>
<event>
 5   0  0.1225989E-02  0.5006996E+03  0.7818609E-02  0.1013596E+00
       -1   -1    0    0    0  501  0.00000000000E+00  0.00000000000E+00  0.14479279989E+03  0.14479279998E+03  0.50400001928E-02 0.  1.
        1   -1    0    0  501    0  0.00000000000E+00  0.00000000000E+00 -0.43286005559E+03  0.43286005561E+03  0.50400001928E-02 0. -1.
    10030    2    1    2    0    0  0.00000000000E+00  0.00000000000E+00 -0.28806725569E+03  0.57765285560E+03  0.50069958835E+03 0.  0.
        3    1    3    3  502    0  0.14377954402E+03  0.13946688031E+03  0.29217807643E+02  0.20242840331E+03  0.10100000352E+00 0.  1.
       -3    1    3    3    0  502 -0.14377954402E+03 -0.13946688031E+03 -0.31728506333E+03  0.37522445229E+03  0.10100000352E+00 0. -1.
</event>
<event>
 5   0  0.1855407E-02  0.4995824E+03  0.7818609E-02  0.1013888E+00
       -2   -1    0    0    0  501  0.00000000000E+00  0.00000000000E+00  0.18187368376E+03  0.18187368378E+03  0.25500000920E-02 0. -1.
        2   -1    0    0  501    0  0.00000000000E+00  0.00000000000E+00 -0.34307131019E+03  0.34307131020E+03  0.25500000920E-02 0.  1.
    10030    2    1    2    0    0  0.00000000000E+00  0.00000000000E+00 -0.16119762643E+03  0.52494499397E+03  0.49958239754E+03 0.  0.
        1    1    3    3  502    0 -0.19285085804E+03  0.11075049679E+03  0.38923480941E+02  0.22577015609E+03  0.50400001928E-02 0. -1.
       -1    1    3    3    0  502  0.19285085804E+03 -0.11075049679E+03 -0.20012110737E+03  0.29917483789E+03  0.50400001928E-02 0.  1.
</event>
<event>
 5   0  0.1227864E-02  0.5002051E+03  0.7818609E-02  0.1013725E+00
        1   -1    0    0  501    0  0.00000000000E+00  0.00000000000E+00  0.51277305355E+03  0.51277305357E+03  0.50400001928E-02 0. -1.
       -1   -1    0    0    0  501  0.00000000000E+00  0.00000000000E+00 -0.12198627456E+03  0.12198627467E+03  0.50400001928E-02 0.  1.
    10030    2    1    2    0    0  0.00000000000E+00  0.00000000000E+00  0.39078677899E+03  0.63475932824E+03  0.50020505611E+03 0.  0.
        5    1    3    3  502    0 -0.12380547193E+03 -0.17802136726E+03  0.37354536934E+02  0.22008374203E+03  0.46999998093E+01 0.  1.
       -5    1    3    3    0  502  0.12380547193E+03  0.17802136726E+03  0.35343224205E+03  0.41467558621E+03  0.46999998093E+01 0. -1.
</event>
<event>
 5   0  0.1180937E-02  0.4997016E+03  0.7818609E-02  0.1013857E+00
       -1   -1    0    0    0  501  0.00000000000E+00  0.00000000000E+00  0.34383166043E+03  0.34383166047E+03  0.50400001928E-02 0. -1.
        1   -1    0    0  501    0  0.00000000000E+00  0.00000000000E+00 -0.18155812323E+03  0.18155812330E+03  0.50400001928E-02 0.  1.
    10030    2    1    2    0    0  0.00000000000E+00  0.00000000000E+00  0.16227353720E+03  0.52538978377E+03  0.49970163499E+03 0.  0.
        1    1    3    3  502    0  0.22159236298E+03 -0.91635355547E+02  0.15492439662E+03  0.28548517021E+03  0.50400001928E-02 0. -1.
       -1    1    3    3    0  502 -0.22159236298E+03  0.91635355547E+02  0.73491405821E+01  0.23990461356E+03  0.50400001928E-02 0.  1.
</event>
<event>
 5   0  0.1180937E-02  0.5000367E+03  0.7818609E-02  0.1013769E+00
       -1   -1    0    0    0  501  0.00000000000E+00  0.00000000000E+00  0.86112931117E+02  0.86112931264E+02  0.50400001928E-02 0.  1.
        1   -1    0    0  501    0  0.00000000000E+00  0.00000000000E+00 -0.72589771541E+03  0.72589771543E+03  0.50400001928E-02 0. -1.
    10030    2    1    2    0    0  0.00000000000E+00  0.00000000000E+00 -0.63978478429E+03  0.81201064669E+03  0.50003671878E+03 0.  0.
        1    1    3    3  502    0  0.72543588415E+02 -0.25561785091E+02  0.66422956825E+02  0.10162670070E+03  0.50400001928E-02 0.  1.
       -1    1    3    3    0  502 -0.72543588415E+02  0.25561785091E+02 -0.70620774112E+03  0.71038394599E+03  0.50400001928E-02 0. -1.
</event>
<event>
 5   0  0.1227864E-02  0.5007726E+03  0.7818609E-02  0.1013577E+00
       -1   -1    0    0    0  501  0.00000000000E+00  0.00000000000E+00  0.12183602979E+04  0.12183602979E+04  0.50400001928E-02 0. -1.
        1   -1    0    0  501    0  0.00000000000E+00  0.00000000000E+00 -0.51457100472E+02  0.51457100719E+02  0.50400001928E-02 0.  1.
    10030    2    1    2    0    0  0.00000000000E+00  0.00000000000E+00  0.11669031974E+04  0.12698173986E+04  0.50077255685E+03 0.  0.
        5    1    3    3  502    0 -0.12164948668E+03  0.20530673820E+03  0.39164437181E+03  0.45864676858E+03  0.46999998093E+01 0.  1.
       -5    1    3    3    0  502  0.12164948668E+03 -0.20530673820E+03  0.77525882559E+03  0.81117063002E+03  0.46999998093E+01 0. -1.
</event>
<event>
 5   0  0.1941387E-02  0.5022289E+03  0.7818609E-02  0.1013199E+00
        2   -1    0    0  501    0  0.00000000000E+00  0.00000000000E+00  0.11060325892E+04  0.11060325892E+04  0.25500000920E-02 0.  1.
       -2   -1    0    0    0  501  0.00000000000E+00  0.00000000000E+00 -0.57013208264E+02  0.57013208321E+02  0.25500000920E-02 0. -1.
    10030    2    1    2    0    0  0.00000000000E+00  0.00000000000E+00  0.10490193809E+04  0.11630457975E+04  0.50222889757E+03 0.  0.
        4    1    3    3  502    0 -0.21031087908E+03 -0.89562766918E+02  0.28379563873E+03  0.36440874378E+03  0.12699999809E+01 0.  1.
       -4    1    3    3    0  502  0.21031087908E+03  0.89562766918E+02  0.76522374218E+03  0.79863705372E+03  0.12699999809E+01 0. -1.
</event>
<event>
 5   0  0.1923706E-02  0.4985072E+03  0.7818609E-02  0.1014169E+00
        2   -1    0    0  501    0  0.00000000000E+00  0.00000000000E+00  0.81276333216E+03  0.81276333216E+03  0.25500000920E-02 0.  1.
       -2   -1    0    0    0  501  0.00000000000E+00  0.00000000000E+00 -0.76439662268E+02  0.76439662311E+02  0.25500000920E-02 0. -1.
    10030    2    1    2    0    0  0.00000000000E+00  0.00000000000E+00  0.73632366989E+03  0.88920299447E+03  0.49850719006E+03 0.  0.
        3    1    3    3  502    0 -0.15018576634E+03  0.53955971609E+02  0.26632750729E+02  0.16179099139E+03  0.10100000352E+00 0. -1.
       -3    1    3    3    0  502  0.15018576634E+03 -0.53955971609E+02  0.70969091916E+03  0.72741200308E+03  0.10100000352E+00 0.  1.
</event>
<event>
 5   0  0.1982847E-02  0.5000049E+03  0.7818609E-02  0.1013778E+00
        2   -1    0    0  501    0  0.00000000000E+00  0.00000000000E+00  0.42940297957E+03  0.42940297958E+03  0.25500000920E-02 0.  1.
       -2   -1    0    0    0  501  0.00000000000E+00  0.00000000000E+00 -0.14555380480E+03  0.14555380482E+03  0.25500000920E-02 0. -1.
    10030    2    1    2    0    0  0.00000000000E+00  0.00000000000E+00  0.28384917477E+03  0.57495678440E+03  0.50000494989E+03 0.  0.
        2    1    3    3  502    0 -0.23724499518E+03 -0.74929809042E+01  0.51674443009E+02  0.24292299308E+03  0.25500000920E-02 0. -1.
       -2    1    3    3    0  502  0.23724499518E+03  0.74929809042E+01  0.23217473177E+03  0.33203379132E+03  0.25500000920E-02 0.  1.
</event>
<event>
 5   0  0.1855407E-02  0.4996232E+03  0.7818609E-02  0.1013877E+00
        2   -1    0    0  501    0  0.00000000000E+00  0.00000000000E+00  0.51832675212E+03  0.51832675213E+03  0.25500000920E-02 0.  1.
       -2   -1    0    0    0  501  0.00000000000E+00  0.00000000000E+00 -0.12039861493E+03  0.12039861496E+03  0.25500000920E-02 0. -1.
    10030    2    1    2    0    0  0.00000000000E+00  0.00000000000E+00  0.39792813719E+03  0.63872536708E+03  0.49962315017E+03 0.  0.
        1    1    3    3  502    0 -0.30963836285E+02 -0.35441795785E+02  0.51260821372E+03  0.51476408271E+03  0.50400001928E-02 0.  1.
       -1    1    3    3    0  502  0.30963836285E+02  0.35441795785E+02 -0.11468007653E+03  0.12396128438E+03  0.50400001928E-02 0. -1.
</event>
<event>
 5   0  0.1967813E-02  0.5001876E+03  0.7818609E-02  0.1013730E+00
       -2   -1    0    0    0  501  0.00000000000E+00  0.00000000000E+00  0.84171470379E+02  0.84171470418E+02  0.25500000920E-02 0. -1.
        2   -1    0    0  501    0  0.00000000000E+00  0.00000000000E+00 -0.74308915931E+03  0.74308915931E+03  0.25500000920E-02 0.  1.
    10030    2    1    2    0    0  0.00000000000E+00  0.00000000000E+00 -0.65891768893E+03  0.82726062973E+03  0.50018759353E+03 0.  0.
        5    1    3    3  502    0 -0.24996100702E+03  0.57192814787E+01 -0.32382538369E+03  0.40914323205E+03  0.46999998093E+01 0.  1.
       -5    1    3    3    0  502  0.24996100702E+03 -0.57192814787E+01 -0.33509230524E+03  0.41811739768E+03  0.46999998093E+01 0. -1.
</event>
<event>
 5   0  0.1923706E-02  0.4999892E+03  0.7818609E-02  0.1013782E+00
        2   -1    0    0  501    0  0.00000000000E+00  0.00000000000E+00  0.94176920554E+03  0.94176920554E+03  0.25500000920E-02 0. -1.
       -2   -1    0    0    0  501  0.00000000000E+00  0.00000000000E+00 -0.66361583013E+02  0.66361583062E+02  0.25500000920E-02 0.  1.
    10030    2    1    2    0    0  0.00000000000E+00  0.00000000000E+00  0.87540762253E+03  0.10081307886E+04  0.49998918124E+03 0.  0.
        3    1    3    3  502    0  0.22320925330E+03 -0.38058692514E+02  0.65134131774E+03  0.68957694076E+03  0.10100000352E+00 0. -1.
       -3    1    3    3    0  502 -0.22320925330E+03  0.38058692514E+02  0.22406630479E+03  0.31855384784E+03  0.10100000352E+00 0.  1.
</event>
<event>
 5   0  0.1180937E-02  0.4999383E+03  0.7818609E-02  0.1013795E+00
        1   -1    0    0  501    0  0.00000000000E+00  0.00000000000E+00  0.74648521498E+03  0.74648521500E+03  0.50400001928E-02 0. -1.
       -1   -1    0    0    0  501  0.00000000000E+00  0.00000000000E+00 -0.83705032430E+02  0.83705032582E+02  0.50400001928E-02 0.  1.
    10030    2    1    2    0    0  0.00000000000E+00  0.00000000000E+00  0.66278018255E+03  0.83019024758E+03  0.49993827298E+03 0.  0.
        1    1    3    3  502    0  0.12255442927E+01  0.18918480266E+03  0.60087935257E+02  0.19850176701E+03  0.50400001928E-02 0.  1.
       -1    1    3    3    0  502 -0.12255442927E+01 -0.18918480266E+03  0.60269224730E+03  0.63168848058E+03  0.50400001928E-02 0. -1.
</event>
<event>
 5   0  0.1225989E-02  0.5120819E+03  0.7818609E-02  0.1010673E+00
       -1   -1    0    0    0  501  0.00000000000E+00  0.00000000000E+00  0.25597428070E+03  0.25597428075E+03  0.50400001928E-02 0. -1.
        1   -1    0    0  501    0  0.00000000000E+00  0.00000000000E+00 -0.25610766306E+03  0.25610766311E+03  0.50400001928E-02 0.  1.
    10030    2    1    2    0    0  0.00000000000E+00  0.00000000000E+00 -0.13338236788E+00  0.51208194386E+03  0.51208192649E+03 0.  0.
        3    1    3    3  502    0  0.12260333952E+03  0.14869461942E+03  0.16850168628E+03  0.25599706480E+03  0.10100000352E+00 0. -1.
       -3    1    3    3    0  502 -0.12260333952E+03 -0.14869461942E+03 -0.16863506865E+03  0.25608487906E+03  0.10100000352E+00 0.  1.
</event>
<event>
 5   0  0.1225989E-02  0.5001199E+03  0.7818609E-02  0.1013748E+00
        1   -1    0    0  501    0  0.00000000000E+00  0.00000000000E+00  0.23126787259E+03  0.23126787264E+03  0.50400001928E-02 0. -1.
       -1   -1    0    0    0  501  0.00000000000E+00  0.00000000000E+00 -0.27037897455E+03  0.27037897460E+03  0.50400001928E-02 0.  1.
    10030    2    1    2    0    0  0.00000000000E+00  0.00000000000E+00 -0.39111101964E+02  0.50164684725E+03  0.50011986669E+03 0.  0.
        3    1    3    3  502    0  0.59609304164E+02  0.19773872537E+03  0.12185747953E+03  0.23979809876E+03  0.10100000352E+00 0. -1.
       -3    1    3    3    0  502 -0.59609304164E+02 -0.19773872537E+03 -0.16096858149E+03  0.26184874848E+03  0.10100000352E+00 0.  1.
</event>
<event>
 5   0  0.1225989E-02  0.5000416E+03  0.7818609E-02  0.1013768E+00
       -1   -1    0    0    0  501  0.00000000000E+00  0.00000000000E+00  0.96943585500E+02  0.96943585631E+02  0.50400001928E-02 0.  1.
        1   -1    0    0  501    0  0.00000000000E+00  0.00000000000E+00 -0.64481212246E+03  0.64481212248E+03  0.50400001928E-02 0. -1.
    10030    2    1    2    0    0  0.00000000000E+00  0.00000000000E+00 -0.54786853696E+03  0.74175570811E+03  0.50004159499E+03 0.  0.
        3    1    3    3  502    0 -0.17737228032E+03 -0.17056378134E+03 -0.20830445435E+03  0.32240298577E+03  0.10100000352E+00 0.  1.
       -3    1    3    3    0  502  0.17737228032E+03  0.17056378134E+03 -0.33956408261E+03  0.41935272234E+03  0.10100000352E+00 0. -1.
</event>
<event>
 5   0  0.1982847E-02  0.5031634E+03  0.7818609E-02  0.1012957E+00
       -2   -1    0    0    0  501  0.00000000000E+00  0.00000000000E+00  0.36252948339E+02  0.36252948429E+02  0.25500000920E-02 0.  1.
        2   -1    0    0  501    0  0.00000000000E+00  0.00000000000E+00 -0.17458812165E+04  0.17458812165E+04  0.25500000920E-02 0. -1.
    10030    2    1    2    0    0  0.00000000000E+00  0.00000000000E+00 -0.17096282682E+04  0.17821341650E+04  0.50316335968E+03 0.  0.
        2    1    3    3  502    0 -0.94510003007E+02  0.10732528372E+03 -0.15879234049E+04  0.15943498979E+04  0.25500000920E-02 0. -1.
       -2    1    3    3    0  502  0.94510003007E+02 -0.10732528372E+03 -0.12170486333E+03  0.18778426707E+03  0.25500000920E-02 0.  1.
</event>
<event>
 5   0  0.1923706E-02  0.4984988E+03  0.7818609E-02  0.1014171E+00
       -2   -1    0    0    0  501  0.00000000000E+00  0.00000000000E+00  0.33288544984E+02  0.33288545081E+02  0.25500000920E-02 0.  1.
        2   -1    0    0  501    0  0.00000000000E+00  0.00000000000E+00 -0.18662655283E+04  0.18662655283E+04  0.25500000920E-02 0. -1.
    10030    2    1    2    0    0  0.00000000000E+00  0.00000000000E+00 -0.18329769833E+04  0.18995540734E+04  0.49849880275E+03 0.  0.
        3    1    3    3  502    0  0.29814088954E+02 -0.20702799489E+03 -0.14330362388E+04  0.14482204054E+04  0.10100000352E+00 0. -1.
       -3    1    3    3    0  502 -0.29814088954E+02  0.20702799489E+03 -0.39994074449E+03  0.45133366800E+03  0.10100000352E+00 0.  1.
</event>
<event>
 5   0  0.1225989E-02  0.4984240E+03  0.7818609E-02  0.1014191E+00
       -1   -1    0    0    0  501  0.00000000000E+00  0.00000000000E+00  0.66572336428E+02  0.66572336619E+02  0.50400001928E-02 0. -1.
        1   -1    0    0  501    0  0.00000000000E+00  0.00000000000E+00 -0.93291942284E+03  0.93291942285E+03  0.50400001928E-02 0.  1.
    10030    2    1    2    0    0  0.00000000000E+00  0.00000000000E+00 -0.86634708641E+03  0.99949175947E+03  0.49842401940E+03 0.  0.
        3    1    3    3  502    0  0.19250217766E+03 -0.78841940482E+02 -0.15797540494E+03  0.26120753961E+03  0.10100000352E+00 0.  1.
       -3    1    3    3    0  502 -0.19250217766E+03  0.78841940482E+02 -0.70837168147E+03  0.73828421986E+03  0.10100000352E+00 0. -1.
</event>
<event>
 5   0  0.1217270E-02  0.4994780E+03  0.7818609E-02  0.1013915E+00
       -1   -1    0    0    0  501  0.00000000000E+00  0.00000000000E+00  0.35591032867E+03  0.35591032871E+03  0.50400001928E-02 0. -1.
        1   -1    0    0  501    0  0.00000000000E+00  0.00000000000E+00 -0.17523958743E+03  0.17523958750E+03  0.50400001928E-02 0.  1.
    10030    2    1    2    0    0  0.00000000000E+00  0.00000000000E+00  0.18067074125E+03  0.53114991621E+03  0.49947804431E+03 0.  0.
        2    1    3    3  502    0  0.11692166582E+03  0.15859212207E+03  0.25351749520E+03  0.32108138766E+03  0.25500000920E-02 0. -1.
       -2    1    3    3    0  502 -0.11692166582E+03 -0.15859212207E+03 -0.72846753949E+02  0.21006852855E+03  0.25500000920E-02 0.  1.
</event>
<event>
 5   0  0.1982847E-02  0.4997388E+03  0.7818609E-02  0.1013847E+00
       -2   -1    0    0    0  501  0.00000000000E+00  0.00000000000E+00  0.64432629263E+03  0.64432629263E+03  0.25500000920E-02 0. -1.
        2   -1    0    0  501    0  0.00000000000E+00  0.00000000000E+00 -0.96899226033E+02  0.96899226066E+02  0.25500000920E-02 0.  1.
    10030    2    1    2    0    0  0.00000000000E+00  0.00000000000E+00  0.54742706660E+03  0.74122551870E+03  0.49973880811E+03 0.  0.
        2    1    3    3  502    0 -0.18275012291E+03  0.10429422810E+03  0.47359067171E+03  0.51823066079E+03  0.25500000920E-02 0. -1.
       -2    1    3    3    0  502  0.18275012291E+03 -0.10429422810E+03  0.73836394883E+02  0.22299485791E+03  0.25500000920E-02 0.  1.
</event>
<event>
 5   0  0.1217270E-02  0.4989261E+03  0.7818609E-02  0.1014060E+00
       -1   -1    0    0    0  501  0.00000000000E+00  0.00000000000E+00  0.64064477741E+03  0.64064477743E+03  0.50400001928E-02 0. -1.
        1   -1    0    0  501    0  0.00000000000E+00  0.00000000000E+00 -0.97139346747E+02  0.97139346878E+02  0.50400001928E-02 0.  1.
    10030    2    1    2    0    0  0.00000000000E+00  0.00000000000E+00  0.54350543066E+03  0.73778412431E+03  0.49892610768E+03 0.  0.
        2    1    3    3  502    0 -0.86148612163E+02  0.22889321347E+03  0.34446918386E+03  0.42246030013E+03  0.25500000920E-02 0. -1.
       -2    1    3    3    0  502  0.86148612163E+02 -0.22889321347E+03  0.19903624681E+03  0.31532382418E+03  0.25500000920E-02 0.  1.
</event>
<event>
 5   0  0.1227864E-02  0.5001218E+03  0.7818609E-02  0.1013747E+00
        1   -1    0    0  501    0  0.00000000000E+00  0.00000000000E+00  0.15042987878E+03  0.15042987887E+03  0.50400001928E-02 0. -1.
       -1   -1    0    0    0  501  0.00000000000E+00  0.00000000000E+00 -0.41567841907E+03  0.41567841910E+03  0.50400001928E-02 0.  1.
    10030    2    1    2    0    0  0.00000000000E+00  0.00000000000E+00 -0.26524854028E+03  0.56610829796E+03  0.50012180206E+03 0.  0.
        5    1    3    3  502    0  0.34311518185E+02  0.45866802349E+02 -0.40810090909E+03  0.41212799691E+03  0.46999998093E+01 0.  1.
       -5    1    3    3    0  502 -0.34311518185E+02 -0.45866802349E+02  0.14285236881E+03  0.15398030105E+03  0.46999998093E+01 0. -1.
</event>
<event>
 5   0  0.1855407E-02  0.5004418E+03  0.7818609E-02  0.1013664E+00
       -2   -1    0    0    0  501  0.00000000000E+00  0.00000000000E+00  0.41954889821E+02  0.41954889899E+02  0.25500000920E-02 0. -1.
        2   -1    0    0  501    0  0.00000000000E+00  0.00000000000E+00 -0.14923291266E+04  0.14923291266E+04  0.25500000920E-02 0.  1.
    10030    2    1    2    0    0  0.00000000000E+00  0.00000000000E+00 -0.14503742368E+04  0.15342840165E+04  0.50044182137E+03 0.  0.
        1    1    3    3  502    0 -0.23275716749E+02 -0.13046888841E+03 -0.13758907674E+04  0.13822587651E+04  0.50400001928E-02 0.  1.
       -1    1    3    3    0  502  0.23275716749E+02  0.13046888841E+03 -0.74483469401E+02  0.15202525143E+03  0.50400001928E-02 0. -1.
</event>
<event>
 5   0  0.1217270E-02  0.4900592E+03  0.7818609E-02  0.1016407E+00
        1   -1    0    0  501    0  0.00000000000E+00  0.00000000000E+00  0.55452290208E+03  0.55452290210E+03  0.50400001928E-02 0.  1.
       -1   -1    0    0    0  501  0.00000000000E+00  0.00000000000E+00 -0.10827235610E+03  0.10827235621E+03  0.50400001928E-02 0. -1.
    10030    2    1    2    0    0  0.00000000000E+00  0.00000000000E+00  0.44625054598E+03  0.66279525832E+03  0.49005918485E+03 0.  0.
        2    1    3    3  502    0  0.22067191079E+03  0.85664916604E+02  0.30871632789E+03  0.38902485944E+03  0.25500000920E-02 0.  1.
       -2    1    3    3    0  502 -0.22067191079E+03 -0.85664916604E+02  0.13753421809E+03  0.27377039888E+03  0.25500000920E-02 0. -1.
</event>
<event>
 5   0  0.1180937E-02  0.5000129E+03  0.7818609E-02  0.1013776E+00
        1   -1    0    0  501    0  0.00000000000E+00  0.00000000000E+00  0.10855615892E+04  0.10855615892E+04  0.50400001928E-02 0.  1.
       -1   -1    0    0    0  501  0.00000000000E+00  0.00000000000E+00 -0.57576853999E+02  0.57576854219E+02  0.50400001928E-02 0. -1.
    10030    2    1    2    0    0  0.00000000000E+00  0.00000000000E+00  0.10279847352E+04  0.11431384434E+04  0.50001288487E+03 0.  0.
        1    1    3    3  502    0  0.99585649213E+02 -0.22506345811E+03  0.41349339984E+03  0.48119398733E+03  0.50400001928E-02 0. -1.
       -1    1    3    3    0  502 -0.99585649213E+02  0.22506345811E+03  0.61449133535E+03  0.66194445609E+03  0.50400001928E-02 0.  1.
</event>
<event>
 5   0  0.1217270E-02  0.4999216E+03  0.7818609E-02  0.1013799E+00
        1   -1    0    0  501    0  0.00000000000E+00  0.00000000000E+00  0.21541657457E+03  0.21541657463E+03  0.50400001928E-02 0.  1.
       -1   -1    0    0    0  501  0.00000000000E+00  0.00000000000E+00 -0.29004450311E+03  0.29004450315E+03  0.50400001928E-02 0. -1.
    10030    2    1    2    0    0  0.00000000000E+00  0.00000000000E+00 -0.74627928543E+02  0.50546107778E+03  0.49992156728E+03 0.  0.
        2    1    3    3  502    0 -0.23863488604E+03  0.28585838408E+02 -0.10675272334E+03  0.26298270464E+03  0.25500000920E-02 0. -1.
       -2    1    3    3    0  502  0.23863488604E+03 -0.28585838408E+02  0.32124794795E+02  0.24247837314E+03  0.25500000920E-02 0.  1.
</event>
<event>
 5   0  0.1855407E-02  0.5038716E+03  0.7818609E-02  0.1012773E+00
       -2   -1    0    0    0  501  0.00000000000E+00  0.00000000000E+00  0.64770594312E+02  0.64770594362E+02  0.25500000920E-02 0.  1.
        2   -1    0    0  501    0  0.00000000000E+00  0.00000000000E+00 -0.97994546629E+03  0.97994546629E+03  0.25500000920E-02 0. -1.
    10030    2    1    2    0    0  0.00000000000E+00  0.00000000000E+00 -0.91517487198E+03  0.10447160607E+04  0.50387161171E+03 0.  0.
        1    1    3    3  502    0  0.12705997924E+03 -0.64963008284E+02 -0.88806783923E+03  0.89946034813E+03  0.50400001928E-02 0. -1.
       -1    1    3    3    0  502 -0.12705997924E+03  0.64963008284E+02 -0.27107032747E+02  0.14525571252E+03  0.50400001928E-02 0.  1.
</event>
<event>
 5   0  0.1967813E-02  0.5022677E+03  0.7818609E-02  0.1013189E+00
        2   -1    0    0  501    0  0.00000000000E+00  0.00000000000E+00  0.46756617127E+03  0.46756617128E+03  0.25500000920E-02 0. -1.
       -2   -1    0    0    0  501  0.00000000000E+00  0.00000000000E+00 -0.13488616442E+03  0.13488616445E+03  0.25500000920E-02 0.  1.
    10030    2    1    2    0    0  0.00000000000E+00  0.00000000000E+00  0.33268000685E+03  0.60245233573E+03  0.50226768746E+03 0.  0.
        5    1    3    3  502    0  0.35729651346E+02  0.99828983081E+02  0.43934322641E+03  0.45198118815E+03  0.46999998093E+01 0. -1.
       -5    1    3    3    0  502 -0.35729651346E+02 -0.99828983081E+02 -0.10666321956E+03  0.15047114758E+03  0.46999998093E+01 0.  1.
</event>
<event>
 5   0  0.1225989E-02  0.4997901E+03  0.7818609E-02  0.1013834E+00
       -1   -1    0    0    0  501  0.00000000000E+00  0.00000000000E+00  0.17872525230E+03  0.17872525237E+03  0.50400001928E-02 0.  1.
        1   -1    0    0  501    0  0.00000000000E+00  0.00000000000E+00 -0.34940518906E+03  0.34940518909E+03  0.50400001928E-02 0. -1.
    10030    2    1    2    0    0  0.00000000000E+00  0.00000000000E+00 -0.17067993676E+03  0.52813044146E+03  0.49979007832E+03 0.  0.
        3    1    3    3  502    0 -0.83249955902E+02 -0.23301971142E+02 -0.33310052838E+03  0.34413588773E+03  0.10100000352E+00 0. -1.
       -3    1    3    3    0  502  0.83249955902E+02  0.23301971142E+02  0.16242059163E+03  0.18399455373E+03  0.10100000352E+00 0.  1.
</event>
<event>
 5   0  0.1941387E-02  0.4960066E+03  0.7818609E-02  0.1014827E+00
        2   -1    0    0  501    0  0.00000000000E+00  0.00000000000E+00  0.49742977744E+03  0.49742977744E+03  0.25500000920E-02 0.  1.
       -2   -1    0    0    0  501  0.00000000000E+00  0.00000000000E+00 -0.12364689268E+03  0.12364689270E+03  0.25500000920E-02 0. -1.
    10030    2    1    2    0    0  0.00000000000E+00  0.00000000000E+00  0.37378288476E+03  0.62107667014E+03  0.49600663832E+03 0.  0.
        4    1    3    3  502    0 -0.17500791414E+03  0.16814276448E+03  0.25079147466E+03  0.34899532364E+03  0.12699999809E+01 0.  1.
       -4    1    3    3    0  502  0.17500791414E+03 -0.16814276448E+03  0.12299141010E+03  0.27208134651E+03  0.12699999809E+01 0. -1.
</event>
<event>
 5   0  0.1209831E-02  0.5002700E+03  0.7818609E-02  0.1013708E+00
        1   -1    0    0  501    0  0.00000000000E+00  0.00000000000E+00  0.79028707643E+02  0.79028707804E+02  0.50400001928E-02 0. -1.
       -1   -1    0    0    0  501  0.00000000000E+00  0.00000000000E+00 -0.79170627594E+03  0.79170627595E+03  0.50400001928E-02 0.  1.
    10030    2    1    2    0    0  0.00000000000E+00  0.00000000000E+00 -0.71267756829E+03  0.87073498376E+03  0.50027002268E+03 0.  0.
        4    1    3    3  502    0  0.22125475806E+03  0.30177285022E+01 -0.55934112197E+03  0.60152047204E+03  0.12699999809E+01 0.  1.
       -4    1    3    3    0  502 -0.22125475806E+03 -0.30177285022E+01 -0.15333644632E+03  0.26921451172E+03  0.12699999809E+01 0. -1.
</event>
<event>
 5   0  0.1227864E-02  0.5004184E+03  0.7818609E-02  0.1013670E+00
        1   -1    0    0  501    0  0.00000000000E+00  0.00000000000E+00  0.10142814163E+04  0.10142814163E+04  0.50400001928E-02 0.  1.
       -1   -1    0    0    0  501  0.00000000000E+00  0.00000000000E+00 -0.61723139809E+02  0.61723140015E+02  0.50400001928E-02 0. -1.
    10030    2    1    2    0    0  0.00000000000E+00  0.00000000000E+00  0.95255827645E+03  0.10760045563E+04  0.50041836009E+03 0.  0.
        5    1    3    3  502    0  0.10767751942E+03 -0.19091972895E+03  0.73553555440E+03  0.76751510270E+03  0.46999998093E+01 0.  1.
       -5    1    3    3    0  502 -0.10767751942E+03  0.19091972895E+03  0.21702272205E+03  0.30848945358E+03  0.46999998093E+01 0. -1.
</event>
<event>
 5   0  0.1217270E-02  0.5001074E+03  0.7818609E-02  0.1013751E+00
       -1   -1    0    0    0  501  0.00000000000E+00  0.00000000000E+00  0.17697216213E+03  0.17697216221E+03  0.50400001928E-02 0. -1.
        1   -1    0    0  501    0  0.00000000000E+00  0.00000000000E+00 -0.35331458833E+03  0.35331458837E+03  0.50400001928E-02 0.  1.
    10030    2    1    2    0    0  0.00000000000E+00  0.00000000000E+00 -0.17634242620E+03  0.53028675057E+03  0.50010737503E+03 0.  0.
        2    1    3    3  502    0  0.23354171530E+02  0.19825275664E+03  0.71505998066E+02  0.21204405347E+03  0.25500000920E-02 0. -1.
       -2    1    3    3    0  502 -0.23354171530E+02 -0.19825275664E+03 -0.24784842426E+03  0.31824269711E+03  0.25500000920E-02 0.  1.
</event>
<event>
 5   0  0.8012875E-03  0.4994010E+03  0.7818609E-02  0.1013935E+00
       -4   -1    0    0    0  501  0.00000000000E+00  0.00000000000E+00  0.25587405725E+03  0.25587720897E+03  0.12699999809E+01 0. -1.
        4   -1    0    0  501    0  0.00000000000E+00  0.00000000000E+00 -0.24366961513E+03  0.24367292471E+03  0.12699999809E+01 0.  1.
    10030    2    1    2    0    0  0.00000000000E+00  0.00000000000E+00  0.12204442116E+02  0.49955013369E+03  0.49940102889E+03 0.  0.
        5    1    3    3  502    0 -0.58395150101E+02 -0.80620977143E+02 -0.22291705103E+03  0.24417992782E+03  0.46999998093E+01 0.  1.
       -5    1    3    3    0  502  0.58395150101E+02  0.80620977143E+02  0.23512149314E+03  0.25537020587E+03  0.46999998093E+01 0. -1.
</event>
<event>
 5   0  0.1227864E-02  0.4999846E+03  0.7818609E-02  0.1013783E+00
       -1   -1    0    0    0  501  0.00000000000E+00  0.00000000000E+00  0.69033014001E+02  0.69033014185E+02  0.50400001928E-02 0. -1.
        1   -1    0    0  501    0  0.00000000000E+00  0.00000000000E+00 -0.90530830350E+03  0.90530830352E+03  0.50400001928E-02 0.  1.
    10030    2    1    2    0    0  0.00000000000E+00  0.00000000000E+00 -0.83627528950E+03  0.97434131770E+03  0.49998464331E+03 0.  0.
        5    1    3    3  502    0 -0.18559447735E+03  0.89072176914E+02 -0.14189071052E+03  0.25006844353E+03  0.46999998093E+01 0. -1.
       -5    1    3    3    0  502  0.18559447735E+03 -0.89072176914E+02 -0.69438457898E+03  0.72427287417E+03  0.46999998093E+01 0.  1.
</event>
<event>
 5   0  0.1227864E-02  0.5016223E+03  0.7818609E-02  0.1013356E+00
       -1   -1    0    0    0  501  0.00000000000E+00  0.00000000000E+00  0.66655441953E+03  0.66655441955E+03  0.50400001928E-02 0.  1.
        1   -1    0    0  501    0  0.00000000000E+00  0.00000000000E+00 -0.94375226509E+02  0.94375226644E+02  0.50400001928E-02 0. -1.
    10030    2    1    2    0    0  0.00000000000E+00  0.00000000000E+00  0.57217919302E+03  0.76092964619E+03  0.50162226578E+03 0.  0.
        5    1    3    3  502    0  0.22373065202E+02  0.21977433652E+03  0.46610618792E+03  0.51582786030E+03  0.46999998093E+01 0.  1.
       -5    1    3    3    0  502 -0.22373065202E+02 -0.21977433652E+03  0.10607300510E+03  0.24510178590E+03  0.46999998093E+01 0. -1.
</event>
<event>
 5   0  0.1217270E-02  0.5032438E+03  0.7818609E-02  0.1012936E+00
       -1   -1    0    0    0  501  0.00000000000E+00  0.00000000000E+00  0.14686946115E+03  0.14686946123E+03  0.50400001928E-02 0.  1.
        1   -1    0    0  501    0  0.00000000000E+00  0.00000000000E+00 -0.43108749797E+03  0.43108749800E+03  0.50400001928E-02 0. -1.
    10030    2    1    2    0    0  0.00000000000E+00  0.00000000000E+00 -0.28421803682E+03  0.57795695923E+03  0.50324383182E+03 0.  0.
        2    1    3    3  502    0  0.21787981189E+03 -0.12615981802E+02  0.17142059066E+01  0.21825149240E+03  0.25500000920E-02 0. -1.
       -2    1    3    3    0  502 -0.21787981189E+03  0.12615981802E+02 -0.28593224273E+03  0.35970546683E+03  0.25500000920E-02 0.  1.
</event>
<event>
 5   0  0.8012875E-03  0.5004153E+03  0.7818609E-02  0.1013671E+00
        4   -1    0    0  501    0  0.00000000000E+00  0.00000000000E+00  0.13421946714E+04  0.13421952722E+04  0.12699999809E+01 0. -1.
       -4   -1    0    0    0  501  0.00000000000E+00  0.00000000000E+00 -0.46633651870E+02  0.46650941970E+02  0.12699999809E+01 0.  1.
    10030    2    1    2    0    0  0.00000000000E+00  0.00000000000E+00  0.12955610195E+04  0.13888462142E+04  0.50041527895E+03 0.  0.
        4    1    3    3  502    0  0.94086670174E+01  0.10302254056E+03  0.15503159640E+02  0.10461418516E+03  0.12699999809E+01 0.  1.
       -4    1    3    3    0  502 -0.94086670174E+01 -0.10302254056E+03  0.12800578599E+04  0.12842320290E+04  0.12699999809E+01 0. -1.
</event>
<event>
 5   0  0.8012875E-03  0.4999578E+03  0.7818609E-02  0.1013790E+00
        3   -1    0    0  501    0  0.00000000000E+00  0.00000000000E+00  0.19717988926E+03  0.19717991513E+03  0.10100000352E+00 0.  1.
       -3   -1    0    0    0  501  0.00000000000E+00  0.00000000000E+00 -0.31691584454E+03  0.31691586064E+03  0.10100000352E+00 0. -1.
    10030    2    1    2    0    0  0.00000000000E+00  0.00000000000E+00 -0.11973595528E+03  0.51409577576E+03  0.49995776589E+03 0.  0.
        4    1    3    3  502    0 -0.10618310657E+02 -0.10337317425E+03  0.17391348134E+03  0.20259879952E+03  0.12699999809E+01 0.  1.
       -4    1    3    3    0  502  0.10618310657E+02  0.10337317425E+03 -0.29364943663E+03  0.31149697624E+03  0.12699999809E+01 0. -1.
</event>
<event>
 5   0  0.1967813E-02  0.5014764E+03  0.7818609E-02  0.1013394E+00
       -2   -1    0    0    0  501  0.00000000000E+00  0.00000000000E+00  0.37006410263E+02  0.37006410351E+02  0.25500000920E-02 0.  1.
        2   -1    0    0  501    0  0.00000000000E+00  0.00000000000E+00 -0.16988851877E+04  0.16988851877E+04  0.25500000920E-02 0. -1.
    10030    2    1    2    0    0  0.00000000000E+00  0.00000000000E+00 -0.16618787775E+04  0.17358915981E+04  0.50147638957E+03 0.  0.
        5    1    3    3  502    0  0.19292430315E+03  0.15386305783E+03 -0.67792718942E+03  0.72145754654E+03  0.46999998093E+01 0.  1.
       -5    1    3    3    0  502 -0.19292430315E+03 -0.15386305783E+03 -0.98395158805E+03  0.10144340515E+04  0.46999998093E+01 0. -1.
</event>
<event>
 5   0  0.1855407E-02  0.5001784E+03  0.7818609E-02  0.1013732E+00
       -2   -1    0    0    0  501  0.00000000000E+00  0.00000000000E+00  0.14593035850E+03  0.14593035852E+03  0.25500000920E-02 0. -1.
        2   -1    0    0  501    0  0.00000000000E+00  0.00000000000E+00 -0.42859210153E+03  0.42859210153E+03  0.25500000920E-02 0.  1.
    10030    2    1    2    0    0  0.00000000000E+00  0.00000000000E+00 -0.28266174303E+03  0.57452246005E+03  0.50017836432E+03 0.  0.
        1    1    3    3  502    0 -0.12146010906E+03  0.11970403609E+03  0.68787703380E+02  0.18388410075E+03  0.50400001928E-02 0. -1.
       -1    1    3    3    0  502  0.12146010906E+03 -0.11970403609E+03 -0.35144944641E+03  0.39063835930E+03  0.50400001928E-02 0.  1.
</event>
<event>
 5   0  0.1227864E-02  0.4998171E+03  0.7818609E-02  0.1013827E+00
        1   -1    0    0  501    0  0.00000000000E+00  0.00000000000E+00  0.60101055694E+03  0.60101055696E+03  0.50400001928E-02 0. -1.
       -1   -1    0    0    0  501  0.00000000000E+00  0.00000000000E+00 -0.10391546800E+03  0.10391546812E+03  0.50400001928E-02 0.  1.
    10030    2    1    2    0    0  0.00000000000E+00  0.00000000000E+00  0.49709508894E+03  0.70492602509E+03  0.49981713996E+03 0.  0.
        5    1    3    3  502    0 -0.10267521036E+03 -0.59299529662E+02 -0.61648653725E+02  0.13372090168E+03  0.46999998093E+01 0.  1.
       -5    1    3    3    0  502  0.10267521036E+03  0.59299529662E+02  0.55874374267E+03  0.57120512341E+03  0.46999998093E+01 0. -1.
</event>
<event>
 5   0  0.1217270E-02  0.4973649E+03  0.7818609E-02  0.1014469E+00
        1   -1    0    0  501    0  0.00000000000E+00  0.00000000000E+00  0.21589340693E+04  0.21589340693E+04  0.50400001928E-02 0.  1.
       -1   -1    0    0    0  501  0.00000000000E+00  0.00000000000E+00 -0.28645138375E+02  0.28645138819E+02  0.50400001928E-02 0. -1.
    10030    2    1    2    0    0  0.00000000000E+00  0.00000000000E+00  0.21302889309E+04  0.21875792081E+04  0.49736491895E+03 0.  0.
        2    1    3    3  502    0 -0.15904705064E+03 -0.15664177072E+03  0.15471661717E+04  0.15631876955E+04  0.25500000920E-02 0.  1.
       -2    1    3    3    0  502  0.15904705064E+03  0.15664177072E+03  0.58312275925E+03  0.62439151260E+03  0.25500000920E-02 0. -1.
</event>
<event>
 5   0  0.1180937E-02  0.5003644E+03  0.7818609E-02  0.1013684E+00
        1   -1    0    0  501    0  0.00000000000E+00  0.00000000000E+00  0.55885809252E+03  0.55885809255E+03  0.50400001928E-02 0.  1.
       -1   -1    0    0    0  501  0.00000000000E+00  0.00000000000E+00 -0.11199827942E+03  0.11199827953E+03  0.50400001928E-02 0. -1.
    10030    2    1    2    0    0  0.00000000000E+00  0.00000000000E+00  0.44685981311E+03  0.67085637208E+03  0.50036444657E+03 0.  0.
        1    1    3    3  502    0  0.22131247410E+03 -0.53586099067E+02  0.36237864886E+03  0.42798243700E+03  0.50400001928E-02 0.  1.
       -1    1    3    3    0  502 -0.22131247410E+03  0.53586099067E+02  0.84481164249E+02  0.24287393508E+03  0.50400001928E-02 0. -1.
</event>
<event>
 5   0  0.1967813E-02  0.4974169E+03  0.7818609E-02  0.1014455E+00
        2   -1    0    0  501    0  0.00000000000E+00  0.00000000000E+00  0.53858640539E+03  0.53858640539E+03  0.25500000920E-02 0. -1.
       -2   -1    0    0    0  501  0.00000000000E+00  0.00000000000E+00 -0.11484860549E+03  0.11484860551E+03  0.25500000920E-02 0.  1.
    10030    2    1    2    0    0  0.00000000000E+00  0.00000000000E+00  0.42373779990E+03  0.65343501091E+03  0.49741691810E+03 0.  0.
        5    1    3    3  502    0 -0.24221597945E+03  0.55770144477E+02  0.20213383711E+03  0.32040453776E+03  0.46999998093E+01 0.  1.
       -5    1    3    3    0  502  0.24221597945E+03 -0.55770144477E+02  0.22160396279E+03  0.33303047314E+03  0.46999998093E+01 0. -1.
</event>
<event>
 5   0  0.1967813E-02  0.5000614E+03  0.7818609E-02  0.1013763E+00
        2   -1    0    0  501    0  0.00000000000E+00  0.00000000000E+00  0.12088474020E+04  0.12088474020E+04  0.25500000920E-02 0.  1.
       -2   -1    0    0    0  501  0.00000000000E+00  0.00000000000E+00 -0.51714834274E+02  0.51714834337E+02  0.25500000920E-02 0. -1.
    10030    2    1    2    0    0  0.00000000000E+00  0.00000000000E+00  0.11571325678E+04  0.12605622364E+04  0.50006136864E+03 0.  0.
        5    1    3    3  502    0  0.12385329492E+03  0.19380773768E+03  0.33167853498E+03  0.40365061429E+03  0.46999998093E+01 0. -1.
       -5    1    3    3    0  502 -0.12385329492E+03 -0.19380773768E+03  0.82545403279E+03  0.85691162210E+03  0.46999998093E+01 0.  1.
</event>
<event>
 5   0  0.1941387E-02  0.5004979E+03  0.7818609E-02  0.1013649E+00
        2   -1    0    0  501    0  0.00000000000E+00  0.00000000000E+00  0.43533160204E+03  0.43533160205E+03  0.25500000920E-02 0. -1.
       -2   -1    0    0    0  501  0.00000000000E+00  0.00000000000E+00 -0.14385481359E+03  0.14385481361E+03  0.25500000920E-02 0.  1.
    10030    2    1    2    0    0  0.00000000000E+00  0.00000000000E+00  0.29147678845E+03  0.57918641566E+03  0.50049793794E+03 0.  0.
        4    1    3    3  502    0  0.12713355536E+03 -0.20782084708E+03  0.21191772445E+03  0.32289809571E+03  0.12699999809E+01 0. -1.
       -4    1    3    3    0  502 -0.12713355536E+03  0.20782084708E+03  0.79559064004E+02  0.25628831995E+03  0.12699999809E+01 0.  1.
</event>
<event>
 5   0  0.1227864E-02  0.4985834E+03  0.7818609E-02  0.1014149E+00
       -1   -1    0    0    0  501  0.00000000000E+00  0.00000000000E+00  0.48025032157E+03  0.48025032160E+03  0.50400001928E-02 0.  1.
        1   -1    0    0  501    0  0.00000000000E+00  0.00000000000E+00 -0.12940410433E+03  0.12940410443E+03  0.50400001928E-02 0. -1.
    10030    2    1    2    0    0  0.00000000000E+00  0.00000000000E+00  0.35084621724E+03  0.60965442603E+03  0.49858344439E+03 0.  0.
        5    1    3    3  502    0  0.15964775290E+03 -0.12017618817E+03  0.35758983953E+03  0.40966120703E+03  0.46999998093E+01 0.  1.
       -5    1    3    3    0  502 -0.15964775290E+03  0.12017618817E+03 -0.67436222907E+01  0.19999321900E+03  0.46999998093E+01 0. -1.
</event>
<event>
 5   0  0.1982847E-02  0.4991731E+03  0.7818609E-02  0.1013995E+00
       -2   -1    0    0    0  501  0.00000000000E+00  0.00000000000E+00  0.85980839934E+02  0.85980839972E+02  0.25500000920E-02 0.  1.
        2   -1    0    0  501    0  0.00000000000E+00  0.00000000000E+00 -0.72450368418E+03  0.72450368419E+03  0.25500000920E-02 0. -1.
    10030    2    1    2    0    0  0.00000000000E+00  0.00000000000E+00 -0.63852284425E+03  0.81048452416E+03  0.49917305744E+03 0.  0.
        2    1    3    3  502    0  0.11359848811E+03  0.94113104231E+02  0.76199374424E+01  0.14771579585E+03  0.25500000920E-02 0.  1.
       -2    1    3    3    0  502 -0.11359848811E+03 -0.94113104231E+02 -0.64614278169E+03  0.66276872831E+03  0.25500000920E-02 0. -1.
</event>
<event>
 5   0  0.1217270E-02  0.4992016E+03  0.7818609E-02  0.1013988E+00
        1   -1    0    0  501    0  0.00000000000E+00  0.00000000000E+00  0.14539905537E+03  0.14539905546E+03  0.50400001928E-02 0.  1.
       -1   -1    0    0    0  501  0.00000000000E+00  0.00000000000E+00 -0.42847982473E+03  0.42847982476E+03  0.50400001928E-02 0. -1.
    10030    2    1    2    0    0  0.00000000000E+00  0.00000000000E+00 -0.28308076936E+03  0.57387888022E+03  0.49920160976E+03 0.  0.
        2    1    3    3  502    0  0.14767190540E+03 -0.67424419455E+02 -0.35950134808E+03  0.39445438679E+03  0.25500000920E-02 0. -1.
       -2    1    3    3    0  502 -0.14767190540E+03  0.67424419455E+02  0.76420578719E+02  0.17942449343E+03  0.25500000920E-02 0.  1.
</event>
<event>
 5   0  0.1982847E-02  0.5006327E+03  0.7818609E-02  0.1013614E+00
       -2   -1    0    0    0  501  0.00000000000E+00  0.00000000000E+00  0.89881289713E+02  0.89881289749E+02  0.25500000920E-02 0.  1.
        2   -1    0    0  501    0  0.00000000000E+00  0.00000000000E+00 -0.69712265698E+03  0.69712265698E+03  0.25500000920E-02 0. -1.
    10030    2    1    2    0    0  0.00000000000E+00  0.00000000000E+00 -0.60724136726E+03  0.78700394673E+03  0.50063273370E+03 0.  0.
        2    1    3    3  502    0  0.14787822931E+03 -0.79452629400E+01  0.13628028521E+02  0.14871725211E+03  0.25500000920E-02 0.  1.
       -2    1    3    3    0  502 -0.14787822931E+03  0.79452629400E+01 -0.62086939578E+03  0.63828669462E+03  0.25500000920E-02 0. -1.
</event>
<event>
 5   0  0.1225989E-02  0.4990668E+03  0.7818609E-02  0.1014023E+00
       -1   -1    0    0    0  501  0.00000000000E+00  0.00000000000E+00  0.39031557925E+02  0.39031558250E+02  0.50400001928E-02 0.  1.
        1   -1    0    0  501    0  0.00000000000E+00  0.00000000000E+00 -0.15952965743E+04  0.15952965743E+04  0.50400001928E-02 0. -1.
    10030    2    1    2    0    0  0.00000000000E+00  0.00000000000E+00 -0.15562650164E+04  0.16343281326E+04  0.49906677277E+03 0.  0.
        3    1    3    3  502    0 -0.70795836307E+02 -0.14423057806E+03 -0.14033679788E+04  0.14125353816E+04  0.10100000352E+00 0. -1.
       -3    1    3    3    0  502  0.70795836307E+02  0.14423057806E+03 -0.15289703757E+03  0.22179275098E+03  0.10100000352E+00 0.  1.
</event>
<event>
 5   0  0.1941387E-02  0.4998208E+03  0.7818609E-02  0.1013826E+00
        2   -1    0    0  501    0  0.00000000000E+00  0.00000000000E+00  0.11911276666E+04  0.11911276666E+04  0.25500000920E-02 0.  1.
       -2   -1    0    0    0  501  0.00000000000E+00  0.00000000000E+00 -0.52433671609E+02  0.52433671671E+02  0.25500000920E-02 0. -1.
    10030    2    1    2    0    0  0.00000000000E+00  0.00000000000E+00  0.11386939950E+04  0.12435613383E+04  0.49982075570E+03 0.  0.
        4    1    3    3  502    0  0.23139854501E+03 -0.85408266006E+02  0.46940045879E+03  0.53026244648E+03  0.12699999809E+01 0. -1.
       -4    1    3    3    0  502 -0.23139854501E+03  0.85408266006E+02  0.66929353622E+03  0.71329889181E+03  0.12699999809E+01 0.  1.
</event>
<event>
 5   0  0.1180937E-02  0.4911222E+03  0.7818609E-02  0.1016122E+00
       -1   -1    0    0    0  501  0.00000000000E+00  0.00000000000E+00  0.75202027520E+02  0.75202027689E+02  0.50400001928E-02 0.  1.
        1   -1    0    0  501    0  0.00000000000E+00  0.00000000000E+00 -0.80184339439E+03  0.80184339441E+03  0.50400001928E-02 0. -1.
    10030    2    1    2    0    0  0.00000000000E+00  0.00000000000E+00 -0.72664136687E+03  0.87704542210E+03  0.49112218070E+03 0.  0.
        1    1    3    3  502    0 -0.66651203300E+02 -0.22057600024E+03 -0.51489381776E+03  0.56410264880E+03  0.50400001928E-02 0. -1.
       -1    1    3    3    0  502  0.66651203300E+02  0.22057600024E+03 -0.21174754911E+03  0.31294277330E+03  0.50400001928E-02 0.  1.
</event>
<event>
 5   0  0.1227864E-02  0.4991188E+03  0.7818609E-02  0.1014009E+00
       -1   -1    0    0    0  501  0.00000000000E+00  0.00000000000E+00  0.63259835891E+02  0.63259836092E+02  0.50400001928E-02 0. -1.
        1   -1    0    0  501    0  0.00000000000E+00  0.00000000000E+00 -0.98450925678E+03  0.98450925679E+03  0.50400001928E-02 0.  1.
    10030    2    1    2    0    0  0.00000000000E+00  0.00000000000E+00 -0.92124942089E+03  0.10477690929E+04  0.49911880000E+03 0.  0.
        5    1    3    3  502    0 -0.15982069523E+03 -0.16230297583E+03 -0.24682278334E+03  0.33589951914E+03  0.46999998093E+01 0. -1.
       -5    1    3    3    0  502  0.15982069523E+03  0.16230297583E+03 -0.67442663755E+03  0.71186957374E+03  0.46999998093E+01 0.  1.
</event>
<event>
 5   0  0.1209831E-02  0.5006977E+03  0.7818609E-02  0.1013597E+00
       -1   -1    0    0    0  501  0.00000000000E+00  0.00000000000E+00  0.12758127408E+04  0.12758127408E+04  0.50400001928E-02 0.  1.
        1   -1    0    0  501    0  0.00000000000E+00  0.00000000000E+00 -0.49125199429E+02  0.49125199687E+02  0.50400001928E-02 0. -1.
    10030    2    1    2    0    0  0.00000000000E+00  0.00000000000E+00  0.12266875414E+04  0.13249379405E+04  0.50069773518E+03 0.  0.
        4    1    3    3  502    0 -0.21454430001E+03  0.41400696944E+01  0.95455312240E+03  0.97837603876E+03  0.12699999809E+01 0.  1.
       -4    1    3    3    0  502  0.21454430001E+03 -0.41400696944E+01  0.27213441898E+03  0.34656190174E+03  0.12699999809E+01 0. -1.
</event>
<event>
 5   0  0.1982847E-02  0.4992711E+03  0.7818609E-02  0.1013969E+00
       -2   -1    0    0    0  501  0.00000000000E+00  0.00000000000E+00  0.22049801392E+03  0.22049801394E+03  0.25500000920E-02 0. -1.
        2   -1    0    0  501    0  0.00000000000E+00  0.00000000000E+00 -0.28262346595E+03  0.28262346596E+03  0.25500000920E-02 0.  1.
    10030    2    1    2    0    0  0.00000000000E+00  0.00000000000E+00 -0.62125452029E+02  0.50312147990E+03  0.49927112048E+03 0.  0.
        2    1    3    3  502    0  0.18426002935E+03 -0.81135510763E+01 -0.20058708989E+03  0.27249361234E+03  0.25500000920E-02 0.  1.
       -2    1    3    3    0  502 -0.18426002935E+03  0.81135510763E+01  0.13846163787E+03  0.23062786756E+03  0.25500000920E-02 0. -1.
</event>
<event>
 5   0  0.1855407E-02  0.4999191E+03  0.7818609E-02  0.1013800E+00
        2   -1    0    0  501    0  0.00000000000E+00  0.00000000000E+00  0.13379516873E+04  0.13379516873E+04  0.25500000920E-02 0.  1.
       -2   -1    0    0    0  501  0.00000000000E+00  0.00000000000E+00 -0.46698088366E+02  0.46698088435E+02  0.25500000920E-02 0. -1.
    10030    2    1    2    0    0  0.00000000000E+00  0.00000000000E+00  0.12912535989E+04  0.13846497757E+04  0.49991913815E+03 0.  0.
        1    1    3    3  502    0  0.20084810736E+02 -0.86983776133E+02 -0.10378212636E+01  0.89278519427E+02  0.50400001928E-02 0. -1.
       -1    1    3    3    0  502 -0.20084810736E+02  0.86983776133E+02  0.12922914202E+04  0.12953712563E+04  0.50400001928E-02 0.  1.
</event>
<event>
 5   0  0.1225989E-02  0.5003922E+03  0.7818609E-02  0.1013677E+00
       -1   -1    0    0    0  501  0.00000000000E+00  0.00000000000E+00  0.11994165595E+03  0.11994165606E+03  0.50400001928E-02 0. -1.
        1   -1    0    0  501    0  0.00000000000E+00  0.00000000000E+00 -0.52190458245E+03  0.52190458247E+03  0.50400001928E-02 0.  1.
    10030    2    1    2    0    0  0.00000000000E+00  0.00000000000E+00 -0.40196292649E+03  0.64184623853E+03  0.50039224579E+03 0.  0.
        3    1    3    3  502    0 -0.21400205540E+03 -0.11782585147E+03 -0.13168934891E+03  0.27752820723E+03  0.10100000352E+00 0.  1.
       -3    1    3    3    0  502  0.21400205540E+03  0.11782585147E+03 -0.27027357758E+03  0.36431803130E+03  0.10100000352E+00 0. -1.
</event>
<event>
 5   0  0.1967813E-02  0.5012422E+03  0.7818609E-02  0.1013455E+00
       -2   -1    0    0    0  501  0.00000000000E+00  0.00000000000E+00  0.72593298253E+03  0.72593298254E+03  0.25500000920E-02 0.  1.
        2   -1    0    0  501    0  0.00000000000E+00  0.00000000000E+00 -0.86524422543E+02  0.86524422580E+02  0.25500000920E-02 0. -1.
    10030    2    1    2    0    0  0.00000000000E+00  0.00000000000E+00  0.63940855999E+03  0.81245740512E+03  0.50124218552E+03 0.  0.
        5    1    3    3  502    0 -0.13979711599E+03 -0.15307750598E+03  0.54785763165E+03  0.58578667707E+03  0.46999998093E+01 0.  1.
       -5    1    3    3    0  502  0.13979711599E+03  0.15307750598E+03  0.91550928344E+02  0.22667072805E+03  0.46999998093E+01 0. -1.
</event>
<event>
 5   0  0.1967813E-02  0.5015130E+03  0.7818609E-02  0.1013385E+00
       -2   -1    0    0    0  501  0.00000000000E+00  0.00000000000E+00  0.13770347548E+03  0.13770347551E+03  0.25500000920E-02 0.  1.
        2   -1    0    0  501    0  0.00000000000E+00  0.00000000000E+00 -0.45662474744E+03  0.45662474745E+03  0.25500000920E-02 0. -1.
    10030    2    1    2    0    0  0.00000000000E+00  0.00000000000E+00 -0.31892127195E+03  0.59432822295E+03  0.50151296982E+03 0.  0.
        5    1    3    3  502    0 -0.18882210208E+03 -0.13785484752E+03 -0.26676665561E+03  0.35474537877E+03  0.46999998093E+01 0. -1.
       -5    1    3    3    0  502  0.18882210208E+03  0.13785484752E+03 -0.52154616347E+02  0.23958284418E+03  0.46999998093E+01 0.  1.
</event>
<event>
 5   0  0.1967813E-02  0.5073414E+03  0.7818609E-02  0.1011880E+00
        2   -1    0    0  501    0  0.00000000000E+00  0.00000000000E+00  0.54406743170E+03  0.54406743171E+03  0.25500000920E-02 0.  1.
       -2   -1    0    0    0  501  0.00000000000E+00  0.00000000000E+00 -0.11827362428E+03  0.11827362431E+03  0.25500000920E-02 0. -1.
    10030    2    1    2    0    0  0.00000000000E+00  0.00000000000E+00  0.42579380742E+03  0.66234105601E+03  0.50734141172E+03 0.  0.
        5    1    3    3  502    0 -0.12704122658E+03  0.52506337343E+02  0.49115922026E+03  0.51005476016E+03  0.46999998093E+01 0.  1.
       -5    1    3    3    0  502  0.12704122658E+03 -0.52506337343E+02 -0.65365412839E+02  0.15228629586E+03  0.46999998093E+01 0. -1.
</event>
<event>
 5   0  0.1209831E-02  0.5002199E+03  0.7818609E-02  0.1013722E+00
       -1   -1    0    0    0  501  0.00000000000E+00  0.00000000000E+00  0.66435957261E+02  0.66435957452E+02  0.50400001928E-02 0. -1.
        1   -1    0    0  501    0  0.00000000000E+00  0.00000000000E+00 -0.94158337449E+03  0.94158337450E+03  0.50400001928E-02 0.  1.
    10030    2    1    2    0    0  0.00000000000E+00  0.00000000000E+00 -0.87514741723E+03  0.10080193320E+04  0.50021992335E+03 0.  0.
        4    1    3    3  502    0  0.14093894759E+03  0.64531520761E+02 -0.42042501507E+02  0.16061534470E+03  0.12699999809E+01 0. -1.
       -4    1    3    3    0  502 -0.14093894759E+03 -0.64531520761E+02 -0.83310491572E+03  0.84740398726E+03  0.12699999809E+01 0.  1.
</event>
<event>
 5   0  0.1941387E-02  0.5000490E+03  0.7818609E-02  0.1013766E+00
        2   -1    0    0  501    0  0.00000000000E+00  0.00000000000E+00  0.17832657946E+04  0.17832657946E+04  0.25500000920E-02 0.  1.
       -2   -1    0    0    0  501  0.00000000000E+00  0.00000000000E+00 -0.35054931502E+02  0.35054931595E+02  0.25500000920E-02 0. -1.
    10030    2    1    2    0    0  0.00000000000E+00  0.00000000000E+00  0.17482108631E+04  0.18183207262E+04  0.50004903906E+03 0.  0.
        4    1    3    3  502    0  0.20267379240E+03  0.13725985259E+03  0.10592960374E+04  0.10872104861E+04  0.12699999809E+01 0.  1.
       -4    1    3    3    0  502 -0.20267379240E+03 -0.13725985259E+03  0.68891482566E+03  0.73111024009E+03  0.12699999809E+01 0. -1.
</event>
<event>
 5   0  0.1209831E-02  0.4985317E+03  0.7818609E-02  0.1014163E+00
       -1   -1    0    0    0  501  0.00000000000E+00  0.00000000000E+00  0.74667053912E+02  0.74667054082E+02  0.50400001928E-02 0. -1.
        1   -1    0    0  501    0  0.00000000000E+00  0.00000000000E+00 -0.83214017396E+03  0.83214017398E+03  0.50400001928E-02 0.  1.
    10030    2    1    2    0    0  0.00000000000E+00  0.00000000000E+00 -0.75747312005E+03  0.90680722806E+03  0.49853166525E+03 0.  0.
        4    1    3    3  502    0  0.88436700137E+02 -0.13091138561E+03 -0.28036338856E+02  0.16045712826E+03  0.12699999809E+01 0. -1.
       -4    1    3    3    0  502 -0.88436700137E+02  0.13091138561E+03 -0.72943678119E+03  0.74635009980E+03  0.12699999809E+01 0.  1.
</event>
<event>
 5   0  0.8012875E-03  0.5006247E+03  0.7818609E-02  0.1013616E+00
       -3   -1    0    0    0  501  0.00000000000E+00  0.00000000000E+00  0.29256275418E+03  0.29256277161E+03  0.10100000352E+00 0.  1.
        3   -1    0    0  501    0  0.00000000000E+00  0.00000000000E+00 -0.21416353762E+03  0.21416356144E+03  0.10100000352E+00 0. -1.
    10030    2    1    2    0    0  0.00000000000E+00  0.00000000000E+00  0.78399216556E+02  0.50672633305E+03  0.50062474914E+03 0.  0.
        2    1    3    3  502    0 -0.11321452673E+03 -0.22028949955E+03  0.25464929233E+01  0.24769230369E+03  0.25500000920E-02 0.  1.
       -2    1    3    3    0  502  0.11321452673E+03  0.22028949955E+03  0.75852723633E+02  0.25903402936E+03  0.25500000920E-02 0. -1.
</event>
<event>
 5   0  0.1180937E-02  0.4996912E+03  0.7818609E-02  0.1013860E+00
       -1   -1    0    0    0  501  0.00000000000E+00  0.00000000000E+00  0.12194727740E+03  0.12194727750E+03  0.50400001928E-02 0. -1.
        1   -1    0    0  501    0  0.00000000000E+00  0.00000000000E+00 -0.51188362261E+03  0.51188362263E+03  0.50400001928E-02 0.  1.
    10030    2    1    2    0    0  0.00000000000E+00  0.00000000000E+00 -0.38993634521E+03  0.63383090013E+03  0.49969116127E+03 0.  0.
        1    1    3    3  502    0 -0.74427024170E+02  0.73105372464E+01 -0.49735336723E+03  0.50294452756E+03  0.50400001928E-02 0.  1.
       -1    1    3    3    0  502  0.74427024170E+02 -0.73105372464E+01  0.10741702202E+03  0.13088637258E+03  0.50400001928E-02 0. -1.
</event>
<event>
 5   0  0.1217270E-02  0.5001470E+03  0.7818609E-02  0.1013741E+00
       -1   -1    0    0    0  501  0.00000000000E+00  0.00000000000E+00  0.22122352161E+03  0.22122352167E+03  0.50400001928E-02 0. -1.
        1   -1    0    0  501    0  0.00000000000E+00  0.00000000000E+00 -0.28268578131E+03  0.28268578135E+03  0.50400001928E-02 0.  1.
    10030    2    1    2    0    0  0.00000000000E+00  0.00000000000E+00 -0.61462259699E+02  0.50390930302E+03  0.50014695471E+03 0.  0.
        2    1    3    3  502    0 -0.10820366576E+03  0.17827641473E+03  0.10831511611E+03  0.23499505893E+03  0.25500000920E-02 0. -1.
       -2    1    3    3    0  502  0.10820366576E+03 -0.17827641473E+03 -0.16977737581E+03  0.26891424410E+03  0.25500000920E-02 0.  1.
</event>
<event>
 5   0  0.1941387E-02  0.4990769E+03  0.7818609E-02  0.1014020E+00
        2   -1    0    0  501    0  0.00000000000E+00  0.00000000000E+00  0.90859557401E+03  0.90859557401E+03  0.25500000920E-02 0.  1.
       -2   -1    0    0    0  501  0.00000000000E+00  0.00000000000E+00 -0.68533717977E+02  0.68533718024E+02  0.25500000920E-02 0. -1.
    10030    2    1    2    0    0  0.00000000000E+00  0.00000000000E+00  0.84006185603E+03  0.97712929204E+03  0.49907687924E+03 0.  0.
        4    1    3    3  502    0  0.12300799149E+03  0.12796045924E+03  0.76632148677E+02  0.19333634995E+03  0.12699999809E+01 0. -1.
       -4    1    3    3    0  502 -0.12300799149E+03 -0.12796045924E+03  0.76342970736E+03  0.78379294209E+03  0.12699999809E+01 0.  1.
</event>
<event>
 5   0  0.1217270E-02  0.5000058E+03  0.7818609E-02  0.1013777E+00
       -1   -1    0    0    0  501  0.00000000000E+00  0.00000000000E+00  0.52093806109E+03  0.52093806111E+03  0.50400001928E-02 0.  1.
        1   -1    0    0  501    0  0.00000000000E+00  0.00000000000E+00 -0.11997867181E+03  0.11997867192E+03  0.50400001928E-02 0. -1.
    10030    2    1    2    0    0  0.00000000000E+00  0.00000000000E+00  0.40095938928E+03  0.64091673303E+03  0.50000582680E+03 0.  0.
        2    1    3    3  502    0 -0.15510592522E+02 -0.22119942108E+03  0.52477137605E+02  0.22786753245E+03  0.25500000920E-02 0.  1.
       -2    1    3    3    0  502  0.15510592522E+02  0.22119942108E+03  0.34848225167E+03  0.41304920058E+03  0.25500000920E-02 0. -1.
</event>
<event>
 5   0  0.1180937E-02  0.4996071E+03  0.7818609E-02  0.1013882E+00
        1   -1    0    0  501    0  0.00000000000E+00  0.00000000000E+00  0.12566593891E+04  0.12566593891E+04  0.50400001928E-02 0. -1.
       -1   -1    0    0    0  501  0.00000000000E+00  0.00000000000E+00 -0.49656903284E+02  0.49656903540E+02  0.50400001928E-02 0.  1.
    10030    2    1    2    0    0  0.00000000000E+00  0.00000000000E+00  0.12070024858E+04  0.13063162927E+04  0.49960710131E+03 0.  0.
        1    1    3    3  502    0  0.12289114021E+03 -0.10549831458E+03  0.10623140574E+03  0.19369367133E+03  0.50400001928E-02 0.  1.
       -1    1    3    3    0  502 -0.12289114021E+03  0.10549831458E+03  0.11007710801E+04  0.11126226213E+04  0.50400001928E-02 0. -1.
</event>
<event>
 5   0  0.1855407E-02  0.4952812E+03  0.7818609E-02  0.1015018E+00
       -2   -1    0    0    0  501  0.00000000000E+00  0.00000000000E+00  0.99331828485E+02  0.99331828518E+02  0.25500000920E-02 0. -1.
        2   -1    0    0  501    0  0.00000000000E+00  0.00000000000E+00 -0.61738389009E+03  0.61738389010E+03  0.25500000920E-02 0.  1.
    10030    2    1    2    0    0  0.00000000000E+00  0.00000000000E+00 -0.51805206161E+03  0.71671571862E+03  0.49528121585E+03 0.  0.
        1    1    3    3  502    0 -0.56396686763E+02 -0.24077000173E+03 -0.27817416927E+03  0.37219839936E+03  0.50400001928E-02 0.  1.
       -1    1    3    3    0  502  0.56396686763E+02  0.24077000173E+03 -0.23987789234E+03  0.34451731926E+03  0.50400001928E-02 0. -1.
</event>
<event>
 5   0  0.8012875E-03  0.5005265E+03  0.7818609E-02  0.1013642E+00
        3   -1    0    0  501    0  0.00000000000E+00  0.00000000000E+00  0.47557665011E+02  0.47557772260E+02  0.10100000352E+00 0.  1.
       -3   -1    0    0    0  501  0.00000000000E+00  0.00000000000E+00 -0.13169615190E+04  0.13169615228E+04  0.10100000352E+00 0. -1.
    10030    2    1    2    0    0  0.00000000000E+00  0.00000000000E+00 -0.12694038539E+04  0.13645192951E+04  0.50052648507E+03 0.  0.
        1    1    3    3  502    0  0.43741834693E+02 -0.17164622306E+03 -0.11166705187E+04  0.11306320451E+04  0.50400001928E-02 0. -1.
       -1    1    3    3    0  502 -0.43741834693E+02  0.17164622306E+03 -0.15273333522E+03  0.23388724999E+03  0.50400001928E-02 0.  1.
</event>
<event>
 5   0  0.1967813E-02  0.5037873E+03  0.7818609E-02  0.1012795E+00
       -2   -1    0    0    0  501  0.00000000000E+00  0.00000000000E+00  0.96565372522E+03  0.96565372523E+03  0.25500000920E-02 0.  1.
        2   -1    0    0  501    0  0.00000000000E+00  0.00000000000E+00 -0.65707208461E+02  0.65707208510E+02  0.25500000920E-02 0. -1.
    10030    2    1    2    0    0  0.00000000000E+00  0.00000000000E+00  0.89994651676E+03  0.10313609337E+04  0.50378729897E+03 0.  0.
        5    1    3    3  502    0 -0.17851728448E+03  0.15368792916E+03  0.63239287232E+03  0.67485645539E+03  0.46999998093E+01 0.  1.
       -5    1    3    3    0  502  0.17851728448E+03 -0.15368792916E+03  0.26755364444E+03  0.35650447834E+03  0.46999998093E+01 0. -1.
</event>
<event>
 5   0  0.1217270E-02  0.4974086E+03  0.7818609E-02  0.1014458E+00
        1   -1    0    0  501    0  0.00000000000E+00  0.00000000000E+00  0.13090608703E+03  0.13090608713E+03  0.50400001928E-02 0.  1.
       -1   -1    0    0    0  501  0.00000000000E+00  0.00000000000E+00 -0.47250540279E+03  0.47250540282E+03  0.50400001928E-02 0. -1.
    10030    2    1    2    0    0  0.00000000000E+00  0.00000000000E+00 -0.34159931576E+03  0.60341148994E+03  0.49740861841E+03 0.  0.
        2    1    3    3  502    0 -0.11750624935E+00 -0.10896680411E+03 -0.44200524705E+03  0.45523885668E+03  0.25500000920E-02 0. -1.
       -2    1    3    3    0  502  0.11750624935E+00  0.10896680411E+03  0.10040593129E+03  0.14817263327E+03  0.25500000920E-02 0.  1.
</event>
<event>
 5   0  0.1941387E-02  0.4990920E+03  0.7818609E-02  0.1014016E+00
        2   -1    0    0  501    0  0.00000000000E+00  0.00000000000E+00  0.40147590138E+03  0.40147590139E+03  0.25500000920E-02 0.  1.
       -2   -1    0    0    0  501  0.00000000000E+00  0.00000000000E+00 -0.15511067601E+03  0.15511067603E+03  0.25500000920E-02 0. -1.
    10030    2    1    2    0    0  0.00000000000E+00  0.00000000000E+00  0.24636522537E+03  0.55658657742E+03  0.49909196938E+03 0.  0.
        4    1    3    3  502    0  0.16214083026E+03  0.12082791234E+03 -0.39890333919E+02  0.20611134098E+03  0.12699999809E+01 0. -1.
       -4    1    3    3    0  502 -0.16214083026E+03 -0.12082791234E+03  0.28625555929E+03  0.35047523645E+03  0.12699999809E+01 0.  1.
</event>
<event>
 5   0  0.1982847E-02  0.5000917E+03  0.7818609E-02  0.1013755E+00
       -2   -1    0    0    0  501  0.00000000000E+00  0.00000000000E+00  0.19426037526E+03  0.19426037527E+03  0.25500000920E-02 0.  1.
        2   -1    0    0  501    0  0.00000000000E+00  0.00000000000E+00 -0.32185119218E+03  0.32185119219E+03  0.25500000920E-02 0. -1.
    10030    2    1    2    0    0  0.00000000000E+00  0.00000000000E+00 -0.12759081693E+03  0.51611156747E+03  0.50009172510E+03 0.  0.
        2    1    3    3  502    0 -0.18702341622E+03  0.92053579434E+02 -0.20631817011E+03  0.29328962993E+03  0.25500000920E-02 0. -1.
       -2    1    3    3    0  502  0.18702341622E+03 -0.92053579434E+02  0.78727353184E+02  0.22282193753E+03  0.25500000920E-02 0.  1.
</event>
<event>
 5   0  0.8012875E-03  0.4971809E+03  0.7818609E-02  0.1014517E+00
        3   -1    0    0  501    0  0.00000000000E+00  0.00000000000E+00  0.20769653386E+03  0.20769655842E+03  0.10100000352E+00 0.  1.
       -3   -1    0    0    0  501  0.00000000000E+00  0.00000000000E+00 -0.29753607728E+03  0.29753609442E+03  0.10100000352E+00 0. -1.
    10030    2    1    2    0    0  0.00000000000E+00  0.00000000000E+00 -0.89839543413E+02  0.50523265284E+03  0.49718094285E+03 0.  0.
        5    1    3    3  502    0  0.18583964061E+03 -0.16480908125E+03 -0.36018509084E+02  0.25103352023E+03  0.46999998093E+01 0.  1.
       -5    1    3    3    0  502 -0.18583964061E+03  0.16480908125E+03 -0.53821034328E+02  0.25419913261E+03  0.46999998093E+01 0. -1.
</event>
<event>
 5   0  0.1180937E-02  0.4999941E+03  0.7818609E-02  0.1013780E+00
        1   -1    0    0  501    0  0.00000000000E+00  0.00000000000E+00  0.15984472923E+03  0.15984472931E+03  0.50400001928E-02 0. -1.
       -1   -1    0    0    0  501  0.00000000000E+00  0.00000000000E+00 -0.39099521189E+03  0.39099521192E+03  0.50400001928E-02 0.  1.
    10030    2    1    2    0    0  0.00000000000E+00  0.00000000000E+00 -0.23115048266E+03  0.55083994123E+03  0.49999409518E+03 0.  0.
        1    1    3    3  502    0 -0.22420280630E+03  0.55673051394E+02 -0.10295029149E+02  0.23124094502E+03  0.50400001928E-02 0. -1.
       -1    1    3    3    0  502  0.22420280630E+03 -0.55673051394E+02 -0.22085545351E+03  0.31959899620E+03  0.50400001928E-02 0.  1.
</event>
<event>
 5   0  0.1982847E-02  0.4997746E+03  0.7818609E-02  0.1013838E+00
        2   -1    0    0  501    0  0.00000000000E+00  0.00000000000E+00  0.43269316942E+03  0.43269316943E+03  0.25500000920E-02 0. -1.
       -2   -1    0    0    0  501  0.00000000000E+00  0.00000000000E+00 -0.14431393274E+03  0.14431393277E+03  0.25500000920E-02 0.  1.
    10030    2    1    2    0    0  0.00000000000E+00  0.00000000000E+00  0.28837923668E+03  0.57700710219E+03  0.49977456101E+03 0.  0.
        2    1    3    3  502    0 -0.35097443608E+02 -0.64798536657E+02  0.41986237745E+03  0.42628053779E+03  0.25500000920E-02 0. -1.
       -2    1    3    3    0  502  0.35097443608E+02  0.64798536657E+02 -0.13148314077E+03  0.15072656440E+03  0.25500000920E-02 0.  1.
</event>
<event>
 5   0  0.1217270E-02  0.4989346E+03  0.7818609E-02  0.1014057E+00
       -1   -1    0    0    0  501  0.00000000000E+00  0.00000000000E+00  0.41065341877E+02  0.41065342187E+02  0.50400001928E-02 0.  1.
        1   -1    0    0  501    0  0.00000000000E+00  0.00000000000E+00 -0.15154856024E+04  0.15154856024E+04  0.50400001928E-02 0. -1.
    10030    2    1    2    0    0  0.00000000000E+00  0.00000000000E+00 -0.14744202605E+04  0.15565509446E+04  0.49893460341E+03 0.  0.
        2    1    3    3  502    0  0.17873396946E+03  0.16541228648E+03 -0.90599054250E+03  0.93815026486E+03  0.25500000920E-02 0. -1.
       -2    1    3    3    0  502 -0.17873396946E+03 -0.16541228648E+03 -0.56842971805E+03  0.61840067976E+03  0.25500000920E-02 0.  1.
</event>
<event>
 5   0  0.1209831E-02  0.5000611E+03  0.7818609E-02  0.1013763E+00
        1   -1    0    0  501    0  0.00000000000E+00  0.00000000000E+00  0.80165434254E+03  0.80165434256E+03  0.50400001928E-02 0.  1.
       -1   -1    0    0    0  501  0.00000000000E+00  0.00000000000E+00 -0.77982829992E+02  0.77982830155E+02  0.50400001928E-02 0. -1.
    10030    2    1    2    0    0  0.00000000000E+00  0.00000000000E+00  0.72367151255E+03  0.87963717271E+03  0.50006109381E+03 0.  0.
        4    1    3    3  502    0 -0.19629331917E+03 -0.10058580029E+03  0.15470629700E+03  0.26941459056E+03  0.12699999809E+01 0. -1.
       -4    1    3    3    0  502  0.19629331917E+03  0.10058580029E+03  0.56896521555E+03  0.61022258216E+03  0.12699999809E+01 0.  1.
</event>
<event>
 5   0  0.1855407E-02  0.4992725E+03  0.7818609E-02  0.1013969E+00
        2   -1    0    0  501    0  0.00000000000E+00  0.00000000000E+00  0.86876620796E+03  0.86876620796E+03  0.25500000920E-02 0.  1.
       -2   -1    0    0    0  501  0.00000000000E+00  0.00000000000E+00 -0.71731909805E+02  0.71731909851E+02  0.25500000920E-02 0. -1.
    10030    2    1    2    0    0  0.00000000000E+00  0.00000000000E+00  0.79703429815E+03  0.94049811781E+03  0.49927250793E+03 0.  0.
        1    1    3    3  502    0  0.21653220518E+01 -0.18815040955E+03  0.89486690963E+02  0.20835818467E+03  0.50400001928E-02 0. -1.
       -1    1    3    3    0  502 -0.21653220518E+01  0.18815040955E+03  0.70754760719E+03  0.73213993314E+03  0.50400001928E-02 0.  1.
</event>
<event>
 5   0  0.1982847E-02  0.5020629E+03  0.7818609E-02  0.1013242E+00
        2   -1    0    0  501    0  0.00000000000E+00  0.00000000000E+00  0.75541510953E+03  0.75541510953E+03  0.25500000920E-02 0.  1.
       -2   -1    0    0    0  501  0.00000000000E+00  0.00000000000E+00 -0.83420083911E+02  0.83420083950E+02  0.25500000920E-02 0. -1.
    10030    2    1    2    0    0  0.00000000000E+00  0.00000000000E+00  0.67199502562E+03  0.83883519348E+03  0.50206291177E+03 0.  0.
        2    1    3    3  502    0 -0.28882002584E+02 -0.16809152871E+03  0.64374657247E+03  0.66595689175E+03  0.25500000920E-02 0.  1.
       -2    1    3    3    0  502  0.28882002584E+02  0.16809152871E+03  0.28248453147E+02  0.17287830173E+03  0.25500000920E-02 0. -1.
</event>
<event>
 5   0  0.1180937E-02  0.4999368E+03  0.7818609E-02  0.1013795E+00
        1   -1    0    0  501    0  0.00000000000E+00  0.00000000000E+00  0.42489805553E+03  0.42489805556E+03  0.50400001928E-02 0.  1.
       -1   -1    0    0    0  501  0.00000000000E+00  0.00000000000E+00 -0.14705692493E+03  0.14705692502E+03  0.50400001928E-02 0. -1.
    10030    2    1    2    0    0  0.00000000000E+00  0.00000000000E+00  0.27784113060E+03  0.57195498058E+03  0.49993680197E+03 0.  0.
        1    1    3    3  502    0 -0.99194235438E+02  0.16838376048E+03 -0.39389117356E+02  0.19935919776E+03  0.50400001928E-02 0. -1.
       -1    1    3    3    0  502  0.99194235438E+02 -0.16838376048E+03  0.31723024795E+03  0.37259578283E+03  0.50400001928E-02 0.  1.
</event>
<event>
 5   0  0.1217270E-02  0.4980549E+03  0.7818609E-02  0.1014288E+00
       -1   -1    0    0    0  501  0.00000000000E+00  0.00000000000E+00  0.12610833715E+04  0.12610833715E+04  0.50400001928E-02 0.  1.
        1   -1    0    0  501    0  0.00000000000E+00  0.00000000000E+00 -0.49175716121E+02  0.49175716380E+02  0.50400001928E-02 0. -1.
    10030    2    1    2    0    0  0.00000000000E+00  0.00000000000E+00  0.12119076554E+04  0.13102590879E+04  0.49805492894E+03 0.  0.
        2    1    3    3  502    0  0.23358394532E+01  0.15241640925E+03  0.11240080502E+04  0.11342972780E+04  0.25500000920E-02 0.  1.
       -2    1    3    3    0  502 -0.23358394532E+01 -0.15241640925E+03  0.87899605239E+02  0.17596180995E+03  0.25500000920E-02 0. -1.
</event>
<event>
 5   0  0.1855407E-02  0.4973010E+03  0.7818609E-02  0.1014486E+00
        2   -1    0    0  501    0  0.00000000000E+00  0.00000000000E+00  0.84535290511E+03  0.84535290512E+03  0.25500000920E-02 0. -1.
       -2   -1    0    0    0  501  0.00000000000E+00  0.00000000000E+00 -0.73137598587E+02  0.73137598631E+02  0.25500000920E-02 0.  1.
    10030    2    1    2    0    0  0.00000000000E+00  0.00000000000E+00  0.77221530652E+03  0.91849050375E+03  0.49730104146E+03 0.  0.
        1    1    3    3  502    0  0.22492562421E+03 -0.11007905290E+02  0.58082190815E+03  0.62295007779E+03  0.50400001928E-02 0. -1.
       -1    1    3    3    0  502 -0.22492562421E+03  0.11007905290E+02  0.19139339837E+03  0.29554042595E+03  0.50400001928E-02 0.  1.
</event>
<event>
 5   0  0.8012875E-03  0.4912139E+03  0.7818609E-02  0.1016098E+00
       -4   -1    0    0    0  501  0.00000000000E+00  0.00000000000E+00  0.11229717796E+03  0.11230435912E+03  0.12699999809E+01 0. -1.
        4   -1    0    0  501    0  0.00000000000E+00  0.00000000000E+00 -0.53714573202E+03  0.53714723338E+03  0.12699999809E+01 0.  1.
    10030    2    1    2    0    0  0.00000000000E+00  0.00000000000E+00 -0.42484855406E+03  0.64945159250E+03  0.49121388123E+03 0.  0.
        3    1    3    3  502    0 -0.19197389542E+03 -0.13916512144E+03 -0.12774714832E+03  0.26933297543E+03  0.10100000352E+00 0.  1.
       -3    1    3    3    0  502  0.19197389542E+03  0.13916512144E+03 -0.29710140573E+03  0.38011861707E+03  0.10100000352E+00 0. -1.
</event>
<event>
 5   0  0.1180937E-02  0.4992980E+03  0.7818609E-02  0.1013962E+00
        1   -1    0    0  501    0  0.00000000000E+00  0.00000000000E+00  0.23242995526E+03  0.23242995531E+03  0.50400001928E-02 0.  1.
       -1   -1    0    0    0  501  0.00000000000E+00  0.00000000000E+00 -0.26814367039E+03  0.26814367044E+03  0.50400001928E-02 0. -1.
    10030    2    1    2    0    0  0.00000000000E+00  0.00000000000E+00 -0.35713715136E+02  0.50057362575E+03  0.49929799253E+03 0.  0.
        1    1    3    3  502    0  0.58087789667E+02 -0.72347899866E+02  0.21450285518E+03  0.23370897464E+03  0.50400001928E-02 0.  1.
       -1    1    3    3    0  502 -0.58087789667E+02  0.72347899866E+02 -0.25021657032E+03  0.26686465111E+03  0.50400001928E-02 0. -1.
</event>
<event>
 5   0  0.8012875E-03  0.4992830E+03  0.7818609E-02  0.1013966E+00
       -3   -1    0    0    0  501  0.00000000000E+00  0.00000000000E+00  0.12080648315E+03  0.12080652537E+03  0.10100000352E+00 0.  1.
        3   -1    0    0  501    0  0.00000000000E+00  0.00000000000E+00 -0.51587356778E+03  0.51587357767E+03  0.10100000352E+00 0. -1.
    10030    2    1    2    0    0  0.00000000000E+00  0.00000000000E+00 -0.39506708464E+03  0.63668010304E+03  0.49928303821E+03 0.  0.
        1    1    3    3  502    0  0.18679370558E+03 -0.77120530949E+00  0.13657134012E+02  0.18729388814E+03  0.50400001928E-02 0.  1.
       -1    1    3    3    0  502 -0.18679370558E+03  0.77120530949E+00 -0.40872421865E+03  0.44938621489E+03  0.50400001928E-02 0. -1.
</event>
<event>
 5   0  0.1941387E-02  0.4991526E+03  0.7818609E-02  0.1014000E+00
        2   -1    0    0  501    0  0.00000000000E+00  0.00000000000E+00  0.15899870064E+04  0.15899870064E+04  0.25500000920E-02 0. -1.
       -2   -1    0    0    0  501  0.00000000000E+00  0.00000000000E+00 -0.39175363609E+02  0.39175363692E+02  0.25500000920E-02 0.  1.
    10030    2    1    2    0    0  0.00000000000E+00  0.00000000000E+00  0.15508116428E+04  0.16291623701E+04  0.49915255856E+03 0.  0.
        4    1    3    3  502    0 -0.20950704503E+03  0.46382970816E+02  0.35944494482E+03  0.41862496719E+03  0.12699999809E+01 0.  1.
       -4    1    3    3    0  502  0.20950704503E+03 -0.46382970816E+02  0.11913666980E+04  0.12105374029E+04  0.12699999809E+01 0. -1.
</event>
<event>
 5   0  0.1941387E-02  0.5002972E+03  0.7818609E-02  0.1013701E+00
       -2   -1    0    0    0  501  0.00000000000E+00  0.00000000000E+00  0.29664752408E+03  0.29664752409E+03  0.25500000920E-02 0. -1.
        2   -1    0    0  501    0  0.00000000000E+00  0.00000000000E+00 -0.21093830095E+03  0.21093830096E+03  0.25500000920E-02 0.  1.
    10030    2    1    2    0    0  0.00000000000E+00  0.00000000000E+00  0.85709223129E+02  0.50758582505E+03  0.50029721053E+03 0.  0.
        4    1    3    3  502    0 -0.21769196592E+03 -0.56272837609E+02  0.15407042943E+03  0.27257243882E+03  0.12699999809E+01 0. -1.
       -4    1    3    3    0  502  0.21769196592E+03  0.56272837609E+02 -0.68361206300E+02  0.23501338623E+03  0.12699999809E+01 0.  1.
</event>
<event>
 5   0  0.1941387E-02  0.5044370E+03  0.7818609E-02  0.1012627E+00
       -2   -1    0    0    0  501  0.00000000000E+00  0.00000000000E+00  0.34555618984E+02  0.34555619078E+02  0.25500000920E-02 0. -1.
        2   -1    0    0  501    0  0.00000000000E+00  0.00000000000E+00 -0.18409213632E+04  0.18409213632E+04  0.25500000920E-02 0.  1.
    10030    2    1    2    0    0  0.00000000000E+00  0.00000000000E+00 -0.18063657442E+04  0.18754769823E+04  0.50443702202E+03 0.  0.
        4    1    3    3  502    0  0.13057553041E+03  0.85683675314E+02 -0.16686798771E+03  0.22855677539E+03  0.12699999809E+01 0. -1.
       -4    1    3    3    0  502 -0.13057553041E+03 -0.85683675314E+02 -0.16394977565E+04  0.16469202069E+04  0.12699999809E+01 0.  1.
</event>
<event>
 5   0  0.1923706E-02  0.4999818E+03  0.7818609E-02  0.1013784E+00
       -2   -1    0    0    0  501  0.00000000000E+00  0.00000000000E+00  0.16050259722E+03  0.16050259724E+03  0.25500000920E-02 0. -1.
        2   -1    0    0  501    0  0.00000000000E+00  0.00000000000E+00 -0.38937337902E+03  0.38937337902E+03  0.25500000920E-02 0.  1.
    10030    2    1    2    0    0  0.00000000000E+00  0.00000000000E+00 -0.22887078179E+03  0.54987597627E+03  0.49998175418E+03 0.  0.
        3    1    3    3  502    0 -0.79892880001E+02 -0.23061153466E+03 -0.17397545940E+03  0.29971990736E+03  0.10100000352E+00 0.  1.
       -3    1    3    3    0  502  0.79892880001E+02  0.23061153466E+03 -0.54895322389E+02  0.25015606891E+03  0.10100000352E+00 0. -1.
</event>
<event>
 5   0  0.1180937E-02  0.5009297E+03  0.7818609E-02  0.1013537E+00
       -1   -1    0    0    0  501  0.00000000000E+00  0.00000000000E+00  0.12837817735E+03  0.12837817745E+03  0.50400001928E-02 0. -1.
        1   -1    0    0  501    0  0.00000000000E+00  0.00000000000E+00 -0.48865510229E+03  0.48865510232E+03  0.50400001928E-02 0.  1.
    10030    2    1    2    0    0  0.00000000000E+00  0.00000000000E+00 -0.36027692494E+03  0.61703327977E+03  0.50092974128E+03 0.  0.
        1    1    3    3  502    0  0.18017058763E+03 -0.58703117094E+02  0.21606588275E+02  0.19072058433E+03  0.50400001928E-02 0. -1.
       -1    1    3    3    0  502 -0.18017058763E+03  0.58703117094E+02 -0.38188351322E+03  0.42631269544E+03  0.50400001928E-02 0.  1.
</event>
<event>
 5   0  0.1982847E-02  0.4996481E+03  0.7818609E-02  0.1013871E+00
       -2   -1    0    0    0  501  0.00000000000E+00  0.00000000000E+00  0.40553681302E+03  0.40553681303E+03  0.25500000920E-02 0.  1.
        2   -1    0    0  501    0  0.00000000000E+00  0.00000000000E+00 -0.15389983906E+03  0.15389983908E+03  0.25500000920E-02 0. -1.
    10030    2    1    2    0    0  0.00000000000E+00  0.00000000000E+00  0.25163697396E+03  0.55943665211E+03  0.49964807721E+03 0.  0.
        2    1    3    3  502    0  0.41370532902E+01 -0.23401827545E+03  0.28013763282E+02  0.23572534737E+03  0.25500000920E-02 0. -1.
       -2    1    3    3    0  502 -0.41370532902E+01  0.23401827545E+03  0.22362321068E+03  0.32371130474E+03  0.25500000920E-02 0.  1.
</event>
<event>
 5   0  0.1855407E-02  0.5002918E+03  0.7818609E-02  0.1013703E+00
        2   -1    0    0  501    0  0.00000000000E+00  0.00000000000E+00  0.41595264666E+03  0.41595264667E+03  0.25500000920E-02 0. -1.
       -2   -1    0    0    0  501  0.00000000000E+00  0.00000000000E+00 -0.15043290255E+03  0.15043290257E+03  0.25500000920E-02 0.  1.
    10030    2    1    2    0    0  0.00000000000E+00  0.00000000000E+00  0.26551974412E+03  0.56638554924E+03  0.50029177074E+03 0.  0.
        1    1    3    3  502    0  0.39417979722E+02  0.12336406644E+03 -0.10952365414E+03  0.16961102811E+03  0.50400001928E-02 0.  1.
       -1    1    3    3    0  502 -0.39417979722E+02 -0.12336406644E+03  0.37504339826E+03  0.39677452113E+03  0.50400001928E-02 0. -1.
</event>
<event>
 5   0  0.1217270E-02  0.5011096E+03  0.7818609E-02  0.1013490E+00
       -1   -1    0    0    0  501  0.00000000000E+00  0.00000000000E+00  0.53560415207E+03  0.53560415209E+03  0.50400001928E-02 0. -1.
        1   -1    0    0  501    0  0.00000000000E+00  0.00000000000E+00 -0.11720912888E+03  0.11720912898E+03  0.50400001928E-02 0.  1.
    10030    2    1    2    0    0  0.00000000000E+00  0.00000000000E+00  0.41839502319E+03  0.65281328108E+03  0.50110955341E+03 0.  0.
        2    1    3    3  502    0 -0.91330101765E+01 -0.18031971458E+03 -0.17115399682E+02  0.18136027199E+03  0.25500000920E-02 0.  1.
       -2    1    3    3    0  502  0.91330101765E+01  0.18031971458E+03  0.43551042287E+03  0.47145300909E+03  0.25500000920E-02 0. -1.
</event>
<event>
 5   0  0.1217270E-02  0.5000400E+03  0.7818609E-02  0.1013768E+00
        1   -1    0    0  501    0  0.00000000000E+00  0.00000000000E+00  0.17778740365E+03  0.17778740372E+03  0.50400001928E-02 0. -1.
       -1   -1    0    0    0  501  0.00000000000E+00  0.00000000000E+00 -0.35159967878E+03  0.35159967882E+03  0.50400001928E-02 0.  1.
    10030    2    1    2    0    0  0.00000000000E+00  0.00000000000E+00 -0.17381227513E+03  0.52938708254E+03  0.50003997457E+03 0.  0.
        2    1    3    3  502    0 -0.57524187320E+01  0.14132343064E+03  0.13136008870E+03  0.19303076252E+03  0.25500000920E-02 0. -1.
       -2    1    3    3    0  502  0.57524187320E+01 -0.14132343064E+03 -0.30517236383E+03  0.33635632002E+03  0.25500000920E-02 0.  1.
</event>
<event>
 5   0  0.1855407E-02  0.5001828E+03  0.7818609E-02  0.1013731E+00
        2   -1    0    0  501    0  0.00000000000E+00  0.00000000000E+00  0.15548119281E+04  0.15548119281E+04  0.25500000920E-02 0.  1.
       -2   -1    0    0    0  501  0.00000000000E+00  0.00000000000E+00 -0.40227193654E+02  0.40227193735E+02  0.25500000920E-02 0. -1.
    10030    2    1    2    0    0  0.00000000000E+00  0.00000000000E+00  0.15145847344E+04  0.15950391218E+04  0.50018284894E+03 0.  0.
        1    1    3    3  502    0  0.15290664197E+03 -0.11659196866E+03  0.12672351259E+04  0.12817406105E+04  0.50400001928E-02 0.  1.
       -1    1    3    3    0  502 -0.15290664197E+03  0.11659196866E+03  0.24734960849E+03  0.31329851126E+03  0.50400001928E-02 0. -1.
</event>
<event>
 5   0  0.1941387E-02  0.5002053E+03  0.7818609E-02  0.1013725E+00
        2   -1    0    0  501    0  0.00000000000E+00  0.00000000000E+00  0.26465448099E+03  0.26465448100E+03  0.25500000920E-02 0.  1.
       -2   -1    0    0    0  501  0.00000000000E+00  0.00000000000E+00 -0.23635090737E+03  0.23635090738E+03  0.25500000920E-02 0. -1.
    10030    2    1    2    0    0  0.00000000000E+00  0.00000000000E+00  0.28303573624E+02  0.50100538838E+03  0.50020526478E+03 0.  0.
        4    1    3    3  502    0  0.12703878198E+03  0.49811709976E+02  0.22408107627E+03  0.26236234528E+03  0.12699999809E+01 0.  1.
       -4    1    3    3    0  502 -0.12703878198E+03 -0.49811709976E+02 -0.19577750265E+03  0.23864304310E+03  0.12699999809E+01 0. -1.
</event>
<event>
 5   0  0.1941387E-02  0.4999923E+03  0.7818609E-02  0.1013781E+00
       -2   -1    0    0    0  501  0.00000000000E+00  0.00000000000E+00  0.14995475725E+03  0.14995475727E+03  0.25500000920E-02 0. -1.
        2   -1    0    0  501    0  0.00000000000E+00  0.00000000000E+00 -0.41677956580E+03  0.41677956581E+03  0.25500000920E-02 0.  1.
    10030    2    1    2    0    0  0.00000000000E+00  0.00000000000E+00 -0.26682480855E+03  0.56673432308E+03  0.49999231444E+03 0.  0.
        4    1    3    3  502    0  0.23663169765E+03 -0.78129314125E+02 -0.11080750708E+03  0.27272452509E+03  0.12699999809E+01 0.  1.
       -4    1    3    3    0  502 -0.23663169765E+03  0.78129314125E+02 -0.15601730147E+03  0.29400979799E+03  0.12699999809E+01 0. -1.
</event>
<event>
 5   0  0.1225989E-02  0.4993213E+03  0.7818609E-02  0.1013956E+00
        1   -1    0    0  501    0  0.00000000000E+00  0.00000000000E+00  0.42380274748E+03  0.42380274751E+03  0.50400001928E-02 0.  1.
       -1   -1    0    0    0  501  0.00000000000E+00  0.00000000000E+00 -0.14707415383E+03  0.14707415391E+03  0.50400001928E-02 0. -1.
    10030    2    1    2    0    0  0.00000000000E+00  0.00000000000E+00  0.27672859366E+03  0.57087690142E+03  0.49932126135E+03 0.  0.
        3    1    3    3  502    0  0.88465126361E+02  0.50566208453E+02  0.39894624177E+03  0.41175372985E+03  0.10100000352E+00 0.  1.
       -3    1    3    3    0  502 -0.88465126361E+02 -0.50566208453E+02 -0.12221764812E+03  0.15912317157E+03  0.10100000352E+00 0. -1.
</event>
<event>
 5   0  0.1227864E-02  0.4993053E+03  0.7818609E-02  0.1013960E+00
        1   -1    0    0  501    0  0.00000000000E+00  0.00000000000E+00  0.47898372220E+03  0.47898372222E+03  0.50400001928E-02 0.  1.
       -1   -1    0    0    0  501  0.00000000000E+00  0.00000000000E+00 -0.13012228134E+03  0.13012228144E+03  0.50400001928E-02 0. -1.
    10030    2    1    2    0    0  0.00000000000E+00  0.00000000000E+00  0.34886144085E+03  0.60910600366E+03  0.49930533623E+03 0.  0.
        5    1    3    3  502    0  0.15228664284E+03  0.87229479387E+02 -0.42095568239E+02  0.18053900001E+03  0.46999998093E+01 0. -1.
       -5    1    3    3    0  502 -0.15228664284E+03 -0.87229479387E+02  0.39095700909E+03  0.42856700365E+03  0.46999998093E+01 0.  1.
</event>
<event>
 5   0  0.1225989E-02  0.5001090E+03  0.7818609E-02  0.1013750E+00
        1   -1    0    0  501    0  0.00000000000E+00  0.00000000000E+00  0.18736112853E+03  0.18736112860E+03  0.50400001928E-02 0.  1.
       -1   -1    0    0    0  501  0.00000000000E+00  0.00000000000E+00 -0.33372588141E+03  0.33372588144E+03  0.50400001928E-02 0. -1.
    10030    2    1    2    0    0  0.00000000000E+00  0.00000000000E+00 -0.14636475288E+03  0.52108701004E+03  0.50010901927E+03 0.  0.
        3    1    3    3  502    0  0.15226180776E+03 -0.77051363643E+02  0.11725938865E+03  0.20705155196E+03  0.10100000352E+00 0.  1.
       -3    1    3    3    0  502 -0.15226180776E+03  0.77051363643E+02 -0.26362414152E+03  0.31403545809E+03  0.10100000352E+00 0. -1.
</event>
<event>
 5   0  0.1982847E-02  0.5107988E+03  0.7818609E-02  0.1010998E+00
       -2   -1    0    0    0  501  0.00000000000E+00  0.00000000000E+00  0.43616173439E+02  0.43616173514E+02  0.25500000920E-02 0.  1.
        2   -1    0    0  501    0  0.00000000000E+00  0.00000000000E+00 -0.14955197641E+04  0.14955197641E+04  0.25500000920E-02 0. -1.
    10030    2    1    2    0    0  0.00000000000E+00  0.00000000000E+00 -0.14519035907E+04  0.15391359376E+04  0.51079878415E+03 0.  0.
        2    1    3    3  502    0  0.21493160036E+02 -0.91376701990E+02 -0.10248763918E+02  0.94428251933E+02  0.25500000920E-02 0.  1.
       -2    1    3    3    0  502 -0.21493160036E+02  0.91376701990E+02 -0.14416548268E+04  0.14447076857E+04  0.25500000920E-02 0. -1.
</event>
<event>
 5   0  0.8012875E-03  0.5000216E+03  0.7818609E-02  0.1013773E+00
       -4   -1    0    0    0  501  0.00000000000E+00  0.00000000000E+00  0.49181504838E+03  0.49181668812E+03  0.12699999809E+01 0. -1.
        4   -1    0    0  501    0  0.00000000000E+00  0.00000000000E+00 -0.12708623149E+03  0.12709257702E+03  0.12699999809E+01 0.  1.
    10030    2    1    2    0    0  0.00000000000E+00  0.00000000000E+00  0.36472881689E+03  0.61890926514E+03  0.50002156814E+03 0.  0.
        3    1    3    3  502    0 -0.91066988809E+01 -0.11872308900E+03 -0.89739270851E+02  0.14910147806E+03  0.10100000352E+00 0.  1.
       -3    1    3    3    0  502  0.91066988809E+01  0.11872308900E+03  0.45446808774E+03  0.46980778708E+03  0.10100000352E+00 0. -1.
</event>
<event>
 5   0  0.1217270E-02  0.5007776E+03  0.7818609E-02  0.1013576E+00
        1   -1    0    0  501    0  0.00000000000E+00  0.00000000000E+00  0.63709160941E+03  0.63709160943E+03  0.50400001928E-02 0. -1.
       -1   -1    0    0    0  501  0.00000000000E+00  0.00000000000E+00 -0.98407420817E+02  0.98407420947E+02  0.50400001928E-02 0.  1.
    10030    2    1    2    0    0  0.00000000000E+00  0.00000000000E+00  0.53868418860E+03  0.73549903038E+03  0.50077756404E+03 0.  0.
        2    1    3    3  502    0 -0.12466913612E+03  0.21663675413E+03  0.24752462486E+03  0.35177026119E+03  0.25500000920E-02 0. -1.
       -2    1    3    3    0  502  0.12466913612E+03 -0.21663675413E+03  0.29115956374E+03  0.38372876919E+03  0.25500000920E-02 0.  1.
</event>
<event>
 5   0  0.1180937E-02  0.5005929E+03  0.7818609E-02  0.1013624E+00
       -1   -1    0    0    0  501  0.00000000000E+00  0.00000000000E+00  0.31971226475E+02  0.31971226872E+02  0.50400001928E-02 0.  1.
        1   -1    0    0  501    0  0.00000000000E+00  0.00000000000E+00 -0.19595214379E+04  0.19595214379E+04  0.50400001928E-02 0. -1.
    10030    2    1    2    0    0  0.00000000000E+00  0.00000000000E+00 -0.19275502114E+04  0.19914926648E+04  0.50059286482E+03 0.  0.
        1    1    3    3  502    0  0.75435435810E+02  0.23356513093E+03 -0.11588777769E+04  0.11845846855E+04  0.50400001928E-02 0. -1.
       -1    1    3    3    0  502 -0.75435435810E+02 -0.23356513093E+03 -0.76867243451E+03  0.80690797924E+03  0.50400001928E-02 0.  1.
</event>
<event>
 5   0  0.1982847E-02  0.5003330E+03  0.7818609E-02  0.1013692E+00
       -2   -1    0    0    0  501  0.00000000000E+00  0.00000000000E+00  0.12352903846E+03  0.12352903849E+03  0.25500000920E-02 0.  1.
        2   -1    0    0  501    0  0.00000000000E+00  0.00000000000E+00 -0.50662815374E+03  0.50662815375E+03  0.25500000920E-02 0. -1.
    10030    2    1    2    0    0  0.00000000000E+00  0.00000000000E+00 -0.38309911528E+03  0.63015719224E+03  0.50033304388E+03 0.  0.
        2    1    3    3  502    0  0.93323880534E+02  0.16842112302E+03  0.96051454705E+01  0.19278817439E+03  0.25500000920E-02 0.  1.
       -2    1    3    3    0  502 -0.93323880534E+02 -0.16842112302E+03 -0.39270426075E+03  0.43736901785E+03  0.25500000920E-02 0. -1.
</event>
<event>
 5   0  0.1941387E-02  0.5001741E+03  0.7818609E-02  0.1013733E+00
       -2   -1    0    0    0  501  0.00000000000E+00  0.00000000000E+00  0.46681682556E+02  0.46681682626E+02  0.25500000920E-02 0. -1.
        2   -1    0    0  501    0  0.00000000000E+00  0.00000000000E+00 -0.13397874215E+04  0.13397874215E+04  0.25500000920E-02 0.  1.
    10030    2    1    2    0    0  0.00000000000E+00  0.00000000000E+00 -0.12931057390E+04  0.13864691042E+04  0.50017409431E+03 0.  0.
        4    1    3    3  502    0 -0.10518499875E+03 -0.36562964327E+02 -0.25846368491E+02  0.11432577131E+03  0.12699999809E+01 0. -1.
       -4    1    3    3    0  502  0.10518499875E+03  0.36562964327E+02 -0.12672593705E+04  0.12721433328E+04  0.12699999809E+01 0.  1.
</event>
<event>
 5   0  0.1180937E-02  0.4998584E+03  0.7818609E-02  0.1013816E+00
       -1   -1    0    0    0  501  0.00000000000E+00  0.00000000000E+00  0.22015025398E+03  0.22015025404E+03  0.50400001928E-02 0.  1.
        1   -1    0    0  501    0  0.00000000000E+00  0.00000000000E+00 -0.28373622636E+03  0.28373622641E+03  0.50400001928E-02 0. -1.
    10030    2    1    2    0    0  0.00000000000E+00  0.00000000000E+00 -0.63585972386E+02  0.50388648044E+03  0.49985838924E+03 0.  0.
        1    1    3    3  502    0  0.12258288506E+03  0.17758923106E+03  0.95318763776E+02  0.23590287292E+03  0.50400001928E-02 0.  1.
       -1    1    3    3    0  502 -0.12258288506E+03 -0.17758923106E+03 -0.15890473616E+03  0.26798360752E+03  0.50400001928E-02 0. -1.
</event>
<event>
 5   0  0.1855407E-02  0.4994310E+03  0.7818609E-02  0.1013928E+00
        2   -1    0    0  501    0  0.00000000000E+00  0.00000000000E+00  0.66559655473E+03  0.66559655474E+03  0.25500000920E-02 0. -1.
       -2   -1    0    0    0  501  0.00000000000E+00  0.00000000000E+00 -0.93687112098E+02  0.93687112133E+02  0.25500000920E-02 0.  1.
    10030    2    1    2    0    0  0.00000000000E+00  0.00000000000E+00  0.57190944264E+03  0.75928366687E+03  0.49943095239E+03 0.  0.
        1    1    3    3  502    0 -0.68039643545E+02 -0.55649308330E+01 -0.79225242503E+02  0.10458011582E+03  0.50400001928E-02 0.  1.
       -1    1    3    3    0  502  0.68039643545E+02  0.55649308330E+01  0.65113468514E+03  0.65470355106E+03  0.50400001928E-02 0. -1.
</event>
<event>
 5   0  0.1217270E-02  0.5008300E+03  0.7818609E-02  0.1013563E+00
       -1   -1    0    0    0  501  0.00000000000E+00  0.00000000000E+00  0.11876453608E+03  0.11876453619E+03  0.50400001928E-02 0.  1.
        1   -1    0    0  501    0  0.00000000000E+00  0.00000000000E+00 -0.52799987745E+03  0.52799987747E+03  0.50400001928E-02 0. -1.
    10030    2    1    2    0    0  0.00000000000E+00  0.00000000000E+00 -0.40923534137E+03  0.64676441366E+03  0.50082995334E+03 0.  0.
        2    1    3    3  502    0  0.67804372560E+02 -0.90992154643E+02  0.83655430837E+02  0.14097955972E+03  0.25500000920E-02 0.  1.
       -2    1    3    3    0  502 -0.67804372560E+02  0.90992154643E+02 -0.49289077220E+03  0.50578485394E+03  0.25500000920E-02 0. -1.
</event>
<event>
 5   0  0.1209831E-02  0.4994141E+03  0.7818609E-02  0.1013932E+00
        1   -1    0    0  501    0  0.00000000000E+00  0.00000000000E+00  0.20370678253E+03  0.20370678259E+03  0.50400001928E-02 0.  1.
       -1   -1    0    0    0  501  0.00000000000E+00  0.00000000000E+00 -0.30609486474E+03  0.30609486478E+03  0.50400001928E-02 0. -1.
    10030    2    1    2    0    0  0.00000000000E+00  0.00000000000E+00 -0.10238808221E+03  0.50980164737E+03  0.49941405696E+03 0.  0.
        4    1    3    3  502    0  0.27286010522E+02 -0.13427694034E+03 -0.26428741923E+03  0.29769829684E+03  0.12699999809E+01 0. -1.
       -4    1    3    3    0  502 -0.27286010522E+02  0.13427694034E+03  0.16189933703E+03  0.21210335053E+03  0.12699999809E+01 0.  1.
</event>
<event>
 5   0  0.1180937E-02  0.5002838E+03  0.7818609E-02  0.1013705E+00
       -1   -1    0    0    0  501  0.00000000000E+00  0.00000000000E+00  0.52179176510E+02  0.52179176753E+02  0.50400001928E-02 0. -1.
        1   -1    0    0  501    0  0.00000000000E+00  0.00000000000E+00 -0.11991559234E+04  0.11991559234E+04  0.50400001928E-02 0.  1.
    10030    2    1    2    0    0  0.00000000000E+00  0.00000000000E+00 -0.11469767469E+04  0.12513351002E+04  0.50028379445E+03 0.  0.
        1    1    3    3  502    0 -0.10729387598E+03 -0.17462984166E+03 -0.93216640092E+03  0.95443268828E+03  0.50400001928E-02 0.  1.
       -1    1    3    3    0  502  0.10729387598E+03  0.17462984166E+03 -0.21481034596E+03  0.29690241188E+03  0.50400001928E-02 0. -1.
</event>
<event>
 5   0  0.1180937E-02  0.5043637E+03  0.7818609E-02  0.1012646E+00
        1   -1    0    0  501    0  0.00000000000E+00  0.00000000000E+00  0.98572938232E+02  0.98572938361E+02  0.50400001928E-02 0.  1.
       -1   -1    0    0    0  501  0.00000000000E+00  0.00000000000E+00 -0.64516361455E+03  0.64516361457E+03  0.50400001928E-02 0. -1.
    10030    2    1    2    0    0  0.00000000000E+00  0.00000000000E+00 -0.54659067632E+03  0.74373655293E+03  0.50436365127E+03 0.  0.
        1    1    3    3  502    0 -0.21208851857E+03  0.27928441943E+02 -0.76370100415E+02  0.22714297225E+03  0.50400001928E-02 0.  1.
       -1    1    3    3    0  502  0.21208851857E+03 -0.27928441943E+02 -0.47022057590E+03  0.51659358069E+03  0.50400001928E-02 0. -1.
</event>
<event>
 5   0  0.1180937E-02  0.5009152E+03  0.7818609E-02  0.1013540E+00
        1   -1    0    0  501    0  0.00000000000E+00  0.00000000000E+00  0.36170898721E+03  0.36170898724E+03  0.50400001928E-02 0. -1.
       -1   -1    0    0    0  501  0.00000000000E+00  0.00000000000E+00 -0.17342394468E+03  0.17342394475E+03  0.50400001928E-02 0.  1.
    10030    2    1    2    0    0  0.00000000000E+00  0.00000000000E+00  0.18828504252E+03  0.53513293199E+03  0.50091516015E+03 0.  0.
        1    1    3    3  502    0 -0.11109406813E+03 -0.22129528060E+03  0.13433579589E+03  0.28170835855E+03  0.50400001928E-02 0. -1.
       -1    1    3    3    0  502  0.11109406813E+03  0.22129528060E+03  0.53949246632E+02  0.25342457345E+03  0.50400001928E-02 0.  1.
</event>
<event>
 5   0  0.8012875E-03  0.5002117E+03  0.7818609E-02  0.1013724E+00
        3   -1    0    0  501    0  0.00000000000E+00  0.00000000000E+00  0.41479696622E+02  0.41479819586E+02  0.10100000352E+00 0.  1.
       -3   -1    0    0    0  501  0.00000000000E+00  0.00000000000E+00 -0.15080348423E+04  0.15080348457E+04  0.10100000352E+00 0. -1.
    10030    2    1    2    0    0  0.00000000000E+00  0.00000000000E+00 -0.14665551457E+04  0.15495146653E+04  0.50021165777E+03 0.  0.
        4    1    3    3  502    0 -0.15976315556E+03 -0.12514394355E+03 -0.11860749506E+04  0.12033123759E+04  0.12699999809E+01 0. -1.
       -4    1    3    3    0  502  0.15976315556E+03  0.12514394355E+03 -0.28048019507E+03  0.34620228943E+03  0.12699999809E+01 0.  1.
</event>
<event>
 5   0  0.1217270E-02  0.4989381E+03  0.7818609E-02  0.1014056E+00
       -1   -1    0    0    0  501  0.00000000000E+00  0.00000000000E+00  0.16059300086E+03  0.16059300094E+03  0.50400001928E-02 0. -1.
        1   -1    0    0  501    0  0.00000000000E+00  0.00000000000E+00 -0.38753129801E+03  0.38753129804E+03  0.50400001928E-02 0.  1.
    10030    2    1    2    0    0  0.00000000000E+00  0.00000000000E+00 -0.22693829715E+03  0.54812429898E+03  0.49893812885E+03 0.  0.
        2    1    3    3  502    0  0.18231294890E+03 -0.93854843389E+02  0.42622538449E+02  0.20943596576E+03  0.25500000920E-02 0.  1.
       -2    1    3    3    0  502 -0.18231294890E+03  0.93854843389E+02 -0.26956083560E+03  0.33868833322E+03  0.25500000920E-02 0. -1.
</event>
<event>
 5   0  0.1209831E-02  0.4987542E+03  0.7818609E-02  0.1014105E+00
       -1   -1    0    0    0  501  0.00000000000E+00  0.00000000000E+00  0.14508826878E+03  0.14508826887E+03  0.50400001928E-02 0. -1.
        1   -1    0    0  501    0  0.00000000000E+00  0.00000000000E+00 -0.42862824223E+03  0.42862824226E+03  0.50400001928E-02 0.  1.
    10030    2    1    2    0    0  0.00000000000E+00  0.00000000000E+00 -0.28353997345E+03  0.57371651113E+03  0.49875416650E+03 0.  0.
        4    1    3    3  502    0  0.19090412505E+03  0.61363810824E+02  0.28759353465E+02  0.20257989918E+03  0.12699999809E+01 0. -1.
       -4    1    3    3    0  502 -0.19090412505E+03 -0.61363810824E+02 -0.31229932691E+03  0.37113661195E+03  0.12699999809E+01 0.  1.
</event>
<event>
 5   0  0.1982847E-02  0.5022467E+03  0.7818609E-02  0.1013194E+00
       -2   -1    0    0    0  501  0.00000000000E+00  0.00000000000E+00  0.74495622687E+02  0.74495622730E+02  0.25500000920E-02 0.  1.
        2   -1    0    0  501    0  0.00000000000E+00  0.00000000000E+00 -0.84653205176E+03  0.84653205176E+03  0.25500000920E-02 0. -1.
    10030    2    1    2    0    0  0.00000000000E+00  0.00000000000E+00 -0.77203642907E+03  0.92102767449E+03  0.50224668179E+03 0.  0.
        2    1    3    3  502    0 -0.10479476416E+03  0.22479446311E+03 -0.45817923524E+03  0.52100163613E+03  0.25500000920E-02 0. -1.
       -2    1    3    3    0  502  0.10479476416E+03 -0.22479446311E+03 -0.31385719384E+03  0.40002603837E+03  0.25500000920E-02 0.  1.
</event>
<event>
 5   0  0.8012875E-03  0.5029193E+03  0.7818609E-02  0.1013020E+00
       -4   -1    0    0    0  501  0.00000000000E+00  0.00000000000E+00  0.10311615328E+04  0.10311623149E+04  0.12699999809E+01 0. -1.
        4   -1    0    0  501    0  0.00000000000E+00  0.00000000000E+00 -0.61313712083E+02  0.61326863521E+02  0.12699999809E+01 0.  1.
    10030    2    1    2    0    0  0.00000000000E+00  0.00000000000E+00  0.96984782073E+03  0.10924891784E+04  0.50291928733E+03 0.  0.
        1    1    3    3  502    0  0.20948785732E+03  0.99425731665E+02  0.27362630379E+03  0.35866696618E+03  0.50400001928E-02 0.  1.
       -1    1    3    3    0  502 -0.20948785732E+03 -0.99425731665E+02  0.69622151694E+03  0.73382221223E+03  0.50400001928E-02 0. -1.
</event>
<event>
 5   0  0.1225989E-02  0.5003400E+03  0.7818609E-02  0.1013690E+00
       -1   -1    0    0    0  501  0.00000000000E+00  0.00000000000E+00  0.59487874253E+02  0.59487874467E+02  0.50400001928E-02 0.  1.
        1   -1    0    0  501    0  0.00000000000E+00  0.00000000000E+00 -0.10520636845E+04  0.10520636845E+04  0.50400001928E-02 0. -1.
    10030    2    1    2    0    0  0.00000000000E+00  0.00000000000E+00 -0.99257581026E+03  0.11115515590E+04  0.50034001358E+03 0.  0.
        3    1    3    3  502    0 -0.18649493913E+02 -0.21102081048E+03 -0.20066218451E+03  0.29179257799E+03  0.10100000352E+00 0.  1.
       -3    1    3    3    0  502  0.18649493913E+02  0.21102081048E+03 -0.79191362575E+03  0.81975898100E+03  0.10100000352E+00 0. -1.
</event>
<event>
 5   0  0.1855407E-02  0.5001547E+03  0.7818609E-02  0.1013739E+00
        2   -1    0    0  501    0  0.00000000000E+00  0.00000000000E+00  0.36841775866E+03  0.36841775867E+03  0.25500000920E-02 0.  1.
       -2   -1    0    0    0  501  0.00000000000E+00  0.00000000000E+00 -0.16974934703E+03  0.16974934705E+03  0.25500000920E-02 0. -1.
    10030    2    1    2    0    0  0.00000000000E+00  0.00000000000E+00  0.19866841163E+03  0.53816710572E+03  0.50015467198E+03 0.  0.
        1    1    3    3  502    0 -0.18730684657E+03  0.12358479298E+03  0.21809287149E+03  0.31292420241E+03  0.50400001928E-02 0.  1.
       -1    1    3    3    0  502  0.18730684657E+03 -0.12358479298E+03 -0.19424459866E+02  0.22524290332E+03  0.50400001928E-02 0. -1.
</event>
<event>
 5   0  0.1855407E-02  0.4996879E+03  0.7818609E-02  0.1013860E+00
       -2   -1    0    0    0  501  0.00000000000E+00  0.00000000000E+00  0.91196895351E+02  0.91196895387E+02  0.25500000920E-02 0.  1.
        2   -1    0    0  501    0  0.00000000000E+00  0.00000000000E+00 -0.68447493775E+03  0.68447493776E+03  0.25500000920E-02 0. -1.
    10030    2    1    2    0    0  0.00000000000E+00  0.00000000000E+00 -0.59327804240E+03  0.77567183314E+03  0.49968785971E+03 0.  0.
        1    1    3    3  502    0 -0.45245152630E+02 -0.21340044710E+02 -0.67662117256E+03  0.67846793036E+03  0.50400001928E-02 0. -1.
       -1    1    3    3    0  502  0.45245152630E+02  0.21340044710E+02  0.83343130164E+02  0.97203902780E+02  0.50400001928E-02 0.  1.
</event>
<event>
 5   0  0.1982847E-02  0.4974169E+03  0.7818609E-02  0.1014455E+00
        2   -1    0    0  501    0  0.00000000000E+00  0.00000000000E+00  0.45518378467E+03  0.45518378468E+03  0.25500000920E-02 0.  1.
       -2   -1    0    0    0  501  0.00000000000E+00  0.00000000000E+00 -0.13589214968E+03  0.13589214971E+03  0.25500000920E-02 0. -1.
    10030    2    1    2    0    0  0.00000000000E+00  0.00000000000E+00  0.31929163499E+03  0.59107593439E+03  0.49741693984E+03 0.  0.
        2    1    3    3  502    0 -0.83332383725E+02  0.22570988541E+03  0.84805531553E+02  0.25511020509E+03  0.25500000920E-02 0.  1.
       -2    1    3    3    0  502  0.83332383725E+02 -0.22570988541E+03  0.23448610344E+03  0.33596572930E+03  0.25500000920E-02 0. -1.
</event>
<event>
 5   0  0.1967813E-02  0.5010041E+03  0.7818609E-02  0.1013517E+00
        2   -1    0    0  501    0  0.00000000000E+00  0.00000000000E+00  0.22097468300E+04  0.22097468300E+04  0.25500000920E-02 0. -1.
       -2   -1    0    0    0  501  0.00000000000E+00  0.00000000000E+00 -0.28397501588E+02  0.28397501702E+02  0.25500000920E-02 0.  1.
    10030    2    1    2    0    0  0.00000000000E+00  0.00000000000E+00  0.21813493284E+04  0.22381443317E+04  0.50100414866E+03 0.  0.
        5    1    3    3  502    0  0.16323609017E+03  0.18704382231E+03  0.12386896677E+04  0.12633311504E+04  0.46999998093E+01 0. -1.
       -5    1    3    3    0  502 -0.16323609017E+03 -0.18704382231E+03  0.94265966070E+03  0.97481318133E+03  0.46999998093E+01 0.  1.
</event>
<event>
 5   0  0.1217270E-02  0.5010248E+03  0.7818609E-02  0.1013512E+00
       -1   -1    0    0    0  501  0.00000000000E+00  0.00000000000E+00  0.22943854848E+03  0.22943854853E+03  0.50400001928E-02 0. -1.
        1   -1    0    0  501    0  0.00000000000E+00  0.00000000000E+00 -0.27352187015E+03  0.27352187020E+03  0.50400001928E-02 0.  1.
    10030    2    1    2    0    0  0.00000000000E+00  0.00000000000E+00 -0.44083321677E+02  0.50296041873E+03  0.50102479336E+03 0.  0.
        2    1    3    3  502    0  0.47610173068E+02 -0.13764082859E+03 -0.22665436066E+03  0.26941404100E+03  0.25500000920E-02 0.  1.
       -2    1    3    3    0  502 -0.47610173068E+02  0.13764082859E+03  0.18257103898E+03  0.23354637774E+03  0.25500000920E-02 0. -1.
</event>
<event>
 5   0  0.1855407E-02  0.4968113E+03  0.7818609E-02  0.1014615E+00
       -2   -1    0    0    0  501  0.00000000000E+00  0.00000000000E+00  0.24869772455E+02  0.24869772586E+02  0.25500000920E-02 0.  1.
        2   -1    0    0  501    0  0.00000000000E+00  0.00000000000E+00 -0.24811387298E+04  0.24811387298E+04  0.25500000920E-02 0. -1.
    10030    2    1    2    0    0  0.00000000000E+00  0.00000000000E+00 -0.24562689573E+04  0.25060085024E+04  0.49681125512E+03 0.  0.
        1    1    3    3  502    0 -0.10433932111E+01 -0.15663773449E+03 -0.22006149609E+04  0.22061828289E+04  0.50400001928E-02 0. -1.
       -1    1    3    3    0  502  0.10433932111E+01  0.15663773449E+03 -0.25565399644E+03  0.29982567344E+03  0.50400001928E-02 0.  1.
</event>
<event>
 5   0  0.1209831E-02  0.4991646E+03  0.7818609E-02  0.1013997E+00
        1   -1    0    0  501    0  0.00000000000E+00  0.00000000000E+00  0.22920633149E+03  0.22920633154E+03  0.50400001928E-02 0.  1.
       -1   -1    0    0    0  501  0.00000000000E+00  0.00000000000E+00 -0.27176968745E+03  0.27176968749E+03  0.50400001928E-02 0. -1.
    10030    2    1    2    0    0  0.00000000000E+00  0.00000000000E+00 -0.42563355957E+02  0.50097601904E+03  0.49916463454E+03 0.  0.
        4    1    3    3  502    0 -0.22152745972E+03  0.50305960472E+02  0.82459833328E+02  0.24167404097E+03  0.12699999809E+01 0.  1.
       -4    1    3    3    0  502  0.22152745972E+03 -0.50305960472E+02 -0.12502318928E+03  0.25930197806E+03  0.12699999809E+01 0. -1.
</event>
<event>
 5   0  0.8012875E-03  0.5006980E+03  0.7818609E-02  0.1013597E+00
        4   -1    0    0  501    0  0.00000000000E+00  0.00000000000E+00  0.62033260978E+03  0.62033390981E+03  0.12699999809E+01 0. -1.
       -4   -1    0    0    0  501  0.00000000000E+00  0.00000000000E+00 -0.10102851110E+03  0.10103649319E+03  0.12699999809E+01 0.  1.
    10030    2    1    2    0    0  0.00000000000E+00  0.00000000000E+00  0.51930409868E+03  0.72137040300E+03  0.50069802418E+03 0.  0.
        2    1    3    3  502    0 -0.85976720784E+02 -0.16525088005E+03  0.18680502048E+02  0.18721327688E+03  0.25500000920E-02 0.  1.
       -2    1    3    3    0  502  0.85976720784E+02  0.16525088005E+03  0.50062359663E+03  0.53415712612E+03  0.25500000920E-02 0. -1.
</event>
<event>
 5   0  0.8012875E-03  0.5003375E+03  0.7818609E-02  0.1013691E+00
        3   -1    0    0  501    0  0.00000000000E+00  0.00000000000E+00  0.68739127873E+02  0.68739202074E+02  0.10100000352E+00 0. -1.
       -3   -1    0    0    0  501  0.00000000000E+00  0.00000000000E+00 -0.91046217698E+03  0.91046218258E+03  0.10100000352E+00 0.  1.
    10030    2    1    2    0    0  0.00000000000E+00  0.00000000000E+00 -0.84172304911E+03  0.97920138466E+03  0.50033754638E+03 0.  0.
        3    1    3    3  502    0 -0.11668819391E+03  0.21675893978E+02  0.10133985601E+02  0.11911627447E+03  0.10100000352E+00 0. -1.
       -3    1    3    3    0  502  0.11668819391E+03 -0.21675893978E+02 -0.85185703471E+03  0.86008511019E+03  0.10100000352E+00 0.  1.
</event>
<event>
 5   0  0.1180937E-02  0.5011349E+03  0.7818609E-02  0.1013483E+00
        1   -1    0    0  501    0  0.00000000000E+00  0.00000000000E+00  0.37507123172E+03  0.37507123175E+03  0.50400001928E-02 0. -1.
       -1   -1    0    0    0  501  0.00000000000E+00  0.00000000000E+00 -0.16739233319E+03  0.16739233326E+03  0.50400001928E-02 0.  1.
    10030    2    1    2    0    0  0.00000000000E+00  0.00000000000E+00  0.20767889853E+03  0.54246356502E+03  0.50113490646E+03 0.  0.
        1    1    3    3  502    0  0.15963294056E+03 -0.30640381626E+02 -0.10257639235E+03  0.19220672462E+03  0.50400001928E-02 0.  1.
       -1    1    3    3    0  502 -0.15963294056E+03  0.30640381626E+02  0.31025529088E+03  0.35025684039E+03  0.50400001928E-02 0. -1.
</event>
<event>
 5   0  0.1227864E-02  0.5010007E+03  0.7818609E-02  0.1013518E+00
        1   -1    0    0  501    0  0.00000000000E+00  0.00000000000E+00  0.22446737724E+03  0.22446737729E+03  0.50400001928E-02 0.  1.
       -1   -1    0    0    0  501  0.00000000000E+00  0.00000000000E+00 -0.27955249707E+03  0.27955249712E+03  0.50400001928E-02 0. -1.
    10030    2    1    2    0    0  0.00000000000E+00  0.00000000000E+00 -0.55085119833E+02  0.50401987441E+03  0.50100066205E+03 0.  0.
        5    1    3    3  502    0 -0.86000191127E+02 -0.15729490220E+03 -0.20349828712E+03  0.27124041364E+03  0.46999998093E+01 0. -1.
       -5    1    3    3    0  502  0.86000191127E+02  0.15729490220E+03  0.14841316729E+03  0.23277946077E+03  0.46999998093E+01 0.  1.
</event>
<event>
 5   0  0.8012875E-03  0.5003495E+03  0.7818609E-02  0.1013688E+00
        4   -1    0    0  501    0  0.00000000000E+00  0.00000000000E+00  0.37789087326E+03  0.37789300733E+03  0.12699999809E+01 0. -1.
       -4   -1    0    0    0  501  0.00000000000E+00  0.00000000000E+00 -0.16561794428E+03  0.16562281354E+03  0.12699999809E+01 0.  1.
    10030    2    1    2    0    0  0.00000000000E+00  0.00000000000E+00  0.21227292898E+03  0.54351582088E+03  0.50034952900E+03 0.  0.
        4    1    3    3  502    0  0.58512117859E+02 -0.98924206021E+02 -0.13524128505E+03  0.17748657570E+03  0.12699999809E+01 0.  1.
       -4    1    3    3    0  502 -0.58512117859E+02  0.98924206021E+02  0.34751421403E+03  0.36602924518E+03  0.12699999809E+01 0. -1.
</event>
<event>
 5   0  0.1855407E-02  0.5000769E+03  0.7818609E-02  0.1013759E+00
       -2   -1    0    0    0  501  0.00000000000E+00  0.00000000000E+00  0.43518778494E+02  0.43518778568E+02  0.25500000920E-02 0.  1.
        2   -1    0    0  501    0  0.00000000000E+00  0.00000000000E+00 -0.14366035664E+04  0.14366035664E+04  0.25500000920E-02 0. -1.
    10030    2    1    2    0    0  0.00000000000E+00  0.00000000000E+00 -0.13930847879E+04  0.14801223450E+04  0.50007692387E+03 0.  0.
        1    1    3    3  502    0  0.53920465158E+02  0.15345660171E+03 -0.12586132247E+04  0.12690798220E+04  0.50400001928E-02 0. -1.
       -1    1    3    3    0  502 -0.53920465158E+02 -0.15345660171E+03 -0.13447156322E+03  0.21104252299E+03  0.50400001928E-02 0.  1.
</event>
<event>
 5   0  0.1923706E-02  0.5037403E+03  0.7818609E-02  0.1012807E+00
        2   -1    0    0  501    0  0.00000000000E+00  0.00000000000E+00  0.19890571291E+03  0.19890571292E+03  0.25500000920E-02 0.  1.
       -2   -1    0    0    0  501  0.00000000000E+00  0.00000000000E+00 -0.31893793833E+03  0.31893793834E+03  0.25500000920E-02 0. -1.
    10030    2    1    2    0    0  0.00000000000E+00  0.00000000000E+00 -0.12003222542E+03  0.51784365126E+03  0.50374032201E+03 0.  0.
        3    1    3    3  502    0  0.67413119588E+02 -0.24224164608E+03 -0.75020084005E+02  0.26239963223E+03  0.10100000352E+00 0. -1.
       -3    1    3    3    0  502 -0.67413119588E+02  0.24224164608E+03 -0.45012141418E+02  0.25544401904E+03  0.10100000352E+00 0.  1.
</event>
<event>
 5   0  0.1180937E-02  0.5002417E+03  0.7818609E-02  0.1013716E+00
       -1   -1    0    0    0  501  0.00000000000E+00  0.00000000000E+00  0.98286783172E+02  0.98286783301E+02  0.50400001928E-02 0. -1.
        1   -1    0    0  501    0  0.00000000000E+00  0.00000000000E+00 -0.63650920790E+03  0.63650920792E+03  0.50400001928E-02 0.  1.
    10030    2    1    2    0    0  0.00000000000E+00  0.00000000000E+00 -0.53822242473E+03  0.73479599122E+03  0.50024171181E+03 0.  0.
        1    1    3    3  502    0 -0.14828073630E+03 -0.37267111776E+02 -0.55987721977E+03  0.58037790759E+03  0.50400001928E-02 0.  1.
       -1    1    3    3    0  502  0.14828073630E+03  0.37267111776E+02  0.21654795039E+02  0.15441808363E+03  0.50400001928E-02 0. -1.
</event>
<event>
 5   0  0.1217270E-02  0.5015239E+03  0.7818609E-02  0.1013382E+00
       -1   -1    0    0    0  501  0.00000000000E+00  0.00000000000E+00  0.19538268134E+03  0.19538268141E+03  0.50400001928E-02 0.  1.
        1   -1    0    0  501    0  0.00000000000E+00  0.00000000000E+00 -0.32183798181E+03  0.32183798185E+03  0.50400001928E-02 0. -1.
    10030    2    1    2    0    0  0.00000000000E+00  0.00000000000E+00 -0.12645530047E+03  0.51722066326E+03  0.50152394907E+03 0.  0.
        2    1    3    3  502    0  0.17055409834E+03 -0.11668435207E+03 -0.20972145568E+03  0.29442660793E+03  0.25500000920E-02 0. -1.
       -2    1    3    3    0  502 -0.17055409834E+03  0.11668435207E+03  0.83266155207E+02  0.22279405533E+03  0.25500000920E-02 0.  1.
</event>
<event>
 5   0  0.1227864E-02  0.4997159E+03  0.7818609E-02  0.1013853E+00
        1   -1    0    0  501    0  0.00000000000E+00  0.00000000000E+00  0.27011657577E+03  0.27011657582E+03  0.50400001928E-02 0.  1.
       -1   -1    0    0    0  501  0.00000000000E+00  0.00000000000E+00 -0.23111873269E+03  0.23111873274E+03  0.50400001928E-02 0. -1.
    10030    2    1    2    0    0  0.00000000000E+00  0.00000000000E+00  0.38997843083E+02  0.50123530856E+03  0.49971592209E+03 0.  0.
        5    1    3    3  502    0  0.21228714079E+02 -0.23992028561E+03 -0.46993729105E+02  0.24544429576E+03  0.46999998093E+01 0.  1.
       -5    1    3    3    0  502 -0.21228714079E+02  0.23992028561E+03  0.85991572188E+02  0.25579101281E+03  0.46999998093E+01 0. -1.
</event>
<event>
 5   0  0.1209831E-02  0.5029339E+03  0.7818609E-02  0.1013016E+00
       -1   -1    0    0    0  501  0.00000000000E+00  0.00000000000E+00  0.15778290078E+03  0.15778290087E+03  0.50400001928E-02 0.  1.
        1   -1    0    0  501    0  0.00000000000E+00  0.00000000000E+00 -0.40077617112E+03  0.40077617116E+03  0.50400001928E-02 0. -1.
    10030    2    1    2    0    0  0.00000000000E+00  0.00000000000E+00 -0.24299327034E+03  0.55855907202E+03  0.50293389974E+03 0.  0.
        4    1    3    3  502    0  0.74554005722E+02 -0.22367269678E+03 -0.24382570360E+02  0.23703142764E+03  0.12699999809E+01 0.  1.
       -4    1    3    3    0  502 -0.74554005722E+02  0.22367269678E+03 -0.21861069998E+03  0.32152764438E+03  0.12699999809E+01 0. -1.
</event>
<event>
 5   0  0.1217270E-02  0.5041101E+03  0.7818609E-02  0.1012712E+00
       -1   -1    0    0    0  501  0.00000000000E+00  0.00000000000E+00  0.34280065148E+03  0.34280065151E+03  0.50400001928E-02 0.  1.
        1   -1    0    0  501    0  0.00000000000E+00  0.00000000000E+00 -0.18533148122E+03  0.18533148128E+03  0.50400001928E-02 0. -1.
    10030    2    1    2    0    0  0.00000000000E+00  0.00000000000E+00  0.15746917026E+03  0.52813213280E+03  0.50411011705E+03 0.  0.
        2    1    3    3  502    0 -0.20995618049E+02  0.15520914280E+03  0.28563214829E+03  0.32575515058E+03  0.25500000920E-02 0.  1.
       -2    1    3    3    0  502  0.20995618049E+02 -0.15520914280E+03 -0.12816297803E+03  0.20237698221E+03  0.25500000920E-02 0. -1.
</event>
<event>
 5   0  0.1225989E-02  0.5001788E+03  0.7818609E-02  0.1013732E+00
        1   -1    0    0  501    0  0.00000000000E+00  0.00000000000E+00  0.55808129729E+03  0.55808129731E+03  0.50400001928E-02 0. -1.
       -1   -1    0    0    0  501  0.00000000000E+00  0.00000000000E+00 -0.11207095879E+03  0.11207095890E+03  0.50400001928E-02 0.  1.
    10030    2    1    2    0    0  0.00000000000E+00  0.00000000000E+00  0.44601033850E+03  0.67015225621E+03  0.50017879248E+03 0.  0.
        3    1    3    3  502    0  0.19802249138E+03 -0.14699026850E+03  0.27866277770E+03  0.37211826077E+03  0.10100000352E+00 0. -1.
       -3    1    3    3    0  502 -0.19802249138E+03  0.14699026850E+03  0.16734756080E+03  0.29803399543E+03  0.10100000352E+00 0.  1.
</event>
<event>
 5   0  0.1855407E-02  0.5004868E+03  0.7818609E-02  0.1013652E+00
       -2   -1    0    0    0  501  0.00000000000E+00  0.00000000000E+00  0.27483243601E+02  0.27483243719E+02  0.25500000920E-02 0. -1.
        2   -1    0    0  501    0  0.00000000000E+00  0.00000000000E+00 -0.22785432669E+04  0.22785432669E+04  0.25500000920E-02 0.  1.
    10030    2    1    2    0    0  0.00000000000E+00  0.00000000000E+00 -0.22510600233E+04  0.23060265107E+04  0.50048680222E+03 0.  0.
        1    1    3    3  502    0 -0.18442612037E+03 -0.16735929262E+03 -0.10127026443E+04  0.10428752431E+04  0.50400001928E-02 0.  1.
       -1    1    3    3    0  502  0.18442612037E+03  0.16735929262E+03 -0.12383573790E+04  0.12631512676E+04  0.50400001928E-02 0. -1.
</event>
<event>
 5   0  0.1227864E-02  0.5000683E+03  0.7818609E-02  0.1013761E+00
       -1   -1    0    0    0  501  0.00000000000E+00  0.00000000000E+00  0.23227409201E+03  0.23227409207E+03  0.50400001928E-02 0. -1.
        1   -1    0    0  501    0  0.00000000000E+00  0.00000000000E+00 -0.26915217679E+03  0.26915217684E+03  0.50400001928E-02 0.  1.
    10030    2    1    2    0    0  0.00000000000E+00  0.00000000000E+00 -0.36878084776E+02  0.50142626890E+03  0.50006830534E+03 0.  0.
        5    1    3    3  502    0 -0.13517011596E+03 -0.10903067639E+03 -0.19875043860E+03  0.26397438415E+03  0.46999998093E+01 0.  1.
       -5    1    3    3    0  502  0.13517011596E+03  0.10903067639E+03  0.16187235382E+03  0.23745188476E+03  0.46999998093E+01 0. -1.
</event>
<event>
 5   0  0.1982847E-02  0.4989452E+03  0.7818609E-02  0.1014055E+00
       -2   -1    0    0    0  501  0.00000000000E+00  0.00000000000E+00  0.11739129586E+03  0.11739129588E+03  0.25500000920E-02 0. -1.
        2   -1    0    0  501    0  0.00000000000E+00  0.00000000000E+00 -0.53016354868E+03  0.53016354869E+03  0.25500000920E-02 0.  1.
    10030    2    1    2    0    0  0.00000000000E+00  0.00000000000E+00 -0.41277225282E+03  0.64755484457E+03  0.49894523149E+03 0.  0.
        2    1    3    3  502    0 -0.43161628587E+02 -0.33454027208E+02 -0.52231135251E+03  0.52515830669E+03  0.25500000920E-02 0.  1.
       -2    1    3    3    0  502  0.43161628587E+02  0.33454027208E+02  0.10953909969E+03  0.12239653788E+03  0.25500000920E-02 0. -1.
</event>
<event>
 5   0  0.1217270E-02  0.4984040E+03  0.7818609E-02  0.1014196E+00
       -1   -1    0    0    0  501  0.00000000000E+00  0.00000000000E+00  0.19517960172E+03  0.19517960178E+03  0.50400001928E-02 0.  1.
        1   -1    0    0  501    0  0.00000000000E+00  0.00000000000E+00 -0.31817691989E+03  0.31817691993E+03  0.50400001928E-02 0. -1.
    10030    2    1    2    0    0  0.00000000000E+00  0.00000000000E+00 -0.12299731817E+03  0.51335652171E+03  0.49840403099E+03 0.  0.
        2    1    3    3  502    0 -0.76146127665E+02 -0.38466019170E+02  0.17967063613E+03  0.19889546219E+03  0.25500000920E-02 0.  1.
       -2    1    3    3    0  502  0.76146127665E+02  0.38466019170E+02 -0.30266795430E+03  0.31446105952E+03  0.25500000920E-02 0. -1.
</event>
<event>
 5   0  0.1923706E-02  0.5010063E+03  0.7818609E-02  0.1013517E+00
       -2   -1    0    0    0  501  0.00000000000E+00  0.00000000000E+00  0.47232085825E+02  0.47232085894E+02  0.25500000920E-02 0.  1.
        2   -1    0    0  501    0  0.00000000000E+00  0.00000000000E+00 -0.13285845767E+04  0.13285845767E+04  0.25500000920E-02 0. -1.
    10030    2    1    2    0    0  0.00000000000E+00  0.00000000000E+00 -0.12813524909E+04  0.13758166626E+04  0.50100627062E+03 0.  0.
        3    1    3    3  502    0  0.23378522429E+03  0.16285227753E+01 -0.88772860573E+03  0.91799796886E+03  0.10100000352E+00 0. -1.
       -3    1    3    3    0  502 -0.23378522429E+03 -0.16285227753E+01 -0.39362388512E+03  0.45781869372E+03  0.10100000352E+00 0.  1.
</event>
<event>
 5   0  0.1209831E-02  0.4989211E+03  0.7818609E-02  0.1014061E+00
       -1   -1    0    0    0  501  0.00000000000E+00  0.00000000000E+00  0.57191112964E+02  0.57191113186E+02  0.50400001928E-02 0. -1.
        1   -1    0    0  501    0  0.00000000000E+00  0.00000000000E+00 -0.10881160325E+04  0.10881160325E+04  0.50400001928E-02 0.  1.
    10030    2    1    2    0    0  0.00000000000E+00  0.00000000000E+00 -0.10309249195E+04  0.11453071457E+04  0.49892110425E+03 0.  0.
        4    1    3    3  502    0  0.33363053344E+02 -0.24437866018E+03 -0.42972581115E+03  0.49547947338E+03  0.12699999809E+01 0. -1.
       -4    1    3    3    0  502 -0.33363053344E+02  0.24437866018E+03 -0.60119910839E+03  0.64982767232E+03  0.12699999809E+01 0.  1.
</event>
<event>
 5   0  0.1923706E-02  0.4950387E+03  0.7818609E-02  0.1015082E+00
        2   -1    0    0  501    0  0.00000000000E+00  0.00000000000E+00  0.64852222720E+03  0.64852222721E+03  0.25500000920E-02 0. -1.
       -2   -1    0    0    0  501  0.00000000000E+00  0.00000000000E+00 -0.94469904633E+02  0.94469904668E+02  0.25500000920E-02 0.  1.
    10030    2    1    2    0    0  0.00000000000E+00  0.00000000000E+00  0.55405232257E+03  0.74299213187E+03  0.49503871756E+03 0.  0.
        3    1    3    3  502    0  0.12148371272E+03  0.13717911342E+03  0.27278180152E+02  0.18525795780E+03  0.10100000352E+00 0.  1.
       -3    1    3    3    0  502 -0.12148371272E+03 -0.13717911342E+03  0.52677414242E+03  0.55773417408E+03  0.10100000352E+00 0. -1.
</event>
<event>
 5   0  0.1225989E-02  0.4991821E+03  0.7818609E-02  0.1013993E+00
       -1   -1    0    0    0  501  0.00000000000E+00  0.00000000000E+00  0.86151493764E+02  0.86151493911E+02  0.50400001928E-02 0.  1.
        1   -1    0    0  501    0  0.00000000000E+00  0.00000000000E+00 -0.72309469936E+03  0.72309469938E+03  0.50400001928E-02 0. -1.
    10030    2    1    2    0    0  0.00000000000E+00  0.00000000000E+00 -0.63694320560E+03  0.80924619329E+03  0.49918208521E+03 0.  0.
        3    1    3    3  502    0  0.11538268514E+03 -0.39735887232E+02  0.34489799076E+02  0.12681348985E+03  0.10100000352E+00 0.  1.
       -3    1    3    3    0  502 -0.11538268514E+03  0.39735887232E+02 -0.67143300468E+03  0.68243270345E+03  0.10100000352E+00 0. -1.
</event>
<event>
 5   0  0.1227864E-02  0.4996472E+03  0.7818609E-02  0.1013871E+00
       -1   -1    0    0    0  501  0.00000000000E+00  0.00000000000E+00  0.63729703094E+02  0.63729703293E+02  0.50400001928E-02 0.  1.
        1   -1    0    0  501    0  0.00000000000E+00  0.00000000000E+00 -0.97932095798E+03  0.97932095799E+03  0.50400001928E-02 0. -1.
    10030    2    1    2    0    0  0.00000000000E+00  0.00000000000E+00 -0.91559125488E+03  0.10430506613E+04  0.49964721153E+03 0.  0.
        5    1    3    3  502    0 -0.15985029334E+02 -0.13115557138E+03 -0.90030444715E+03  0.90996015991E+03  0.46999998093E+01 0. -1.
       -5    1    3    3    0  502  0.15985029334E+02  0.13115557138E+03 -0.15286807730E+02  0.13309050137E+03  0.46999998093E+01 0.  1.
</event>
<event>
 5   0  0.1180937E-02  0.5005361E+03  0.7818609E-02  0.1013639E+00
        1   -1    0    0  501    0  0.00000000000E+00  0.00000000000E+00  0.28680889590E+03  0.28680889595E+03  0.50400001928E-02 0.  1.
       -1   -1    0    0    0  501  0.00000000000E+00  0.00000000000E+00 -0.21838269793E+03  0.21838269799E+03  0.50400001928E-02 0. -1.
    10030    2    1    2    0    0  0.00000000000E+00  0.00000000000E+00  0.68426197971E+02  0.50519159394E+03  0.50053611460E+03 0.  0.
        1    1    3    3  502    0 -0.15654004249E+03 -0.14152829150E+02 -0.16235202663E+03  0.22597183022E+03  0.50400001928E-02 0. -1.
       -1    1    3    3    0  502  0.15654004249E+03  0.14152829150E+02  0.23077822460E+03  0.27921976372E+03  0.50400001928E-02 0.  1.
</event>
<event>
 5   0  0.1967813E-02  0.5016532E+03  0.7818609E-02  0.1013348E+00
       -2   -1    0    0    0  501  0.00000000000E+00  0.00000000000E+00  0.31164867741E+03  0.31164867742E+03  0.25500000920E-02 0. -1.
        2   -1    0    0  501    0  0.00000000000E+00  0.00000000000E+00 -0.20187472587E+03  0.20187472588E+03  0.25500000920E-02 0.  1.
    10030    2    1    2    0    0  0.00000000000E+00  0.00000000000E+00  0.10977395154E+03  0.51352340330E+03  0.50165323213E+03 0.  0.
        5    1    3    3  502    0  0.12640264575E+03  0.11928657212E+03 -0.13018078876E+03  0.21720046708E+03  0.46999998093E+01 0.  1.
       -5    1    3    3    0  502 -0.12640264575E+03 -0.11928657212E+03  0.23995474030E+03  0.29632293622E+03  0.46999998093E+01 0. -1.
</event>
<event>
 5   0  0.1855407E-02  0.4986690E+03  0.7818609E-02  0.1014127E+00
       -2   -1    0    0    0  501  0.00000000000E+00  0.00000000000E+00  0.11880837853E+03  0.11880837855E+03  0.25500000920E-02 0. -1.
        2   -1    0    0  501    0  0.00000000000E+00  0.00000000000E+00 -0.52326018426E+03  0.52326018427E+03  0.25500000920E-02 0.  1.
    10030    2    1    2    0    0  0.00000000000E+00  0.00000000000E+00 -0.40445180574E+03  0.64206856282E+03  0.49866900465E+03 0.  0.
        1    1    3    3  502    0  0.66898320355E+02 -0.61922782675E+02  0.96583080173E+02  0.13280853768E+03  0.50400001928E-02 0. -1.
       -1    1    3    3    0  502 -0.66898320355E+02  0.61922782675E+02 -0.50103488591E+03  0.50926002514E+03  0.50400001928E-02 0.  1.
</event>
<event>
 5   0  0.1855407E-02  0.5004023E+03  0.7818609E-02  0.1013674E+00
       -2   -1    0    0    0  501  0.00000000000E+00  0.00000000000E+00  0.11272360434E+03  0.11272360437E+03  0.25500000920E-02 0.  1.
        2   -1    0    0  501    0  0.00000000000E+00  0.00000000000E+00 -0.55534618012E+03  0.55534618012E+03  0.25500000920E-02 0. -1.
    10030    2    1    2    0    0  0.00000000000E+00  0.00000000000E+00 -0.44262257578E+03  0.66806978449E+03  0.50040233049E+03 0.  0.
        1    1    3    3  502    0  0.13296112356E+03 -0.61012589767E+02 -0.49229806009E+03  0.51357431447E+03  0.50400001928E-02 0. -1.
       -1    1    3    3    0  502 -0.13296112356E+03  0.61012589767E+02  0.49675484313E+02  0.15449547002E+03  0.50400001928E-02 0.  1.
</event>
<event>
 5   0  0.8012875E-03  0.4997744E+03  0.7818609E-02  0.1013838E+00
        4   -1    0    0  501    0  0.00000000000E+00  0.00000000000E+00  0.17426613329E+03  0.17427076092E+03  0.12699999809E+01 0.  1.
       -4   -1    0    0    0  501  0.00000000000E+00  0.00000000000E+00 -0.35831275760E+03  0.35831500828E+03  0.12699999809E+01 0. -1.
    10030    2    1    2    0    0  0.00000000000E+00  0.00000000000E+00 -0.18404662431E+03  0.53258576919E+03  0.49977439073E+03 0.  0.
        5    1    3    3  502    0 -0.60782650899E+02  0.27441409646E+02  0.16456214532E+03  0.17762418553E+03  0.46999998093E+01 0.  1.
       -5    1    3    3    0  502  0.60782650899E+02 -0.27441409646E+02 -0.34860876963E+03  0.35496158366E+03  0.46999998093E+01 0. -1.
</event>
<event>
 5   0  0.1967813E-02  0.4996775E+03  0.7818609E-02  0.1013863E+00
       -2   -1    0    0    0  501  0.00000000000E+00  0.00000000000E+00  0.32199065660E+02  0.32199065761E+02  0.25500000920E-02 0.  1.
        2   -1    0    0  501    0  0.00000000000E+00  0.00000000000E+00 -0.19385469115E+04  0.19385469115E+04  0.25500000920E-02 0. -1.
    10030    2    1    2    0    0  0.00000000000E+00  0.00000000000E+00 -0.19063478458E+04  0.19707459772E+04  0.49967749354E+03 0.  0.
        5    1    3    3  502    0  0.51594257353E+02 -0.29777216513E+02  0.35995971938E+01  0.59863988450E+02  0.46999998093E+01 0.  1.
       -5    1    3    3    0  502 -0.51594257353E+02  0.29777216513E+02 -0.19099474430E+04  0.19108819888E+04  0.46999998093E+01 0. -1.
</event>
<event>
 5   0  0.1982847E-02  0.4999538E+03  0.7818609E-02  0.1013791E+00
        2   -1    0    0  501    0  0.00000000000E+00  0.00000000000E+00  0.96556213171E+03  0.96556213171E+03  0.25500000920E-02 0. -1.
       -2   -1    0    0    0  501  0.00000000000E+00  0.00000000000E+00 -0.64717162729E+02  0.64717162780E+02  0.25500000920E-02 0.  1.
    10030    2    1    2    0    0  0.00000000000E+00  0.00000000000E+00  0.90084496898E+03  0.10302792945E+04  0.49995376439E+03 0.  0.
        2    1    3    3  502    0 -0.87887631939E+02  0.77584957047E+02 -0.45542480439E+01  0.11732179077E+03  0.25500000920E-02 0.  1.
       -2    1    3    3    0  502  0.87887631939E+02 -0.77584957047E+02  0.90539921703E+03  0.91295750372E+03  0.25500000920E-02 0. -1.
</event>
<event>
 5   0  0.1227864E-02  0.5001493E+03  0.7818609E-02  0.1013740E+00
        1   -1    0    0  501    0  0.00000000000E+00  0.00000000000E+00  0.40006894761E+03  0.40006894764E+03  0.50400001928E-02 0. -1.
       -1   -1    0    0    0  501  0.00000000000E+00  0.00000000000E+00 -0.15631639358E+03  0.15631639366E+03  0.50400001928E-02 0.  1.
    10030    2    1    2    0    0  0.00000000000E+00  0.00000000000E+00  0.24375255403E+03  0.55638534130E+03  0.50014931812E+03 0.  0.
        5    1    3    3  502    0 -0.16874812455E+03  0.11279892181E+03  0.28429122209E+03  0.34934669779E+03  0.46999998093E+01 0. -1.
       -5    1    3    3    0  502  0.16874812455E+03 -0.11279892181E+03 -0.40538668067E+02  0.20703864351E+03  0.46999998093E+01 0.  1.
</event>
<event>
 5   0  0.1209831E-02  0.4987667E+03  0.7818609E-02  0.1014101E+00
       -1   -1    0    0    0  501  0.00000000000E+00  0.00000000000E+00  0.93908137280E+02  0.93908137415E+02  0.50400001928E-02 0.  1.
        1   -1    0    0  501    0  0.00000000000E+00  0.00000000000E+00 -0.66226473690E+03  0.66226473692E+03  0.50400001928E-02 0. -1.
    10030    2    1    2    0    0  0.00000000000E+00  0.00000000000E+00 -0.56835659962E+03  0.75617287433E+03  0.49876667045E+03 0.  0.
        4    1    3    3  502    0  0.36493853064E+02  0.24655605010E+03 -0.29674881791E+03  0.38753472229E+03  0.12699999809E+01 0. -1.
       -4    1    3    3    0  502 -0.36493853064E+02 -0.24655605010E+03 -0.27160778171E+03  0.36863815204E+03  0.12699999809E+01 0.  1.
</event>
<event>
 5   0  0.1225989E-02  0.5000514E+03  0.7818609E-02  0.1013766E+00
        1   -1    0    0  501    0  0.00000000000E+00  0.00000000000E+00  0.33690500812E+03  0.33690500816E+03  0.50400001928E-02 0.  1.
       -1   -1    0    0    0  501  0.00000000000E+00  0.00000000000E+00 -0.18555036680E+03  0.18555036687E+03  0.50400001928E-02 0. -1.
    10030    2    1    2    0    0  0.00000000000E+00  0.00000000000E+00  0.15135464132E+03  0.52245537503E+03  0.50005138881E+03 0.  0.
        3    1    3    3  502    0  0.37028630821E+02  0.14006413468E+02  0.33360949742E+03  0.33595030300E+03  0.10100000352E+00 0.  1.
       -3    1    3    3    0  502 -0.37028630821E+02 -0.14006413468E+02 -0.18225485610E+03  0.18650507203E+03  0.10100000352E+00 0. -1.
</event>
<event>
 5   0  0.1225989E-02  0.5001154E+03  0.7818609E-02  0.1013749E+00
       -1   -1    0    0    0  501  0.00000000000E+00  0.00000000000E+00  0.21639476225E+03  0.21639476231E+03  0.50400001928E-02 0.  1.
        1   -1    0    0  501    0  0.00000000000E+00  0.00000000000E+00 -0.28895732739E+03  0.28895732744E+03  0.50400001928E-02 0. -1.
    10030    2    1    2    0    0  0.00000000000E+00  0.00000000000E+00 -0.72562565145E+02  0.50535208974E+03  0.50011539543E+03 0.  0.
        3    1    3    3  502    0 -0.48312990713E+02  0.18029059490E+03  0.13186423972E+03  0.22853234256E+03  0.10100000352E+00 0. -1.
       -3    1    3    3    0  502  0.48312990713E+02 -0.18029059490E+03 -0.20442680487E+03  0.27681974718E+03  0.10100000352E+00 0.  1.
</event>
<event>
 5   0  0.1982847E-02  0.4994958E+03  0.7818609E-02  0.1013911E+00
       -2   -1    0    0    0  501  0.00000000000E+00  0.00000000000E+00  0.88281937732E+02  0.88281937769E+02  0.25500000920E-02 0. -1.
        2   -1    0    0  501    0  0.00000000000E+00  0.00000000000E+00 -0.70653203107E+03  0.70653203108E+03  0.25500000920E-02 0.  1.
    10030    2    1    2    0    0  0.00000000000E+00  0.00000000000E+00 -0.61825009334E+03  0.79481396884E+03  0.49949581295E+03 0.  0.
        2    1    3    3  502    0 -0.12889421818E+03  0.21291153575E+03 -0.27616788858E+03  0.37177109117E+03  0.25500000920E-02 0.  1.
       -2    1    3    3    0  502  0.12889421818E+03 -0.21291153575E+03 -0.34208220476E+03  0.42304287768E+03  0.25500000920E-02 0. -1.
</event>
<event>
 5   0  0.1982847E-02  0.4996474E+03  0.7818609E-02  0.1013871E+00
        2   -1    0    0  501    0  0.00000000000E+00  0.00000000000E+00  0.14354583456E+04  0.14354583456E+04  0.25500000920E-02 0.  1.
       -2   -1    0    0    0  501  0.00000000000E+00  0.00000000000E+00 -0.43478711762E+02  0.43478711837E+02  0.25500000920E-02 0. -1.
    10030    2    1    2    0    0  0.00000000000E+00  0.00000000000E+00  0.13919796338E+04  0.14789370574E+04  0.49964739451E+03 0.  0.
        2    1    3    3  502    0 -0.37247647491E+02 -0.40293590436E+02  0.14174006277E+04  0.14184623717E+04  0.25500000920E-02 0.  1.
       -2    1    3    3    0  502  0.37247647491E+02  0.40293590436E+02 -0.25420993858E+02  0.60474685688E+02  0.25500000920E-02 0. -1.
</event>
<event>
 5   0  0.1209831E-02  0.5014213E+03  0.7818609E-02  0.1013409E+00
       -1   -1    0    0    0  501  0.00000000000E+00  0.00000000000E+00  0.71095253845E+03  0.71095253847E+03  0.50400001928E-02 0.  1.
        1   -1    0    0  501    0  0.00000000000E+00  0.00000000000E+00 -0.88410735553E+02  0.88410735697E+02  0.50400001928E-02 0. -1.
    10030    2    1    2    0    0  0.00000000000E+00  0.00000000000E+00  0.62254180290E+03  0.79936327416E+03  0.50142132756E+03 0.  0.
        4    1    3    3  502    0  0.21923175573E+03  0.11375642271E+03  0.37986089155E+03  0.45309932273E+03  0.12699999809E+01 0.  1.
       -4    1    3    3    0  502 -0.21923175573E+03 -0.11375642271E+03  0.24268091134E+03  0.34626395143E+03  0.12699999809E+01 0. -1.
</event>
<event>
 5   0  0.1180937E-02  0.4993929E+03  0.7818609E-02  0.1013937E+00
       -1   -1    0    0    0  501  0.00000000000E+00  0.00000000000E+00  0.14942716377E+03  0.14942716385E+03  0.50400001928E-02 0. -1.
        1   -1    0    0  501    0  0.00000000000E+00  0.00000000000E+00 -0.41724888974E+03  0.41724888977E+03  0.50400001928E-02 0.  1.
    10030    2    1    2    0    0  0.00000000000E+00  0.00000000000E+00 -0.26782172597E+03  0.56667605362E+03  0.49939290428E+03 0.  0.
        1    1    3    3  502    0 -0.16388624838E+03  0.14241521800E+03  0.60226420628E+01  0.21720282910E+03  0.50400001928E-02 0. -1.
       -1    1    3    3    0  502  0.16388624838E+03 -0.14241521800E+03 -0.27384436803E+03  0.34947322452E+03  0.50400001928E-02 0.  1.
</event>
<event>
 5   0  0.8012875E-03  0.4977719E+03  0.7818609E-02  0.1014362E+00
        3   -1    0    0  501    0  0.00000000000E+00  0.00000000000E+00  0.10041128210E+04  0.10041128261E+04  0.10100000352E+00 0. -1.
       -3   -1    0    0    0  501  0.00000000000E+00  0.00000000000E+00 -0.61690449537E+02  0.61690532216E+02  0.10100000352E+00 0.  1.
    10030    2    1    2    0    0  0.00000000000E+00  0.00000000000E+00  0.94242237148E+03  0.10658033583E+04  0.49777190793E+03 0.  0.
        3    1    3    3  502    0  0.42806237650E+02 -0.18332387175E+03  0.12262996610E+03  0.22467339567E+03  0.10100000352E+00 0.  1.
       -3    1    3    3    0  502 -0.42806237650E+02  0.18332387175E+03  0.81979240538E+03  0.84112996264E+03  0.10100000352E+00 0. -1.
</event>
<event>
 5   0  0.1209831E-02  0.5005161E+03  0.7818609E-02  0.1013644E+00
        1   -1    0    0  501    0  0.00000000000E+00  0.00000000000E+00  0.44944067984E+03  0.44944067986E+03  0.50400001928E-02 0.  1.
       -1   -1    0    0    0  501  0.00000000000E+00  0.00000000000E+00 -0.13934893931E+03  0.13934893940E+03  0.50400001928E-02 0. -1.
    10030    2    1    2    0    0  0.00000000000E+00  0.00000000000E+00  0.31009174053E+03  0.58878961926E+03  0.50051606189E+03 0.  0.
        4    1    3    3  502    0 -0.24644760214E+02  0.70466196671E+02 -0.12594197538E+03  0.14640984646E+03  0.12699999809E+01 0. -1.
       -4    1    3    3    0  502  0.24644760214E+02 -0.70466196671E+02  0.43603371590E+03  0.44237977280E+03  0.12699999809E+01 0.  1.
</event>
<event>
 5   0  0.8012875E-03  0.5030540E+03  0.7818609E-02  0.1012985E+00
       -3   -1    0    0    0  501  0.00000000000E+00  0.00000000000E+00  0.13660484568E+03  0.13660488302E+03  0.10100000352E+00 0.  1.
        3   -1    0    0  501    0  0.00000000000E+00  0.00000000000E+00 -0.46313014039E+03  0.46313015140E+03  0.10100000352E+00 0. -1.
    10030    2    1    2    0    0  0.00000000000E+00  0.00000000000E+00 -0.32652529471E+03  0.59973503442E+03  0.50305401641E+03 0.  0.
        4    1    3    3  502    0 -0.38539583064E+02 -0.12381287659E+03  0.93678916159E+02  0.15997587351E+03  0.12699999809E+01 0.  1.
       -4    1    3    3    0  502  0.38539583064E+02  0.12381287659E+03 -0.42020421087E+03  0.43975916091E+03  0.12699999809E+01 0. -1.
</event>
<event>
 5   0  0.1227864E-02  0.4995843E+03  0.7818609E-02  0.1013887E+00
        1   -1    0    0  501    0  0.00000000000E+00  0.00000000000E+00  0.69223472298E+03  0.69223472300E+03  0.50400001928E-02 0. -1.
       -1   -1    0    0    0  501  0.00000000000E+00  0.00000000000E+00 -0.90137224280E+02  0.90137224421E+02  0.50400001928E-02 0.  1.
    10030    2    1    2    0    0  0.00000000000E+00  0.00000000000E+00  0.60209749870E+03  0.78237194742E+03  0.49958429335E+03 0.  0.
        5    1    3    3  502    0  0.38013884675E+02 -0.31535611499E+02 -0.82343078649E+02  0.96135439981E+02  0.46999998093E+01 0.  1.
       -5    1    3    3    0  502 -0.38013884675E+02  0.31535611499E+02  0.68444057735E+03  0.68623650744E+03  0.46999998093E+01 0. -1.
</event>
<event>
 5   0  0.1225989E-02  0.4998097E+03  0.7818609E-02  0.1013829E+00
       -1   -1    0    0    0  501  0.00000000000E+00  0.00000000000E+00  0.18936647326E+03  0.18936647333E+03  0.50400001928E-02 0.  1.
        1   -1    0    0  501    0  0.00000000000E+00  0.00000000000E+00 -0.32979664226E+03  0.32979664230E+03  0.50400001928E-02 0. -1.
    10030    2    1    2    0    0  0.00000000000E+00  0.00000000000E+00 -0.14043016900E+03  0.51916311563E+03  0.49980967204E+03 0.  0.
        3    1    3    3  502    0  0.21555097767E+03 -0.38647237893E+02  0.54848827872E+02  0.22575260152E+03  0.10100000352E+00 0.  1.
       -3    1    3    3    0  502 -0.21555097767E+03  0.38647237893E+02 -0.19527899687E+03  0.29341051411E+03  0.10100000352E+00 0. -1.
</event>
<event>
 5   0  0.1855407E-02  0.5000110E+03  0.7818609E-02  0.1013776E+00
       -2   -1    0    0    0  501  0.00000000000E+00  0.00000000000E+00  0.22312871749E+03  0.22312871751E+03  0.25500000920E-02 0. -1.
        2   -1    0    0  501    0  0.00000000000E+00  0.00000000000E+00 -0.28011966475E+03  0.28011966476E+03  0.25500000920E-02 0.  1.
    10030    2    1    2    0    0  0.00000000000E+00  0.00000000000E+00 -0.56990947255E+02  0.50324838227E+03  0.50001096606E+03 0.  0.
        1    1    3    3  502    0  0.15204904263E+03  0.76539025889E+01  0.17109444124E+03  0.22902139953E+03  0.50400001928E-02 0. -1.
       -1    1    3    3    0  502 -0.15204904263E+03 -0.76539025889E+01 -0.22808538850E+03  0.27422698274E+03  0.50400001928E-02 0.  1.
</event>
<event>
 5   0  0.1923706E-02  0.5010922E+03  0.7818609E-02  0.1013494E+00
        2   -1    0    0  501    0  0.00000000000E+00  0.00000000000E+00  0.14338723238E+03  0.14338723240E+03  0.25500000920E-02 0.  1.
       -2   -1    0    0    0  501  0.00000000000E+00  0.00000000000E+00 -0.43778902409E+03  0.43778902410E+03  0.25500000920E-02 0. -1.
    10030    2    1    2    0    0  0.00000000000E+00  0.00000000000E+00 -0.29440179171E+03  0.58117625650E+03  0.50109223318E+03 0.  0.
        3    1    3    3  502    0  0.23211151491E+03 -0.93622125265E+02 -0.16055084234E+03  0.29735070350E+03  0.10100000352E+00 0. -1.
       -3    1    3    3    0  502 -0.23211151491E+03  0.93622125265E+02 -0.13385094936E+03  0.28382555300E+03  0.10100000352E+00 0.  1.
</event>
<event>
 5   0  0.1855407E-02  0.4998753E+03  0.7818609E-02  0.1013811E+00
       -2   -1    0    0    0  501  0.00000000000E+00  0.00000000000E+00  0.14959953147E+03  0.14959953149E+03  0.25500000920E-02 0.  1.
        2   -1    0    0  501    0  0.00000000000E+00  0.00000000000E+00 -0.41757369228E+03  0.41757369229E+03  0.25500000920E-02 0. -1.
    10030    2    1    2    0    0  0.00000000000E+00  0.00000000000E+00 -0.26797416081E+03  0.56717322378E+03  0.49987529937E+03 0.  0.
        1    1    3    3  502    0  0.24136084962E+02 -0.24219057379E+03 -0.19847161613E+03  0.31405382829E+03  0.50400001928E-02 0. -1.
       -1    1    3    3    0  502 -0.24136084962E+02  0.24219057379E+03 -0.69502544680E+02  0.25311939549E+03  0.50400001928E-02 0.  1.
</event>
<event>
 5   0  0.8012875E-03  0.5000581E+03  0.7818609E-02  0.1013764E+00
       -3   -1    0    0    0  501  0.00000000000E+00  0.00000000000E+00  0.83144280511E+02  0.83144341857E+02  0.10100000352E+00 0. -1.
        3   -1    0    0  501    0  0.00000000000E+00  0.00000000000E+00 -0.75187975830E+03  0.75187976509E+03  0.10100000352E+00 0.  1.
    10030    2    1    2    0    0  0.00000000000E+00  0.00000000000E+00 -0.66873547779E+03  0.83502410694E+03  0.50005811654E+03 0.  0.
        2    1    3    3  502    0 -0.23880744616E+03 -0.28629271595E+02 -0.44843110233E+03  0.50886057528E+03  0.25500000920E-02 0.  1.
       -2    1    3    3    0  502  0.23880744616E+03  0.28629271595E+02 -0.22030437547E+03  0.32616353167E+03  0.25500000920E-02 0. -1.
</event>
<event>
 5   0  0.1923706E-02  0.5001845E+03  0.7818609E-02  0.1013731E+00
        2   -1    0    0  501    0  0.00000000000E+00  0.00000000000E+00  0.10043346870E+04  0.10043346870E+04  0.25500000920E-02 0. -1.
       -2   -1    0    0    0  501  0.00000000000E+00  0.00000000000E+00 -0.62276177257E+02  0.62276177309E+02  0.25500000920E-02 0.  1.
    10030    2    1    2    0    0  0.00000000000E+00  0.00000000000E+00  0.94205850973E+03  0.10666108643E+04  0.50018446606E+03 0.  0.
        3    1    3    3  502    0  0.15150151286E+03  0.10910711456E+03  0.82586697774E+03  0.84670735557E+03  0.10100000352E+00 0.  1.
       -3    1    3    3    0  502 -0.15150151286E+03 -0.10910711456E+03  0.11619153199E+03  0.21990350873E+03  0.10100000352E+00 0. -1.
</event>
<event>
 5   0  0.1967813E-02  0.4995082E+03  0.7818609E-02  0.1013907E+00
       -2   -1    0    0    0  501  0.00000000000E+00  0.00000000000E+00  0.24180659741E+03  0.24180659742E+03  0.25500000920E-02 0. -1.
        2   -1    0    0  501    0  0.00000000000E+00  0.00000000000E+00 -0.25796285938E+03  0.25796285940E+03  0.25500000920E-02 0.  1.
    10030    2    1    2    0    0  0.00000000000E+00  0.00000000000E+00 -0.16156261974E+02  0.49976945682E+03  0.49950824335E+03 0.  0.
        5    1    3    3  502    0  0.98487686490E+02 -0.70384369687E+02  0.21044223501E+03  0.24282052664E+03  0.46999998093E+01 0. -1.
       -5    1    3    3    0  502 -0.98487686490E+02  0.70384369687E+02 -0.22659849698E+03  0.25694893018E+03  0.46999998093E+01 0.  1.
</event>
<event>
 5   0  0.1967813E-02  0.4993025E+03  0.7818609E-02  0.1013961E+00
        2   -1    0    0  501    0  0.00000000000E+00  0.00000000000E+00  0.63773971705E+03  0.63773971706E+03  0.25500000920E-02 0. -1.
       -2   -1    0    0    0  501  0.00000000000E+00  0.00000000000E+00 -0.97729144740E+02  0.97729144773E+02  0.25500000920E-02 0.  1.
    10030    2    1    2    0    0  0.00000000000E+00  0.00000000000E+00  0.54001057231E+03  0.73546886183E+03  0.49930254207E+03 0.  0.
        5    1    3    3  502    0  0.63303112076E+02  0.16372621421E+03  0.86161091005E+01  0.17581207169E+03  0.46999998093E+01 0.  1.
       -5    1    3    3    0  502 -0.63303112076E+02 -0.16372621421E+03  0.53139446321E+03  0.55965679014E+03  0.46999998093E+01 0. -1.
</event>
<event>
 5   0  0.1180937E-02  0.4999441E+03  0.7818609E-02  0.1013794E+00
       -1   -1    0    0    0  501  0.00000000000E+00  0.00000000000E+00  0.71303482940E+02  0.71303483118E+02  0.50400001928E-02 0.  1.
        1   -1    0    0  501    0  0.00000000000E+00  0.00000000000E+00 -0.87633889512E+03  0.87633889514E+03  0.50400001928E-02 0. -1.
    10030    2    1    2    0    0  0.00000000000E+00  0.00000000000E+00 -0.80503541218E+03  0.94764237826E+03  0.49994405907E+03 0.  0.
        1    1    3    3  502    0 -0.12356652576E+03  0.18489161441E+03 -0.61890691466E+03  0.65764683866E+03  0.50400001928E-02 0. -1.
       -1    1    3    3    0  502  0.12356652576E+03 -0.18489161441E+03 -0.18612849753E+03  0.28999553959E+03  0.50400001928E-02 0.  1.
</event>
<event>
 5   0  0.1855407E-02  0.4998340E+03  0.7818609E-02  0.1013822E+00
       -2   -1    0    0    0  501  0.00000000000E+00  0.00000000000E+00  0.14552923036E+03  0.14552923038E+03  0.25500000920E-02 0. -1.
        2   -1    0    0  501    0  0.00000000000E+00  0.00000000000E+00 -0.42918188012E+03  0.42918188013E+03  0.25500000920E-02 0.  1.
    10030    2    1    2    0    0  0.00000000000E+00  0.00000000000E+00 -0.28365264976E+03  0.57471111051E+03  0.49983400727E+03 0.  0.
        1    1    3    3  502    0 -0.13462848273E+03  0.59023108941E+02 -0.37421746810E+03  0.40205381382E+03  0.50400001928E-02 0.  1.
       -1    1    3    3    0  502  0.13462848273E+03 -0.59023108941E+02  0.90564818336E+02  0.17265729668E+03  0.50400001928E-02 0. -1.
</event>
<event>
 5   0  0.1225989E-02  0.5003182E+03  0.7818609E-02  0.1013696E+00
        1   -1    0    0  501    0  0.00000000000E+00  0.00000000000E+00  0.64709069685E+02  0.64709069881E+02  0.50400001928E-02 0. -1.
       -1   -1    0    0    0  501  0.00000000000E+00  0.00000000000E+00 -0.96709109424E+03  0.96709109425E+03  0.50400001928E-02 0.  1.
    10030    2    1    2    0    0  0.00000000000E+00  0.00000000000E+00 -0.90238202455E+03  0.10318001641E+04  0.50031815924E+03 0.  0.
        3    1    3    3  502    0 -0.58405251817E+02 -0.83432908432E+02 -0.92240163601E+03  0.92800701073E+03  0.10100000352E+00 0.  1.
       -3    1    3    3    0  502  0.58405251817E+02  0.83432908432E+02  0.20019611458E+02  0.10379315340E+03  0.10100000352E+00 0. -1.
</event>
<event>
 5   0  0.8012875E-03  0.5024233E+03  0.7818609E-02  0.1013148E+00
       -3   -1    0    0    0  501  0.00000000000E+00  0.00000000000E+00  0.50022755771E+03  0.50022756791E+03  0.10100000352E+00 0.  1.
        3   -1    0    0  501    0  0.00000000000E+00  0.00000000000E+00 -0.12615714898E+03  0.12615718941E+03  0.10100000352E+00 0. -1.
    10030    2    1    2    0    0  0.00000000000E+00  0.00000000000E+00  0.37407040874E+03  0.62638475732E+03  0.50242332102E+03 0.  0.
        1    1    3    3  502    0 -0.20174396023E+03  0.34750485909E+02  0.36855745309E+03  0.42159556213E+03  0.50400001928E-02 0.  1.
       -1    1    3    3    0  502  0.20174396023E+03 -0.34750485909E+02  0.55129556465E+01  0.20478919518E+03  0.50400001928E-02 0. -1.
</event>
<event>
 5   0  0.1217270E-02  0.4991534E+03  0.7818609E-02  0.1014000E+00
        1   -1    0    0  501    0  0.00000000000E+00  0.00000000000E+00  0.35663865120E+03  0.35663865123E+03  0.50400001928E-02 0. -1.
       -1   -1    0    0    0  501  0.00000000000E+00  0.00000000000E+00 -0.17465447363E+03  0.17465447370E+03  0.50400001928E-02 0.  1.
    10030    2    1    2    0    0  0.00000000000E+00  0.00000000000E+00  0.18198417757E+03  0.53129312493E+03  0.49915342703E+03 0.  0.
        2    1    3    3  502    0 -0.11908644792E+02  0.15666088488E+03 -0.11541169986E+03  0.19494693930E+03  0.25500000920E-02 0.  1.
       -2    1    3    3    0  502  0.11908644792E+02 -0.15666088488E+03  0.29739587743E+03  0.33634618563E+03  0.25500000920E-02 0. -1.
</event>
<event>
 5   0  0.1209831E-02  0.5002926E+03  0.7818609E-02  0.1013703E+00
        1   -1    0    0  501    0  0.00000000000E+00  0.00000000000E+00  0.38522376281E+03  0.38522376284E+03  0.50400001928E-02 0. -1.
       -1   -1    0    0    0  501  0.00000000000E+00  0.00000000000E+00 -0.16243334357E+03  0.16243334365E+03  0.50400001928E-02 0.  1.
    10030    2    1    2    0    0  0.00000000000E+00  0.00000000000E+00  0.22279041924E+03  0.54765710649E+03  0.50029264974E+03 0.  0.
        4    1    3    3  502    0 -0.19449793348E+03  0.65283895533E+02  0.26805265580E+03  0.33755780591E+03  0.12699999809E+01 0. -1.
       -4    1    3    3    0  502  0.19449793348E+03 -0.65283895533E+02 -0.45262236564E+02  0.21009930058E+03  0.12699999809E+01 0.  1.
</event>
<event>
 5   0  0.1941387E-02  0.5000177E+03  0.7818609E-02  0.1013774E+00
        2   -1    0    0  501    0  0.00000000000E+00  0.00000000000E+00  0.63925487750E+03  0.63925487751E+03  0.25500000920E-02 0.  1.
       -2   -1    0    0    0  501  0.00000000000E+00  0.00000000000E+00 -0.97776991363E+02  0.97776991396E+02  0.25500000920E-02 0. -1.
    10030    2    1    2    0    0  0.00000000000E+00  0.00000000000E+00  0.54147788614E+03  0.73703186891E+03  0.50001767429E+03 0.  0.
        4    1    3    3  502    0  0.21656620083E+03  0.74585606849E+02  0.41842632967E+03  0.47701796439E+03  0.12699999809E+01 0. -1.
       -4    1    3    3    0  502 -0.21656620083E+03 -0.74585606849E+02  0.12305155647E+03  0.26001390452E+03  0.12699999809E+01 0.  1.
</event>
<event>
 5   0  0.1227864E-02  0.4992561E+03  0.7818609E-02  0.1013973E+00
        1   -1    0    0  501    0  0.00000000000E+00  0.00000000000E+00  0.66966396200E+03  0.66966396202E+03  0.50400001928E-02 0. -1.
       -1   -1    0    0    0  501  0.00000000000E+00  0.00000000000E+00 -0.93052871792E+02  0.93052871929E+02  0.50400001928E-02 0.  1.
    10030    2    1    2    0    0  0.00000000000E+00  0.00000000000E+00  0.57661109021E+03  0.76271683395E+03  0.49925606600E+03 0.  0.
        5    1    3    3  502    0  0.11772151529E+03  0.13979649609E+03  0.28637425279E+02  0.18505028399E+03  0.46999998093E+01 0.  1.
       -5    1    3    3    0  502 -0.11772151529E+03 -0.13979649609E+03  0.54797366493E+03  0.57766654996E+03  0.46999998093E+01 0. -1.
</event>
<event>
 5   0  0.8012875E-03  0.5050316E+03  0.7818609E-02  0.1012474E+00
       -3   -1    0    0    0  501  0.00000000000E+00  0.00000000000E+00  0.30707182564E+03  0.30707184225E+03  0.10100000352E+00 0.  1.
        3   -1    0    0  501    0  0.00000000000E+00  0.00000000000E+00 -0.20765242114E+03  0.20765244570E+03  0.10100000352E+00 0. -1.
    10030    2    1    2    0    0  0.00000000000E+00  0.00000000000E+00  0.99419404496E+02  0.51472428795E+03  0.50503155804E+03 0.  0.
        3    1    3    3  502    0 -0.12376221845E+03 -0.21202391751E+03 -0.10526031198E+02  0.24572756428E+03  0.10100000352E+00 0. -1.
       -3    1    3    3    0  502  0.12376221845E+03  0.21202391751E+03  0.10994543569E+03  0.26899672367E+03  0.10100000352E+00 0.  1.
</event>
<event>
 5   0  0.1225989E-02  0.5005733E+03  0.7818609E-02  0.1013629E+00
       -1   -1    0    0    0  501  0.00000000000E+00  0.00000000000E+00  0.15734469675E+03  0.15734469683E+03  0.50400001928E-02 0.  1.
        1   -1    0    0  501    0  0.00000000000E+00  0.00000000000E+00 -0.39812850610E+03  0.39812850613E+03  0.50400001928E-02 0. -1.
    10030    2    1    2    0    0  0.00000000000E+00  0.00000000000E+00 -0.24078380935E+03  0.55547320296E+03  0.50057330768E+03 0.  0.
        3    1    3    3  502    0  0.14107267382E+03  0.14070484685E+03  0.47693662528E+02  0.20487569127E+03  0.10100000352E+00 0.  1.
       -3    1    3    3    0  502 -0.14107267382E+03 -0.14070484685E+03 -0.28847747188E+03  0.35059751170E+03  0.10100000352E+00 0. -1.
</event>
<event>
 5   0  0.1227864E-02  0.5009573E+03  0.7818609E-02  0.1013529E+00
        1   -1    0    0  501    0  0.00000000000E+00  0.00000000000E+00  0.77760087914E+03  0.77760087916E+03  0.50400001928E-02 0. -1.
       -1   -1    0    0    0  501  0.00000000000E+00  0.00000000000E+00 -0.80683494907E+02  0.80683495064E+02  0.50400001928E-02 0.  1.
    10030    2    1    2    0    0  0.00000000000E+00  0.00000000000E+00  0.69691738423E+03  0.85828437422E+03  0.50095731014E+03 0.  0.
        5    1    3    3  502    0  0.20774853001E+03 -0.28055878146E+01  0.58801381543E+03  0.62365828799E+03  0.46999998093E+01 0. -1.
       -5    1    3    3    0  502 -0.20774853001E+03  0.28055878146E+01  0.10890356880E+03  0.23462608623E+03  0.46999998093E+01 0.  1.
</event>
<event>
 5   0  0.1967813E-02  0.4998529E+03  0.7818609E-02  0.1013817E+00
        2   -1    0    0  501    0  0.00000000000E+00  0.00000000000E+00  0.21142825137E+04  0.21142825137E+04  0.25500000920E-02 0.  1.
       -2   -1    0    0    0  501  0.00000000000E+00  0.00000000000E+00 -0.29543466096E+02  0.29543466206E+02  0.25500000920E-02 0. -1.
    10030    2    1    2    0    0  0.00000000000E+00  0.00000000000E+00  0.20847390476E+04  0.21438259799E+04  0.49985291389E+03 0.  0.
        5    1    3    3  502    0  0.25361781491E+02 -0.22914985443E+03  0.62902263451E+03  0.66995853638E+03  0.46999998093E+01 0. -1.
       -5    1    3    3    0  502 -0.25361781491E+02  0.22914985443E+03  0.14557164131E+04  0.14738674436E+04  0.46999998093E+01 0.  1.
</event>
<event>
 5   0  0.1855407E-02  0.5001942E+03  0.7818609E-02  0.1013728E+00
       -2   -1    0    0    0  501  0.00000000000E+00  0.00000000000E+00  0.71774877126E+03  0.71774877126E+03  0.25500000920E-02 0.  1.
        2   -1    0    0  501    0  0.00000000000E+00  0.00000000000E+00 -0.87145494873E+02  0.87145494911E+02  0.25500000920E-02 0. -1.
    10030    2    1    2    0    0  0.00000000000E+00  0.00000000000E+00  0.63060327638E+03  0.80489426617E+03  0.50019424980E+03 0.  0.
        1    1    3    3  502    0  0.11500930415E+03 -0.20986204729E+03  0.19838118595E+03  0.31084451724E+03  0.50400001928E-02 0. -1.
       -1    1    3    3    0  502 -0.11500930415E+03  0.20986204729E+03  0.43222209043E+03  0.49404974893E+03  0.50400001928E-02 0.  1.
</event>
<event>
 5   0  0.8012875E-03  0.5014627E+03  0.7818609E-02  0.1013398E+00
       -4   -1    0    0    0  501  0.00000000000E+00  0.00000000000E+00  0.16551621237E+03  0.16552108463E+03  0.12699999809E+01 0.  1.
        4   -1    0    0  501    0  0.00000000000E+00  0.00000000000E+00 -0.37980754582E+03  0.37980966912E+03  0.12699999809E+01 0. -1.
    10030    2    1    2    0    0  0.00000000000E+00  0.00000000000E+00 -0.21429133345E+03  0.54533075375E+03  0.50146271586E+03 0.  0.
        1    1    3    3  502    0  0.37970651905E+02  0.24273892035E+03 -0.52747087692E+02  0.25128909476E+03  0.50400001928E-02 0. -1.
       -1    1    3    3    0  502 -0.37970651905E+02 -0.24273892035E+03 -0.16154424576E+03  0.29404165899E+03  0.50400001928E-02 0.  1.
</event>
<event>
 5   0  0.1967813E-02  0.5007399E+03  0.7818609E-02  0.1013586E+00
        2   -1    0    0  501    0  0.00000000000E+00  0.00000000000E+00  0.41674667029E+03  0.41674667030E+03  0.25500000920E-02 0. -1.
       -2   -1    0    0    0  501  0.00000000000E+00  0.00000000000E+00 -0.15041538047E+03  0.15041538049E+03  0.25500000920E-02 0.  1.
    10030    2    1    2    0    0  0.00000000000E+00  0.00000000000E+00  0.26633128982E+03  0.56716205078E+03  0.50073988848E+03 0.  0.
        5    1    3    3  502    0  0.17264681072E+01  0.24619425776E+03  0.18442877111E+03  0.30765346554E+03  0.46999998093E+01 0.  1.
       -5    1    3    3    0  502 -0.17264681072E+01 -0.24619425776E+03  0.81902518715E+02  0.25950858525E+03  0.46999998093E+01 0. -1.
</event>
<event>
 5   0  0.1855407E-02  0.4999533E+03  0.7818609E-02  0.1013791E+00
       -2   -1    0    0    0  501  0.00000000000E+00  0.00000000000E+00  0.34431313550E+03  0.34431313551E+03  0.25500000920E-02 0.  1.
        2   -1    0    0  501    0  0.00000000000E+00  0.00000000000E+00 -0.18148693157E+03  0.18148693159E+03  0.25500000920E-02 0. -1.
    10030    2    1    2    0    0  0.00000000000E+00  0.00000000000E+00  0.16282620393E+03  0.52580006710E+03  0.49995333570E+03 0.  0.
        1    1    3    3  502    0  0.21700236376E+03 -0.12336730204E+03  0.95476685483E+02  0.26725514885E+03  0.50400001928E-02 0.  1.
       -1    1    3    3    0  502 -0.21700236376E+03  0.12336730204E+03  0.67349518444E+02  0.25854491825E+03  0.50400001928E-02 0. -1.
</event>
<event>
 5   0  0.1227864E-02  0.5011993E+03  0.7818609E-02  0.1013466E+00
        1   -1    0    0  501    0  0.00000000000E+00  0.00000000000E+00  0.37418819477E+03  0.37418819480E+03  0.50400001928E-02 0.  1.
       -1   -1    0    0    0  501  0.00000000000E+00  0.00000000000E+00 -0.16783047824E+03  0.16783047832E+03  0.50400001928E-02 0. -1.
    10030    2    1    2    0    0  0.00000000000E+00  0.00000000000E+00  0.20635771653E+03  0.54201867312E+03  0.50119929653E+03 0.  0.
        5    1    3    3  502    0  0.32697664278E+02 -0.41470728767E+02 -0.16169560902E+03  0.17016614989E+03  0.46999998093E+01 0. -1.
       -5    1    3    3    0  502 -0.32697664278E+02  0.41470728767E+02  0.36805332554E+03  0.37185252323E+03  0.46999998093E+01 0.  1.
</event>
<event>
 5   0  0.1855407E-02  0.5010559E+03  0.7818609E-02  0.1013504E+00
       -2   -1    0    0    0  501  0.00000000000E+00  0.00000000000E+00  0.33605171504E+03  0.33605171505E+03  0.25500000920E-02 0.  1.
        2   -1    0    0  501    0  0.00000000000E+00  0.00000000000E+00 -0.18676964596E+03  0.18676964597E+03  0.25500000920E-02 0. -1.
    10030    2    1    2    0    0  0.00000000000E+00  0.00000000000E+00  0.14928206908E+03  0.52282136102E+03  0.50105592441E+03 0.  0.
        1    1    3    3  502    0 -0.21274880763E+03 -0.12571521786E+03  0.11763640817E+03  0.27368722240E+03  0.50400001928E-02 0. -1.
       -1    1    3    3    0  502  0.21274880763E+03  0.12571521786E+03  0.31645660909E+02  0.24913413863E+03  0.50400001928E-02 0.  1.
</event>
<event>
 5   0  0.1923706E-02  0.4990159E+03  0.7818609E-02  0.1014036E+00
       -2   -1    0    0    0  501  0.00000000000E+00  0.00000000000E+00  0.55711246720E+02  0.55711246779E+02  0.25500000920E-02 0.  1.
        2   -1    0    0  501    0  0.00000000000E+00  0.00000000000E+00 -0.11174444688E+04  0.11174444688E+04  0.25500000920E-02 0. -1.
    10030    2    1    2    0    0  0.00000000000E+00  0.00000000000E+00 -0.10617332221E+04  0.11731557156E+04  0.49901592975E+03 0.  0.
        3    1    3    3  502    0  0.27018637605E+02 -0.82365881729E+02 -0.10809061659E+04  0.10843764544E+04  0.10100000352E+00 0. -1.
       -3    1    3    3    0  502 -0.27018637605E+02  0.82365881729E+02  0.19172943742E+02  0.88779261226E+02  0.10100000352E+00 0.  1.
</event>
<event>
 5   0  0.1209831E-02  0.5003625E+03  0.7818609E-02  0.1013684E+00
       -1   -1    0    0    0  501  0.00000000000E+00  0.00000000000E+00  0.56291330990E+03  0.56291330993E+03  0.50400001928E-02 0.  1.
        1   -1    0    0  501    0  0.00000000000E+00  0.00000000000E+00 -0.11119056769E+03  0.11119056781E+03  0.50400001928E-02 0. -1.
    10030    2    1    2    0    0  0.00000000000E+00  0.00000000000E+00  0.45172274221E+03  0.67410387773E+03  0.50036247076E+03 0.  0.
        4    1    3    3  502    0 -0.12407539042E+03 -0.21628724526E+03  0.19844388877E+03  0.31867925075E+03  0.12699999809E+01 0. -1.
       -4    1    3    3    0  502  0.12407539042E+03  0.21628724526E+03  0.25327885344E+03  0.35542462699E+03  0.12699999809E+01 0.  1.
</event>
<event>
 5   0  0.1217270E-02  0.5005789E+03  0.7818609E-02  0.1013628E+00
        1   -1    0    0  501    0  0.00000000000E+00  0.00000000000E+00  0.32241602650E+03  0.32241602653E+03  0.50400001928E-02 0.  1.
       -1   -1    0    0    0  501  0.00000000000E+00  0.00000000000E+00 -0.19429803362E+03  0.19429803368E+03  0.50400001928E-02 0. -1.
    10030    2    1    2    0    0  0.00000000000E+00  0.00000000000E+00  0.12811799288E+03  0.51671406022E+03  0.50057886484E+03 0.  0.
        2    1    3    3  502    0 -0.19614152336E+02 -0.19272357498E+03  0.22765315013E+03  0.29891980212E+03  0.25500000920E-02 0.  1.
       -2    1    3    3    0  502  0.19614152336E+02  0.19272357498E+03 -0.99535157256E+02  0.21779425810E+03  0.25500000920E-02 0. -1.
</event>
<event>
 5   0  0.1180937E-02  0.4936230E+03  0.7818609E-02  0.1015457E+00
       -1   -1    0    0    0  501  0.00000000000E+00  0.00000000000E+00  0.10103747134E+03  0.10103747146E+03  0.50400001928E-02 0. -1.
        1   -1    0    0  501    0  0.00000000000E+00  0.00000000000E+00 -0.60290412568E+03  0.60290412570E+03  0.50400001928E-02 0.  1.
    10030    2    1    2    0    0  0.00000000000E+00  0.00000000000E+00 -0.50186665434E+03  0.70394159716E+03  0.49362296693E+03 0.  0.
        1    1    3    3  502    0 -0.17018509420E+03  0.42994476641E+02 -0.35010329607E+01  0.17556693472E+03  0.50400001928E-02 0. -1.
       -1    1    3    3    0  502  0.17018509420E+03 -0.42994476641E+02 -0.49836562138E+03  0.52837466244E+03  0.50400001928E-02 0.  1.
</event>
<event>
 5   0  0.1967813E-02  0.5016018E+03  0.7818609E-02  0.1013362E+00
       -2   -1    0    0    0  501  0.00000000000E+00  0.00000000000E+00  0.44829885436E+03  0.44829885437E+03  0.25500000920E-02 0.  1.
        2   -1    0    0  501    0  0.00000000000E+00  0.00000000000E+00 -0.14031061056E+03  0.14031061058E+03  0.25500000920E-02 0. -1.
    10030    2    1    2    0    0  0.00000000000E+00  0.00000000000E+00  0.30798824381E+03  0.58860946495E+03  0.50160177821E+03 0.  0.
        5    1    3    3  502    0 -0.19574481453E+03  0.71084601457E+02  0.31790062099E+03  0.38006834623E+03  0.46999998093E+01 0.  1.
       -5    1    3    3    0  502  0.19574481453E+03 -0.71084601457E+02 -0.99123771811E+01  0.20854111873E+03  0.46999998093E+01 0. -1.
</event>
<event>
 5   0  0.1180937E-02  0.4999144E+03  0.7818609E-02  0.1013801E+00
        1   -1    0    0  501    0  0.00000000000E+00  0.00000000000E+00  0.17155322138E+03  0.17155322145E+03  0.50400001928E-02 0. -1.
       -1   -1    0    0    0  501  0.00000000000E+00  0.00000000000E+00 -0.36419373097E+03  0.36419373101E+03  0.50400001928E-02 0.  1.
    10030    2    1    2    0    0  0.00000000000E+00  0.00000000000E+00 -0.19264050959E+03  0.53574695246E+03  0.49991442381E+03 0.  0.
        1    1    3    3  502    0 -0.35121665920E+02 -0.50787724018E+02 -0.35589121822E+03  0.36120836585E+03  0.50400001928E-02 0.  1.
       -1    1    3    3    0  502  0.35121665920E+02  0.50787724018E+02  0.16325070862E+03  0.17453858662E+03  0.50400001928E-02 0. -1.
</event>
<event>
 5   0  0.1227864E-02  0.5002416E+03  0.7818609E-02  0.1013716E+00
        1   -1    0    0  501    0  0.00000000000E+00  0.00000000000E+00  0.11789901080E+04  0.11789901080E+04  0.50400001928E-02 0. -1.
       -1   -1    0    0    0  501  0.00000000000E+00  0.00000000000E+00 -0.53062720257E+02  0.53062720496E+02  0.50400001928E-02 0.  1.
    10030    2    1    2    0    0  0.00000000000E+00  0.00000000000E+00  0.11259273877E+04  0.12320528285E+04  0.50024163137E+03 0.  0.
        5    1    3    3  502    0 -0.11821918283E+03 -0.16621774747E+03  0.20661278896E+03  0.29037053797E+03  0.46999998093E+01 0.  1.
       -5    1    3    3    0  502  0.11821918283E+03  0.16621774747E+03  0.91931459875E+03  0.94168229050E+03  0.46999998093E+01 0. -1.
</event>
<event>
 5   0  0.1967813E-02  0.5002424E+03  0.7818609E-02  0.1013716E+00
       -2   -1    0    0    0  501  0.00000000000E+00  0.00000000000E+00  0.30998174648E+02  0.30998174753E+02  0.25500000920E-02 0. -1.
        2   -1    0    0  501    0  0.00000000000E+00  0.00000000000E+00 -0.20182031073E+04  0.20182031073E+04  0.25500000920E-02 0.  1.
    10030    2    1    2    0    0  0.00000000000E+00  0.00000000000E+00 -0.19872049327E+04  0.20492012821E+04  0.50024239127E+03 0.  0.
        5    1    3    3  502    0 -0.18561231104E+02  0.24175138534E+03 -0.74274013913E+03  0.78132787988E+03  0.46999998093E+01 0. -1.
       -5    1    3    3    0  502  0.18561231104E+02 -0.24175138534E+03 -0.12444647935E+04  0.12678734022E+04  0.46999998093E+01 0.  1.
</event>
<event>
 5   0  0.1855407E-02  0.4983473E+03  0.7818609E-02  0.1014211E+00
       -2   -1    0    0    0  501  0.00000000000E+00  0.00000000000E+00  0.70691545442E+02  0.70691545488E+02  0.25500000920E-02 0. -1.
        2   -1    0    0  501    0  0.00000000000E+00  0.00000000000E+00 -0.87828760078E+03  0.87828760078E+03  0.25500000920E-02 0.  1.
    10030    2    1    2    0    0  0.00000000000E+00  0.00000000000E+00 -0.80759605534E+03  0.94897914627E+03  0.49834730004E+03 0.  0.
        1    1    3    3  502    0  0.31468259075E+02  0.11597052836E+03  0.11870670628E+02  0.12074902742E+03  0.50400001928E-02 0. -1.
       -1    1    3    3    0  502 -0.31468259075E+02 -0.11597052836E+03 -0.81946672596E+03  0.82823011885E+03  0.50400001928E-02 0.  1.
</event>
<event>
 5   0  0.1941387E-02  0.5003903E+03  0.7818609E-02  0.1013677E+00
        2   -1    0    0  501    0  0.00000000000E+00  0.00000000000E+00  0.22754546290E+03  0.22754546291E+03  0.25500000920E-02 0.  1.
       -2   -1    0    0    0  501  0.00000000000E+00  0.00000000000E+00 -0.27509941259E+03  0.27509941260E+03  0.25500000920E-02 0. -1.
    10030    2    1    2    0    0  0.00000000000E+00  0.00000000000E+00 -0.47553949693E+02  0.50264487551E+03  0.50039034038E+03 0.  0.
        4    1    3    3  502    0  0.17946965392E+03  0.96634042872E+02 -0.16951171007E+03  0.26511002937E+03  0.12699999809E+01 0. -1.
       -4    1    3    3    0  502 -0.17946965392E+03 -0.96634042872E+02  0.12195776038E+03  0.23753484615E+03  0.12699999809E+01 0.  1.
</event>
<event>
 5   0  0.1967813E-02  0.4863712E+03  0.7818609E-02  0.1017399E+00
       -2   -1    0    0    0  501  0.00000000000E+00  0.00000000000E+00  0.59637126900E+02  0.59637126954E+02  0.25500000920E-02 0.  1.
        2   -1    0    0  501    0  0.00000000000E+00  0.00000000000E+00 -0.99165147536E+03  0.99165147536E+03  0.25500000920E-02 0. -1.
    10030    2    1    2    0    0  0.00000000000E+00  0.00000000000E+00 -0.93201434846E+03  0.10512886023E+04  0.48637123643E+03 0.  0.
        5    1    3    3  502    0  0.13413654134E+02 -0.23081714110E+03 -0.62863251813E+03  0.66981893941E+03  0.46999998093E+01 0. -1.
       -5    1    3    3    0  502 -0.13413654134E+02  0.23081714110E+03 -0.30338183032E+03  0.38146966290E+03  0.46999998093E+01 0.  1.
</event>
<event>
 5   0  0.1209831E-02  0.4987562E+03  0.7818609E-02  0.1014104E+00
        1   -1    0    0  501    0  0.00000000000E+00  0.00000000000E+00  0.23670372160E+03  0.23670372166E+03  0.50400001928E-02 0. -1.
       -1   -1    0    0    0  501  0.00000000000E+00  0.00000000000E+00 -0.26273108230E+03  0.26273108235E+03  0.50400001928E-02 0.  1.
    10030    2    1    2    0    0  0.00000000000E+00  0.00000000000E+00 -0.26027360699E+02  0.49943480400E+03  0.49875615279E+03 0.  0.
        4    1    3    3  502    0  0.14643109651E+03  0.20108761382E+03 -0.30630732155E+02  0.25063549053E+03  0.12699999809E+01 0.  1.
       -4    1    3    3    0  502 -0.14643109651E+03 -0.20108761382E+03  0.46033714555E+01  0.24879931348E+03  0.12699999809E+01 0. -1.
</event>
<event>
 5   0  0.1855407E-02  0.5007547E+03  0.7818609E-02  0.1013582E+00
        2   -1    0    0  501    0  0.00000000000E+00  0.00000000000E+00  0.41893036995E+03  0.41893036996E+03  0.25500000920E-02 0. -1.
       -2   -1    0    0    0  501  0.00000000000E+00  0.00000000000E+00 -0.14964020243E+03  0.14964020245E+03  0.25500000920E-02 0.  1.
    10030    2    1    2    0    0  0.00000000000E+00  0.00000000000E+00  0.26929016752E+03  0.56857057241E+03  0.50075473186E+03 0.  0.
        1    1    3    3  502    0  0.25068694559E+02  0.13589023939E+03 -0.10242339645E+03  0.17200333943E+03  0.50400001928E-02 0.  1.
       -1    1    3    3    0  502 -0.25068694559E+02 -0.13589023939E+03  0.37171356397E+03  0.39656723298E+03  0.50400001928E-02 0. -1.
</event>
<event>
 5   0  0.8012875E-03  0.5004219E+03  0.7818609E-02  0.1013669E+00
        3   -1    0    0  501    0  0.00000000000E+00  0.00000000000E+00  0.41141615687E+02  0.41141739661E+02  0.10100000352E+00 0.  1.
       -3   -1    0    0    0  501  0.00000000000E+00  0.00000000000E+00 -0.15217057234E+04  0.15217057268E+04  0.10100000352E+00 0. -1.
    10030    2    1    2    0    0  0.00000000000E+00  0.00000000000E+00 -0.14805641077E+04  0.15628474664E+04  0.50042194819E+03 0.  0.
        3    1    3    3  502    0  0.52579078271E+02  0.14393103836E+03 -0.13580230290E+04  0.13666408676E+04  0.10100000352E+00 0. -1.
       -3    1    3    3    0  502 -0.52579078271E+02 -0.14393103836E+03 -0.12254107870E+03  0.19620659888E+03  0.10100000352E+00 0.  1.
</event>
<event>
 5   0  0.1209831E-02  0.5001820E+03  0.7818609E-02  0.1013731E+00
       -1   -1    0    0    0  501  0.00000000000E+00  0.00000000000E+00  0.35765965712E+02  0.35765966067E+02  0.50400001928E-02 0.  1.
        1   -1    0    0  501    0  0.00000000000E+00  0.00000000000E+00 -0.17487437799E+04  0.17487437799E+04  0.50400001928E-02 0. -1.
    10030    2    1    2    0    0  0.00000000000E+00  0.00000000000E+00 -0.17129778142E+04  0.17845097460E+04  0.50018200845E+03 0.  0.
        4    1    3    3  502    0 -0.20240524744E+03  0.11814308010E+03 -0.54508949944E+03  0.59333788592E+03  0.12699999809E+01 0.  1.
       -4    1    3    3    0  502  0.20240524744E+03 -0.11814308010E+03 -0.11678883148E+04  0.11911718601E+04  0.12699999809E+01 0. -1.
</event>
<event>
 5   0  0.1217270E-02  0.5015617E+03  0.7818609E-02  0.1013372E+00
        1   -1    0    0  501    0  0.00000000000E+00  0.00000000000E+00  0.75577264823E+03  0.75577264824E+03  0.50400001928E-02 0. -1.
       -1   -1    0    0    0  501  0.00000000000E+00  0.00000000000E+00 -0.83214212326E+02  0.83214212479E+02  0.50400001928E-02 0.  1.
    10030    2    1    2    0    0  0.00000000000E+00  0.00000000000E+00  0.67255843590E+03  0.83898686072E+03  0.50156166397E+03 0.  0.
        2    1    3    3  502    0  0.10156361195E+03  0.22742760189E+03  0.38512075303E+03  0.45864635155E+03  0.25500000920E-02 0. -1.
       -2    1    3    3    0  502 -0.10156361195E+03 -0.22742760189E+03  0.28743768287E+03  0.38034050917E+03  0.25500000920E-02 0.  1.
</event>
<event>
 5   0  0.8012875E-03  0.5003666E+03  0.7818609E-02  0.1013683E+00
        4   -1    0    0  501    0  0.00000000000E+00  0.00000000000E+00  0.23520420157E+03  0.23520763026E+03  0.12699999809E+01 0.  1.
       -4   -1    0    0    0  501  0.00000000000E+00  0.00000000000E+00 -0.26610942088E+03  0.26611245138E+03  0.12699999809E+01 0. -1.
    10030    2    1    2    0    0  0.00000000000E+00  0.00000000000E+00 -0.30905219311E+02  0.50132008164E+03  0.50036655731E+03 0.  0.
        2    1    3    3  502    0 -0.13455984796E+03  0.30213508141E+02 -0.22459057909E+03  0.26355291116E+03  0.25500000920E-02 0.  1.
       -2    1    3    3    0  502  0.13455984796E+03 -0.30213508141E+02  0.19368535978E+03  0.23776717048E+03  0.25500000920E-02 0. -1.
</event>
<event>
 5   0  0.1209831E-02  0.5002469E+03  0.7818609E-02  0.1013714E+00
        1   -1    0    0  501    0  0.00000000000E+00  0.00000000000E+00  0.98565414104E+02  0.98565414233E+02  0.50400001928E-02 0.  1.
       -1   -1    0    0    0  501  0.00000000000E+00  0.00000000000E+00 -0.63472307558E+03  0.63472307560E+03  0.50400001928E-02 0. -1.
    10030    2    1    2    0    0  0.00000000000E+00  0.00000000000E+00 -0.53615766147E+03  0.73328848983E+03  0.50024691040E+03 0.  0.
        4    1    3    3  502    0 -0.11664726911E+03  0.11795295939E+03 -0.54247401950E+03  0.56727344443E+03  0.12699999809E+01 0. -1.
       -4    1    3    3    0  502  0.11664726911E+03 -0.11795295939E+03  0.63163580267E+01  0.16601504540E+03  0.12699999809E+01 0.  1.
</event>
<event>
 5   0  0.1209831E-02  0.5002060E+03  0.7818609E-02  0.1013725E+00
       -1   -1    0    0    0  501  0.00000000000E+00  0.00000000000E+00  0.97767545496E+02  0.97767545626E+02  0.50400001928E-02 0.  1.
        1   -1    0    0  501    0  0.00000000000E+00  0.00000000000E+00 -0.63979828924E+03  0.63979828926E+03  0.50400001928E-02 0. -1.
    10030    2    1    2    0    0  0.00000000000E+00  0.00000000000E+00 -0.54203074374E+03  0.73756583488E+03  0.50020599119E+03 0.  0.
        4    1    3    3  502    0 -0.14195795865E+03 -0.18647630983E+03 -0.39976775896E+03  0.46340193155E+03  0.12699999809E+01 0. -1.
       -4    1    3    3    0  502  0.14195795865E+03  0.18647630983E+03 -0.14226298478E+03  0.27416390334E+03  0.12699999809E+01 0.  1.
</event>
<event>
 5   0  0.1941387E-02  0.5002151E+03  0.7818609E-02  0.1013723E+00
        2   -1    0    0  501    0  0.00000000000E+00  0.00000000000E+00  0.12624145754E+04  0.12624145754E+04  0.25500000920E-02 0.  1.
       -2   -1    0    0    0  501  0.00000000000E+00  0.00000000000E+00 -0.49550896933E+02  0.49550896999E+02  0.25500000920E-02 0. -1.
    10030    2    1    2    0    0  0.00000000000E+00  0.00000000000E+00  0.12128636784E+04  0.13119654724E+04  0.50021505197E+03 0.  0.
        4    1    3    3  502    0  0.21985754020E+02  0.14906471410E+03  0.82865599515E+02  0.17196506288E+03  0.12699999809E+01 0. -1.
       -4    1    3    3    0  502 -0.21985754020E+02 -0.14906471410E+03  0.11299980789E+04  0.11400004095E+04  0.12699999809E+01 0.  1.
</event>
<event>
 5   0  0.1941387E-02  0.5008672E+03  0.7818609E-02  0.1013553E+00
       -2   -1    0    0    0  501  0.00000000000E+00  0.00000000000E+00  0.42048588589E+03  0.42048588590E+03  0.25500000920E-02 0.  1.
        2   -1    0    0  501    0  0.00000000000E+00  0.00000000000E+00 -0.14915361528E+03  0.14915361530E+03  0.25500000920E-02 0. -1.
    10030    2    1    2    0    0  0.00000000000E+00  0.00000000000E+00  0.27133227061E+03  0.56963950120E+03  0.50086720820E+03 0.  0.
        4    1    3    3  502    0 -0.13434192629E+02 -0.15630829869E+03  0.35766711533E+03  0.39056387449E+03  0.12699999809E+01 0. -1.
       -4    1    3    3    0  502  0.13434192629E+02  0.15630829869E+03 -0.86334844712E+02  0.17907562671E+03  0.12699999809E+01 0.  1.
</event>
<event>
 5   0  0.1225989E-02  0.5022963E+03  0.7818609E-02  0.1013181E+00
       -1   -1    0    0    0  501  0.00000000000E+00  0.00000000000E+00  0.10361687672E+03  0.10361687684E+03  0.50400001928E-02 0.  1.
        1   -1    0    0  501    0  0.00000000000E+00  0.00000000000E+00 -0.60873677861E+03  0.60873677863E+03  0.50400001928E-02 0. -1.
    10030    2    1    2    0    0  0.00000000000E+00  0.00000000000E+00 -0.50511990189E+03  0.71235365547E+03  0.50229634199E+03 0.  0.
        3    1    3    3  502    0  0.20054212874E+03 -0.15089664624E+03 -0.26589778824E+03  0.36563449951E+03  0.10100000352E+00 0.  1.
       -3    1    3    3    0  502 -0.20054212874E+03  0.15089664624E+03 -0.23922211366E+03  0.34671915596E+03  0.10100000352E+00 0. -1.
</event>
<event>
 5   0  0.1982847E-02  0.5004448E+03  0.7818609E-02  0.1013663E+00
        2   -1    0    0  501    0  0.00000000000E+00  0.00000000000E+00  0.96136181224E+03  0.96136181225E+03  0.25500000920E-02 0.  1.
       -2   -1    0    0    0  501  0.00000000000E+00  0.00000000000E+00 -0.65127653090E+02  0.65127653140E+02  0.25500000920E-02 0. -1.
    10030    2    1    2    0    0  0.00000000000E+00  0.00000000000E+00  0.89623415915E+03  0.10264894654E+04  0.50044475671E+03 0.  0.
        2    1    3    3  502    0  0.12276542044E+03 -0.17499316366E+03  0.71490346220E+03  0.74617753655E+03  0.25500000920E-02 0.  1.
       -2    1    3    3    0  502 -0.12276542044E+03  0.17499316366E+03  0.18133069695E+03  0.28031192883E+03  0.25500000920E-02 0. -1.
</event>
<event>
 5   0  0.1227864E-02  0.4998420E+03  0.7818609E-02  0.1013820E+00
       -1   -1    0    0    0  501  0.00000000000E+00  0.00000000000E+00  0.17302502604E+03  0.17302502611E+03  0.50400001928E-02 0. -1.
        1   -1    0    0  501    0  0.00000000000E+00  0.00000000000E+00 -0.36099123352E+03  0.36099123356E+03  0.50400001928E-02 0.  1.
    10030    2    1    2    0    0  0.00000000000E+00  0.00000000000E+00 -0.18796620748E+03  0.53401625967E+03  0.49984204549E+03 0.  0.
        5    1    3    3  502    0  0.58360669219E+02  0.33033464437E+02 -0.35115033318E+03  0.35752737514E+03  0.46999998093E+01 0.  1.
       -5    1    3    3    0  502 -0.58360669219E+02 -0.33033464437E+02  0.16318412570E+03  0.17648888453E+03  0.46999998093E+01 0. -1.
</event>
<event>
 5   0  0.1855407E-02  0.5003479E+03  0.7818609E-02  0.1013688E+00
       -2   -1    0    0    0  501  0.00000000000E+00  0.00000000000E+00  0.15362238334E+03  0.15362238336E+03  0.25500000920E-02 0.  1.
        2   -1    0    0  501    0  0.00000000000E+00  0.00000000000E+00 -0.40740808842E+03  0.40740808843E+03  0.25500000920E-02 0. -1.
    10030    2    1    2    0    0  0.00000000000E+00  0.00000000000E+00 -0.25378570508E+03  0.56103047178E+03  0.50034788514E+03 0.  0.
        1    1    3    3  502    0  0.14939588150E+03  0.22241125781E+01  0.98099131292E+02  0.17873867984E+03  0.50400001928E-02 0.  1.
       -1    1    3    3    0  502 -0.14939588150E+03 -0.22241125781E+01 -0.35188483638E+03  0.38229179194E+03  0.50400001928E-02 0. -1.
</event>
<event>
 5   0  0.1941387E-02  0.5001644E+03  0.7818609E-02  0.1013736E+00
        2   -1    0    0  501    0  0.00000000000E+00  0.00000000000E+00  0.31480665663E+03  0.31480665664E+03  0.25500000920E-02 0. -1.
       -2   -1    0    0    0  501  0.00000000000E+00  0.00000000000E+00 -0.19866513469E+03  0.19866513471E+03  0.25500000920E-02 0.  1.
    10030    2    1    2    0    0  0.00000000000E+00  0.00000000000E+00  0.11614152194E+03  0.51347179135E+03  0.50016440036E+03 0.  0.
        4    1    3    3  502    0  0.73276771713E+02 -0.97911198627E+02  0.28201070976E+03  0.30738858373E+03  0.12699999809E+01 0. -1.
       -4    1    3    3    0  502 -0.73276771713E+02  0.97911198627E+02 -0.16586918783E+03  0.20608320761E+03  0.12699999809E+01 0.  1.
</event>
<event>
 5   0  0.1225989E-02  0.5005201E+03  0.7818609E-02  0.1013643E+00
       -1   -1    0    0    0  501  0.00000000000E+00  0.00000000000E+00  0.14749876398E+03  0.14749876407E+03  0.50400001928E-02 0. -1.
        1   -1    0    0  501    0  0.00000000000E+00  0.00000000000E+00 -0.42461438139E+03  0.42461438142E+03  0.50400001928E-02 0.  1.
    10030    2    1    2    0    0  0.00000000000E+00  0.00000000000E+00 -0.27711561741E+03  0.57211314549E+03  0.50052011531E+03 0.  0.
        3    1    3    3  502    0  0.39725717330E+02 -0.22932227413E+03 -0.24371256717E+03  0.33699059873E+03  0.10100000352E+00 0.  1.
       -3    1    3    3    0  502 -0.39725717330E+02  0.22932227413E+03 -0.33403050236E+02  0.23512254676E+03  0.10100000352E+00 0. -1.
</event>
<event>
 5   0  0.1941387E-02  0.5000169E+03  0.7818609E-02  0.1013775E+00
        2   -1    0    0  501    0  0.00000000000E+00  0.00000000000E+00  0.81478284467E+03  0.81478284468E+03  0.25500000920E-02 0. -1.
       -2   -1    0    0    0  501  0.00000000000E+00  0.00000000000E+00 -0.76712743800E+02  0.76712743842E+02  0.25500000920E-02 0.  1.
    10030    2    1    2    0    0  0.00000000000E+00  0.00000000000E+00  0.73807010088E+03  0.89149558852E+03  0.50001691026E+03 0.  0.
        4    1    3    3  502    0 -0.10267086891E+03  0.30510851125E+02 -0.33727398546E+02  0.11230035472E+03  0.12699999809E+01 0.  1.
       -4    1    3    3    0  502  0.10267086891E+03 -0.30510851125E+02  0.77179749942E+03  0.77919523380E+03  0.12699999809E+01 0. -1.
</event>
<event>
 5   0  0.1967813E-02  0.4999555E+03  0.7818609E-02  0.1013791E+00
       -2   -1    0    0    0  501  0.00000000000E+00  0.00000000000E+00  0.20546998982E+03  0.20546998983E+03  0.25500000920E-02 0.  1.
        2   -1    0    0  501    0  0.00000000000E+00  0.00000000000E+00 -0.30412647392E+03  0.30412647393E+03  0.25500000920E-02 0. -1.
    10030    2    1    2    0    0  0.00000000000E+00  0.00000000000E+00 -0.98656484101E+02  0.50959646376E+03  0.49995545204E+03 0.  0.
        5    1    3    3  502    0 -0.80912418352E+02 -0.23631817818E+03 -0.58077041660E+02  0.25649197560E+03  0.46999998093E+01 0. -1.
       -5    1    3    3    0  502  0.80912418352E+02  0.23631817818E+03 -0.40579442441E+02  0.25310448816E+03  0.46999998093E+01 0.  1.
</event>
<event>
 5   0  0.1855407E-02  0.4989743E+03  0.7818609E-02  0.1014047E+00
       -2   -1    0    0    0  501  0.00000000000E+00  0.00000000000E+00  0.12687206429E+03  0.12687206432E+03  0.25500000920E-02 0. -1.
        2   -1    0    0  501    0  0.00000000000E+00  0.00000000000E+00 -0.49060310986E+03  0.49060310987E+03  0.25500000920E-02 0.  1.
    10030    2    1    2    0    0  0.00000000000E+00  0.00000000000E+00 -0.36373104557E+03  0.61747517418E+03  0.49897426509E+03 0.  0.
        1    1    3    3  502    0  0.11672713819E+02  0.16242412292E+02  0.12587826930E+03  0.12745747100E+03  0.50400001928E-02 0. -1.
       -1    1    3    3    0  502 -0.11672713819E+02 -0.16242412292E+02 -0.48960931487E+03  0.49001770319E+03  0.50400001928E-02 0.  1.
</event>
<event>
 5   0  0.1209831E-02  0.5006241E+03  0.7818609E-02  0.1013616E+00
       -1   -1    0    0    0  501  0.00000000000E+00  0.00000000000E+00  0.13366907963E+03  0.13366907972E+03  0.50400001928E-02 0. -1.
        1   -1    0    0  501    0  0.00000000000E+00  0.00000000000E+00 -0.46874055437E+03  0.46874055440E+03  0.50400001928E-02 0.  1.
    10030    2    1    2    0    0  0.00000000000E+00  0.00000000000E+00 -0.33507147475E+03  0.60240963412E+03  0.50062408461E+03 0.  0.
        4    1    3    3  502    0  0.33302369259E+02 -0.20521301592E+03 -0.33528126235E+03  0.39450800687E+03  0.12699999809E+01 0.  1.
       -4    1    3    3    0  502 -0.33302369259E+02  0.20521301592E+03  0.20978760248E+00  0.20790162725E+03  0.12699999809E+01 0. -1.
</event>
<event>
 5   0  0.1855407E-02  0.4991064E+03  0.7818609E-02  0.1014012E+00
        2   -1    0    0  501    0  0.00000000000E+00  0.00000000000E+00  0.65619222715E+03  0.65619222716E+03  0.25500000920E-02 0.  1.
       -2   -1    0    0    0  501  0.00000000000E+00  0.00000000000E+00 -0.94906317662E+02  0.94906317696E+02  0.25500000920E-02 0. -1.
    10030    2    1    2    0    0  0.00000000000E+00  0.00000000000E+00  0.56128590949E+03  0.75109854485E+03  0.49910635328E+03 0.  0.
        1    1    3    3  502    0 -0.18666811230E+03  0.16053438866E+03  0.21931971732E+03  0.32972323625E+03  0.50400001928E-02 0.  1.
       -1    1    3    3    0  502  0.18666811230E+03 -0.16053438866E+03  0.34196619217E+03  0.42137530861E+03  0.50400001928E-02 0. -1.
</event>
<event>
 5   0  0.1217270E-02  0.4986275E+03  0.7818609E-02  0.1014138E+00
       -1   -1    0    0    0  501  0.00000000000E+00  0.00000000000E+00  0.19171708512E+03  0.19171708518E+03  0.50400001928E-02 0. -1.
        1   -1    0    0  501    0  0.00000000000E+00  0.00000000000E+00 -0.32421388846E+03  0.32421388850E+03  0.50400001928E-02 0.  1.
    10030    2    1    2    0    0  0.00000000000E+00  0.00000000000E+00 -0.13249680334E+03  0.51593097368E+03  0.49862748291E+03 0.  0.
        2    1    3    3  502    0  0.11042511544E+03 -0.13286559593E+03 -0.25223701145E+03  0.30572942719E+03  0.25500000920E-02 0.  1.
       -2    1    3    3    0  502 -0.11042511544E+03  0.13286559593E+03  0.11974020811E+03  0.21020154649E+03  0.25500000920E-02 0. -1.
</event>
<event>
 5   0  0.1923706E-02  0.5002681E+03  0.7818609E-02  0.1013709E+00
        2   -1    0    0  501    0  0.00000000000E+00  0.00000000000E+00  0.95240873473E+03  0.95240873474E+03  0.25500000920E-02 0.  1.
       -2   -1    0    0    0  501  0.00000000000E+00  0.00000000000E+00 -0.65693477033E+02  0.65693477083E+02  0.25500000920E-02 0. -1.
    10030    2    1    2    0    0  0.00000000000E+00  0.00000000000E+00  0.88671525770E+03  0.10181022118E+04  0.50026809360E+03 0.  0.
        3    1    3    3  502    0  0.97930535607E+02 -0.22673230927E+02  0.90949437473E+03  0.91503250929E+03  0.10100000352E+00 0.  1.
       -3    1    3    3    0  502 -0.97930535607E+02  0.22673230927E+02 -0.22779117028E+02  0.10306970252E+03  0.10100000352E+00 0. -1.
</event>
<event>
 5   0  0.8012875E-03  0.4995277E+03  0.7818609E-02  0.1013902E+00
        3   -1    0    0  501    0  0.00000000000E+00  0.00000000000E+00  0.15293505889E+03  0.15293509224E+03  0.10100000352E+00 0.  1.
       -3   -1    0    0    0  501  0.00000000000E+00  0.00000000000E+00 -0.40789844855E+03  0.40789846105E+03  0.10100000352E+00 0. -1.
    10030    2    1    2    0    0  0.00000000000E+00  0.00000000000E+00 -0.25496338966E+03  0.56083355329E+03  0.49952772139E+03 0.  0.
        3    1    3    3  502    0  0.21461161324E+02 -0.14270871957E+03 -0.35635189809E+03  0.38446462199E+03  0.10100000352E+00 0. -1.
       -3    1    3    3    0  502 -0.21461161324E+02  0.14270871957E+03  0.10138850843E+03  0.17636893131E+03  0.10100000352E+00 0.  1.
</event>
<event>
 5   0  0.1209831E-02  0.4992662E+03  0.7818609E-02  0.1013971E+00
       -1   -1    0    0    0  501  0.00000000000E+00  0.00000000000E+00  0.21350675308E+02  0.21350675903E+02  0.50400001928E-02 0.  1.
        1   -1    0    0  501    0  0.00000000000E+00  0.00000000000E+00 -0.29187221861E+04  0.29187221861E+04  0.50400001928E-02 0. -1.
    10030    2    1    2    0    0  0.00000000000E+00  0.00000000000E+00 -0.28973715108E+04  0.29400728620E+04  0.49926622393E+03 0.  0.
        4    1    3    3  502    0  0.10544934776E+03 -0.21699552015E+03 -0.10712306716E+04  0.10980634705E+04  0.12699999809E+01 0. -1.
       -4    1    3    3    0  502 -0.10544934776E+03  0.21699552015E+03 -0.18261408392E+04  0.18420093914E+04  0.12699999809E+01 0.  1.
</event>
<event>
 5   0  0.1209831E-02  0.4965080E+03  0.7818609E-02  0.1014694E+00
        1   -1    0    0  501    0  0.00000000000E+00  0.00000000000E+00  0.76081481220E+03  0.76081481222E+03  0.50400001928E-02 0.  1.
       -1   -1    0    0    0  501  0.00000000000E+00  0.00000000000E+00 -0.81005320315E+02  0.81005320472E+02  0.50400001928E-02 0. -1.
    10030    2    1    2    0    0  0.00000000000E+00  0.00000000000E+00  0.67980949188E+03  0.84182013269E+03  0.49650799645E+03 0.  0.
        4    1    3    3  502    0 -0.16674019150E+02 -0.18315071954E+03  0.57179830530E+02  0.19259635225E+03  0.12699999809E+01 0. -1.
       -4    1    3    3    0  502  0.16674019150E+02  0.18315071954E+03  0.62262966135E+03  0.64922378043E+03  0.12699999809E+01 0.  1.
</event>
<event>
 5   0  0.1855407E-02  0.5001062E+03  0.7818609E-02  0.1013751E+00
        2   -1    0    0  501    0  0.00000000000E+00  0.00000000000E+00  0.64967668021E+03  0.64967668022E+03  0.25500000920E-02 0.  1.
       -2   -1    0    0    0  501  0.00000000000E+00  0.00000000000E+00 -0.96242555013E+02  0.96242555047E+02  0.25500000920E-02 0. -1.
    10030    2    1    2    0    0  0.00000000000E+00  0.00000000000E+00  0.55343412520E+03  0.74591923526E+03  0.50010616333E+03 0.  0.
        1    1    3    3  502    0 -0.14690677138E+03  0.12360385945E+03  0.51567277083E+03  0.55025259667E+03  0.50400001928E-02 0.  1.
       -1    1    3    3    0  502  0.14690677138E+03 -0.12360385945E+03  0.37761354371E+02  0.19566663859E+03  0.50400001928E-02 0. -1.
</event>
<event>
 5   0  0.1941387E-02  0.5001219E+03  0.7818609E-02  0.1013747E+00
       -2   -1    0    0    0  501  0.00000000000E+00  0.00000000000E+00  0.29240294408E+03  0.29240294409E+03  0.25500000920E-02 0. -1.
        2   -1    0    0  501    0  0.00000000000E+00  0.00000000000E+00 -0.21385034517E+03  0.21385034519E+03  0.25500000920E-02 0.  1.
    10030    2    1    2    0    0  0.00000000000E+00  0.00000000000E+00  0.78552598901E+02  0.50625328928E+03  0.50012186726E+03 0.  0.
        4    1    3    3  502    0 -0.42584401943E+02  0.23079881216E+03 -0.48079642017E+02  0.23957209324E+03  0.12699999809E+01 0.  1.
       -4    1    3    3    0  502  0.42584401943E+02 -0.23079881216E+03  0.12663224092E+03  0.26668119604E+03  0.12699999809E+01 0. -1.
</event>
<event>
 5   0  0.1227864E-02  0.5138452E+03  0.7818609E-02  0.1010227E+00
        1   -1    0    0  501    0  0.00000000000E+00  0.00000000000E+00  0.21279115872E+04  0.21279115872E+04  0.50400001928E-02 0. -1.
       -1   -1    0    0    0  501  0.00000000000E+00  0.00000000000E+00 -0.31020657717E+02  0.31020658127E+02  0.50400001928E-02 0.  1.
    10030    2    1    2    0    0  0.00000000000E+00  0.00000000000E+00  0.20968909295E+04  0.21589322453E+04  0.51384518076E+03 0.  0.
        5    1    3    3  502    0 -0.27733970864E+01  0.93893724197E+02  0.43908858485E+02  0.10379692205E+03  0.46999998093E+01 0.  1.
       -5    1    3    3    0  502  0.27733970864E+01 -0.93893724197E+02  0.20529820710E+04  0.20551353233E+04  0.46999998093E+01 0. -1.
</event>
<event>
 5   0  0.1855407E-02  0.4999077E+03  0.7818609E-02  0.1013803E+00
       -2   -1    0    0    0  501  0.00000000000E+00  0.00000000000E+00  0.86849745636E+02  0.86849745673E+02  0.25500000920E-02 0.  1.
        2   -1    0    0  501    0  0.00000000000E+00  0.00000000000E+00 -0.71936811172E+03  0.71936811172E+03  0.25500000920E-02 0. -1.
    10030    2    1    2    0    0  0.00000000000E+00  0.00000000000E+00 -0.63251836608E+03  0.80621785740E+03  0.49990774164E+03 0.  0.
        1    1    3    3  502    0  0.15061315926E+03 -0.50369234108E+02 -0.49742759254E+01  0.15889029843E+03  0.50400001928E-02 0.  1.
       -1    1    3    3    0  502 -0.15061315926E+03  0.50369234108E+02 -0.62754409016E+03  0.64732755897E+03  0.50400001928E-02 0. -1.
</event>
<event>
 5   0  0.1923706E-02  0.5009038E+03  0.7818609E-02  0.1013543E+00
       -2   -1    0    0    0  501  0.00000000000E+00  0.00000000000E+00  0.75936169976E+02  0.75936170019E+02  0.25500000920E-02 0.  1.
        2   -1    0    0  501    0  0.00000000000E+00  0.00000000000E+00 -0.82603806134E+03  0.82603806135E+03  0.25500000920E-02 0. -1.
    10030    2    1    2    0    0  0.00000000000E+00  0.00000000000E+00 -0.75010189137E+03  0.90197423137E+03  0.50090384967E+03 0.  0.
        3    1    3    3  502    0 -0.49722120954E+02  0.18052538706E+03 -0.75548209113E+02  0.20191395887E+03  0.10100000352E+00 0.  1.
       -3    1    3    3    0  502  0.49722120954E+02 -0.18052538706E+03 -0.67455368226E+03  0.70006027250E+03  0.10100000352E+00 0. -1.
</event>
<event>
 5   0  0.1209831E-02  0.4992134E+03  0.7818609E-02  0.1013984E+00
        1   -1    0    0  501    0  0.00000000000E+00  0.00000000000E+00  0.11938149889E+04  0.11938149889E+04  0.50400001928E-02 0.  1.
       -1   -1    0    0    0  501  0.00000000000E+00  0.00000000000E+00 -0.52188586167E+02  0.52188586410E+02  0.50400001928E-02 0. -1.
    10030    2    1    2    0    0  0.00000000000E+00  0.00000000000E+00  0.11416264027E+04  0.12460035753E+04  0.49921344763E+03 0.  0.
        4    1    3    3  502    0 -0.47704785556E+02  0.24477964161E+03  0.54474483235E+03  0.59911715448E+03  0.12699999809E+01 0. -1.
       -4    1    3    3    0  502  0.47704785556E+02 -0.24477964161E+03  0.59688157037E+03  0.64688642083E+03  0.12699999809E+01 0.  1.
</event>
<event>
 5   0  0.1209831E-02  0.4995755E+03  0.7818609E-02  0.1013890E+00
       -1   -1    0    0    0  501  0.00000000000E+00  0.00000000000E+00  0.38871756601E+02  0.38871756928E+02  0.50400001928E-02 0. -1.
        1   -1    0    0  501    0  0.00000000000E+00  0.00000000000E+00 -0.16051221359E+04  0.16051221359E+04  0.50400001928E-02 0.  1.
    10030    2    1    2    0    0  0.00000000000E+00  0.00000000000E+00 -0.15662503793E+04  0.16439938929E+04  0.49957548882E+03 0.  0.
        4    1    3    3  502    0 -0.44007512125E+02  0.15353510248E+03 -0.15113558664E+03  0.21989376359E+03  0.12699999809E+01 0. -1.
       -4    1    3    3    0  502  0.44007512125E+02 -0.15353510248E+03 -0.14151147927E+04  0.14241001293E+04  0.12699999809E+01 0.  1.
</event>
<event>
 5   0  0.1180937E-02  0.5009133E+03  0.7818609E-02  0.1013541E+00
        1   -1    0    0  501    0  0.00000000000E+00  0.00000000000E+00  0.39059213685E+03  0.39059213688E+03  0.50400001928E-02 0.  1.
       -1   -1    0    0    0  501  0.00000000000E+00  0.00000000000E+00 -0.16059854527E+03  0.16059854535E+03  0.50400001928E-02 0. -1.
    10030    2    1    2    0    0  0.00000000000E+00  0.00000000000E+00  0.22999359158E+03  0.55119068223E+03  0.50091328192E+03 0.  0.
        1    1    3    3  502    0 -0.24200863339E+03  0.64334479326E+02  0.12009011471E+03  0.27772061418E+03  0.50400001928E-02 0.  1.
       -1    1    3    3    0  502  0.24200863339E+03 -0.64334479326E+02  0.10990347687E+03  0.27347006805E+03  0.50400001928E-02 0. -1.
</event>
<event>
 5   0  0.1225989E-02  0.4996605E+03  0.7818609E-02  0.1013868E+00
       -1   -1    0    0    0  501  0.00000000000E+00  0.00000000000E+00  0.37831060083E+02  0.37831060419E+02  0.50400001928E-02 0. -1.
        1   -1    0    0  501    0  0.00000000000E+00  0.00000000000E+00 -0.16498385723E+04  0.16498385723E+04  0.50400001928E-02 0.  1.
    10030    2    1    2    0    0  0.00000000000E+00  0.00000000000E+00 -0.16120075123E+04  0.16876696328E+04  0.49966045450E+03 0.  0.
        3    1    3    3  502    0  0.20667891630E+03 -0.57385615616E+02 -0.37337855794E+03  0.43060520324E+03  0.10100000352E+00 0. -1.
       -3    1    3    3    0  502 -0.20667891630E+03  0.57385615616E+02 -0.12386289543E+04  0.12570644295E+04  0.10100000352E+00 0.  1.
</event>
<event>
 5   0  0.8012875E-03  0.5010703E+03  0.7818609E-02  0.1013500E+00
       -3   -1    0    0    0  501  0.00000000000E+00  0.00000000000E+00  0.44058925668E+03  0.44058926826E+03  0.10100000352E+00 0. -1.
        3   -1    0    0  501    0  0.00000000000E+00  0.00000000000E+00 -0.14246343749E+03  0.14246347329E+03  0.10100000352E+00 0.  1.
    10030    2    1    2    0    0  0.00000000000E+00  0.00000000000E+00  0.29812581919E+03  0.58305274155E+03  0.50107034971E+03 0.  0.
        1    1    3    3  502    0  0.18945225772E+03  0.16374003286E+03  0.15843831438E+03  0.29632019135E+03  0.50400001928E-02 0.  1.
       -1    1    3    3    0  502 -0.18945225772E+03 -0.16374003286E+03  0.13968750481E+03  0.28673255020E+03  0.50400001928E-02 0. -1.
</event>
<event>
 5   0  0.1227864E-02  0.4989480E+03  0.7818609E-02  0.1014054E+00
       -1   -1    0    0    0  501  0.00000000000E+00  0.00000000000E+00  0.45077146212E+03  0.45077146214E+03  0.50400001928E-02 0.  1.
        1   -1    0    0  501    0  0.00000000000E+00  0.00000000000E+00 -0.13806833864E+03  0.13806833874E+03  0.50400001928E-02 0. -1.
    10030    2    1    2    0    0  0.00000000000E+00  0.00000000000E+00  0.31270312347E+03  0.58883980088E+03  0.49894796088E+03 0.  0.
        5    1    3    3  502    0 -0.10548127903E+03 -0.11759600954E+03 -0.71453648222E+02  0.17344404149E+03  0.46999998093E+01 0. -1.
       -5    1    3    3    0  502  0.10548127903E+03  0.11759600954E+03  0.38415677169E+03  0.41539575939E+03  0.46999998093E+01 0.  1.
</event>
<event>
 5   0  0.1225989E-02  0.4958798E+03  0.7818609E-02  0.1014860E+00
       -1   -1    0    0    0  501  0.00000000000E+00  0.00000000000E+00  0.23327801697E+03  0.23327801702E+03  0.50400001928E-02 0. -1.
        1   -1    0    0  501    0  0.00000000000E+00  0.00000000000E+00 -0.26352330834E+03  0.26352330838E+03  0.50400001928E-02 0.  1.
    10030    2    1    2    0    0  0.00000000000E+00  0.00000000000E+00 -0.30245291369E+02  0.49680132540E+03  0.49587980325E+03 0.  0.
        3    1    3    3  502    0 -0.15546713081E+03  0.42037684673E+02 -0.20398553918E+03  0.25989864580E+03  0.10100000352E+00 0.  1.
       -3    1    3    3    0  502  0.15546713081E+03 -0.42037684673E+02  0.17374024781E+03  0.23690267960E+03  0.10100000352E+00 0. -1.
</event>
<event>
 5   0  0.1941387E-02  0.4992134E+03  0.7818609E-02  0.1013984E+00
        2   -1    0    0  501    0  0.00000000000E+00  0.00000000000E+00  0.28944464871E+03  0.28944464873E+03  0.25500000920E-02 0.  1.
       -2   -1    0    0    0  501  0.00000000000E+00  0.00000000000E+00 -0.21525185283E+03  0.21525185284E+03  0.25500000920E-02 0. -1.
    10030    2    1    2    0    0  0.00000000000E+00  0.00000000000E+00  0.74192795888E+02  0.50469650157E+03  0.49921336894E+03 0.  0.
        4    1    3    3  502    0  0.10023927279E+03 -0.43515071920E+02  0.26397248269E+03  0.28570011868E+03  0.12699999809E+01 0.  1.
       -4    1    3    3    0  502 -0.10023927279E+03  0.43515071920E+02 -0.18977968680E+03  0.21899638289E+03  0.12699999809E+01 0. -1.
</event>
<event>
 5   0  0.1855407E-02  0.5007617E+03  0.7818609E-02  0.1013580E+00
        2   -1    0    0  501    0  0.00000000000E+00  0.00000000000E+00  0.54215376112E+03  0.54215376113E+03  0.25500000920E-02 0.  1.
       -2   -1    0    0    0  501  0.00000000000E+00  0.00000000000E+00 -0.11563247101E+03  0.11563247104E+03  0.25500000920E-02 0. -1.
    10030    2    1    2    0    0  0.00000000000E+00  0.00000000000E+00  0.42652129011E+03  0.65778623217E+03  0.50076173607E+03 0.  0.
        1    1    3    3  502    0 -0.17322482686E+03  0.16574767013E+03  0.11843346018E+03  0.26740533897E+03  0.50400001928E-02 0. -1.
       -1    1    3    3    0  502  0.17322482686E+03 -0.16574767013E+03  0.30808782993E+03  0.39038089319E+03  0.50400001928E-02 0.  1.
</event>
<event>
 5   0  0.1217270E-02  0.4995045E+03  0.7818609E-02  0.1013908E+00
       -1   -1    0    0    0  501  0.00000000000E+00  0.00000000000E+00  0.10507213867E+03  0.10507213879E+03  0.50400001928E-02 0. -1.
        1   -1    0    0  501    0  0.00000000000E+00  0.00000000000E+00 -0.59365114567E+03  0.59365114569E+03  0.50400001928E-02 0.  1.
    10030    2    1    2    0    0  0.00000000000E+00  0.00000000000E+00 -0.48857900700E+03  0.69872328448E+03  0.49950453671E+03 0.  0.
        2    1    3    3  502    0  0.18619417811E+03 -0.16579854005E+03 -0.22359965177E+03  0.33489435964E+03  0.25500000920E-02 0. -1.
       -2    1    3    3    0  502 -0.18619417811E+03  0.16579854005E+03 -0.26497935523E+03  0.36382892484E+03  0.25500000920E-02 0.  1.
</event>
<event>
 5   0  0.1967813E-02  0.4993664E+03  0.7818609E-02  0.1013944E+00
       -2   -1    0    0    0  501  0.00000000000E+00  0.00000000000E+00  0.15087265768E+03  0.15087265770E+03  0.25500000920E-02 0.  1.
        2   -1    0    0  501    0  0.00000000000E+00  0.00000000000E+00 -0.41320734999E+03  0.41320735000E+03  0.25500000920E-02 0. -1.
    10030    2    1    2    0    0  0.00000000000E+00  0.00000000000E+00 -0.26233469232E+03  0.56408000770E+03  0.49936636280E+03 0.  0.
        5    1    3    3  502    0 -0.43451097201E+02 -0.14280906214E+03  0.94855914430E+02  0.17692416618E+03  0.46999998093E+01 0.  1.
       -5    1    3    3    0  502  0.43451097201E+02  0.14280906214E+03 -0.35719060675E+03  0.38715584152E+03  0.46999998093E+01 0. -1.
</event>
<event>
 5   0  0.8012875E-03  0.5117727E+03  0.7818609E-02  0.1010751E+00
       -3   -1    0    0    0  501  0.00000000000E+00  0.00000000000E+00  0.73734297198E+02  0.73734366372E+02  0.10100000352E+00 0.  1.
        3   -1    0    0  501    0  0.00000000000E+00  0.00000000000E+00 -0.88802364309E+03  0.88802364883E+03  0.10100000352E+00 0. -1.
    10030    2    1    2    0    0  0.00000000000E+00  0.00000000000E+00 -0.81428934589E+03  0.96175801521E+03  0.51177274349E+03 0.  0.
        4    1    3    3  502    0 -0.39320244752E+02  0.13700821385E+03 -0.80650074463E+03  0.81900085244E+03  0.12699999809E+01 0. -1.
       -4    1    3    3    0  502  0.39320244752E+02 -0.13700821385E+03 -0.77886012610E+01  0.14275716276E+03  0.12699999809E+01 0.  1.
</event>
<event>
 5   0  0.8012875E-03  0.4998443E+03  0.7818609E-02  0.1013820E+00
       -3   -1    0    0    0  501  0.00000000000E+00  0.00000000000E+00  0.72090569773E+02  0.72090640524E+02  0.10100000352E+00 0. -1.
        3   -1    0    0  501    0  0.00000000000E+00  0.00000000000E+00 -0.86642463996E+03  0.86642464585E+03  0.10100000352E+00 0.  1.
    10030    2    1    2    0    0  0.00000000000E+00  0.00000000000E+00 -0.79433407019E+03  0.93851528637E+03  0.49984430345E+03 0.  0.
        4    1    3    3  502    0  0.36515683091E+02 -0.24613038915E+03 -0.35329726907E+03  0.43212745436E+03  0.12699999809E+01 0. -1.
       -4    1    3    3    0  502 -0.36515683091E+02  0.24613038915E+03 -0.44103680112E+03  0.50638783202E+03  0.12699999809E+01 0.  1.
</event>
<event>
 5   0  0.1217270E-02  0.4993142E+03  0.7818609E-02  0.1013958E+00
        1   -1    0    0  501    0  0.00000000000E+00  0.00000000000E+00  0.99030439897E+03  0.99030439898E+03  0.50400001928E-02 0. -1.
       -1   -1    0    0    0  501  0.00000000000E+00  0.00000000000E+00 -0.62938890156E+02  0.62938890358E+02  0.50400001928E-02 0.  1.
    10030    2    1    2    0    0  0.00000000000E+00  0.00000000000E+00  0.92736550881E+03  0.10532432893E+04  0.49931416924E+03 0.  0.
        2    1    3    3  502    0 -0.14271420498E+03 -0.20122598257E+03  0.38282387573E+03  0.45542656949E+03  0.25500000920E-02 0.  1.
       -2    1    3    3    0  502  0.14271420498E+03  0.20122598257E+03  0.54454163309E+03  0.59781671985E+03  0.25500000920E-02 0. -1.
</event>
<event>
 5   0  0.1982847E-02  0.5011507E+03  0.7818609E-02  0.1013479E+00
        2   -1    0    0  501    0  0.00000000000E+00  0.00000000000E+00  0.13878893701E+04  0.13878893701E+04  0.25500000920E-02 0.  1.
       -2   -1    0    0    0  501  0.00000000000E+00  0.00000000000E+00 -0.45239924627E+02  0.45239924699E+02  0.25500000920E-02 0. -1.
    10030    2    1    2    0    0  0.00000000000E+00  0.00000000000E+00  0.13426494455E+04  0.14331292948E+04  0.50115071803E+03 0.  0.
        2    1    3    3  502    0 -0.21964592818E+03  0.78071010267E+02  0.93417548460E+03  0.96282046740E+03  0.25500000920E-02 0.  1.
       -2    1    3    3    0  502  0.21964592818E+03 -0.78071010267E+02  0.40847396087E+03  0.47030882739E+03  0.25500000920E-02 0. -1.
</event>
<event>
 5   0  0.1923706E-02  0.5010480E+03  0.7818609E-02  0.1013506E+00
        2   -1    0    0  501    0  0.00000000000E+00  0.00000000000E+00  0.11167270887E+04  0.11167270887E+04  0.25500000920E-02 0. -1.
       -2   -1    0    0    0  501  0.00000000000E+00  0.00000000000E+00 -0.56201971492E+02  0.56201971550E+02  0.25500000920E-02 0.  1.
    10030    2    1    2    0    0  0.00000000000E+00  0.00000000000E+00  0.10605251172E+04  0.11729290603E+04  0.50104795795E+03 0.  0.
        3    1    3    3  502    0 -0.14652972257E+03  0.92683540524E+02  0.10693812528E+03  0.20370805365E+03  0.10100000352E+00 0.  1.
       -3    1    3    3    0  502  0.14652972257E+03 -0.92683540524E+02  0.95358699196E+03  0.96922100664E+03  0.10100000352E+00 0. -1.
</event>
<event>
 5   0  0.1227864E-02  0.5001703E+03  0.7818609E-02  0.1013734E+00
       -1   -1    0    0    0  501  0.00000000000E+00  0.00000000000E+00  0.13979480962E+03  0.13979480971E+03  0.50400001928E-02 0. -1.
        1   -1    0    0  501    0  0.00000000000E+00  0.00000000000E+00 -0.44738839302E+03  0.44738839305E+03  0.50400001928E-02 0.  1.
    10030    2    1    2    0    0  0.00000000000E+00  0.00000000000E+00 -0.30759358340E+03  0.58718320276E+03  0.50017027206E+03 0.  0.
        5    1    3    3  502    0 -0.11990289778E+03  0.20596824382E+03 -0.65002199257E+02  0.24707690759E+03  0.46999998093E+01 0. -1.
       -5    1    3    3    0  502  0.11990289778E+03 -0.20596824382E+03 -0.24259138414E+03  0.34010629517E+03  0.46999998093E+01 0.  1.
</event>
<event>
 5   0  0.1855407E-02  0.4996361E+03  0.7818609E-02  0.1013874E+00
        2   -1    0    0  501    0  0.00000000000E+00  0.00000000000E+00  0.65193859177E+03  0.65193859177E+03  0.25500000920E-02 0.  1.
       -2   -1    0    0    0  501  0.00000000000E+00  0.00000000000E+00 -0.95728432726E+02  0.95728432759E+02  0.25500000920E-02 0. -1.
    10030    2    1    2    0    0  0.00000000000E+00  0.00000000000E+00  0.55621015904E+03  0.74766702453E+03  0.49963610613E+03 0.  0.
        1    1    3    3  502    0  0.19609264284E+03 -0.65978782199E+02  0.48762321065E+03  0.52969983940E+03  0.50400001928E-02 0.  1.
       -1    1    3    3    0  502 -0.19609264284E+03  0.65978782199E+02  0.68586948391E+02  0.21796718513E+03  0.50400001928E-02 0. -1.
</event>
<event>
 5   0  0.1941387E-02  0.4988775E+03  0.7818609E-02  0.1014072E+00
       -2   -1    0    0    0  501  0.00000000000E+00  0.00000000000E+00  0.23523212374E+03  0.23523212375E+03  0.25500000920E-02 0.  1.
        2   -1    0    0  501    0  0.00000000000E+00  0.00000000000E+00 -0.26450340859E+03  0.26450340860E+03  0.25500000920E-02 0. -1.
    10030    2    1    2    0    0  0.00000000000E+00  0.00000000000E+00 -0.29271284847E+02  0.49973553235E+03  0.49887753425E+03 0.  0.
        4    1    3    3  502    0  0.23694891191E+02 -0.18964811791E+03 -0.17519302216E+03  0.25927218210E+03  0.12699999809E+01 0. -1.
       -4    1    3    3    0  502 -0.23694891191E+02  0.18964811791E+03  0.14592173731E+03  0.24046335026E+03  0.12699999809E+01 0.  1.
</event>
<event>
 5   0  0.1227864E-02  0.5008105E+03  0.7818609E-02  0.1013568E+00
        1   -1    0    0  501    0  0.00000000000E+00  0.00000000000E+00  0.10092666452E+04  0.10092666452E+04  0.50400001928E-02 0. -1.
       -1   -1    0    0    0  501  0.00000000000E+00  0.00000000000E+00 -0.62127086443E+02  0.62127086648E+02  0.50400001928E-02 0.  1.
    10030    2    1    2    0    0  0.00000000000E+00  0.00000000000E+00  0.94713955879E+03  0.10713937319E+04  0.50081052796E+03 0.  0.
        5    1    3    3  502    0 -0.15776477386E+03  0.12895362737E+03  0.16235985703E+03  0.26057930665E+03  0.46999998093E+01 0.  1.
       -5    1    3    3    0  502  0.15776477386E+03 -0.12895362737E+03  0.78477970176E+03  0.81081442524E+03  0.46999998093E+01 0. -1.
</event>
<event>
 5   0  0.1217270E-02  0.5002158E+03  0.7818609E-02  0.1013723E+00
       -1   -1    0    0    0  501  0.00000000000E+00  0.00000000000E+00  0.11706353379E+03  0.11706353390E+03  0.50400001928E-02 0. -1.
        1   -1    0    0  501    0  0.00000000000E+00  0.00000000000E+00 -0.53435914172E+03  0.53435914174E+03  0.50400001928E-02 0.  1.
    10030    2    1    2    0    0  0.00000000000E+00  0.00000000000E+00 -0.41729560793E+03  0.65142267564E+03  0.50021583135E+03 0.  0.
        2    1    3    3  502    0 -0.25562572010E+02  0.22616581287E+03 -0.34366857102E+03  0.41220444771E+03  0.25500000920E-02 0.  1.
       -2    1    3    3    0  502  0.25562572010E+02 -0.22616581287E+03 -0.73627036911E+02  0.23921822792E+03  0.25500000920E-02 0. -1.
</event>
<event>
 5   0  0.1227864E-02  0.4996718E+03  0.7818609E-02  0.1013865E+00
       -1   -1    0    0    0  501  0.00000000000E+00  0.00000000000E+00  0.15963269078E+03  0.15963269086E+03  0.50400001928E-02 0.  1.
        1   -1    0    0  501    0  0.00000000000E+00  0.00000000000E+00 -0.39100992048E+03  0.39100992052E+03  0.50400001928E-02 0. -1.
    10030    2    1    2    0    0  0.00000000000E+00  0.00000000000E+00 -0.23137722971E+03  0.55064261137E+03  0.49967175529E+03 0.  0.
        5    1    3    3  502    0 -0.13965278804E+03  0.18609357364E+03 -0.21585724189E+03  0.31741165421E+03  0.46999998093E+01 0. -1.
       -5    1    3    3    0  502  0.13965278804E+03 -0.18609357364E+03 -0.15519987819E+02  0.23323095716E+03  0.46999998093E+01 0.  1.
</event>
<event>
 5   0  0.1923706E-02  0.4999525E+03  0.7818609E-02  0.1013791E+00
        2   -1    0    0  501    0  0.00000000000E+00  0.00000000000E+00  0.12107141021E+04  0.12107141021E+04  0.25500000920E-02 0.  1.
       -2   -1    0    0    0  501  0.00000000000E+00  0.00000000000E+00 -0.51612613778E+02  0.51612613841E+02  0.25500000920E-02 0. -1.
    10030    2    1    2    0    0  0.00000000000E+00  0.00000000000E+00  0.11591014883E+04  0.12623267159E+04  0.49995247530E+03 0.  0.
        3    1    3    3  502    0 -0.53542365377E+01  0.22953033773E+03  0.32991467842E+03  0.40194097705E+03  0.10100000352E+00 0. -1.
       -3    1    3    3    0  502  0.53542365377E+01 -0.22953033773E+03  0.82918680990E+03  0.86038573890E+03  0.10100000352E+00 0.  1.
</event>
<event>
 5   0  0.1982847E-02  0.5007625E+03  0.7818609E-02  0.1013580E+00
        2   -1    0    0  501    0  0.00000000000E+00  0.00000000000E+00  0.83208391894E+02  0.83208391933E+02  0.25500000920E-02 0.  1.
       -2   -1    0    0    0  501  0.00000000000E+00  0.00000000000E+00 -0.75341893727E+03  0.75341893727E+03  0.25500000920E-02 0. -1.
    10030    2    1    2    0    0  0.00000000000E+00  0.00000000000E+00 -0.67021054537E+03  0.83662732920E+03  0.50076253139E+03 0.  0.
        2    1    3    3  502    0 -0.14216238839E+03  0.33834839820E+02 -0.67478027710E+03  0.69042259771E+03  0.25500000920E-02 0. -1.
       -2    1    3    3    0  502  0.14216238839E+03 -0.33834839820E+02  0.45697317239E+01  0.14620473150E+03  0.25500000920E-02 0.  1.
</event>
<event>
 5   0  0.1967813E-02  0.4992066E+03  0.7818609E-02  0.1013986E+00
        2   -1    0    0  501    0  0.00000000000E+00  0.00000000000E+00  0.69093493826E+02  0.69093493873E+02  0.25500000920E-02 0.  1.
       -2   -1    0    0    0  501  0.00000000000E+00  0.00000000000E+00 -0.90170283525E+03  0.90170283526E+03  0.25500000920E-02 0. -1.
    10030    2    1    2    0    0  0.00000000000E+00  0.00000000000E+00 -0.83260934143E+03  0.97079632913E+03  0.49920656768E+03 0.  0.
        5    1    3    3  502    0 -0.22252466722E+03  0.11290920716E+03 -0.42357910057E+03  0.49163712332E+03  0.46999998093E+01 0. -1.
       -5    1    3    3    0  502  0.22252466722E+03 -0.11290920716E+03 -0.40903024086E+03  0.47915920581E+03  0.46999998093E+01 0.  1.
</event>
<event>
 5   0  0.8012875E-03  0.4997472E+03  0.7818609E-02  0.1013845E+00
       -3   -1    0    0    0  501  0.00000000000E+00  0.00000000000E+00  0.26549779253E+03  0.26549781174E+03  0.10100000352E+00 0.  1.
        3   -1    0    0  501    0  0.00000000000E+00  0.00000000000E+00 -0.23516887625E+03  0.23516889793E+03  0.10100000352E+00 0. -1.
    10030    2    1    2    0    0  0.00000000000E+00  0.00000000000E+00  0.30328916281E+02  0.50066670967E+03  0.49974724713E+03 0.  0.
        3    1    3    3  502    0  0.15004381924E+03 -0.80656773760E+01  0.21517800215E+03  0.26244958688E+03  0.10100000352E+00 0.  1.
       -3    1    3    3    0  502 -0.15004381924E+03  0.80656773760E+01 -0.18484908587E+03  0.23821712279E+03  0.10100000352E+00 0. -1.
</event>
<event>
 5   0  0.1209831E-02  0.5007009E+03  0.7818609E-02  0.1013596E+00
        1   -1    0    0  501    0  0.00000000000E+00  0.00000000000E+00  0.71947613808E+02  0.71947613984E+02  0.50400001928E-02 0.  1.
       -1   -1    0    0    0  501  0.00000000000E+00  0.00000000000E+00 -0.87112464355E+03  0.87112464356E+03  0.50400001928E-02 0. -1.
    10030    2    1    2    0    0  0.00000000000E+00  0.00000000000E+00 -0.79917702974E+03  0.94307225755E+03  0.50070086688E+03 0.  0.
        4    1    3    3  502    0 -0.77666924277E+02 -0.78530295319E+02 -0.82274688166E+03  0.83012842536E+03  0.12699999809E+01 0. -1.
       -4    1    3    3    0  502  0.77666924277E+02  0.78530295319E+02  0.23569851920E+02  0.11294383219E+03  0.12699999809E+01 0.  1.
</event>
<event>
 5   0  0.1180937E-02  0.5007223E+03  0.7818609E-02  0.1013591E+00
        1   -1    0    0  501    0  0.00000000000E+00  0.00000000000E+00  0.15041007643E+03  0.15041007651E+03  0.50400001928E-02 0. -1.
       -1   -1    0    0    0  501  0.00000000000E+00  0.00000000000E+00 -0.41673207980E+03  0.41673207983E+03  0.50400001928E-02 0.  1.
    10030    2    1    2    0    0  0.00000000000E+00  0.00000000000E+00 -0.26632200337E+03  0.56714215634E+03  0.50072229431E+03 0.  0.
        1    1    3    3  502    0  0.34569593655E+02  0.16045094535E+03 -0.34729183638E+03  0.38412391531E+03  0.50400001928E-02 0.  1.
       -1    1    3    3    0  502 -0.34569593655E+02 -0.16045094535E+03  0.80969833012E+02  0.18301824104E+03  0.50400001928E-02 0. -1.
</event>
<event>
 5   0  0.1982847E-02  0.4990146E+03  0.7818609E-02  0.1014036E+00
       -2   -1    0    0    0  501  0.00000000000E+00  0.00000000000E+00  0.10353552593E+03  0.10353552596E+03  0.25500000920E-02 0.  1.
        2   -1    0    0  501    0  0.00000000000E+00  0.00000000000E+00 -0.60128057927E+03  0.60128057928E+03  0.25500000920E-02 0. -1.
    10030    2    1    2    0    0  0.00000000000E+00  0.00000000000E+00 -0.49774505334E+03  0.70481610523E+03  0.49901463312E+03 0.  0.
        2    1    3    3  502    0 -0.20543686754E+03  0.13608184130E+03 -0.19360163145E+03  0.31337543903E+03  0.25500000920E-02 0.  1.
       -2    1    3    3    0  502  0.20543686754E+03 -0.13608184130E+03 -0.30414342189E+03  0.39144066621E+03  0.25500000920E-02 0. -1.
</event>
<event>
 5   0  0.1227864E-02  0.4990707E+03  0.7818609E-02  0.1014022E+00
       -1   -1    0    0    0  501  0.00000000000E+00  0.00000000000E+00  0.18688126584E+03  0.18688126591E+03  0.50400001928E-02 0.  1.
        1   -1    0    0  501    0  0.00000000000E+00  0.00000000000E+00 -0.33319493384E+03  0.33319493388E+03  0.50400001928E-02 0. -1.
    10030    2    1    2    0    0  0.00000000000E+00  0.00000000000E+00 -0.14631366800E+03  0.52007619979E+03  0.49907070055E+03 0.  0.
        5    1    3    3  502    0 -0.66972277504E+02 -0.47155454455E+02 -0.31873832825E+03  0.32912783950E+03  0.46999998093E+01 0. -1.
       -5    1    3    3    0  502  0.66972277504E+02  0.47155454455E+02  0.17242466025E+03  0.19094836029E+03  0.46999998093E+01 0.  1.
</event>
<event>
 5   0  0.1209831E-02  0.4986249E+03  0.7818609E-02  0.1014138E+00
       -1   -1    0    0    0  501  0.00000000000E+00  0.00000000000E+00  0.16189340425E+03  0.16189340432E+03  0.50400001928E-02 0. -1.
        1   -1    0    0  501    0  0.00000000000E+00  0.00000000000E+00 -0.38393598411E+03  0.38393598415E+03  0.50400001928E-02 0.  1.
    10030    2    1    2    0    0  0.00000000000E+00  0.00000000000E+00 -0.22204257987E+03  0.54582938847E+03  0.49862492321E+03 0.  0.
        4    1    3    3  502    0 -0.13520524121E+03  0.97245496920E+02 -0.31410515093E+03  0.35552890552E+03  0.12699999809E+01 0.  1.
       -4    1    3    3    0  502  0.13520524121E+03 -0.97245496920E+02  0.92062571058E+02  0.19030048295E+03  0.12699999809E+01 0. -1.
</event>
<event>
 5   0  0.1941387E-02  0.5004181E+03  0.7818609E-02  0.1013670E+00
       -2   -1    0    0    0  501  0.00000000000E+00  0.00000000000E+00  0.59307231394E+02  0.59307231449E+02  0.25500000920E-02 0. -1.
        2   -1    0    0  501    0  0.00000000000E+00  0.00000000000E+00 -0.10555974670E+04  0.10555974670E+04  0.25500000920E-02 0.  1.
    10030    2    1    2    0    0  0.00000000000E+00  0.00000000000E+00 -0.99629023557E+03  0.11149046984E+04  0.50041807827E+03 0.  0.
        4    1    3    3  502    0  0.18285153635E+03  0.16089762269E+03 -0.62574677339E+03  0.67147849306E+03  0.12699999809E+01 0. -1.
       -4    1    3    3    0  502 -0.18285153635E+03 -0.16089762269E+03 -0.37054346218E+03  0.44342620536E+03  0.12699999809E+01 0.  1.
</event>
<event>
 5   0  0.1227864E-02  0.5005385E+03  0.7818609E-02  0.1013638E+00
       -1   -1    0    0    0  501  0.00000000000E+00  0.00000000000E+00  0.43174904181E+03  0.43174904184E+03  0.50400001928E-02 0.  1.
        1   -1    0    0  501    0  0.00000000000E+00  0.00000000000E+00 -0.14507200035E+03  0.14507200044E+03  0.50400001928E-02 0. -1.
    10030    2    1    2    0    0  0.00000000000E+00  0.00000000000E+00  0.28667704147E+03  0.57682104228E+03  0.50053849873E+03 0.  0.
        5    1    3    3  502    0 -0.43653351113E+01 -0.54601375382E+02  0.42470433634E+03  0.42824786007E+03  0.46999998093E+01 0.  1.
       -5    1    3    3    0  502  0.43653351113E+01  0.54601375382E+02 -0.13802729488E+03  0.14857318221E+03  0.46999998093E+01 0. -1.
</event>
<event>
 5   0  0.1923706E-02  0.5000732E+03  0.7818609E-02  0.1013760E+00
       -2   -1    0    0    0  501  0.00000000000E+00  0.00000000000E+00  0.11923406340E+03  0.11923406342E+03  0.25500000920E-02 0. -1.
        2   -1    0    0  501    0  0.00000000000E+00  0.00000000000E+00 -0.52433265699E+03  0.52433265699E+03  0.25500000920E-02 0.  1.
    10030    2    1    2    0    0  0.00000000000E+00  0.00000000000E+00 -0.40509859359E+03  0.64356672042E+03  0.50007324774E+03 0.  0.
        3    1    3    3  502    0  0.67504649311E+01 -0.14160619336E+03 -0.46761127805E+03  0.48862889839E+03  0.10100000352E+00 0.  1.
       -3    1    3    3    0  502 -0.67504649311E+01  0.14160619336E+03  0.62512684463E+02  0.15493782203E+03  0.10100000352E+00 0. -1.
</event>
<event>
 5   0  0.1855407E-02  0.5006515E+03  0.7818609E-02  0.1013609E+00
        2   -1    0    0  501    0  0.00000000000E+00  0.00000000000E+00  0.64834404810E+03  0.64834404810E+03  0.25500000920E-02 0.  1.
       -2   -1    0    0    0  501  0.00000000000E+00  0.00000000000E+00 -0.96650797672E+02  0.96650797706E+02  0.25500000920E-02 0. -1.
    10030    2    1    2    0    0  0.00000000000E+00  0.00000000000E+00  0.55169325043E+03  0.74499484581E+03  0.50065145333E+03 0.  0.
        1    1    3    3  502    0 -0.66316101063E+02 -0.28003717170E+02  0.63260953920E+03  0.63669212540E+03  0.50400001928E-02 0.  1.
       -1    1    3    3    0  502  0.66316101063E+02  0.28003717170E+02 -0.80916288769E+02  0.10830272041E+03  0.50400001928E-02 0. -1.
</event>
<event>
 5   0  0.1180937E-02  0.4987377E+03  0.7818609E-02  0.1014109E+00
       -1   -1    0    0    0  501  0.00000000000E+00  0.00000000000E+00  0.47768901815E+02  0.47768902081E+02  0.50400001928E-02 0. -1.
        1   -1    0    0  501    0  0.00000000000E+00  0.00000000000E+00 -0.13017846130E+04  0.13017846130E+04  0.50400001928E-02 0.  1.
    10030    2    1    2    0    0  0.00000000000E+00  0.00000000000E+00 -0.12540157111E+04  0.13495535150E+04  0.49873769277E+03 0.  0.
        1    1    3    3  502    0 -0.34369539826E+02  0.62754840125E+02  0.19396537930E+02  0.74132725136E+02  0.50400001928E-02 0. -1.
       -1    1    3    3    0  502  0.34369539826E+02 -0.62754840125E+02 -0.12734122491E+04  0.12754207899E+04  0.50400001928E-02 0.  1.
</event>
<event>
 5   0  0.1227864E-02  0.5001955E+03  0.7818609E-02  0.1013728E+00
        1   -1    0    0  501    0  0.00000000000E+00  0.00000000000E+00  0.20056359825E+03  0.20056359831E+03  0.50400001928E-02 0. -1.
       -1   -1    0    0    0  501  0.00000000000E+00  0.00000000000E+00 -0.31186557289E+03  0.31186557293E+03  0.50400001928E-02 0.  1.
    10030    2    1    2    0    0  0.00000000000E+00  0.00000000000E+00 -0.11130197464E+03  0.51242917124E+03  0.50019548777E+03 0.  0.
        5    1    3    3  502    0 -0.40492574594E+02 -0.21205999800E+03  0.73600108854E+02  0.22814065261E+03  0.46999998093E+01 0. -1.
       -5    1    3    3    0  502  0.40492574594E+02  0.21205999800E+03 -0.18490208350E+03  0.28428851864E+03  0.46999998093E+01 0.  1.
</event>
<event>
 5   0  0.1217270E-02  0.4999543E+03  0.7818609E-02  0.1013791E+00
        1   -1    0    0  501    0  0.00000000000E+00  0.00000000000E+00  0.14488156758E+03  0.14488156767E+03  0.50400001928E-02 0. -1.
       -1   -1    0    0    0  501  0.00000000000E+00  0.00000000000E+00 -0.43130797051E+03  0.43130797054E+03  0.50400001928E-02 0.  1.
    10030    2    1    2    0    0  0.00000000000E+00  0.00000000000E+00 -0.28642640293E+03  0.57618953821E+03  0.49995429756E+03 0.  0.
        2    1    3    3  502    0  0.10176790932E+03 -0.15804257803E+03  0.46700044514E+02  0.19368804301E+03  0.25500000920E-02 0. -1.
       -2    1    3    3    0  502 -0.10176790932E+03  0.15804257803E+03 -0.33312644744E+03  0.38250149520E+03  0.25500000920E-02 0.  1.
</event>
<event>
 5   0  0.1209831E-02  0.4996091E+03  0.7818609E-02  0.1013881E+00
        1   -1    0    0  501    0  0.00000000000E+00  0.00000000000E+00  0.10329124856E+03  0.10329124868E+03  0.50400001928E-02 0.  1.
       -1   -1    0    0    0  501  0.00000000000E+00  0.00000000000E+00 -0.60413935363E+03  0.60413935366E+03  0.50400001928E-02 0. -1.
    10030    2    1    2    0    0  0.00000000000E+00  0.00000000000E+00 -0.50084810507E+03  0.70743060234E+03  0.49960907995E+03 0.  0.
        4    1    3    3  502    0  0.69605482776E+02 -0.23119595846E+03 -0.34113669603E+03  0.41793821639E+03  0.12699999809E+01 0. -1.
       -4    1    3    3    0  502 -0.69605482776E+02  0.23119595846E+03 -0.15971140905E+03  0.28949238595E+03  0.12699999809E+01 0.  1.
</event>
<event>
 5   0  0.1217270E-02  0.5014990E+03  0.7818609E-02  0.1013388E+00
       -1   -1    0    0    0  501  0.00000000000E+00  0.00000000000E+00  0.17693767236E+03  0.17693767244E+03  0.50400001928E-02 0.  1.
        1   -1    0    0  501    0  0.00000000000E+00  0.00000000000E+00 -0.35535286935E+03  0.35535286938E+03  0.50400001928E-02 0. -1.
    10030    2    1    2    0    0  0.00000000000E+00  0.00000000000E+00 -0.17841519698E+03  0.53229054182E+03  0.50149899142E+03 0.  0.
        2    1    3    3  502    0 -0.29294225322E+02  0.20393098291E+03 -0.24091457664E+03  0.31699500102E+03  0.25500000920E-02 0. -1.
       -2    1    3    3    0  502  0.29294225322E+02 -0.20393098291E+03  0.62499379652E+02  0.21529554080E+03  0.25500000920E-02 0.  1.
</event>
<event>
 5   0  0.1180937E-02  0.5000219E+03  0.7818609E-02  0.1013773E+00
       -1   -1    0    0    0  501  0.00000000000E+00  0.00000000000E+00  0.38186203088E+03  0.38186203091E+03  0.50400001928E-02 0. -1.
        1   -1    0    0  501    0  0.00000000000E+00  0.00000000000E+00 -0.16368602846E+03  0.16368602853E+03  0.50400001928E-02 0.  1.
    10030    2    1    2    0    0  0.00000000000E+00  0.00000000000E+00  0.21817600242E+03  0.54554805944E+03  0.50002191665E+03 0.  0.
        1    1    3    3  502    0 -0.19886135101E+03  0.13387210421E+03  0.18652862353E+03  0.30374414337E+03  0.50400001928E-02 0. -1.
       -1    1    3    3    0  502  0.19886135101E+03 -0.13387210421E+03  0.31647378893E+02  0.24180391607E+03  0.50400001928E-02 0.  1.
</event>
<event>
 5   0  0.1967813E-02  0.5021491E+03  0.7818609E-02  0.1013219E+00
       -2   -1    0    0    0  501  0.00000000000E+00  0.00000000000E+00  0.77252764828E+02  0.77252764870E+02  0.25500000920E-02 0.  1.
        2   -1    0    0  501    0  0.00000000000E+00  0.00000000000E+00 -0.81600232562E+03  0.81600232563E+03  0.25500000920E-02 0. -1.
    10030    2    1    2    0    0  0.00000000000E+00  0.00000000000E+00 -0.73874956079E+03  0.89325509050E+03  0.50214912439E+03 0.  0.
        5    1    3    3  502    0  0.23894972779E+03 -0.86532667557E+01 -0.50536768869E+03  0.55909788249E+03  0.46999998093E+01 0. -1.
       -5    1    3    3    0  502 -0.23894972779E+03  0.86532667557E+01 -0.23338187210E+03  0.33415720800E+03  0.46999998093E+01 0.  1.
</event>
<event>
 5   0  0.1982847E-02  0.4902894E+03  0.7818609E-02  0.1016345E+00
       -2   -1    0    0    0  501  0.00000000000E+00  0.00000000000E+00  0.24402407927E+03  0.24402407928E+03  0.25500000920E-02 0. -1.
        2   -1    0    0  501    0  0.00000000000E+00  0.00000000000E+00 -0.24627047974E+03  0.24627047976E+03  0.25500000920E-02 0.  1.
    10030    2    1    2    0    0  0.00000000000E+00  0.00000000000E+00 -0.22464004766E+01  0.49029455904E+03  0.49028941280E+03 0.  0.
        2    1    3    3  502    0 -0.60456834399E+02 -0.20112916196E+03  0.12532162602E+03  0.24456794264E+03  0.25500000920E-02 0.  1.
       -2    1    3    3    0  502  0.60456834399E+02  0.20112916196E+03 -0.12756802649E+03  0.24572661639E+03  0.25500000920E-02 0. -1.
</event>
<event>
 5   0  0.1217270E-02  0.5000624E+03  0.7818609E-02  0.1013763E+00
        1   -1    0    0  501    0  0.00000000000E+00  0.00000000000E+00  0.83897459480E+03  0.83897459482E+03  0.50400001928E-02 0. -1.
       -1   -1    0    0    0  501  0.00000000000E+00  0.00000000000E+00 -0.74514290167E+02  0.74514290338E+02  0.50400001928E-02 0.  1.
    10030    2    1    2    0    0  0.00000000000E+00  0.00000000000E+00  0.76446030464E+03  0.91348888516E+03  0.50006238205E+03 0.  0.
        2    1    3    3  502    0 -0.12978344702E+03 -0.31778106788E+02 -0.38239675178E+01  0.13367203869E+03  0.25500000920E-02 0.  1.
       -2    1    3    3    0  502  0.12978344702E+03  0.31778106788E+02  0.76828427215E+03  0.77981684647E+03  0.25500000920E-02 0. -1.
</event>
<event>
 5   0  0.1209831E-02  0.4996498E+03  0.7818609E-02  0.1013870E+00
       -1   -1    0    0    0  501  0.00000000000E+00  0.00000000000E+00  0.11356507912E+03  0.11356507923E+03  0.50400001928E-02 0.  1.
        1   -1    0    0  501    0  0.00000000000E+00  0.00000000000E+00 -0.54957448698E+03  0.54957448701E+03  0.50400001928E-02 0. -1.
    10030    2    1    2    0    0  0.00000000000E+00  0.00000000000E+00 -0.43600940786E+03  0.66313956624E+03  0.49964975790E+03 0.  0.
        4    1    3    3  502    0  0.17448277818E+03 -0.15110716694E+03 -0.34484338849E+03  0.41496528923E+03  0.12699999809E+01 0. -1.
       -4    1    3    3    0  502 -0.17448277818E+03  0.15110716694E+03 -0.91166019378E+02  0.24817427701E+03  0.12699999809E+01 0.  1.
</event>
<event>
 5   0  0.1180937E-02  0.4986419E+03  0.7818609E-02  0.1014134E+00
       -1   -1    0    0    0  501  0.00000000000E+00  0.00000000000E+00  0.53869605514E+02  0.53869605749E+02  0.50400001928E-02 0. -1.
        1   -1    0    0  501    0  0.00000000000E+00  0.00000000000E+00 -0.11539147653E+04  0.11539147654E+04  0.50400001928E-02 0.  1.
    10030    2    1    2    0    0  0.00000000000E+00  0.00000000000E+00 -0.11000451598E+04  0.12077843711E+04  0.49864188895E+03 0.  0.
        1    1    3    3  502    0  0.23232846819E+03  0.48027790050E+01 -0.76883986984E+03  0.80319009537E+03  0.50400001928E-02 0.  1.
       -1    1    3    3    0  502 -0.23232846819E+03 -0.48027790050E+01 -0.33120528999E+03  0.40459427574E+03  0.50400001928E-02 0. -1.
</event>
<event>
 5   0  0.1180937E-02  0.4954946E+03  0.7818609E-02  0.1014962E+00
        1   -1    0    0  501    0  0.00000000000E+00  0.00000000000E+00  0.27103014885E+03  0.27103014890E+03  0.50400001928E-02 0.  1.
       -1   -1    0    0    0  501  0.00000000000E+00  0.00000000000E+00 -0.22646458013E+03  0.22646458018E+03  0.50400001928E-02 0. -1.
    10030    2    1    2    0    0  0.00000000000E+00  0.00000000000E+00  0.44565568725E+02  0.49749472908E+03  0.49549461708E+03 0.  0.
        1    1    3    3  502    0 -0.14917049682E+03 -0.12538825852E+03  0.17588619647E+03  0.26250715539E+03  0.50400001928E-02 0.  1.
       -1    1    3    3    0  502  0.14917049682E+03  0.12538825852E+03 -0.13132062775E+03  0.23498757370E+03  0.50400001928E-02 0. -1.
</event>
<event>
 5   0  0.8012875E-03  0.5015915E+03  0.7818609E-02  0.1013364E+00
       -3   -1    0    0    0  501  0.00000000000E+00  0.00000000000E+00  0.20190620394E+03  0.20190622920E+03  0.10100000352E+00 0. -1.
        3   -1    0    0  501    0  0.00000000000E+00  0.00000000000E+00 -0.31152334769E+03  0.31152336406E+03  0.10100000352E+00 0.  1.
    10030    2    1    2    0    0  0.00000000000E+00  0.00000000000E+00 -0.10961714375E+03  0.51342959326E+03  0.50159149617E+03 0.  0.
        1    1    3    3  502    0  0.15817376365E+03  0.13233527386E+03  0.91272402257E+02  0.22552652983E+03  0.50400001928E-02 0. -1.
       -1    1    3    3    0  502 -0.15817376365E+03 -0.13233527386E+03 -0.20088954600E+03  0.28790306344E+03  0.50400001928E-02 0.  1.
</event>
<event>
 5   0  0.1217270E-02  0.5002141E+03  0.7818609E-02  0.1013723E+00
        1   -1    0    0  501    0  0.00000000000E+00  0.00000000000E+00  0.75317631096E+03  0.75317631098E+03  0.50400001928E-02 0. -1.
       -1   -1    0    0    0  501  0.00000000000E+00  0.00000000000E+00 -0.83052987568E+02  0.83052987721E+02  0.50400001928E-02 0.  1.
    10030    2    1    2    0    0  0.00000000000E+00  0.00000000000E+00  0.67012332339E+03  0.83622929870E+03  0.50021412560E+03 0.  0.
        2    1    3    3  502    0 -0.20765210501E+03 -0.10087020640E+02  0.10262089806E+03  0.23184519280E+03  0.25500000920E-02 0.  1.
       -2    1    3    3    0  502  0.20765210501E+03  0.10087020640E+02  0.56750242533E+03  0.60438410590E+03  0.25500000920E-02 0. -1.
</event>
<event>
 5   0  0.1209831E-02  0.4999200E+03  0.7818609E-02  0.1013800E+00
        1   -1    0    0  501    0  0.00000000000E+00  0.00000000000E+00  0.10996745741E+04  0.10996745742E+04  0.50400001928E-02 0. -1.
       -1   -1    0    0    0  501  0.00000000000E+00  0.00000000000E+00 -0.56816813287E+02  0.56816813511E+02  0.50400001928E-02 0.  1.
    10030    2    1    2    0    0  0.00000000000E+00  0.00000000000E+00  0.10428577609E+04  0.11564913877E+04  0.49992001397E+03 0.  0.
        4    1    3    3  502    0  0.11999263996E+03  0.74536563187E+01  0.10283889624E+04  0.10353932883E+04  0.12699999809E+01 0. -1.
       -4    1    3    3    0  502 -0.11999263996E+03 -0.74536563187E+01  0.14468798475E+02  0.12109809935E+03  0.12699999809E+01 0.  1.
</event>
<event>
 5   0  0.1225989E-02  0.4999083E+03  0.7818609E-02  0.1013803E+00
        1   -1    0    0  501    0  0.00000000000E+00  0.00000000000E+00  0.49419013595E+03  0.49419013597E+03  0.50400001928E-02 0.  1.
       -1   -1    0    0    0  501  0.00000000000E+00  0.00000000000E+00 -0.12642313290E+03  0.12642313300E+03  0.50400001928E-02 0. -1.
    10030    2    1    2    0    0  0.00000000000E+00  0.00000000000E+00  0.36776700305E+03  0.62061326897E+03  0.49990825267E+03 0.  0.
        3    1    3    3  502    0  0.60981509973E+02  0.17416353947E+03  0.39319053823E+03  0.43433914467E+03  0.10100000352E+00 0.  1.
       -3    1    3    3    0  502 -0.60981509973E+02 -0.17416353947E+03 -0.25423535181E+02  0.18627412430E+03  0.10100000352E+00 0. -1.
</event>
<event>
 5   0  0.1982847E-02  0.4996246E+03  0.7818609E-02  0.1013877E+00
        2   -1    0    0  501    0  0.00000000000E+00  0.00000000000E+00  0.59144323742E+03  0.59144323742E+03  0.25500000920E-02 0.  1.
       -2   -1    0    0    0  501  0.00000000000E+00  0.00000000000E+00 -0.10551507077E+03  0.10551507080E+03  0.25500000920E-02 0. -1.
    10030    2    1    2    0    0  0.00000000000E+00  0.00000000000E+00  0.48592816665E+03  0.69695830823E+03  0.49962455931E+03 0.  0.
        2    1    3    3  502    0 -0.17721067203E+02  0.21867911213E+03  0.40961170572E+03  0.46466798875E+03  0.25500000920E-02 0.  1.
       -2    1    3    3    0  502  0.17721067203E+02 -0.21867911213E+03  0.76316460929E+02  0.23229031947E+03  0.25500000920E-02 0. -1.
</event>
<event>
 5   0  0.1227864E-02  0.4994523E+03  0.7818609E-02  0.1013922E+00
        1   -1    0    0  501    0  0.00000000000E+00  0.00000000000E+00  0.31883472592E+03  0.31883472595E+03  0.50400001928E-02 0.  1.
       -1   -1    0    0    0  501  0.00000000000E+00  0.00000000000E+00 -0.19559709937E+03  0.19559709943E+03  0.50400001928E-02 0. -1.
    10030    2    1    2    0    0  0.00000000000E+00  0.00000000000E+00  0.12323762655E+03  0.51443182539E+03  0.49945229039E+03 0.  0.
        5    1    3    3  502    0  0.19959855594E+02  0.20798369130E+03 -0.79175642223E+02  0.22348710030E+03  0.46999998093E+01 0. -1.
       -5    1    3    3    0  502 -0.19959855594E+02 -0.20798369130E+03  0.20241326877E+03  0.29094472508E+03  0.46999998093E+01 0.  1.
</event>
<event>
 5   0  0.1855407E-02  0.4997494E+03  0.7818609E-02  0.1013844E+00
        2   -1    0    0  501    0  0.00000000000E+00  0.00000000000E+00  0.17846900773E+03  0.17846900775E+03  0.25500000920E-02 0. -1.
       -2   -1    0    0    0  501  0.00000000000E+00  0.00000000000E+00 -0.34984986762E+03  0.34984986763E+03  0.25500000920E-02 0.  1.
    10030    2    1    2    0    0  0.00000000000E+00  0.00000000000E+00 -0.17138085990E+03  0.52831887538E+03  0.49974937213E+03 0.  0.
        1    1    3    3  502    0 -0.17723808820E+03  0.11578949374E+02 -0.27149331348E+03  0.32443185920E+03  0.50400001928E-02 0.  1.
       -1    1    3    3    0  502  0.17723808820E+03 -0.11578949374E+02  0.10011245358E+03  0.20388701618E+03  0.50400001928E-02 0. -1.
</event>
<event>
 5   0  0.1225989E-02  0.4994356E+03  0.7818609E-02  0.1013926E+00
        1   -1    0    0  501    0  0.00000000000E+00  0.00000000000E+00  0.97882237127E+03  0.97882237128E+03  0.50400001928E-02 0. -1.
       -1   -1    0    0    0  501  0.00000000000E+00  0.00000000000E+00 -0.63708158288E+02  0.63708158487E+02  0.50400001928E-02 0.  1.
    10030    2    1    2    0    0  0.00000000000E+00  0.00000000000E+00  0.91511421298E+03  0.10425305298E+04  0.49943556411E+03 0.  0.
        3    1    3    3  502    0  0.17285254616E+03  0.80450918458E+02  0.79419877246E+03  0.81676315623E+03  0.10100000352E+00 0. -1.
       -3    1    3    3    0  502 -0.17285254616E+03 -0.80450918458E+02  0.12091544051E+03  0.22576737353E+03  0.10100000352E+00 0.  1.
</event>
<event>
 5   0  0.1855407E-02  0.4998476E+03  0.7818609E-02  0.1013819E+00
        2   -1    0    0  501    0  0.00000000000E+00  0.00000000000E+00  0.37434200202E+03  0.37434200202E+03  0.25500000920E-02 0.  1.
       -2   -1    0    0    0  501  0.00000000000E+00  0.00000000000E+00 -0.16685789278E+03  0.16685789279E+03  0.25500000920E-02 0. -1.
    10030    2    1    2    0    0  0.00000000000E+00  0.00000000000E+00  0.20748410924E+03  0.54119989482E+03  0.49984764735E+03 0.  0.
        1    1    3    3  502    0 -0.30683343852E+01 -0.22735390906E+03 -0.85840578938E+01  0.22753659203E+03  0.50400001928E-02 0. -1.
       -1    1    3    3    0  502  0.30683343852E+01  0.22735390906E+03  0.21606816713E+03  0.31366330278E+03  0.50400001928E-02 0.  1.
</event>
<event>
 5   0  0.1180937E-02  0.5000554E+03  0.7818609E-02  0.1013764E+00
        1   -1    0    0  501    0  0.00000000000E+00  0.00000000000E+00  0.24614623435E+03  0.24614623440E+03  0.50400001928E-02 0.  1.
       -1   -1    0    0    0  501  0.00000000000E+00  0.00000000000E+00 -0.25397035792E+03  0.25397035797E+03  0.50400001928E-02 0. -1.
    10030    2    1    2    0    0  0.00000000000E+00  0.00000000000E+00 -0.78241235706E+01  0.50011659238E+03  0.50005538599E+03 0.  0.
        1    1    3    3  502    0  0.20832467056E+03  0.53160900735E+02  0.12373034956E+03  0.24806138184E+03  0.50400001928E-02 0. -1.
       -1    1    3    3    0  502 -0.20832467056E+03 -0.53160900735E+02 -0.13155447313E+03  0.25205521054E+03  0.50400001928E-02 0.  1.
</event>
<event>
 5   0  0.1967813E-02  0.4972828E+03  0.7818609E-02  0.1014491E+00
       -2   -1    0    0    0  501  0.00000000000E+00  0.00000000000E+00  0.93309932065E+02  0.93309932100E+02  0.25500000920E-02 0.  1.
        2   -1    0    0  501    0  0.00000000000E+00  0.00000000000E+00 -0.66255043169E+03  0.66255043170E+03  0.25500000920E-02 0. -1.
    10030    2    1    2    0    0  0.00000000000E+00  0.00000000000E+00 -0.56924049963E+03  0.75586036380E+03  0.49728275975E+03 0.  0.
        5    1    3    3  502    0  0.16924001585E+03  0.18131187387E+03 -0.31024747331E+03  0.39723011374E+03  0.46999998093E+01 0.  1.
       -5    1    3    3    0  502 -0.16924001585E+03 -0.18131187387E+03 -0.25899302632E+03  0.35863025005E+03  0.46999998093E+01 0. -1.
</event>
<event>
 5   0  0.8012875E-03  0.4996934E+03  0.7818609E-02  0.1013859E+00
       -4   -1    0    0    0  501  0.00000000000E+00  0.00000000000E+00  0.98520859366E+03  0.98520941221E+03  0.12699999809E+01 0.  1.
        4   -1    0    0  501    0  0.00000000000E+00  0.00000000000E+00 -0.63353354148E+02  0.63366082266E+02  0.12699999809E+01 0. -1.
    10030    2    1    2    0    0  0.00000000000E+00  0.00000000000E+00  0.92185523951E+03  0.10485754945E+04  0.49969339100E+03 0.  0.
        3    1    3    3  502    0  0.17956441149E+03 -0.15156074233E+03  0.63910123304E+03  0.68092909525E+03  0.10100000352E+00 0.  1.
       -3    1    3    3    0  502 -0.17956441149E+03  0.15156074233E+03  0.28275400647E+03  0.36764639923E+03  0.10100000352E+00 0. -1.
</event>
<event>
 5   0  0.1923706E-02  0.4989719E+03  0.7818609E-02  0.1014048E+00
       -2   -1    0    0    0  501  0.00000000000E+00  0.00000000000E+00  0.33432055007E+02  0.33432055104E+02  0.25500000920E-02 0. -1.
        2   -1    0    0  501    0  0.00000000000E+00  0.00000000000E+00 -0.18617835498E+04  0.18617835498E+04  0.25500000920E-02 0.  1.
    10030    2    1    2    0    0  0.00000000000E+00  0.00000000000E+00 -0.18283514947E+04  0.18952156049E+04  0.49897194366E+03 0.  0.
        3    1    3    3  502    0  0.48992826907E+02  0.57010514681E+02 -0.10603521175E+02  0.75914035163E+02  0.10100000352E+00 0. -1.
       -3    1    3    3    0  502 -0.48992826907E+02 -0.57010514681E+02 -0.18177479736E+04  0.18193015697E+04  0.10100000352E+00 0.  1.
</event>
<event>
 5   0  0.1982847E-02  0.5047626E+03  0.7818609E-02  0.1012543E+00
       -2   -1    0    0    0  501  0.00000000000E+00  0.00000000000E+00  0.22329188006E+03  0.22329188008E+03  0.25500000920E-02 0. -1.
        2   -1    0    0  501    0  0.00000000000E+00  0.00000000000E+00 -0.28526037782E+03  0.28526037783E+03  0.25500000920E-02 0.  1.
    10030    2    1    2    0    0  0.00000000000E+00  0.00000000000E+00 -0.61968497756E+02  0.50855225791E+03  0.50476262174E+03 0.  0.
        2    1    3    3  502    0 -0.26666343130E+02  0.25073675546E+03 -0.41850007503E+02  0.25560015166E+03  0.25500000920E-02 0.  1.
       -2    1    3    3    0  502  0.26666343130E+02 -0.25073675546E+03 -0.20118490253E+02  0.25295210624E+03  0.25500000920E-02 0. -1.
</event>
<event>
 5   0  0.8012875E-03  0.4996210E+03  0.7818609E-02  0.1013878E+00
        4   -1    0    0  501    0  0.00000000000E+00  0.00000000000E+00  0.10851769507E+03  0.10852512632E+03  0.12699999809E+01 0.  1.
       -4   -1    0    0    0  501  0.00000000000E+00  0.00000000000E+00 -0.57504234873E+03  0.57504375114E+03  0.12699999809E+01 0. -1.
    10030    2    1    2    0    0  0.00000000000E+00  0.00000000000E+00 -0.46652465366E+03  0.68356887747E+03  0.49962101414E+03 0.  0.
        2    1    3    3  502    0 -0.13092480350E+03 -0.11547831837E+03  0.11211571088E+02  0.17493497511E+03  0.25500000920E-02 0.  1.
       -2    1    3    3    0  502  0.13092480350E+03  0.11547831837E+03 -0.47773622475E+03  0.50863390235E+03  0.25500000920E-02 0. -1.
</event>
<event>
 5   0  0.1967813E-02  0.4995597E+03  0.7818609E-02  0.1013894E+00
       -2   -1    0    0    0  501  0.00000000000E+00  0.00000000000E+00  0.15008356852E+03  0.15008356854E+03  0.25500000920E-02 0. -1.
        2   -1    0    0  501    0  0.00000000000E+00  0.00000000000E+00 -0.41570153680E+03  0.41570153681E+03  0.25500000920E-02 0.  1.
    10030    2    1    2    0    0  0.00000000000E+00  0.00000000000E+00 -0.26561796828E+03  0.56578510535E+03  0.49955968649E+03 0.  0.
        5    1    3    3  502    0 -0.18620600599E+03 -0.13299958738E+03 -0.24610148705E+03  0.33607975071E+03  0.46999998093E+01 0. -1.
       -5    1    3    3    0  502  0.18620600599E+03  0.13299958738E+03 -0.19516481231E+02  0.22970535464E+03  0.46999998093E+01 0.  1.
</event>
<event>
 5   0  0.1967813E-02  0.5007822E+03  0.7818609E-02  0.1013575E+00
        2   -1    0    0  501    0  0.00000000000E+00  0.00000000000E+00  0.49767003762E+03  0.49767003762E+03  0.25500000920E-02 0. -1.
       -2   -1    0    0    0  501  0.00000000000E+00  0.00000000000E+00 -0.12597843671E+03  0.12597843674E+03  0.25500000920E-02 0.  1.
    10030    2    1    2    0    0  0.00000000000E+00  0.00000000000E+00  0.37169160090E+03  0.62364847436E+03  0.50078216161E+03 0.  0.
        5    1    3    3  502    0 -0.15124847709E+03  0.47411023868E+02  0.42716630711E+03  0.45565014094E+03  0.46999998093E+01 0. -1.
       -5    1    3    3    0  502  0.15124847709E+03 -0.47411023868E+02 -0.55474706208E+02  0.16799833342E+03  0.46999998093E+01 0.  1.
</event>
<event>
 5   0  0.1923706E-02  0.4999163E+03  0.7818609E-02  0.1013801E+00
        2   -1    0    0  501    0  0.00000000000E+00  0.00000000000E+00  0.52392779033E+03  0.52392779034E+03  0.25500000920E-02 0. -1.
       -2   -1    0    0    0  501  0.00000000000E+00  0.00000000000E+00 -0.11925129925E+03  0.11925129928E+03  0.25500000920E-02 0.  1.
    10030    2    1    2    0    0  0.00000000000E+00  0.00000000000E+00  0.40467649108E+03  0.64317908961E+03  0.49991627188E+03 0.  0.
        3    1    3    3  502    0 -0.12735972515E+03 -0.15317703943E+01 -0.74368459977E+02  0.14749075887E+03  0.10100000352E+00 0.  1.
       -3    1    3    3    0  502  0.12735972515E+03  0.15317703943E+01  0.47904495105E+03  0.49568833075E+03  0.10100000352E+00 0. -1.
</event>
<event>
 5   0  0.1855407E-02  0.5001013E+03  0.7818609E-02  0.1013752E+00
       -2   -1    0    0    0  501  0.00000000000E+00  0.00000000000E+00  0.15082913135E+03  0.15082913137E+03  0.25500000920E-02 0.  1.
        2   -1    0    0  501    0  0.00000000000E+00  0.00000000000E+00 -0.41454405370E+03  0.41454405370E+03  0.25500000920E-02 0. -1.
    10030    2    1    2    0    0  0.00000000000E+00  0.00000000000E+00 -0.26371492235E+03  0.56537318508E+03  0.50010126788E+03 0.  0.
        1    1    3    3  502    0  0.16455168187E+03 -0.13547956646E+03  0.15948125966E+02  0.21374356524E+03  0.50400001928E-02 0.  1.
       -1    1    3    3    0  502 -0.16455168187E+03  0.13547956646E+03 -0.27966304831E+03  0.35162961984E+03  0.50400001928E-02 0. -1.
</event>
<event>
 5   0  0.1227864E-02  0.4999617E+03  0.7818609E-02  0.1013789E+00
       -1   -1    0    0    0  501  0.00000000000E+00  0.00000000000E+00  0.65990424671E+02  0.65990424864E+02  0.50400001928E-02 0.  1.
        1   -1    0    0  501    0  0.00000000000E+00  0.00000000000E+00 -0.94696190279E+03  0.94696190281E+03  0.50400001928E-02 0. -1.
    10030    2    1    2    0    0  0.00000000000E+00  0.00000000000E+00 -0.88097147812E+03  0.10129523277E+04  0.49996167140E+03 0.  0.
        5    1    3    3  502    0 -0.15990750575E+03  0.17822665388E+03 -0.29532624571E+03  0.38022997245E+03  0.46999998093E+01 0. -1.
       -5    1    3    3    0  502  0.15990750575E+03 -0.17822665388E+03 -0.58564523241E+03  0.63272235522E+03  0.46999998093E+01 0.  1.
</event>
<event>
 5   0  0.1180937E-02  0.5007450E+03  0.7818609E-02  0.1013585E+00
       -1   -1    0    0    0  501  0.00000000000E+00  0.00000000000E+00  0.86185935376E+02  0.86185935524E+02  0.50400001928E-02 0. -1.
        1   -1    0    0  501    0  0.00000000000E+00  0.00000000000E+00 -0.72733902128E+03  0.72733902130E+03  0.50400001928E-02 0.  1.
    10030    2    1    2    0    0  0.00000000000E+00  0.00000000000E+00 -0.64115308591E+03  0.81352495682E+03  0.50074502075E+03 0.  0.
        1    1    3    3  502    0  0.17400622132E+03 -0.12550449146E+03 -0.53025349642E+03  0.57201251117E+03  0.50400001928E-02 0.  1.
       -1    1    3    3    0  502 -0.17400622132E+03  0.12550449146E+03 -0.11089958948E+03  0.24151244566E+03  0.50400001928E-02 0. -1.
</event>
<event>
 5   0  0.1227864E-02  0.5008085E+03  0.7818609E-02  0.1013568E+00
        1   -1    0    0  501    0  0.00000000000E+00  0.00000000000E+00  0.35724346442E+03  0.35724346446E+03  0.50400001928E-02 0.  1.
       -1   -1    0    0    0  501  0.00000000000E+00  0.00000000000E+00 -0.17551699695E+03  0.17551699702E+03  0.50400001928E-02 0. -1.
    10030    2    1    2    0    0  0.00000000000E+00  0.00000000000E+00  0.18172646747E+03  0.53276046148E+03  0.50080854658E+03 0.  0.
        5    1    3    3  502    0 -0.62693200347E+01  0.15342485611E+03  0.30122082112E+03  0.33813394376E+03  0.46999998093E+01 0.  1.
       -5    1    3    3    0  502  0.62693200347E+01 -0.15342485611E+03 -0.11949435365E+03  0.19462651772E+03  0.46999998093E+01 0. -1.
</event>
<event>
 5   0  0.1982847E-02  0.4995734E+03  0.7818609E-02  0.1013890E+00
        2   -1    0    0  501    0  0.00000000000E+00  0.00000000000E+00  0.72094946922E+03  0.72094946923E+03  0.25500000920E-02 0. -1.
       -2   -1    0    0    0  501  0.00000000000E+00  0.00000000000E+00 -0.86543360156E+02  0.86543360193E+02  0.25500000920E-02 0.  1.
    10030    2    1    2    0    0  0.00000000000E+00  0.00000000000E+00  0.63440610907E+03  0.80749282942E+03  0.49957337634E+03 0.  0.
        2    1    3    3  502    0 -0.11646363147E+03 -0.32065741253E+02 -0.36191374337E+02  0.12610235842E+03  0.25500000920E-02 0.  1.
       -2    1    3    3    0  502  0.11646363147E+03  0.32065741253E+02  0.67059748340E+03  0.68139047100E+03  0.25500000920E-02 0. -1.
</event>
<event>
 5   0  0.8012875E-03  0.4989527E+03  0.7818609E-02  0.1014053E+00
       -4   -1    0    0    0  501  0.00000000000E+00  0.00000000000E+00  0.39239887628E+03  0.39240093145E+03  0.12699999809E+01 0. -1.
        4   -1    0    0  501    0  0.00000000000E+00  0.00000000000E+00 -0.15860513823E+03  0.15861022278E+03  0.12699999809E+01 0.  1.
    10030    2    1    2    0    0  0.00000000000E+00  0.00000000000E+00  0.23379373805E+03  0.55101115423E+03  0.49895268327E+03 0.  0.
        1    1    3    3  502    0  0.13618405085E+03  0.16153367260E+03 -0.29606550541E+02  0.21334425455E+03  0.50400001928E-02 0.  1.
       -1    1    3    3    0  502 -0.13618405085E+03 -0.16153367260E+03  0.26340028859E+03  0.33766689969E+03  0.50400001928E-02 0. -1.
</event>
<event>
 5   0  0.1855407E-02  0.5000394E+03  0.7818609E-02  0.1013769E+00
       -2   -1    0    0    0  501  0.00000000000E+00  0.00000000000E+00  0.43200780664E+02  0.43200780739E+02  0.25500000920E-02 0. -1.
        2   -1    0    0  501    0  0.00000000000E+00  0.00000000000E+00 -0.14469608743E+04  0.14469608743E+04  0.25500000920E-02 0.  1.
    10030    2    1    2    0    0  0.00000000000E+00  0.00000000000E+00 -0.14037600937E+04  0.14901616551E+04  0.50003935613E+03 0.  0.
        1    1    3    3  502    0 -0.21245483436E+02 -0.24883278913E+03 -0.73723046701E+03  0.77838158317E+03  0.50400001928E-02 0. -1.
       -1    1    3    3    0  502  0.21245483436E+02  0.24883278913E+03 -0.66652962667E+03  0.71178007191E+03  0.50400001928E-02 0.  1.
</event>
<event>
 5   0  0.1967813E-02  0.5015460E+03  0.7818609E-02  0.1013376E+00
       -2   -1    0    0    0  501  0.00000000000E+00  0.00000000000E+00  0.71905733979E+02  0.71905734025E+02  0.25500000920E-02 0. -1.
        2   -1    0    0  501    0  0.00000000000E+00  0.00000000000E+00 -0.87457682728E+03  0.87457682728E+03  0.25500000920E-02 0.  1.
    10030    2    1    2    0    0  0.00000000000E+00  0.00000000000E+00 -0.80267109330E+03  0.94648256131E+03  0.50154596483E+03 0.  0.
        5    1    3    3  502    0  0.23000251313E+03 -0.33301954678E+02 -0.57891462818E+03  0.62383845100E+03  0.46999998093E+01 0.  1.
       -5    1    3    3    0  502 -0.23000251313E+03  0.33301954678E+02 -0.22375646512E+03  0.32264411031E+03  0.46999998093E+01 0. -1.
</event>
<event>
 5   0  0.1227864E-02  0.5006652E+03  0.7818609E-02  0.1013605E+00
        1   -1    0    0  501    0  0.00000000000E+00  0.00000000000E+00  0.63453558828E+03  0.63453558830E+03  0.50400001928E-02 0.  1.
       -1   -1    0    0    0  501  0.00000000000E+00  0.00000000000E+00 -0.98759486495E+02  0.98759486624E+02  0.50400001928E-02 0. -1.
    10030    2    1    2    0    0  0.00000000000E+00  0.00000000000E+00  0.53577610178E+03  0.73329507492E+03  0.50066519318E+03 0.  0.
        5    1    3    3  502    0  0.22088261465E+03  0.40696899292E+02  0.10612004688E+03  0.24845305676E+03  0.46999998093E+01 0. -1.
       -5    1    3    3    0  502 -0.22088261465E+03 -0.40696899292E+02  0.42965605490E+03  0.48484201816E+03  0.46999998093E+01 0.  1.
</event>
<event>
 5   0  0.1225989E-02  0.4997983E+03  0.7818609E-02  0.1013832E+00
       -1   -1    0    0    0  501  0.00000000000E+00  0.00000000000E+00  0.10081647274E+03  0.10081647287E+03  0.50400001928E-02 0. -1.
        1   -1    0    0  501    0  0.00000000000E+00  0.00000000000E+00 -0.61943818361E+03  0.61943818363E+03  0.50400001928E-02 0.  1.
    10030    2    1    2    0    0  0.00000000000E+00  0.00000000000E+00 -0.51862171087E+03  0.72025465650E+03  0.49979825053E+03 0.  0.
        3    1    3    3  502    0 -0.54183573622E+02 -0.21762600613E+03 -0.41817518014E+03  0.47451810259E+03  0.10100000352E+00 0.  1.
       -3    1    3    3    0  502  0.54183573622E+02  0.21762600613E+03 -0.10044653073E+03  0.24573655392E+03  0.10100000352E+00 0. -1.
</event>
<event>
 5   0  0.1227864E-02  0.4997374E+03  0.7818609E-02  0.1013847E+00
        1   -1    0    0  501    0  0.00000000000E+00  0.00000000000E+00  0.41340982751E+03  0.41340982754E+03  0.50400001928E-02 0.  1.
       -1   -1    0    0    0  501  0.00000000000E+00  0.00000000000E+00 -0.15102292842E+03  0.15102292850E+03  0.50400001928E-02 0. -1.
    10030    2    1    2    0    0  0.00000000000E+00  0.00000000000E+00  0.26238689909E+03  0.56443275604E+03  0.49973738231E+03 0.  0.
        5    1    3    3  502    0  0.82211666947E+02  0.67275353792E+02  0.38657988497E+03  0.40093743761E+03  0.46999998093E+01 0.  1.
       -5    1    3    3    0  502 -0.82211666947E+02 -0.67275353792E+02 -0.12419298588E+03  0.16349531844E+03  0.46999998093E+01 0. -1.
</event>
<event>
 5   0  0.1855407E-02  0.4998405E+03  0.7818609E-02  0.1013821E+00
       -2   -1    0    0    0  501  0.00000000000E+00  0.00000000000E+00  0.41430315419E+02  0.41430315498E+02  0.25500000920E-02 0.  1.
        2   -1    0    0  501    0  0.00000000000E+00  0.00000000000E+00 -0.15075947419E+04  0.15075947419E+04  0.25500000920E-02 0. -1.
    10030    2    1    2    0    0  0.00000000000E+00  0.00000000000E+00 -0.14661644265E+04  0.15490250574E+04  0.49984047753E+03 0.  0.
        1    1    3    3  502    0 -0.22007630499E+03 -0.11111183543E+03 -0.86013168398E+03  0.89476585418E+03  0.50400001928E-02 0. -1.
       -1    1    3    3    0  502  0.22007630499E+03  0.11111183543E+03 -0.60603274250E+03  0.65425920322E+03  0.50400001928E-02 0.  1.
</event>
<event>
 5   0  0.1941387E-02  0.5001508E+03  0.7818609E-02  0.1013740E+00
       -2   -1    0    0    0  501  0.00000000000E+00  0.00000000000E+00  0.98385006875E+02  0.98385006908E+02  0.25500000920E-02 0. -1.
        2   -1    0    0  501    0  0.00000000000E+00  0.00000000000E+00 -0.63564271475E+03  0.63564271476E+03  0.25500000920E-02 0.  1.
    10030    2    1    2    0    0  0.00000000000E+00  0.00000000000E+00 -0.53725770788E+03  0.73402772167E+03  0.50015082875E+03 0.  0.
        4    1    3    3  502    0 -0.19870011448E+02 -0.12487775195E+03  0.48004398846E+02  0.13526014008E+03  0.12699999809E+01 0. -1.
       -4    1    3    3    0  502  0.19870011448E+02  0.12487775195E+03 -0.58526210673E+03  0.59876758158E+03  0.12699999809E+01 0.  1.
</event>
<event>
 5   0  0.8012875E-03  0.4988333E+03  0.7818609E-02  0.1014084E+00
        4   -1    0    0  501    0  0.00000000000E+00  0.00000000000E+00  0.12480931932E+03  0.12481578061E+03  0.12699999809E+01 0.  1.
       -4   -1    0    0    0  501  0.00000000000E+00  0.00000000000E+00 -0.49840941419E+03  0.49841103223E+03  0.12699999809E+01 0. -1.
    10030    2    1    2    0    0  0.00000000000E+00  0.00000000000E+00 -0.37360009487E+03  0.62322681284E+03  0.49883326810E+03 0.  0.
        2    1    3    3  502    0  0.93877576661E+02  0.28426411794E+02  0.99705069717E+02  0.13986479622E+03  0.25500000920E-02 0.  1.
       -2    1    3    3    0  502 -0.93877576661E+02 -0.28426411794E+02 -0.47330516459E+03  0.48336201663E+03  0.25500000920E-02 0. -1.
</event>
<event>
 5   0  0.1217270E-02  0.4985961E+03  0.7818609E-02  0.1014146E+00
        1   -1    0    0  501    0  0.00000000000E+00  0.00000000000E+00  0.51688305170E+03  0.51688305173E+03  0.50400001928E-02 0. -1.
       -1   -1    0    0    0  501  0.00000000000E+00  0.00000000000E+00 -0.12023903886E+03  0.12023903897E+03  0.50400001928E-02 0.  1.
    10030    2    1    2    0    0  0.00000000000E+00  0.00000000000E+00  0.39664401284E+03  0.63712209069E+03  0.49859611463E+03 0.  0.
        2    1    3    3  502    0 -0.14564163583E+03  0.16349638498E+03  0.46013392693E+02  0.22374044405E+03  0.25500000920E-02 0.  1.
       -2    1    3    3    0  502  0.14564163583E+03 -0.16349638498E+03  0.35063062015E+03  0.41338164664E+03  0.25500000920E-02 0. -1.
</event>
<event>
 5   0  0.1923706E-02  0.5001442E+03  0.7818609E-02  0.1013741E+00
       -2   -1    0    0    0  501  0.00000000000E+00  0.00000000000E+00  0.13281225746E+03  0.13281225748E+03  0.25500000920E-02 0. -1.
        2   -1    0    0  501    0  0.00000000000E+00  0.00000000000E+00 -0.47086061085E+03  0.47086061085E+03  0.25500000920E-02 0.  1.
    10030    2    1    2    0    0  0.00000000000E+00  0.00000000000E+00 -0.33804835339E+03  0.60367286834E+03  0.50014422194E+03 0.  0.
        3    1    3    3  502    0  0.15045666513E+03 -0.19960379533E+03 -0.17815017139E+03  0.30694686341E+03  0.10100000352E+00 0.  1.
       -3    1    3    3    0  502 -0.15045666513E+03  0.19960379533E+03 -0.15989818199E+03  0.29672600492E+03  0.10100000352E+00 0. -1.
</event>
<event>
 5   0  0.1209831E-02  0.5011379E+03  0.7818609E-02  0.1013482E+00
       -1   -1    0    0    0  501  0.00000000000E+00  0.00000000000E+00  0.11227917559E+03  0.11227917570E+03  0.50400001928E-02 0. -1.
        1   -1    0    0  501    0  0.00000000000E+00  0.00000000000E+00 -0.55918479987E+03  0.55918479989E+03  0.50400001928E-02 0.  1.
    10030    2    1    2    0    0  0.00000000000E+00  0.00000000000E+00 -0.44690562428E+03  0.67146397559E+03  0.50113793860E+03 0.  0.
        4    1    3    3  502    0 -0.13102817455E+03  0.10620782041E+03  0.24821700849E+02  0.17048816199E+03  0.12699999809E+01 0. -1.
       -4    1    3    3    0  502  0.13102817455E+03 -0.10620782041E+03 -0.47172732513E+03  0.50097581361E+03  0.12699999809E+01 0.  1.
</event>
<event>
 5   0  0.1923706E-02  0.5001141E+03  0.7818609E-02  0.1013749E+00
       -2   -1    0    0    0  501  0.00000000000E+00  0.00000000000E+00  0.72027658503E+02  0.72027658548E+02  0.25500000920E-02 0.  1.
        2   -1    0    0  501    0  0.00000000000E+00  0.00000000000E+00 -0.86811827413E+03  0.86811827413E+03  0.25500000920E-02 0. -1.
    10030    2    1    2    0    0  0.00000000000E+00  0.00000000000E+00 -0.79609061562E+03  0.94014593268E+03  0.50011409343E+03 0.  0.
        3    1    3    3  502    0 -0.51588890830E+02 -0.24312554390E+03 -0.44976964789E+03  0.51387176427E+03  0.10100000352E+00 0. -1.
       -3    1    3    3    0  502  0.51588890830E+02  0.24312554390E+03 -0.34632096773E+03  0.42627416840E+03  0.10100000352E+00 0.  1.
</event>
<event>
 5   0  0.1217270E-02  0.4999328E+03  0.7818609E-02  0.1013796E+00
       -1   -1    0    0    0  501  0.00000000000E+00  0.00000000000E+00  0.28904554745E+03  0.28904554749E+03  0.50400001928E-02 0.  1.
        1   -1    0    0  501    0  0.00000000000E+00  0.00000000000E+00 -0.21617074807E+03  0.21617074813E+03  0.50400001928E-02 0. -1.
    10030    2    1    2    0    0  0.00000000000E+00  0.00000000000E+00  0.72874799376E+02  0.50521629562E+03  0.49993276446E+03 0.  0.
        2    1    3    3  502    0 -0.30192602304E+02 -0.24191583877E+03  0.92232549985E+02  0.26065630544E+03  0.25500000920E-02 0.  1.
       -2    1    3    3    0  502  0.30192602304E+02  0.24191583877E+03 -0.19357750610E+02  0.24455999018E+03  0.25500000920E-02 0. -1.
</event>
<event>
 5   0  0.1855407E-02  0.4998111E+03  0.7818609E-02  0.1013828E+00
        2   -1    0    0  501    0  0.00000000000E+00  0.00000000000E+00  0.72197637529E+03  0.72197637529E+03  0.25500000920E-02 0.  1.
       -2   -1    0    0    0  501  0.00000000000E+00  0.00000000000E+00 -0.86502536869E+02  0.86502536907E+02  0.25500000920E-02 0. -1.
    10030    2    1    2    0    0  0.00000000000E+00  0.00000000000E+00  0.63547383842E+03  0.80847891220E+03  0.49981111648E+03 0.  0.
        1    1    3    3  502    0 -0.15475726259E+03 -0.19423604878E+03  0.27269597438E+03  0.36883674903E+03  0.50400001928E-02 0.  1.
       -1    1    3    3    0  502  0.15475726259E+03  0.19423604878E+03  0.36277786404E+03  0.43964216316E+03  0.50400001928E-02 0. -1.
</event>
<event>
 5   0  0.1982847E-02  0.4993989E+03  0.7818609E-02  0.1013936E+00
       -2   -1    0    0    0  501  0.00000000000E+00  0.00000000000E+00  0.11940876521E+03  0.11940876524E+03  0.25500000920E-02 0.  1.
        2   -1    0    0  501    0  0.00000000000E+00  0.00000000000E+00 -0.52215441755E+03  0.52215441755E+03  0.25500000920E-02 0. -1.
    10030    2    1    2    0    0  0.00000000000E+00  0.00000000000E+00 -0.40274565233E+03  0.64156318279E+03  0.49939889571E+03 0.  0.
        2    1    3    3  502    0  0.43364566101E+00 -0.14325727786E+03  0.61363487576E+02  0.15584708314E+03  0.25500000920E-02 0.  1.
       -2    1    3    3    0  502 -0.43364566101E+00  0.14325727786E+03 -0.46410913991E+03  0.48571609965E+03  0.25500000920E-02 0. -1.
</event>
<event>
 5   0  0.8012875E-03  0.5116108E+03  0.7818609E-02  0.1010792E+00
       -3   -1    0    0    0  501  0.00000000000E+00  0.00000000000E+00  0.81802094319E+03  0.81802094943E+03  0.10100000352E+00 0. -1.
        3   -1    0    0  501    0  0.00000000000E+00  0.00000000000E+00 -0.79993522411E+02  0.79993586172E+02  0.10100000352E+00 0.  1.
    10030    2    1    2    0    0  0.00000000000E+00  0.00000000000E+00  0.73802742078E+03  0.89801453560E+03  0.51161082115E+03 0.  0.
        3    1    3    3  502    0 -0.65435295499E+02 -0.13153991815E+02 -0.64440299878E+02  0.92775901219E+02  0.10100000352E+00 0.  1.
       -3    1    3    3    0  502  0.65435295499E+02  0.13153991815E+02  0.80246772066E+03  0.80523863438E+03  0.10100000352E+00 0. -1.
</event>
<event>
 5   0  0.1227864E-02  0.5000328E+03  0.7818609E-02  0.1013770E+00
       -1   -1    0    0    0  501  0.00000000000E+00  0.00000000000E+00  0.58139504366E+03  0.58139504368E+03  0.50400001928E-02 0. -1.
        1   -1    0    0  501    0  0.00000000000E+00  0.00000000000E+00 -0.10751417016E+03  0.10751417028E+03  0.50400001928E-02 0.  1.
    10030    2    1    2    0    0  0.00000000000E+00  0.00000000000E+00  0.47388087350E+03  0.68890921397E+03  0.50003282174E+03 0.  0.
        5    1    3    3  502    0 -0.18407586819E+03  0.50907094079E+02  0.14742944733E+02  0.19161133029E+03  0.46999998093E+01 0.  1.
       -5    1    3    3    0  502  0.18407586819E+03 -0.50907094079E+02  0.45913792877E+03  0.49729788367E+03  0.46999998093E+01 0. -1.
</event>
<event>
 5   0  0.1209831E-02  0.4895172E+03  0.7818609E-02  0.1016552E+00
        1   -1    0    0  501    0  0.00000000000E+00  0.00000000000E+00  0.11324408157E+03  0.11324408169E+03  0.50400001928E-02 0.  1.
       -1   -1    0    0    0  501  0.00000000000E+00  0.00000000000E+00 -0.52900574089E+03  0.52900574091E+03  0.50400001928E-02 0. -1.
    10030    2    1    2    0    0  0.00000000000E+00  0.00000000000E+00 -0.41576165932E+03  0.64224982260E+03  0.48951718792E+03 0.  0.
        4    1    3    3  502    0 -0.15160281986E+03  0.77538353583E+02  0.22784517170E+02  0.17180325488E+03  0.12699999809E+01 0.  1.
       -4    1    3    3    0  502  0.15160281986E+03 -0.77538353583E+02 -0.43854617649E+03  0.47044656772E+03  0.12699999809E+01 0. -1.
</event>
<event>
 5   0  0.1227864E-02  0.5000971E+03  0.7818609E-02  0.1013754E+00
       -1   -1    0    0    0  501  0.00000000000E+00  0.00000000000E+00  0.18420654019E+03  0.18420654026E+03  0.50400001928E-02 0. -1.
        1   -1    0    0  501    0  0.00000000000E+00  0.00000000000E+00 -0.33942487438E+03  0.33942487442E+03  0.50400001928E-02 0.  1.
    10030    2    1    2    0    0  0.00000000000E+00  0.00000000000E+00 -0.15521833419E+03  0.52363141467E+03  0.50009711773E+03 0.  0.
        5    1    3    3  502    0 -0.23623727205E+03 -0.73144318691E+02 -0.39222594741E+02  0.25043690223E+03  0.46999998093E+01 0.  1.
       -5    1    3    3    0  502  0.23623727205E+03  0.73144318691E+02 -0.11599573945E+03  0.27319451244E+03  0.46999998093E+01 0. -1.
</event>
<event>
 5   0  0.1941387E-02  0.4997628E+03  0.7818609E-02  0.1013841E+00
       -2   -1    0    0    0  501  0.00000000000E+00  0.00000000000E+00  0.15125817520E+03  0.15125817522E+03  0.25500000920E-02 0. -1.
        2   -1    0    0  501    0  0.00000000000E+00  0.00000000000E+00 -0.41280885529E+03  0.41280885530E+03  0.25500000920E-02 0.  1.
    10030    2    1    2    0    0  0.00000000000E+00  0.00000000000E+00 -0.26155068010E+03  0.56406703052E+03  0.49976280039E+03 0.  0.
        4    1    3    3  502    0  0.94665831888E+02 -0.22991560966E+03 -0.15879486382E+03  0.29502581068E+03  0.12699999809E+01 0. -1.
       -4    1    3    3    0  502 -0.94665831888E+02  0.22991560966E+03 -0.10275581628E+03  0.26904121984E+03  0.12699999809E+01 0.  1.
</event>
<event>
 5   0  0.1967813E-02  0.4995675E+03  0.7818609E-02  0.1013892E+00
       -2   -1    0    0    0  501  0.00000000000E+00  0.00000000000E+00  0.65005537321E+02  0.65005537371E+02  0.25500000920E-02 0.  1.
        2   -1    0    0  501    0  0.00000000000E+00  0.00000000000E+00 -0.95979384821E+03  0.95979384822E+03  0.25500000920E-02 0. -1.
    10030    2    1    2    0    0  0.00000000000E+00  0.00000000000E+00 -0.89478831089E+03  0.10247993856E+04  0.49956747231E+03 0.  0.
        5    1    3    3  502    0  0.17061278608E+03  0.18000886721E+03 -0.50747907968E+03  0.56486194894E+03  0.46999998093E+01 0.  1.
       -5    1    3    3    0  502 -0.17061278608E+03 -0.18000886721E+03 -0.38730923121E+03  0.45993743665E+03  0.46999998093E+01 0. -1.
</event>
<event>
 5   0  0.1209831E-02  0.5008421E+03  0.7818609E-02  0.1013559E+00
       -1   -1    0    0    0  501  0.00000000000E+00  0.00000000000E+00  0.35678081821E+03  0.35678081824E+03  0.50400001928E-02 0. -1.
        1   -1    0    0  501    0  0.00000000000E+00  0.00000000000E+00 -0.17576814634E+03  0.17576814641E+03  0.50400001928E-02 0.  1.
    10030    2    1    2    0    0  0.00000000000E+00  0.00000000000E+00  0.18101267186E+03  0.53254896465E+03  0.50084210324E+03 0.  0.
        4    1    3    3  502    0 -0.17194035284E+03  0.40880836083E+02  0.27914781167E+03  0.33039346446E+03  0.12699999809E+01 0. -1.
       -4    1    3    3    0  502  0.17194035284E+03 -0.40880836083E+02 -0.98135139811E+02  0.20215550020E+03  0.12699999809E+01 0.  1.
</event>
<event>
 5   0  0.1941387E-02  0.5008771E+03  0.7818609E-02  0.1013550E+00
       -2   -1    0    0    0  501  0.00000000000E+00  0.00000000000E+00  0.21452518071E+03  0.21452518073E+03  0.25500000920E-02 0.  1.
        2   -1    0    0  501    0  0.00000000000E+00  0.00000000000E+00 -0.29236408576E+03  0.29236408577E+03  0.25500000920E-02 0. -1.
    10030    2    1    2    0    0  0.00000000000E+00  0.00000000000E+00 -0.77838905043E+02  0.50688926649E+03  0.50087706411E+03 0.  0.
        4    1    3    3  502    0  0.19184872490E+02  0.24906555285E+03 -0.56913102284E+02  0.25620777322E+03  0.12699999809E+01 0.  1.
       -4    1    3    3    0  502 -0.19184872490E+02 -0.24906555285E+03 -0.20925802759E+02  0.25068149327E+03  0.12699999809E+01 0. -1.
</event>
<event>
 5   0  0.1227864E-02  0.4991541E+03  0.7818609E-02  0.1014000E+00
        1   -1    0    0  501    0  0.00000000000E+00  0.00000000000E+00  0.19970458698E+03  0.19970458704E+03  0.50400001928E-02 0.  1.
       -1   -1    0    0    0  501  0.00000000000E+00  0.00000000000E+00 -0.31190417905E+03  0.31190417909E+03  0.50400001928E-02 0. -1.
    10030    2    1    2    0    0  0.00000000000E+00  0.00000000000E+00 -0.11219959207E+03  0.51160876613E+03  0.49915406552E+03 0.  0.
        5    1    3    3  502    0 -0.22947003927E+03  0.91078600240E+02 -0.93264645341E+02  0.26395490981E+03  0.46999998093E+01 0. -1.
       -5    1    3    3    0  502  0.22947003927E+03 -0.91078600240E+02 -0.18934946733E+02  0.24765385632E+03  0.46999998093E+01 0.  1.
</event>
<event>
 5   0  0.1225989E-02  0.4998052E+03  0.7818609E-02  0.1013830E+00
        1   -1    0    0  501    0  0.00000000000E+00  0.00000000000E+00  0.13917587418E+03  0.13917587427E+03  0.50400001928E-02 0.  1.
       -1   -1    0    0    0  501  0.00000000000E+00  0.00000000000E+00 -0.44872219623E+03  0.44872219626E+03  0.50400001928E-02 0. -1.
    10030    2    1    2    0    0  0.00000000000E+00  0.00000000000E+00 -0.30954632205E+03  0.58789807053E+03  0.49980517788E+03 0.  0.
        3    1    3    3  502    0  0.90869502957E+02  0.23265169426E+03 -0.16441675118E+03  0.29902668055E+03  0.10100000352E+00 0.  1.
       -3    1    3    3    0  502 -0.90869502957E+02 -0.23265169426E+03 -0.14512957087E+03  0.28887138998E+03  0.10100000352E+00 0. -1.
</event>
<event>
 5   0  0.1217270E-02  0.5010231E+03  0.7818609E-02  0.1013512E+00
        1   -1    0    0  501    0  0.00000000000E+00  0.00000000000E+00  0.39733487605E+03  0.39733487608E+03  0.50400001928E-02 0.  1.
       -1   -1    0    0    0  501  0.00000000000E+00  0.00000000000E+00 -0.15794245635E+03  0.15794245643E+03  0.50400001928E-02 0. -1.
    10030    2    1    2    0    0  0.00000000000E+00  0.00000000000E+00  0.23939241969E+03  0.55527733252E+03  0.50102313859E+03 0.  0.
        2    1    3    3  502    0  0.20287555380E+03 -0.10783696696E+03  0.23035155471E+03  0.32534464885E+03  0.25500000920E-02 0.  1.
       -2    1    3    3    0  502 -0.20287555380E+03  0.10783696696E+03  0.90408649872E+01  0.22993268367E+03  0.25500000920E-02 0. -1.
</event>
<event>
 5   0  0.1217270E-02  0.5000079E+03  0.7818609E-02  0.1013777E+00
       -1   -1    0    0    0  501  0.00000000000E+00  0.00000000000E+00  0.38417561877E+02  0.38417562208E+02  0.50400001928E-02 0. -1.
        1   -1    0    0  501    0  0.00000000000E+00  0.00000000000E+00 -0.16269116606E+04  0.16269116606E+04  0.50400001928E-02 0.  1.
    10030    2    1    2    0    0  0.00000000000E+00  0.00000000000E+00 -0.15884940988E+04  0.16653292229E+04  0.50000791863E+03 0.  0.
        2    1    3    3  502    0 -0.13442625696E+03  0.14917658589E+03 -0.12902491353E+04  0.13057821042E+04  0.25500000920E-02 0.  1.
       -2    1    3    3    0  502  0.13442625696E+03 -0.14917658589E+03 -0.29824496342E+03  0.35954711868E+03  0.25500000920E-02 0. -1.
</event>
<event>
 5   0  0.1180937E-02  0.5019579E+03  0.7818609E-02  0.1013269E+00
       -1   -1    0    0    0  501  0.00000000000E+00  0.00000000000E+00  0.50272345785E+02  0.50272346037E+02  0.50400001928E-02 0.  1.
        1   -1    0    0  501    0  0.00000000000E+00  0.00000000000E+00 -0.12529837596E+04  0.12529837597E+04  0.50400001928E-02 0. -1.
    10030    2    1    2    0    0  0.00000000000E+00  0.00000000000E+00 -0.12027114139E+04  0.13032561057E+04  0.50195789863E+03 0.  0.
        1    1    3    3  502    0  0.23715434830E+03  0.51279724755E+02 -0.43473104518E+03  0.49785828983E+03  0.50400001928E-02 0. -1.
       -1    1    3    3    0  502 -0.23715434830E+03 -0.51279724755E+02 -0.76798036868E+03  0.80539781586E+03  0.50400001928E-02 0.  1.
</event>
<event>
 5   0  0.1227864E-02  0.5014901E+03  0.7818609E-02  0.1013391E+00
       -1   -1    0    0    0  501  0.00000000000E+00  0.00000000000E+00  0.13145942321E+03  0.13145942330E+03  0.50400001928E-02 0. -1.
        1   -1    0    0  501    0  0.00000000000E+00  0.00000000000E+00 -0.47826982547E+03  0.47826982550E+03  0.50400001928E-02 0.  1.
    10030    2    1    2    0    0  0.00000000000E+00  0.00000000000E+00 -0.34681040226E+03  0.60972924880E+03  0.50149008138E+03 0.  0.
        5    1    3    3  502    0 -0.51513829486E+02  0.20711526891E+03 -0.13484397122E+02  0.21390261384E+03  0.46999998093E+01 0. -1.
       -5    1    3    3    0  502  0.51513829486E+02 -0.20711526891E+03 -0.33332600514E+03  0.39582663496E+03  0.46999998093E+01 0.  1.
</event>
<event>
 5   0  0.1217270E-02  0.5006079E+03  0.7818609E-02  0.1013620E+00
        1   -1    0    0  501    0  0.00000000000E+00  0.00000000000E+00  0.53880142094E+03  0.53880142096E+03  0.50400001928E-02 0.  1.
       -1   -1    0    0    0  501  0.00000000000E+00  0.00000000000E+00 -0.11628046224E+03  0.11628046235E+03  0.50400001928E-02 0. -1.
    10030    2    1    2    0    0  0.00000000000E+00  0.00000000000E+00  0.42252095870E+03  0.65508188331E+03  0.50060794370E+03 0.  0.
        2    1    3    3  502    0 -0.93364158306E+02 -0.22945563498E+03  0.16434629900E+03  0.29728178633E+03  0.25500000920E-02 0.  1.
       -2    1    3    3    0  502  0.93364158306E+02  0.22945563498E+03  0.25817465970E+03  0.35780009698E+03  0.25500000920E-02 0. -1.
</event>
<event>
 5   0  0.1941387E-02  0.4995793E+03  0.7818609E-02  0.1013889E+00
       -2   -1    0    0    0  501  0.00000000000E+00  0.00000000000E+00  0.25496489190E+02  0.25496489318E+02  0.25500000920E-02 0.  1.
        2   -1    0    0  501    0  0.00000000000E+00  0.00000000000E+00 -0.24471949939E+04  0.24471949939E+04  0.25500000920E-02 0. -1.
    10030    2    1    2    0    0  0.00000000000E+00  0.00000000000E+00 -0.24216985047E+04  0.24726914833E+04  0.49957934653E+03 0.  0.
        4    1    3    3  502    0 -0.20587864444E+03  0.68432316486E+02 -0.18235597936E+04  0.18364206849E+04  0.12699999809E+01 0. -1.
       -4    1    3    3    0  502  0.20587864444E+03 -0.68432316486E+02 -0.59813871112E+03  0.63627079834E+03  0.12699999809E+01 0.  1.
</event>
<event>
 5   0  0.1941387E-02  0.5003974E+03  0.7818609E-02  0.1013675E+00
       -2   -1    0    0    0  501  0.00000000000E+00  0.00000000000E+00  0.57873298639E+02  0.57873298696E+02  0.25500000920E-02 0.  1.
        2   -1    0    0  501    0  0.00000000000E+00  0.00000000000E+00 -0.10816627349E+04  0.10816627349E+04  0.25500000920E-02 0. -1.
    10030    2    1    2    0    0  0.00000000000E+00  0.00000000000E+00 -0.10237894363E+04  0.11395360336E+04  0.50039740414E+03 0.  0.
        4    1    3    3  502    0  0.36173573130E+02 -0.80872197344E+01  0.51578556571E+02  0.63528662145E+02  0.12699999809E+01 0.  1.
       -4    1    3    3    0  502 -0.36173573130E+02  0.80872197344E+01 -0.10753679928E+04  0.10760073714E+04  0.12699999809E+01 0. -1.
</event>
<event>
 5   0  0.1855407E-02  0.4999275E+03  0.7818609E-02  0.1013798E+00
       -2   -1    0    0    0  501  0.00000000000E+00  0.00000000000E+00  0.64961504658E+02  0.64961504708E+02  0.25500000920E-02 0.  1.
        2   -1    0    0  501    0  0.00000000000E+00  0.00000000000E+00 -0.96182919385E+03  0.96182919385E+03  0.25500000920E-02 0. -1.
    10030    2    1    2    0    0  0.00000000000E+00  0.00000000000E+00 -0.89686768919E+03  0.10267906986E+04  0.49992748148E+03 0.  0.
        1    1    3    3  502    0  0.44916209701E+02 -0.20037323284E+03 -0.15569318768E+03  0.25769607496E+03  0.50400001928E-02 0.  1.
       -1    1    3    3    0  502 -0.44916209701E+02  0.20037323284E+03 -0.74117450152E+03  0.76909462361E+03  0.50400001928E-02 0. -1.
</event>
<event>
 5   0  0.1209831E-02  0.5003000E+03  0.7818609E-02  0.1013701E+00
        1   -1    0    0  501    0  0.00000000000E+00  0.00000000000E+00  0.26224357154E+03  0.26224357159E+03  0.50400001928E-02 0. -1.
       -1   -1    0    0    0  501  0.00000000000E+00  0.00000000000E+00 -0.23861412443E+03  0.23861412448E+03  0.50400001928E-02 0.  1.
    10030    2    1    2    0    0  0.00000000000E+00  0.00000000000E+00  0.23629447112E+02  0.50085769607E+03  0.50029999095E+03 0.  0.
        4    1    3    3  502    0 -0.18474858366E+03  0.41147302240E+02 -0.15191656769E+03  0.24270433883E+03  0.12699999809E+01 0.  1.
       -4    1    3    3    0  502  0.18474858366E+03 -0.41147302240E+02  0.17554601480E+03  0.25815335725E+03  0.12699999809E+01 0. -1.
</event>
<event>
 5   0  0.1209831E-02  0.4996209E+03  0.7818609E-02  0.1013878E+00
        1   -1    0    0  501    0  0.00000000000E+00  0.00000000000E+00  0.61729207812E+03  0.61729207814E+03  0.50400001928E-02 0.  1.
       -1   -1    0    0    0  501  0.00000000000E+00  0.00000000000E+00 -0.10109520951E+03  0.10109520963E+03  0.50400001928E-02 0. -1.
    10030    2    1    2    0    0  0.00000000000E+00  0.00000000000E+00  0.51619686862E+03  0.71838728778E+03  0.49962094438E+03 0.  0.
        4    1    3    3  502    0  0.69349157225E+02  0.19099495567E+03  0.46703595138E+03  0.50932560458E+03  0.12699999809E+01 0. -1.
       -4    1    3    3    0  502 -0.69349157225E+02 -0.19099495567E+03  0.49160917235E+02  0.20906168320E+03  0.12699999809E+01 0.  1.
</event>
<event>
 5   0  0.1967813E-02  0.4988355E+03  0.7818609E-02  0.1014083E+00
       -2   -1    0    0    0  501  0.00000000000E+00  0.00000000000E+00  0.39526446003E+02  0.39526446085E+02  0.25500000920E-02 0. -1.
        2   -1    0    0  501    0  0.00000000000E+00  0.00000000000E+00 -0.15738631959E+04  0.15738631959E+04  0.25500000920E-02 0.  1.
    10030    2    1    2    0    0  0.00000000000E+00  0.00000000000E+00 -0.15343367499E+04  0.16133896420E+04  0.49883551877E+03 0.  0.
        5    1    3    3  502    0  0.16279050304E+03 -0.46125559292E+02 -0.17467268602E+03  0.24323024553E+03  0.46999998093E+01 0. -1.
       -5    1    3    3    0  502 -0.16279050304E+03  0.46125559292E+02 -0.13596640639E+04  0.13701593964E+04  0.46999998093E+01 0.  1.
</event>
<event>
 5   0  0.1227864E-02  0.5006278E+03  0.7818609E-02  0.1013615E+00
        1   -1    0    0  501    0  0.00000000000E+00  0.00000000000E+00  0.94594272506E+03  0.94594272507E+03  0.50400001928E-02 0.  1.
       -1   -1    0    0    0  501  0.00000000000E+00  0.00000000000E+00 -0.66237681535E+02  0.66237681727E+02  0.50400001928E-02 0. -1.
    10030    2    1    2    0    0  0.00000000000E+00  0.00000000000E+00  0.87970504353E+03  0.10121804068E+04  0.50062781815E+03 0.  0.
        5    1    3    3  502    0 -0.89079823426E+02 -0.22752109874E+03  0.33033958228E+03  0.41091044637E+03  0.46999998093E+01 0. -1.
       -5    1    3    3    0  502  0.89079823426E+02  0.22752109874E+03  0.54936546125E+03  0.60126996044E+03  0.46999998093E+01 0.  1.
</event>
<event>
 5   0  0.1227864E-02  0.5001038E+03  0.7818609E-02  0.1013752E+00
       -1   -1    0    0    0  501  0.00000000000E+00  0.00000000000E+00  0.33673573498E+03  0.33673573502E+03  0.50400001928E-02 0. -1.
        1   -1    0    0  501    0  0.00000000000E+00  0.00000000000E+00 -0.18568258304E+03  0.18568258311E+03  0.50400001928E-02 0.  1.
    10030    2    1    2    0    0  0.00000000000E+00  0.00000000000E+00  0.15105315194E+03  0.52241831813E+03  0.50010383362E+03 0.  0.
        5    1    3    3  502    0  0.23270484279E+03 -0.85610931827E+02  0.42113510544E+02  0.25154803373E+03  0.46999998093E+01 0.  1.
       -5    1    3    3    0  502 -0.23270484279E+03  0.85610931827E+02  0.10893964140E+03  0.27087028440E+03  0.46999998093E+01 0. -1.
</event>
<event>
 5   0  0.1982847E-02  0.4999886E+03  0.7818609E-02  0.1013782E+00
        2   -1    0    0  501    0  0.00000000000E+00  0.00000000000E+00  0.34686783175E+03  0.34686783176E+03  0.25500000920E-02 0.  1.
       -2   -1    0    0    0  501  0.00000000000E+00  0.00000000000E+00 -0.18017568139E+03  0.18017568141E+03  0.25500000920E-02 0. -1.
    10030    2    1    2    0    0  0.00000000000E+00  0.00000000000E+00  0.16669215036E+03  0.52704351317E+03  0.49998859165E+03 0.  0.
        2    1    3    3  502    0  0.58843394203E+02  0.62033118199E+02 -0.16428365473E+03  0.18520197626E+03  0.25500000920E-02 0. -1.
       -2    1    3    3    0  502 -0.58843394203E+02 -0.62033118199E+02  0.33097580509E+03  0.34184153691E+03  0.25500000920E-02 0.  1.
</event>
<event>
 5   0  0.1225989E-02  0.4988458E+03  0.7818609E-02  0.1014081E+00
        1   -1    0    0  501    0  0.00000000000E+00  0.00000000000E+00  0.70534827502E+03  0.70534827504E+03  0.50400001928E-02 0.  1.
       -1   -1    0    0    0  501  0.00000000000E+00  0.00000000000E+00 -0.88200100223E+02  0.88200100367E+02  0.50400001928E-02 0. -1.
    10030    2    1    2    0    0  0.00000000000E+00  0.00000000000E+00  0.61714817480E+03  0.79354837541E+03  0.49884582233E+03 0.  0.
        3    1    3    3  502    0  0.40081378846E+02 -0.10406445078E+03 -0.46334425648E+02  0.12075933110E+03  0.10100000352E+00 0. -1.
       -3    1    3    3    0  502 -0.40081378846E+02  0.10406445078E+03  0.66348260045E+03  0.67278904431E+03  0.10100000352E+00 0.  1.
</event>
<event>
 5   0  0.1923706E-02  0.4967232E+03  0.7818609E-02  0.1014638E+00
        2   -1    0    0  501    0  0.00000000000E+00  0.00000000000E+00  0.17861753702E+03  0.17861753704E+03  0.25500000920E-02 0.  1.
       -2   -1    0    0    0  501  0.00000000000E+00  0.00000000000E+00 -0.34533832439E+03  0.34533832440E+03  0.25500000920E-02 0. -1.
    10030    2    1    2    0    0  0.00000000000E+00  0.00000000000E+00 -0.16672078736E+03  0.52395586144E+03  0.49672318629E+03 0.  0.
        3    1    3    3  502    0 -0.40041125861E+01 -0.21944428714E+03 -0.20597278036E+03  0.30099273168E+03  0.10100000352E+00 0. -1.
       -3    1    3    3    0  502  0.40041125861E+01  0.21944428714E+03  0.39251992997E+02  0.22296312976E+03  0.10100000352E+00 0.  1.
</event>
<event>
 5   0  0.1227864E-02  0.4998431E+03  0.7818609E-02  0.1013820E+00
        1   -1    0    0  501    0  0.00000000000E+00  0.00000000000E+00  0.35911093869E+03  0.35911093872E+03  0.50400001928E-02 0.  1.
       -1   -1    0    0    0  501  0.00000000000E+00  0.00000000000E+00 -0.17393170086E+03  0.17393170093E+03  0.50400001928E-02 0. -1.
    10030    2    1    2    0    0  0.00000000000E+00  0.00000000000E+00  0.18517923783E+03  0.53304263965E+03  0.49984308094E+03 0.  0.
        5    1    3    3  502    0 -0.23876750066E+03  0.44904482389E+02  0.15488492674E+03  0.28816273604E+03  0.46999998093E+01 0. -1.
       -5    1    3    3    0  502  0.23876750066E+03 -0.44904482389E+02  0.30294311090E+02  0.24487990361E+03  0.46999998093E+01 0.  1.
</event>
<event>
 5   0  0.1941387E-02  0.5003357E+03  0.7818609E-02  0.1013691E+00
        2   -1    0    0  501    0  0.00000000000E+00  0.00000000000E+00  0.16665010299E+03  0.16665010301E+03  0.25500000920E-02 0.  1.
       -2   -1    0    0    0  501  0.00000000000E+00  0.00000000000E+00 -0.37554108913E+03  0.37554108914E+03  0.25500000920E-02 0. -1.
    10030    2    1    2    0    0  0.00000000000E+00  0.00000000000E+00 -0.20889098614E+03  0.54219119215E+03  0.50033573204E+03 0.  0.
        4    1    3    3  502    0  0.10500731209E+03 -0.11251689488E+03 -0.31816397242E+03  0.35343530309E+03  0.12699999809E+01 0. -1.
       -4    1    3    3    0  502 -0.10500731209E+03  0.11251689488E+03  0.10927298628E+03  0.18875588906E+03  0.12699999809E+01 0.  1.
</event>
<event>
 5   0  0.1941387E-02  0.5007673E+03  0.7818609E-02  0.1013579E+00
       -2   -1    0    0    0  501  0.00000000000E+00  0.00000000000E+00  0.36219108996E+03  0.36219108997E+03  0.25500000920E-02 0.  1.
        2   -1    0    0  501    0  0.00000000000E+00  0.00000000000E+00 -0.17309086020E+03  0.17309086021E+03  0.25500000920E-02 0. -1.
    10030    2    1    2    0    0  0.00000000000E+00  0.00000000000E+00  0.18910022976E+03  0.53528195018E+03  0.50076728058E+03 0.  0.
        4    1    3    3  502    0  0.20177593221E+03 -0.11336663551E+03  0.19665796445E+03  0.30371283929E+03  0.12699999809E+01 0.  1.
       -4    1    3    3    0  502 -0.20177593221E+03  0.11336663551E+03 -0.75577346827E+01  0.23156911090E+03  0.12699999809E+01 0. -1.
</event>
<event>
 5   0  0.1217270E-02  0.4990748E+03  0.7818609E-02  0.1014021E+00
        1   -1    0    0  501    0  0.00000000000E+00  0.00000000000E+00  0.34709814119E+03  0.34709814123E+03  0.50400001928E-02 0. -1.
       -1   -1    0    0    0  501  0.00000000000E+00  0.00000000000E+00 -0.17939855403E+03  0.17939855410E+03  0.50400001928E-02 0.  1.
    10030    2    1    2    0    0  0.00000000000E+00  0.00000000000E+00  0.16769958716E+03  0.52649669533E+03  0.49907476259E+03 0.  0.
        2    1    3    3  502    0  0.93483834280E+02  0.10922907897E+03  0.29901391050E+03  0.33178236488E+03  0.25500000920E-02 0. -1.
       -2    1    3    3    0  502 -0.93483834280E+02 -0.10922907897E+03 -0.13131432333E+03  0.19471433045E+03  0.25500000920E-02 0.  1.
</event>
<event>
 5   0  0.1855407E-02  0.5003537E+03  0.7818609E-02  0.1013687E+00
       -2   -1    0    0    0  501  0.00000000000E+00  0.00000000000E+00  0.12486856317E+03  0.12486856320E+03  0.25500000920E-02 0.  1.
        2   -1    0    0  501    0  0.00000000000E+00  0.00000000000E+00 -0.50123471165E+03  0.50123471166E+03  0.25500000920E-02 0. -1.
    10030    2    1    2    0    0  0.00000000000E+00  0.00000000000E+00 -0.37636614848E+03  0.62610327486E+03  0.50035370796E+03 0.  0.
        1    1    3    3  502    0 -0.11430740508E+03 -0.17656624610E+03 -0.18691904659E+02  0.21116630755E+03  0.50400001928E-02 0.  1.
       -1    1    3    3    0  502  0.11430740508E+03  0.17656624610E+03 -0.35767424382E+03  0.41493696731E+03  0.50400001928E-02 0. -1.
</event>
<event>
 5   0  0.8012875E-03  0.4988694E+03  0.7818609E-02  0.1014074E+00
       -3   -1    0    0    0  501  0.00000000000E+00  0.00000000000E+00  0.20255447966E+03  0.20255450484E+03  0.10100000352E+00 0.  1.
        3   -1    0    0  501    0  0.00000000000E+00  0.00000000000E+00 -0.30716507122E+03  0.30716508782E+03  0.10100000352E+00 0. -1.
    10030    2    1    2    0    0  0.00000000000E+00  0.00000000000E+00 -0.10461059155E+03  0.50971959267E+03  0.49886940905E+03 0.  0.
        5    1    3    3  502    0  0.66266590343E+02 -0.84408262375E+02 -0.28232280570E+03  0.30206666875E+03  0.46999998093E+01 0. -1.
       -5    1    3    3    0  502 -0.66266590343E+02  0.84408262375E+02  0.17771221415E+03  0.20765292391E+03  0.46999998093E+01 0.  1.
</event>
<event>
 5   0  0.1180937E-02  0.5000308E+03  0.7818609E-02  0.1013771E+00
        1   -1    0    0  501    0  0.00000000000E+00  0.00000000000E+00  0.52380208281E+03  0.52380208283E+03  0.50400001928E-02 0. -1.
       -1   -1    0    0    0  501  0.00000000000E+00  0.00000000000E+00 -0.11933455714E+03  0.11933455725E+03  0.50400001928E-02 0.  1.
    10030    2    1    2    0    0  0.00000000000E+00  0.00000000000E+00  0.40446752567E+03  0.64313664008E+03  0.50003075755E+03 0.  0.
        1    1    3    3  502    0  0.29455279129E+02  0.20665247725E+03  0.25248446730E+02  0.21026255946E+03  0.50400001928E-02 0.  1.
       -1    1    3    3    0  502 -0.29455279129E+02 -0.20665247725E+03  0.37921907894E+03  0.43287408063E+03  0.50400001928E-02 0. -1.
</event>
<event>
 5   0  0.1227864E-02  0.5003307E+03  0.7818609E-02  0.1013693E+00
       -1   -1    0    0    0  501  0.00000000000E+00  0.00000000000E+00  0.71124752720E+02  0.71124752898E+02  0.50400001928E-02 0.  1.
        1   -1    0    0  501    0  0.00000000000E+00  0.00000000000E+00 -0.87990045343E+03  0.87990045345E+03  0.50400001928E-02 0. -1.
    10030    2    1    2    0    0  0.00000000000E+00  0.00000000000E+00 -0.80877570071E+03  0.95102520635E+03  0.50033069968E+03 0.  0.
        5    1    3    3  502    0 -0.23559701863E+03 -0.83861279585E+02 -0.41329177531E+03  0.48308472439E+03  0.46999998093E+01 0. -1.
       -5    1    3    3    0  502  0.23559701863E+03  0.83861279585E+02 -0.39548392541E+03  0.46794048196E+03  0.46999998093E+01 0.  1.
</event>
<event>
 5   0  0.1855407E-02  0.4998108E+03  0.7818609E-02  0.1013828E+00
       -2   -1    0    0    0  501  0.00000000000E+00  0.00000000000E+00  0.29228877735E+02  0.29228877846E+02  0.25500000920E-02 0. -1.
        2   -1    0    0  501    0  0.00000000000E+00  0.00000000000E+00 -0.21366785996E+04  0.21366785996E+04  0.25500000920E-02 0.  1.
    10030    2    1    2    0    0  0.00000000000E+00  0.00000000000E+00 -0.21074497219E+04  0.21659074775E+04  0.49981083489E+03 0.  0.
        1    1    3    3  502    0 -0.14491585425E+03  0.55884315907E+02 -0.19021202434E+04  0.19084509639E+04  0.50400001928E-02 0.  1.
       -1    1    3    3    0  502  0.14491585425E+03 -0.55884315907E+02 -0.20532947853E+03  0.25745651352E+03  0.50400001928E-02 0. -1.
</event>
<event>
 5   0  0.1225989E-02  0.5031558E+03  0.7818609E-02  0.1012958E+00
        1   -1    0    0  501    0  0.00000000000E+00  0.00000000000E+00  0.85412015579E+02  0.85412015728E+02  0.50400001928E-02 0. -1.
       -1   -1    0    0    0  501  0.00000000000E+00  0.00000000000E+00 -0.74101337576E+03  0.74101337578E+03  0.50400001928E-02 0.  1.
    10030    2    1    2    0    0  0.00000000000E+00  0.00000000000E+00 -0.65560136018E+03  0.82642539150E+03  0.50315582502E+03 0.  0.
        3    1    3    3  502    0  0.23353572157E+03  0.55289975399E+02 -0.20384458542E+03  0.31487861127E+03  0.10100000352E+00 0.  1.
       -3    1    3    3    0  502 -0.23353572157E+03 -0.55289975399E+02 -0.45175677476E+03  0.51154678023E+03  0.10100000352E+00 0. -1.
</event>
<event>
 5   0  0.1225989E-02  0.4999569E+03  0.7818609E-02  0.1013790E+00
       -1   -1    0    0    0  501  0.00000000000E+00  0.00000000000E+00  0.42232697965E+03  0.42232697968E+03  0.50400001928E-02 0. -1.
        1   -1    0    0  501    0  0.00000000000E+00  0.00000000000E+00 -0.14796405994E+03  0.14796406002E+03  0.50400001928E-02 0.  1.
    10030    2    1    2    0    0  0.00000000000E+00  0.00000000000E+00  0.27436291971E+03  0.57029103970E+03  0.49995685639E+03 0.  0.
        3    1    3    3  502    0  0.44093071230E+02  0.13871965087E+03  0.36900036214E+03  0.39667192733E+03  0.10100000352E+00 0. -1.
       -3    1    3    3    0  502 -0.44093071230E+02 -0.13871965087E+03 -0.94637442437E+02  0.17361911237E+03  0.10100000352E+00 0.  1.
</event>
<event>
 5   0  0.1209831E-02  0.4924586E+03  0.7818609E-02  0.1015766E+00
       -1   -1    0    0    0  501  0.00000000000E+00  0.00000000000E+00  0.11538201330E+03  0.11538201341E+03  0.50400001928E-02 0. -1.
        1   -1    0    0  501    0  0.00000000000E+00  0.00000000000E+00 -0.52546200505E+03  0.52546200508E+03  0.50400001928E-02 0.  1.
    10030    2    1    2    0    0  0.00000000000E+00  0.00000000000E+00 -0.41007999175E+03  0.64084401849E+03  0.49245858344E+03 0.  0.
        4    1    3    3  502    0 -0.81011041471E+02 -0.47856824045E+02  0.91060589864E+02  0.13094544045E+03  0.12699999809E+01 0. -1.
       -4    1    3    3    0  502  0.81011041471E+02  0.47856824045E+02 -0.50114058161E+03  0.50989857804E+03  0.12699999809E+01 0.  1.
</event>
<event>
 5   0  0.1967813E-02  0.5000591E+03  0.7818609E-02  0.1013763E+00
       -2   -1    0    0    0  501  0.00000000000E+00  0.00000000000E+00  0.11341053197E+03  0.11341053200E+03  0.25500000920E-02 0. -1.
        2   -1    0    0  501    0  0.00000000000E+00  0.00000000000E+00 -0.55122545815E+03  0.55122545816E+03  0.25500000920E-02 0.  1.
    10030    2    1    2    0    0  0.00000000000E+00  0.00000000000E+00 -0.43781492618E+03  0.66463599016E+03  0.50005908634E+03 0.  0.
        5    1    3    3  502    0  0.12582716757E+03 -0.19950468975E+03 -0.10883873007E+03  0.25981254106E+03  0.46999998093E+01 0. -1.
       -5    1    3    3    0  502 -0.12582716757E+03  0.19950468975E+03 -0.32897619611E+03  0.40482344909E+03  0.46999998093E+01 0.  1.
</event>
<event>
 5   0  0.1855407E-02  0.5012360E+03  0.7818609E-02  0.1013457E+00
       -2   -1    0    0    0  501  0.00000000000E+00  0.00000000000E+00  0.84176921193E+02  0.84176921232E+02  0.25500000920E-02 0.  1.
        2   -1    0    0  501    0  0.00000000000E+00  0.00000000000E+00 -0.74615902485E+03  0.74615902486E+03  0.25500000920E-02 0. -1.
    10030    2    1    2    0    0  0.00000000000E+00  0.00000000000E+00 -0.66198210366E+03  0.83033594609E+03  0.50123595023E+03 0.  0.
        1    1    3    3  502    0 -0.24516695442E+03  0.48670669965E+02 -0.36125249124E+03  0.43929378792E+03  0.50400001928E-02 0.  1.
       -1    1    3    3    0  502  0.24516695442E+03 -0.48670669965E+02 -0.30072961242E+03  0.39104215816E+03  0.50400001928E-02 0. -1.
</event>
<event>
 5   0  0.1217270E-02  0.5095747E+03  0.7818609E-02  0.1011310E+00
        1   -1    0    0  501    0  0.00000000000E+00  0.00000000000E+00  0.49475559881E+03  0.49475559884E+03  0.50400001928E-02 0. -1.
       -1   -1    0    0    0  501  0.00000000000E+00  0.00000000000E+00 -0.13120940236E+03  0.13120940245E+03  0.50400001928E-02 0.  1.
    10030    2    1    2    0    0  0.00000000000E+00  0.00000000000E+00  0.36354619646E+03  0.62596500129E+03  0.50957467155E+03 0.  0.
        2    1    3    3  502    0 -0.17619323141E+03 -0.60950645693E+02 -0.31551162938E+02  0.18908863502E+03  0.25500000920E-02 0.  1.
       -2    1    3    3    0  502  0.17619323141E+03  0.60950645693E+02  0.39509735939E+03  0.43687636628E+03  0.25500000920E-02 0. -1.
</event>
<event>
 5   0  0.1225989E-02  0.4996119E+03  0.7818609E-02  0.1013880E+00
       -1   -1    0    0    0  501  0.00000000000E+00  0.00000000000E+00  0.13740922890E+03  0.13740922899E+03  0.50400001928E-02 0.  1.
        1   -1    0    0  501    0  0.00000000000E+00  0.00000000000E+00 -0.45413992395E+03  0.45413992397E+03  0.50400001928E-02 0. -1.
    10030    2    1    2    0    0  0.00000000000E+00  0.00000000000E+00 -0.31673069505E+03  0.59154915296E+03  0.49961191658E+03 0.  0.
        3    1    3    3  502    0  0.12775613702E+03  0.21466039247E+03 -0.15657284137E+03  0.29481482239E+03  0.10100000352E+00 0.  1.
       -3    1    3    3    0  502 -0.12775613702E+03 -0.21466039247E+03 -0.16015785368E+03  0.29673433057E+03  0.10100000352E+00 0. -1.
</event>
<event>
 5   0  0.1923706E-02  0.5003641E+03  0.7818609E-02  0.1013684E+00
       -2   -1    0    0    0  501  0.00000000000E+00  0.00000000000E+00  0.13822210396E+03  0.13822210398E+03  0.25500000920E-02 0. -1.
        2   -1    0    0  501    0  0.00000000000E+00  0.00000000000E+00 -0.45282962876E+03  0.45282962876E+03  0.25500000920E-02 0.  1.
    10030    2    1    2    0    0  0.00000000000E+00  0.00000000000E+00 -0.31460752480E+03  0.59105173275E+03  0.50036412354E+03 0.  0.
        3    1    3    3  502    0  0.22832148564E+03  0.77488229601E+02 -0.23615497567E+03  0.33749712483E+03  0.10100000352E+00 0. -1.
       -3    1    3    3    0  502 -0.22832148564E+03 -0.77488229601E+02 -0.78452549132E+02  0.25355460792E+03  0.10100000352E+00 0.  1.
</event>
<event>
 5   0  0.1855407E-02  0.5013387E+03  0.7818609E-02  0.1013430E+00
       -2   -1    0    0    0  501  0.00000000000E+00  0.00000000000E+00  0.43440500862E+02  0.43440500937E+02  0.25500000920E-02 0. -1.
        2   -1    0    0  501    0  0.00000000000E+00  0.00000000000E+00 -0.14464638508E+04  0.14464638508E+04  0.25500000920E-02 0.  1.
    10030    2    1    2    0    0  0.00000000000E+00  0.00000000000E+00 -0.14030233499E+04  0.14899043517E+04  0.50133866483E+03 0.  0.
        1    1    3    3  502    0  0.57766721984E+02 -0.23926429820E+03 -0.56052193753E+03  0.61218399280E+03  0.50400001928E-02 0. -1.
       -1    1    3    3    0  502 -0.57766721984E+02  0.23926429820E+03 -0.84250141237E+03  0.87772035891E+03  0.50400001928E-02 0.  1.
</event>
<event>
 5   0  0.1227864E-02  0.5002928E+03  0.7818609E-02  0.1013703E+00
       -1   -1    0    0    0  501  0.00000000000E+00  0.00000000000E+00  0.65695343265E+02  0.65695343458E+02  0.50400001928E-02 0.  1.
        1   -1    0    0  501    0  0.00000000000E+00  0.00000000000E+00 -0.95247583897E+03  0.95247583898E+03  0.50400001928E-02 0. -1.
    10030    2    1    2    0    0  0.00000000000E+00  0.00000000000E+00 -0.88678049571E+03  0.10181711824E+04  0.50029282344E+03 0.  0.
        5    1    3    3  502    0  0.11938735861E+03  0.27886911962E+02 -0.88703492384E+03  0.89547979730E+03  0.46999998093E+01 0. -1.
       -5    1    3    3    0  502 -0.11938735861E+03 -0.27886911962E+02  0.25442813935E+00  0.12269138514E+03  0.46999998093E+01 0.  1.
</event>
<event>
 5   0  0.1227864E-02  0.4989228E+03  0.7818609E-02  0.1014060E+00
       -1   -1    0    0    0  501  0.00000000000E+00  0.00000000000E+00  0.45871467678E+02  0.45871467955E+02  0.50400001928E-02 0. -1.
        1   -1    0    0  501    0  0.00000000000E+00  0.00000000000E+00 -0.13566383972E+04  0.13566383972E+04  0.50400001928E-02 0.  1.
    10030    2    1    2    0    0  0.00000000000E+00  0.00000000000E+00 -0.13107669295E+04  0.14025098651E+04  0.49892281803E+03 0.  0.
        5    1    3    3  502    0  0.24884018956E+03 -0.15978936109E+02 -0.63944730556E+03  0.68636121170E+03  0.46999998093E+01 0. -1.
       -5    1    3    3    0  502 -0.24884018956E+03  0.15978936109E+02 -0.67131962392E+03  0.71614865342E+03  0.46999998093E+01 0.  1.
</event>
<event>
 5   0  0.1217270E-02  0.4998046E+03  0.7818609E-02  0.1013830E+00
        1   -1    0    0  501    0  0.00000000000E+00  0.00000000000E+00  0.46700031629E+03  0.46700031631E+03  0.50400001928E-02 0.  1.
       -1   -1    0    0    0  501  0.00000000000E+00  0.00000000000E+00 -0.13372829980E+03  0.13372829989E+03  0.50400001928E-02 0. -1.
    10030    2    1    2    0    0  0.00000000000E+00  0.00000000000E+00  0.33327201649E+03  0.60072861621E+03  0.49980459517E+03 0.  0.
        2    1    3    3  502    0 -0.19641264338E+03  0.10894478635E+03  0.34948108989E+02  0.22730654034E+03  0.25500000920E-02 0.  1.
       -2    1    3    3    0  502  0.19641264338E+03 -0.10894478635E+03  0.29832390750E+03  0.37342207587E+03  0.25500000920E-02 0. -1.
</event>
<event>
 5   0  0.1225989E-02  0.4997651E+03  0.7818609E-02  0.1013840E+00
       -1   -1    0    0    0  501  0.00000000000E+00  0.00000000000E+00  0.35885667892E+03  0.35885667896E+03  0.50400001928E-02 0. -1.
        1   -1    0    0  501    0  0.00000000000E+00  0.00000000000E+00 -0.17400062576E+03  0.17400062584E+03  0.50400001928E-02 0.  1.
    10030    2    1    2    0    0  0.00000000000E+00  0.00000000000E+00  0.18485605316E+03  0.53285730479E+03  0.49976509170E+03 0.  0.
        3    1    3    3  502    0  0.72953283253E+02  0.36907948571E+02  0.34419242044E+03  0.35376943154E+03  0.10100000352E+00 0. -1.
       -3    1    3    3    0  502 -0.72953283253E+02 -0.36907948571E+02 -0.15933636728E+03  0.17908787325E+03  0.10100000352E+00 0.  1.
</event>
<event>
 5   0  0.1217270E-02  0.4992511E+03  0.7818609E-02  0.1013975E+00
       -1   -1    0    0    0  501  0.00000000000E+00  0.00000000000E+00  0.22352274931E+03  0.22352274937E+03  0.50400001928E-02 0.  1.
        1   -1    0    0  501    0  0.00000000000E+00  0.00000000000E+00 -0.27877657750E+03  0.27877657755E+03  0.50400001928E-02 0. -1.
    10030    2    1    2    0    0  0.00000000000E+00  0.00000000000E+00 -0.55253828196E+02  0.50229932692E+03  0.49925106739E+03 0.  0.
        2    1    3    3  502    0 -0.23179448240E+03 -0.80906829047E+02 -0.73050217248E+02  0.25614630839E+03  0.25500000920E-02 0. -1.
       -2    1    3    3    0  502  0.23179448240E+03  0.80906829047E+02  0.17796389052E+02  0.24615301852E+03  0.25500000920E-02 0.  1.
</event>
<event>
 5   0  0.1227864E-02  0.4997920E+03  0.7818609E-02  0.1013833E+00
        1   -1    0    0  501    0  0.00000000000E+00  0.00000000000E+00  0.47178041740E+03  0.47178041743E+03  0.50400001928E-02 0.  1.
       -1   -1    0    0    0  501  0.00000000000E+00  0.00000000000E+00 -0.13236669173E+03  0.13236669183E+03  0.50400001928E-02 0. -1.
    10030    2    1    2    0    0  0.00000000000E+00  0.00000000000E+00  0.33941372567E+03  0.60414710925E+03  0.49979200919E+03 0.  0.
        5    1    3    3  502    0  0.19684503427E+03 -0.14055934966E+03  0.94014303606E+02  0.25954898877E+03  0.46999998093E+01 0. -1.
       -5    1    3    3    0  502 -0.19684503427E+03  0.14055934966E+03  0.24539942206E+03  0.34459812048E+03  0.46999998093E+01 0.  1.
</event>
<event>
 5   0  0.8012875E-03  0.5005258E+03  0.7818609E-02  0.1013642E+00
       -4   -1    0    0    0  501  0.00000000000E+00  0.00000000000E+00  0.96348636237E+02  0.96357005997E+02  0.12699999809E+01 0.  1.
        4   -1    0    0  501    0  0.00000000000E+00  0.00000000000E+00 -0.65001368179E+03  0.65001492246E+03  0.12699999809E+01 0. -1.
    10030    2    1    2    0    0  0.00000000000E+00  0.00000000000E+00 -0.55366504556E+03  0.74637192846E+03  0.50052579645E+03 0.  0.
        2    1    3    3  502    0 -0.78014634582E+02  0.11248676283E+03 -0.58923993883E+03  0.60493244296E+03  0.25500000920E-02 0. -1.
       -2    1    3    3    0  502  0.78014634582E+02 -0.11248676283E+03  0.35574893276E+02  0.14143948550E+03  0.25500000920E-02 0.  1.
</event>
<event>
 5   0  0.1923706E-02  0.5001807E+03  0.7818609E-02  0.1013732E+00
       -2   -1    0    0    0  501  0.00000000000E+00  0.00000000000E+00  0.20120330087E+03  0.20120330089E+03  0.25500000920E-02 0. -1.
        2   -1    0    0  501    0  0.00000000000E+00  0.00000000000E+00 -0.31085567472E+03  0.31085567473E+03  0.25500000920E-02 0.  1.
    10030    2    1    2    0    0  0.00000000000E+00  0.00000000000E+00 -0.10965237385E+03  0.51205897562E+03  0.50018071876E+03 0.  0.
        3    1    3    3  502    0  0.47978777878E+02 -0.65096793027E+02 -0.29710132484E+03  0.30791031651E+03  0.10100000352E+00 0.  1.
       -3    1    3    3    0  502 -0.47978777878E+02  0.65096793027E+02  0.18744895099E+03  0.20414865911E+03  0.10100000352E+00 0. -1.
</event>
<event>
 5   0  0.1982847E-02  0.4991246E+03  0.7818609E-02  0.1014008E+00
       -2   -1    0    0    0  501  0.00000000000E+00  0.00000000000E+00  0.20450160626E+03  0.20450160628E+03  0.25500000920E-02 0. -1.
        2   -1    0    0  501    0  0.00000000000E+00  0.00000000000E+00 -0.30455179716E+03  0.30455179717E+03  0.25500000920E-02 0.  1.
    10030    2    1    2    0    0  0.00000000000E+00  0.00000000000E+00 -0.10005019089E+03  0.50905340345E+03  0.49912456047E+03 0.  0.
        2    1    3    3  502    0  0.16091233883E+03  0.18387696451E+03 -0.10180724757E+03  0.26470405084E+03  0.25500000920E-02 0.  1.
       -2    1    3    3    0  502 -0.16091233883E+03 -0.18387696451E+03  0.17570566743E+01  0.24434935261E+03  0.25500000920E-02 0. -1.
</event>
<event>
 5   0  0.1855407E-02  0.5003279E+03  0.7818609E-02  0.1013693E+00
       -2   -1    0    0    0  501  0.00000000000E+00  0.00000000000E+00  0.17611885330E+03  0.17611885332E+03  0.25500000920E-02 0.  1.
        2   -1    0    0  501    0  0.00000000000E+00  0.00000000000E+00 -0.35533954514E+03  0.35533954515E+03  0.25500000920E-02 0. -1.
    10030    2    1    2    0    0  0.00000000000E+00  0.00000000000E+00 -0.17922069183E+03  0.53145839847E+03  0.50032786543E+03 0.  0.
        1    1    3    3  502    0 -0.54710100867E+02 -0.62901215034E+02  0.16093009532E+03  0.18124087176E+03  0.50400001928E-02 0.  1.
       -1    1    3    3    0  502  0.54710100867E+02  0.62901215034E+02 -0.34015078715E+03  0.35021752671E+03  0.50400001928E-02 0. -1.
</event>
<event>
 5   0  0.1217270E-02  0.4994330E+03  0.7818609E-02  0.1013927E+00
        1   -1    0    0  501    0  0.00000000000E+00  0.00000000000E+00  0.20126515061E+03  0.20126515067E+03  0.50400001928E-02 0.  1.
       -1   -1    0    0    0  501  0.00000000000E+00  0.00000000000E+00 -0.30983170274E+03  0.30983170278E+03  0.50400001928E-02 0. -1.
    10030    2    1    2    0    0  0.00000000000E+00  0.00000000000E+00 -0.10856655212E+03  0.51109685345E+03  0.49943297585E+03 0.  0.
        2    1    3    3  502    0  0.22588679141E+03  0.97949933511E+02 -0.96962084333E+02  0.26461420561E+03  0.25500000920E-02 0. -1.
       -2    1    3    3    0  502 -0.22588679141E+03 -0.97949933511E+02 -0.11604467791E+02  0.24648264784E+03  0.25500000920E-02 0.  1.
</event>
<event>
 5   0  0.1941387E-02  0.5003037E+03  0.7818609E-02  0.1013700E+00
        2   -1    0    0  501    0  0.00000000000E+00  0.00000000000E+00  0.43260839507E+03  0.43260839508E+03  0.25500000920E-02 0. -1.
       -2   -1    0    0    0  501  0.00000000000E+00  0.00000000000E+00 -0.14464801091E+03  0.14464801093E+03  0.25500000920E-02 0.  1.
    10030    2    1    2    0    0  0.00000000000E+00  0.00000000000E+00  0.28796038416E+03  0.57725640601E+03  0.50030368321E+03 0.  0.
        4    1    3    3  502    0 -0.54128385285E+00 -0.42947434853E+02 -0.14035794473E+03  0.14678808091E+03  0.12699999809E+01 0.  1.
       -4    1    3    3    0  502  0.54128385285E+00  0.42947434853E+02  0.42831832889E+03  0.43046832510E+03  0.12699999809E+01 0. -1.
</event>
<event>
 5   0  0.1209831E-02  0.4989523E+03  0.7818609E-02  0.1014053E+00
       -1   -1    0    0    0  501  0.00000000000E+00  0.00000000000E+00  0.56246434734E+03  0.56246434736E+03  0.50400001928E-02 0. -1.
        1   -1    0    0  501    0  0.00000000000E+00  0.00000000000E+00 -0.11065295712E+03  0.11065295724E+03  0.50400001928E-02 0.  1.
    10030    2    1    2    0    0  0.00000000000E+00  0.00000000000E+00  0.45181139022E+03  0.67311730460E+03  0.49895227569E+03 0.  0.
        4    1    3    3  502    0 -0.13280385911E+03  0.16039419242E+03  0.41124125684E+03  0.46096002667E+03  0.12699999809E+01 0. -1.
       -4    1    3    3    0  502  0.13280385911E+03 -0.16039419242E+03  0.40570133380E+02  0.21215727793E+03  0.12699999809E+01 0.  1.
</event>
<event>
 5   0  0.1217270E-02  0.5008871E+03  0.7818609E-02  0.1013548E+00
       -1   -1    0    0    0  501  0.00000000000E+00  0.00000000000E+00  0.21129261771E+03  0.21129261777E+03  0.50400001928E-02 0.  1.
        1   -1    0    0  501    0  0.00000000000E+00  0.00000000000E+00 -0.29684883886E+03  0.29684883890E+03  0.50400001928E-02 0. -1.
    10030    2    1    2    0    0  0.00000000000E+00  0.00000000000E+00 -0.85556221151E+02  0.50814145667E+03  0.50088708608E+03 0.  0.
        2    1    3    3  502    0 -0.15798826881E+03  0.16820727932E+03 -0.14149094105E+03  0.27069109387E+03  0.25500000920E-02 0. -1.
       -2    1    3    3    0  502  0.15798826881E+03 -0.16820727932E+03  0.55934719896E+02  0.23745036280E+03  0.25500000920E-02 0.  1.
</event>
<event>
 5   0  0.1923706E-02  0.4993403E+03  0.7818609E-02  0.1013951E+00
       -2   -1    0    0    0  501  0.00000000000E+00  0.00000000000E+00  0.14131747986E+03  0.14131747988E+03  0.25500000920E-02 0. -1.
        2   -1    0    0  501    0  0.00000000000E+00  0.00000000000E+00 -0.44110037769E+03  0.44110037770E+03  0.25500000920E-02 0.  1.
    10030    2    1    2    0    0  0.00000000000E+00  0.00000000000E+00 -0.29978289783E+03  0.58241785758E+03  0.49934033984E+03 0.  0.
        3    1    3    3  502    0  0.13531783375E+02  0.15076201609E+03  0.81694525159E+02  0.17200668679E+03  0.10100000352E+00 0. -1.
       -3    1    3    3    0  502 -0.13531783375E+02 -0.15076201609E+03 -0.38147742299E+03  0.41041117079E+03  0.10100000352E+00 0.  1.
</event>
<event>
 5   0  0.1225989E-02  0.5000555E+03  0.7818609E-02  0.1013764E+00
       -1   -1    0    0    0  501  0.00000000000E+00  0.00000000000E+00  0.38582262278E+03  0.38582262282E+03  0.50400001928E-02 0.  1.
        1   -1    0    0  501    0  0.00000000000E+00  0.00000000000E+00 -0.16202748448E+03  0.16202748456E+03  0.50400001928E-02 0. -1.
    10030    2    1    2    0    0  0.00000000000E+00  0.00000000000E+00  0.22379513830E+03  0.54785010738E+03  0.50005547315E+03 0.  0.
        3    1    3    3  502    0 -0.46290997706E+02 -0.24605179325E+02 -0.15593856180E+03  0.16451479135E+03  0.10100000352E+00 0. -1.
       -3    1    3    3    0  502  0.46290997706E+02  0.24605179325E+02  0.37973370010E+03  0.38333531602E+03  0.10100000352E+00 0.  1.
</event>
<event>
 5   0  0.1923706E-02  0.4860219E+03  0.7818609E-02  0.1017493E+00
        2   -1    0    0  501    0  0.00000000000E+00  0.00000000000E+00  0.49976526728E+03  0.49976526728E+03  0.25500000920E-02 0.  1.
       -2   -1    0    0    0  501  0.00000000000E+00  0.00000000000E+00 -0.11816409499E+03  0.11816409501E+03  0.25500000920E-02 0. -1.
    10030    2    1    2    0    0  0.00000000000E+00  0.00000000000E+00  0.38160117229E+03  0.61792936230E+03  0.48602185352E+03 0.  0.
        3    1    3    3  502    0  0.14905648348E+03  0.18317667725E+03  0.26364617539E+03  0.35395034448E+03  0.10100000352E+00 0.  1.
       -3    1    3    3    0  502 -0.14905648348E+03 -0.18317667725E+03  0.11795499690E+03  0.26397901782E+03  0.10100000352E+00 0. -1.
</event>
<event>
 5   0  0.8012875E-03  0.5009155E+03  0.7818609E-02  0.1013540E+00
       -3   -1    0    0    0  501  0.00000000000E+00  0.00000000000E+00  0.35047403484E+03  0.35047404940E+03  0.10100000352E+00 0.  1.
        3   -1    0    0  501    0  0.00000000000E+00  0.00000000000E+00 -0.17898352741E+03  0.17898355590E+03  0.10100000352E+00 0. -1.
    10030    2    1    2    0    0  0.00000000000E+00  0.00000000000E+00  0.17149050744E+03  0.52945760530E+03  0.50091552349E+03 0.  0.
        2    1    3    3  502    0  0.27211044503E+02 -0.16829503015E+03 -0.10819090890E+03  0.20191317661E+03  0.25500000920E-02 0. -1.
       -2    1    3    3    0  502 -0.27211044503E+02  0.16829503015E+03  0.27968141633E+03  0.32754442869E+03  0.25500000920E-02 0.  1.
</event>
<event>
 5   0  0.1209831E-02  0.5005297E+03  0.7818609E-02  0.1013641E+00
       -1   -1    0    0    0  501  0.00000000000E+00  0.00000000000E+00  0.16452691595E+03  0.16452691602E+03  0.50400001928E-02 0. -1.
        1   -1    0    0  501    0  0.00000000000E+00  0.00000000000E+00 -0.38068232294E+03  0.38068232297E+03  0.50400001928E-02 0.  1.
    10030    2    1    2    0    0  0.00000000000E+00  0.00000000000E+00 -0.21615540699E+03  0.54520923900E+03  0.50052967376E+03 0.  0.
        4    1    3    3  502    0  0.13503624440E+03 -0.89031859943E+02  0.99938795737E+02  0.19013372972E+03  0.12699999809E+01 0. -1.
       -4    1    3    3    0  502 -0.13503624440E+03  0.89031859943E+02 -0.31609420273E+03  0.35507550927E+03  0.12699999809E+01 0.  1.
</event>
<event>
 5   0  0.1227864E-02  0.5011036E+03  0.7818609E-02  0.1013491E+00
       -1   -1    0    0    0  501  0.00000000000E+00  0.00000000000E+00  0.93089813532E+02  0.93089813669E+02  0.50400001928E-02 0.  1.
        1   -1    0    0  501    0  0.00000000000E+00  0.00000000000E+00 -0.67436168890E+03  0.67436168892E+03  0.50400001928E-02 0. -1.
    10030    2    1    2    0    0  0.00000000000E+00  0.00000000000E+00 -0.58127187537E+03  0.76745150259E+03  0.50110359780E+03 0.  0.
        5    1    3    3  502    0 -0.42831745713E+02  0.21091071033E+03 -0.94288835877E+02  0.23501140556E+03  0.46999998093E+01 0.  1.
       -5    1    3    3    0  502  0.42831745713E+02 -0.21091071033E+03 -0.48698303949E+03  0.53244009703E+03  0.46999998093E+01 0. -1.
</event>
<event>
 5   0  0.1923706E-02  0.5001822E+03  0.7818609E-02  0.1013731E+00
       -2   -1    0    0    0  501  0.00000000000E+00  0.00000000000E+00  0.59420317428E+02  0.59420317482E+02  0.25500000920E-02 0.  1.
        2   -1    0    0  501    0  0.00000000000E+00  0.00000000000E+00 -0.10525956454E+04  0.10525956454E+04  0.25500000920E-02 0. -1.
    10030    2    1    2    0    0  0.00000000000E+00  0.00000000000E+00 -0.99317532800E+03  0.11120159629E+04  0.50018223642E+03 0.  0.
        3    1    3    3  502    0  0.98732428272E+02 -0.22808702332E+03 -0.43474474309E+03  0.50077418509E+03  0.10100000352E+00 0. -1.
       -3    1    3    3    0  502 -0.98732428272E+02  0.22808702332E+03 -0.55843058490E+03  0.61124177782E+03  0.10100000352E+00 0.  1.
</event>
<event>
 5   0  0.1180937E-02  0.4999757E+03  0.7818609E-02  0.1013785E+00
       -1   -1    0    0    0  501  0.00000000000E+00  0.00000000000E+00  0.10559287259E+03  0.10559287272E+03  0.50400001928E-02 0.  1.
        1   -1    0    0  501    0  0.00000000000E+00  0.00000000000E+00 -0.59183856431E+03  0.59183856433E+03  0.50400001928E-02 0. -1.
    10030    2    1    2    0    0  0.00000000000E+00  0.00000000000E+00 -0.48624569172E+03  0.69743143705E+03  0.49997573608E+03 0.  0.
        1    1    3    3  502    0  0.95973890463E+02 -0.23082990648E+03 -0.24213572573E+03  0.34802750333E+03  0.50400001928E-02 0.  1.
       -1    1    3    3    0  502 -0.95973890463E+02  0.23082990648E+03 -0.24410996599E+03  0.34940393372E+03  0.50400001928E-02 0. -1.
</event>
<event>
 5   0  0.1967813E-02  0.5057119E+03  0.7818609E-02  0.1012299E+00
        2   -1    0    0  501    0  0.00000000000E+00  0.00000000000E+00  0.29068062057E+03  0.29068062058E+03  0.25500000920E-02 0. -1.
       -2   -1    0    0    0  501  0.00000000000E+00  0.00000000000E+00 -0.21995319139E+03  0.21995319141E+03  0.25500000920E-02 0.  1.
    10030    2    1    2    0    0  0.00000000000E+00  0.00000000000E+00  0.70727429170E+02  0.51063381199E+03  0.50571189496E+03 0.  0.
        5    1    3    3  502    0 -0.87154235116E+02  0.21828613131E+03 -0.58651799839E+02  0.24229490181E+03  0.46999998093E+01 0.  1.
       -5    1    3    3    0  502  0.87154235116E+02 -0.21828613131E+03  0.12937922901E+03  0.26833891018E+03  0.46999998093E+01 0. -1.
</event>
<event>
 5   0  0.1217270E-02  0.5004515E+03  0.7818609E-02  0.1013661E+00
        1   -1    0    0  501    0  0.00000000000E+00  0.00000000000E+00  0.63648259742E+03  0.63648259744E+03  0.50400001928E-02 0.  1.
       -1   -1    0    0    0  501  0.00000000000E+00  0.00000000000E+00 -0.98373332823E+02  0.98373332952E+02  0.50400001928E-02 0. -1.
    10030    2    1    2    0    0  0.00000000000E+00  0.00000000000E+00  0.53810926460E+03  0.73485593039E+03  0.50045145398E+03 0.  0.
        2    1    3    3  502    0  0.10968704098E+03 -0.15264179064E+03  0.51159249937E+03  0.54502995205E+03  0.25500000920E-02 0.  1.
       -2    1    3    3    0  502 -0.10968704098E+03  0.15264179064E+03  0.26516765227E+02  0.18982597834E+03  0.25500000920E-02 0. -1.
</event>
<event>
 5   0  0.1180937E-02  0.5001819E+03  0.7818609E-02  0.1013731E+00
        1   -1    0    0  501    0  0.00000000000E+00  0.00000000000E+00  0.41730536645E+03  0.41730536648E+03  0.50400001928E-02 0. -1.
       -1   -1    0    0    0  501  0.00000000000E+00  0.00000000000E+00 -0.14987940541E+03  0.14987940550E+03  0.50400001928E-02 0.  1.
    10030    2    1    2    0    0  0.00000000000E+00  0.00000000000E+00  0.26742596104E+03  0.56718477198E+03  0.50018188785E+03 0.  0.
        1    1    3    3  502    0 -0.21968453091E+03  0.11016908722E+03  0.18625521128E+03  0.30836589411E+03  0.50400001928E-02 0. -1.
       -1    1    3    3    0  502  0.21968453091E+03 -0.11016908722E+03  0.81170749760E+02  0.25881887787E+03  0.50400001928E-02 0.  1.
</event>
<event>
 5   0  0.8012875E-03  0.5001222E+03  0.7818609E-02  0.1013747E+00
        3   -1    0    0  501    0  0.00000000000E+00  0.00000000000E+00  0.36010111610E+03  0.36010113026E+03  0.10100000352E+00 0. -1.
       -3   -1    0    0    0  501  0.00000000000E+00  0.00000000000E+00 -0.17364716210E+03  0.17364719148E+03  0.10100000352E+00 0.  1.
    10030    2    1    2    0    0  0.00000000000E+00  0.00000000000E+00  0.18645395399E+03  0.53374832174E+03  0.50012217907E+03 0.  0.
        2    1    3    3  502    0 -0.22719249884E+03  0.13473128344E+02 -0.17336761006E+02  0.22825100220E+03  0.25500000920E-02 0.  1.
       -2    1    3    3    0  502  0.22719249884E+03 -0.13473128344E+02  0.20379071500E+03  0.30549731953E+03  0.25500000920E-02 0. -1.
</event>
<event>
 5   0  0.1225989E-02  0.5046350E+03  0.7818609E-02  0.1012576E+00
        1   -1    0    0  501    0  0.00000000000E+00  0.00000000000E+00  0.12223467967E+03  0.12223467977E+03  0.50400001928E-02 0. -1.
       -1   -1    0    0    0  501  0.00000000000E+00  0.00000000000E+00 -0.52083507304E+03  0.52083507306E+03  0.50400001928E-02 0.  1.
    10030    2    1    2    0    0  0.00000000000E+00  0.00000000000E+00 -0.39860039337E+03  0.64306975283E+03  0.50463495065E+03 0.  0.
        3    1    3    3  502    0  0.63437648448E+02 -0.23622455148E+03 -0.12035646778E+03  0.27260239086E+03  0.10100000352E+00 0. -1.
       -3    1    3    3    0  502 -0.63437648448E+02  0.23622455148E+03 -0.27824392559E+03  0.37046736198E+03  0.10100000352E+00 0.  1.
</event>
<event>
 5   0  0.1982847E-02  0.4996936E+03  0.7818609E-02  0.1013859E+00
        2   -1    0    0  501    0  0.00000000000E+00  0.00000000000E+00  0.78249523468E+03  0.78249523468E+03  0.25500000920E-02 0.  1.
       -2   -1    0    0    0  501  0.00000000000E+00  0.00000000000E+00 -0.79774818837E+02  0.79774818878E+02  0.25500000920E-02 0. -1.
    10030    2    1    2    0    0  0.00000000000E+00  0.00000000000E+00  0.70272041584E+03  0.86227005356E+03  0.49969356853E+03 0.  0.
        2    1    3    3  502    0  0.22925435446E+03 -0.53417961623E+02  0.20685875926E+03  0.31337131961E+03  0.25500000920E-02 0. -1.
       -2    1    3    3    0  502 -0.22925435446E+03  0.53417961623E+02  0.49586165658E+03  0.54889873395E+03  0.25500000920E-02 0.  1.
</event>
<event>
 5   0  0.1855407E-02  0.5002516E+03  0.7818609E-02  0.1013713E+00
        2   -1    0    0  501    0  0.00000000000E+00  0.00000000000E+00  0.31100972061E+03  0.31100972062E+03  0.25500000920E-02 0.  1.
       -2   -1    0    0    0  501  0.00000000000E+00  0.00000000000E+00 -0.20116062065E+03  0.20116062067E+03  0.25500000920E-02 0. -1.
    10030    2    1    2    0    0  0.00000000000E+00  0.00000000000E+00  0.10984909996E+03  0.51217034129E+03  0.50025157045E+03 0.  0.
        1    1    3    3  502    0 -0.13454986550E+02 -0.92466645911E+02  0.29246926921E+03  0.30703320786E+03  0.50400001928E-02 0.  1.
       -1    1    3    3    0  502  0.13454986550E+02  0.92466645911E+02 -0.18262016925E+03  0.20513713343E+03  0.50400001928E-02 0. -1.
</event>
<event>
 5   0  0.1209831E-02  0.4992541E+03  0.7818609E-02  0.1013974E+00
        1   -1    0    0  501    0  0.00000000000E+00  0.00000000000E+00  0.26242862860E+03  0.26242862865E+03  0.50400001928E-02 0.  1.
       -1   -1    0    0    0  501  0.00000000000E+00  0.00000000000E+00 -0.23744990590E+03  0.23744990595E+03  0.50400001928E-02 0. -1.
    10030    2    1    2    0    0  0.00000000000E+00  0.00000000000E+00  0.24978722705E+02  0.49987853461E+03  0.49925405634E+03 0.  0.
        4    1    3    3  502    0  0.10355141928E+03 -0.22500569164E+03 -0.18558821049E+02  0.24838780253E+03  0.12699999809E+01 0.  1.
       -4    1    3    3    0  502 -0.10355141928E+03  0.22500569164E+03  0.43537543754E+02  0.25149073208E+03  0.12699999809E+01 0. -1.
</event>
<event>
 5   0  0.1180937E-02  0.5008634E+03  0.7818609E-02  0.1013554E+00
        1   -1    0    0  501    0  0.00000000000E+00  0.00000000000E+00  0.66780213245E+03  0.66780213247E+03  0.50400001928E-02 0. -1.
       -1   -1    0    0    0  501  0.00000000000E+00  0.00000000000E+00 -0.93914085134E+02  0.93914085269E+02  0.50400001928E-02 0.  1.
    10030    2    1    2    0    0  0.00000000000E+00  0.00000000000E+00  0.57388804732E+03  0.76171621774E+03  0.50086336012E+03 0.  0.
        1    1    3    3  502    0 -0.44455785221E+02  0.22144058231E+03  0.12241709989E+03  0.25690113800E+03  0.50400001928E-02 0.  1.
       -1    1    3    3    0  502  0.44455785221E+02 -0.22144058231E+03  0.45147094742E+03  0.50481507974E+03  0.50400001928E-02 0. -1.
</event>
<event>
 5   0  0.1180937E-02  0.5006640E+03  0.7818609E-02  0.1013606E+00
       -1   -1    0    0    0  501  0.00000000000E+00  0.00000000000E+00  0.72473521854E+02  0.72473522030E+02  0.50400001928E-02 0.  1.
        1   -1    0    0  501    0  0.00000000000E+00  0.00000000000E+00 -0.86467603245E+03  0.86467603246E+03  0.50400001928E-02 0. -1.
    10030    2    1    2    0    0  0.00000000000E+00  0.00000000000E+00 -0.79220251059E+03  0.93714955449E+03  0.50066402876E+03 0.  0.
        1    1    3    3  502    0 -0.11450895435E+03  0.15236418228E+03 -0.92319330409E+02  0.21177819402E+03  0.50400001928E-02 0.  1.
       -1    1    3    3    0  502  0.11450895435E+03 -0.15236418228E+03 -0.69988318019E+03  0.72537136048E+03  0.50400001928E-02 0. -1.
</event>
<event>
 5   0  0.1217270E-02  0.4993890E+03  0.7818609E-02  0.1013939E+00
        1   -1    0    0  501    0  0.00000000000E+00  0.00000000000E+00  0.17886996542E+03  0.17886996550E+03  0.50400001928E-02 0.  1.
       -1   -1    0    0    0  501  0.00000000000E+00  0.00000000000E+00 -0.34856238928E+03  0.34856238931E+03  0.50400001928E-02 0. -1.
    10030    2    1    2    0    0  0.00000000000E+00  0.00000000000E+00 -0.16969242385E+03  0.52743235481E+03  0.49938899686E+03 0.  0.
        2    1    3    3  502    0  0.12919125075E+03  0.17381771024E+03  0.46407880474E+02  0.22148739702E+03  0.25500000920E-02 0.  1.
       -2    1    3    3    0  502 -0.12919125075E+03 -0.17381771024E+03 -0.21610030433E+03  0.30594495779E+03  0.25500000920E-02 0. -1.
</event>
<event>
 5   0  0.1855407E-02  0.4991836E+03  0.7818609E-02  0.1013992E+00
        2   -1    0    0  501    0  0.00000000000E+00  0.00000000000E+00  0.11532347638E+04  0.11532347638E+04  0.25500000920E-02 0. -1.
       -2   -1    0    0    0  501  0.00000000000E+00  0.00000000000E+00 -0.54018546230E+02  0.54018546290E+02  0.25500000920E-02 0.  1.
    10030    2    1    2    0    0  0.00000000000E+00  0.00000000000E+00  0.10992162176E+04  0.12072533101E+04  0.49918359524E+03 0.  0.
        1    1    3    3  502    0  0.14511377231E+03  0.18552509598E+03  0.74931011852E+03  0.78545733296E+03  0.50400001928E-02 0.  1.
       -1    1    3    3    0  502 -0.14511377231E+03 -0.18552509598E+03  0.34990609905E+03  0.42179597713E+03  0.50400001928E-02 0. -1.
</event>
<event>
 5   0  0.1923706E-02  0.5031182E+03  0.7818609E-02  0.1012968E+00
        2   -1    0    0  501    0  0.00000000000E+00  0.00000000000E+00  0.97210622257E+03  0.97210622257E+03  0.25500000920E-02 0. -1.
       -2   -1    0    0    0  501  0.00000000000E+00  0.00000000000E+00 -0.65097811082E+02  0.65097811132E+02  0.25500000920E-02 0.  1.
    10030    2    1    2    0    0  0.00000000000E+00  0.00000000000E+00  0.90700841149E+03  0.10372040337E+04  0.50311822569E+03 0.  0.
        3    1    3    3  502    0  0.24565019678E+03 -0.12844153985E+02  0.34494467606E+03  0.42366948345E+03  0.10100000352E+00 0. -1.
       -3    1    3    3    0  502 -0.24565019678E+03  0.12844153985E+02  0.56206373543E+03  0.61353455025E+03  0.10100000352E+00 0.  1.
</event>
<event>
 5   0  0.1225989E-02  0.4996544E+03  0.7818609E-02  0.1013869E+00
       -1   -1    0    0    0  501  0.00000000000E+00  0.00000000000E+00  0.28164221543E+03  0.28164221547E+03  0.50400001928E-02 0. -1.
        1   -1    0    0  501    0  0.00000000000E+00  0.00000000000E+00 -0.22160609150E+03  0.22160609155E+03  0.50400001928E-02 0.  1.
    10030    2    1    2    0    0  0.00000000000E+00  0.00000000000E+00  0.60036123930E+02  0.50324830703E+03  0.49965440291E+03 0.  0.
        3    1    3    3  502    0 -0.73941948822E+02 -0.10449355184E+03  0.24610095358E+03  0.27740224174E+03  0.10100000352E+00 0. -1.
       -3    1    3    3    0  502  0.73941948822E+02  0.10449355184E+03 -0.18606482965E+03  0.22584606528E+03  0.10100000352E+00 0.  1.
</event>
<event>
 5   0  0.1941387E-02  0.4905172E+03  0.7818609E-02  0.1016284E+00
        2   -1    0    0  501    0  0.00000000000E+00  0.00000000000E+00  0.52887377448E+03  0.52887377448E+03  0.25500000920E-02 0. -1.
       -2   -1    0    0    0  501  0.00000000000E+00  0.00000000000E+00 -0.11373561035E+03  0.11373561038E+03  0.25500000920E-02 0.  1.
    10030    2    1    2    0    0  0.00000000000E+00  0.00000000000E+00  0.41513816412E+03  0.64260938486E+03  0.49051720276E+03 0.  0.
        4    1    3    3  502    0 -0.21114525047E+03 -0.18529767640E+02  0.45923315944E+02  0.21687838282E+03  0.12699999809E+01 0.  1.
       -4    1    3    3    0  502  0.21114525047E+03  0.18529767640E+02  0.36921484818E+03  0.42573100205E+03  0.12699999809E+01 0. -1.
</event>
<event>
 5   0  0.1225989E-02  0.4997534E+03  0.7818609E-02  0.1013843E+00
       -1   -1    0    0    0  501  0.00000000000E+00  0.00000000000E+00  0.53157378941E+03  0.53157378943E+03  0.50400001928E-02 0.  1.
        1   -1    0    0  501    0  0.00000000000E+00  0.00000000000E+00 -0.11745946602E+03  0.11745946613E+03  0.50400001928E-02 0. -1.
    10030    2    1    2    0    0  0.00000000000E+00  0.00000000000E+00  0.41411432339E+03  0.64903325556E+03  0.49975343319E+03 0.  0.
        3    1    3    3  502    0  0.79659888124E+02 -0.21732806504E+02 -0.99229458066E+02  0.12909108491E+03  0.10100000352E+00 0. -1.
       -3    1    3    3    0  502 -0.79659888124E+02  0.21732806504E+02  0.51334378146E+03  0.51994217065E+03  0.10100000352E+00 0.  1.
</event>
<event>
 5   0  0.1225989E-02  0.5000145E+03  0.7818609E-02  0.1013775E+00
       -1   -1    0    0    0  501  0.00000000000E+00  0.00000000000E+00  0.11766780079E+03  0.11766780090E+03  0.50400001928E-02 0.  1.
        1   -1    0    0  501    0  0.00000000000E+00  0.00000000000E+00 -0.53118725772E+03  0.53118725774E+03  0.50400001928E-02 0. -1.
    10030    2    1    2    0    0  0.00000000000E+00  0.00000000000E+00 -0.41351945692E+03  0.64885505864E+03  0.50001454566E+03 0.  0.
        3    1    3    3  502    0 -0.33275917338E+02 -0.73175343511E+02  0.10043993859E+03  0.12864722709E+03  0.10100000352E+00 0.  1.
       -3    1    3    3    0  502  0.33275917338E+02  0.73175343511E+02 -0.51395939551E+03  0.52020783155E+03  0.10100000352E+00 0. -1.
</event>
<event>
 5   0  0.1923706E-02  0.4983206E+03  0.7818609E-02  0.1014218E+00
        2   -1    0    0  501    0  0.00000000000E+00  0.00000000000E+00  0.17796581956E+04  0.17796581956E+04  0.25500000920E-02 0.  1.
       -2   -1    0    0    0  501  0.00000000000E+00  0.00000000000E+00 -0.34883589405E+02  0.34883589499E+02  0.25500000920E-02 0. -1.
    10030    2    1    2    0    0  0.00000000000E+00  0.00000000000E+00  0.17447746062E+04  0.18145417851E+04  0.49832064321E+03 0.  0.
        3    1    3    3  502    0  0.23014359594E+03 -0.37078314085E+02  0.11927397173E+04  0.12153061012E+04  0.10100000352E+00 0.  1.
       -3    1    3    3    0  502 -0.23014359594E+03  0.37078314085E+02  0.55203488883E+03  0.59923568386E+03  0.10100000352E+00 0. -1.
</event>
<event>
 5   0  0.8012875E-03  0.4995281E+03  0.7818609E-02  0.1013902E+00
        3   -1    0    0  501    0  0.00000000000E+00  0.00000000000E+00  0.32243235071E+03  0.32243236652E+03  0.10100000352E+00 0. -1.
       -3   -1    0    0    0  501  0.00000000000E+00  0.00000000000E+00 -0.19347335018E+03  0.19347337654E+03  0.10100000352E+00 0.  1.
    10030    2    1    2    0    0  0.00000000000E+00  0.00000000000E+00  0.12895900052E+03  0.51590574307E+03  0.49952808922E+03 0.  0.
        5    1    3    3  502    0  0.20061177256E+03 -0.14860093255E+03  0.70382443826E+02  0.25942840793E+03  0.46999998093E+01 0.  1.
       -5    1    3    3    0  502 -0.20061177256E+03  0.14860093255E+03  0.58576556698E+02  0.25647733514E+03  0.46999998093E+01 0. -1.
</event>
<event>
 5   0  0.1209831E-02  0.5005954E+03  0.7818609E-02  0.1013624E+00
       -1   -1    0    0    0  501  0.00000000000E+00  0.00000000000E+00  0.24670349639E+03  0.24670349644E+03  0.50400001928E-02 0. -1.
        1   -1    0    0  501    0  0.00000000000E+00  0.00000000000E+00 -0.25394422306E+03  0.25394422311E+03  0.50400001928E-02 0.  1.
    10030    2    1    2    0    0  0.00000000000E+00  0.00000000000E+00 -0.72407266646E+01  0.50064771955E+03  0.50059535652E+03 0.  0.
        4    1    3    3  502    0  0.23244482700E+03  0.18728362921E+02  0.87306502994E+02  0.24900881017E+03  0.12699999809E+01 0. -1.
       -4    1    3    3    0  502 -0.23244482700E+03 -0.18728362921E+02 -0.94547229659E+02  0.25163890938E+03  0.12699999809E+01 0.  1.
</event>
<event>
 5   0  0.1225989E-02  0.4999817E+03  0.7818609E-02  0.1013784E+00
       -1   -1    0    0    0  501  0.00000000000E+00  0.00000000000E+00  0.10110468305E+03  0.10110468318E+03  0.50400001928E-02 0. -1.
        1   -1    0    0  501    0  0.00000000000E+00  0.00000000000E+00 -0.61812587554E+03  0.61812587556E+03  0.50400001928E-02 0.  1.
    10030    2    1    2    0    0  0.00000000000E+00  0.00000000000E+00 -0.51702119249E+03  0.71923055874E+03  0.49998168280E+03 0.  0.
        3    1    3    3  502    0  0.50729803617E+02  0.10301569721E+03  0.60922608050E+02  0.12998969659E+03  0.10100000352E+00 0. -1.
       -3    1    3    3    0  502 -0.50729803617E+02 -0.10301569721E+03 -0.57794380054E+03  0.58924086215E+03  0.10100000352E+00 0.  1.
</event>
<event>
 5   0  0.1982847E-02  0.5009227E+03  0.7818609E-02  0.1013538E+00
        2   -1    0    0  501    0  0.00000000000E+00  0.00000000000E+00  0.14359951235E+04  0.14359951235E+04  0.25500000920E-02 0. -1.
       -2   -1    0    0    0  501  0.00000000000E+00  0.00000000000E+00 -0.43684602270E+02  0.43684602344E+02  0.25500000920E-02 0.  1.
    10030    2    1    2    0    0  0.00000000000E+00  0.00000000000E+00  0.13923105212E+04  0.14796797258E+04  0.50092265226E+03 0.  0.
        2    1    3    3  502    0 -0.79268910961E+02 -0.23674831785E+02 -0.21603382158E+01  0.82757023706E+02  0.25500000920E-02 0.  1.
       -2    1    3    3    0  502  0.79268910961E+02  0.23674831785E+02  0.13944708594E+04  0.13969227021E+04  0.25500000920E-02 0. -1.
</event>
<event>
 5   0  0.1209831E-02  0.5002579E+03  0.7818609E-02  0.1013712E+00
        1   -1    0    0  501    0  0.00000000000E+00  0.00000000000E+00  0.22502160927E+02  0.22502161492E+02  0.50400001928E-02 0. -1.
       -1   -1    0    0    0  501  0.00000000000E+00  0.00000000000E+00 -0.27803770694E+04  0.27803770694E+04  0.50400001928E-02 0.  1.
    10030    2    1    2    0    0  0.00000000000E+00  0.00000000000E+00 -0.27578749085E+04  0.28028792309E+04  0.50025790570E+03 0.  0.
        4    1    3    3  502    0 -0.39591890438E+02 -0.23315792289E+02 -0.27565110631E+04  0.27568942667E+04  0.12699999809E+01 0.  1.
       -4    1    3    3    0  502  0.39591890438E+02  0.23315792289E+02 -0.13638453950E+01  0.45984964203E+02  0.12699999809E+01 0. -1.
</event>
<event>
 5   0  0.1855407E-02  0.4995916E+03  0.7818609E-02  0.1013886E+00
       -2   -1    0    0    0  501  0.00000000000E+00  0.00000000000E+00  0.52496574210E+02  0.52496574272E+02  0.25500000920E-02 0.  1.
        2   -1    0    0  501    0  0.00000000000E+00  0.00000000000E+00 -0.11886097820E+04  0.11886097820E+04  0.25500000920E-02 0. -1.
    10030    2    1    2    0    0  0.00000000000E+00  0.00000000000E+00 -0.11361132078E+04  0.12411063563E+04  0.49959159988E+03 0.  0.
        1    1    3    3  502    0  0.97378798253E+02  0.19652535119E+03 -0.27105619146E+03  0.34867793587E+03  0.50400001928E-02 0.  1.
       -1    1    3    3    0  502 -0.97378798253E+02 -0.19652535119E+03 -0.86505701632E+03  0.89242842039E+03  0.50400001928E-02 0. -1.
</event>
<event>
 5   0  0.8012875E-03  0.4986327E+03  0.7818609E-02  0.1014136E+00
       -4   -1    0    0    0  501  0.00000000000E+00  0.00000000000E+00  0.33649056245E+03  0.33649295909E+03  0.12699999809E+01 0. -1.
        4   -1    0    0  501    0  0.00000000000E+00  0.00000000000E+00 -0.18472103532E+03  0.18472540104E+03  0.12699999809E+01 0.  1.
    10030    2    1    2    0    0  0.00000000000E+00  0.00000000000E+00  0.15176952713E+03  0.52121836013E+03  0.49863272012E+03 0.  0.
        2    1    3    3  502    0  0.16565476387E+03  0.57129225483E+02  0.26126896420E+03  0.31458976598E+03  0.25500000920E-02 0. -1.
       -2    1    3    3    0  502 -0.16565476387E+03 -0.57129225483E+02 -0.10949943707E+03  0.20662859415E+03  0.25500000920E-02 0.  1.
</event>
<event>
 5   0  0.1209831E-02  0.5014451E+03  0.7818609E-02  0.1013402E+00
       -1   -1    0    0    0  501  0.00000000000E+00  0.00000000000E+00  0.17476386346E+03  0.17476386353E+03  0.50400001928E-02 0. -1.
        1   -1    0    0  501    0  0.00000000000E+00  0.00000000000E+00 -0.35969558746E+03  0.35969558750E+03  0.50400001928E-02 0.  1.
    10030    2    1    2    0    0  0.00000000000E+00  0.00000000000E+00 -0.18493172400E+03  0.53445945103E+03  0.50144507402E+03 0.  0.
        4    1    3    3  502    0  0.74159083008E+02 -0.60265976758E+02  0.15458947229E+03  0.18174453332E+03  0.12699999809E+01 0. -1.
       -4    1    3    3    0  502 -0.74159083008E+02  0.60265976758E+02 -0.33952119629E+03  0.35271491771E+03  0.12699999809E+01 0.  1.
</event>
<event>
 5   0  0.1923706E-02  0.4998118E+03  0.7818609E-02  0.1013828E+00
        2   -1    0    0  501    0  0.00000000000E+00  0.00000000000E+00  0.46352232893E+03  0.46352232893E+03  0.25500000920E-02 0. -1.
       -2   -1    0    0    0  501  0.00000000000E+00  0.00000000000E+00 -0.13473560793E+03  0.13473560796E+03  0.25500000920E-02 0.  1.
    10030    2    1    2    0    0  0.00000000000E+00  0.00000000000E+00  0.32878672100E+03  0.59825793689E+03  0.49981181573E+03 0.  0.
        3    1    3    3  502    0  0.56237664962E+02  0.11728705994E+03  0.41981045625E+03  0.43949944115E+03  0.10100000352E+00 0. -1.
       -3    1    3    3    0  502 -0.56237664962E+02 -0.11728705994E+03 -0.91023735255E+02  0.15875849574E+03  0.10100000352E+00 0.  1.
</event>
<event>
 5   0  0.1180937E-02  0.5003433E+03  0.7818609E-02  0.1013689E+00
        1   -1    0    0  501    0  0.00000000000E+00  0.00000000000E+00  0.23271427177E+03  0.23271427183E+03  0.50400001928E-02 0. -1.
       -1   -1    0    0    0  501  0.00000000000E+00  0.00000000000E+00 -0.26893860221E+03  0.26893860226E+03  0.50400001928E-02 0.  1.
    10030    2    1    2    0    0  0.00000000000E+00  0.00000000000E+00 -0.36224330436E+02  0.50165287409E+03  0.50034328612E+03 0.  0.
        1    1    3    3  502    0 -0.23110037092E+02 -0.19809653064E+03 -0.16953574459E+03  0.26176072658E+03  0.50400001928E-02 0.  1.
       -1    1    3    3    0  502  0.23110037092E+02  0.19809653064E+03  0.13331141415E+03  0.23989214750E+03  0.50400001928E-02 0. -1.
</event>
<event>
 5   0  0.1982847E-02  0.5007673E+03  0.7818609E-02  0.1013579E+00
        2   -1    0    0  501    0  0.00000000000E+00  0.00000000000E+00  0.19468416356E+03  0.19468416358E+03  0.25500000920E-02 0.  1.
       -2   -1    0    0    0  501  0.00000000000E+00  0.00000000000E+00 -0.32201892022E+03  0.32201892023E+03  0.25500000920E-02 0. -1.
    10030    2    1    2    0    0  0.00000000000E+00  0.00000000000E+00 -0.12733475665E+03  0.51670308380E+03  0.50076734774E+03 0.  0.
        2    1    3    3  502    0  0.62803938629E+02  0.20049170221E+03  0.76867950691E+02  0.22371843735E+03  0.25500000920E-02 0. -1.
       -2    1    3    3    0  502 -0.62803938629E+02 -0.20049170221E+03 -0.20420270735E+03  0.29298464645E+03  0.25500000920E-02 0.  1.
</event>
<event>
 5   0  0.1923706E-02  0.4994431E+03  0.7818609E-02  0.1013924E+00
       -2   -1    0    0    0  501  0.00000000000E+00  0.00000000000E+00  0.51506335379E+02  0.51506335442E+02  0.25500000920E-02 0. -1.
        2   -1    0    0  501    0  0.00000000000E+00  0.00000000000E+00 -0.12107412508E+04  0.12107412508E+04  0.25500000920E-02 0.  1.
    10030    2    1    2    0    0  0.00000000000E+00  0.00000000000E+00 -0.11592349154E+04  0.12622475863E+04  0.49944306968E+03 0.  0.
        3    1    3    3  502    0  0.13378268706E+03 -0.12274043968E+03 -0.14629014771E+03  0.23316054642E+03  0.10100000352E+00 0. -1.
       -3    1    3    3    0  502 -0.13378268706E+03  0.12274043968E+03 -0.10129447677E+04  0.10290870398E+04  0.10100000352E+00 0.  1.
</event>
<event>
 5   0  0.1982847E-02  0.4989960E+03  0.7818609E-02  0.1014041E+00
       -2   -1    0    0    0  501  0.00000000000E+00  0.00000000000E+00  0.54806026506E+03  0.54806026507E+03  0.25500000920E-02 0.  1.
        2   -1    0    0  501    0  0.00000000000E+00  0.00000000000E+00 -0.11358101312E+03  0.11358101315E+03  0.25500000920E-02 0. -1.
    10030    2    1    2    0    0  0.00000000000E+00  0.00000000000E+00  0.43447925194E+03  0.66164127822E+03  0.49899595257E+03 0.  0.
        2    1    3    3  502    0  0.60444178302E+02 -0.24206084704E+03  0.21523406942E+03  0.32950365249E+03  0.25500000920E-02 0.  1.
       -2    1    3    3    0  502 -0.60444178302E+02  0.24206084704E+03  0.21924518251E+03  0.33213762573E+03  0.25500000920E-02 0. -1.
</event>
<event>
 5   0  0.1982847E-02  0.5005539E+03  0.7818609E-02  0.1013634E+00
        2   -1    0    0  501    0  0.00000000000E+00  0.00000000000E+00  0.73854288671E+03  0.73854288672E+03  0.25500000920E-02 0.  1.
       -2   -1    0    0    0  501  0.00000000000E+00  0.00000000000E+00 -0.84813684675E+02  0.84813684714E+02  0.25500000920E-02 0. -1.
    10030    2    1    2    0    0  0.00000000000E+00  0.00000000000E+00  0.65372920204E+03  0.82335657143E+03  0.50055386735E+03 0.  0.
        2    1    3    3  502    0  0.21641564020E+02  0.20293209229E+03  0.88561088101E+02  0.22246990292E+03  0.25500000920E-02 0. -1.
       -2    1    3    3    0  502 -0.21641564020E+02 -0.20293209229E+03  0.56516811394E+03  0.60088666851E+03  0.25500000920E-02 0.  1.
</event>
<event>
 5   0  0.1227864E-02  0.4995870E+03  0.7818609E-02  0.1013887E+00
       -1   -1    0    0    0  501  0.00000000000E+00  0.00000000000E+00  0.11985723637E+03  0.11985723648E+03  0.50400001928E-02 0. -1.
        1   -1    0    0  501    0  0.00000000000E+00  0.00000000000E+00 -0.52059268553E+03  0.52059268556E+03  0.50400001928E-02 0.  1.
    10030    2    1    2    0    0  0.00000000000E+00  0.00000000000E+00 -0.40073544916E+03  0.64044992203E+03  0.49958703187E+03 0.  0.
        5    1    3    3  502    0  0.58497549143E+02  0.21796264919E+03 -0.33751352248E+03  0.40603835724E+03  0.46999998093E+01 0. -1.
       -5    1    3    3    0  502 -0.58497549143E+02 -0.21796264919E+03 -0.63221926680E+02  0.23441156479E+03  0.46999998093E+01 0.  1.
</event>
<event>
 5   0  0.1209831E-02  0.4990276E+03  0.7818609E-02  0.1014033E+00
       -1   -1    0    0    0  501  0.00000000000E+00  0.00000000000E+00  0.74580948016E+02  0.74580948187E+02  0.50400001928E-02 0.  1.
        1   -1    0    0  501    0  0.00000000000E+00  0.00000000000E+00 -0.83475915573E+03  0.83475915575E+03  0.50400001928E-02 0. -1.
    10030    2    1    2    0    0  0.00000000000E+00  0.00000000000E+00 -0.76017820772E+03  0.90934010393E+03  0.49902757152E+03 0.  0.
        4    1    3    3  502    0  0.20022366679E+03 -0.14204813293E+03 -0.46134329489E+03  0.52259586437E+03  0.12699999809E+01 0. -1.
       -4    1    3    3    0  502 -0.20022366679E+03  0.14204813293E+03 -0.29883491282E+03  0.38674423956E+03  0.12699999809E+01 0.  1.
</event>
<event>
 5   0  0.1982847E-02  0.4984226E+03  0.7818609E-02  0.1014191E+00
        2   -1    0    0  501    0  0.00000000000E+00  0.00000000000E+00  0.54094913944E+03  0.54094913945E+03  0.25500000920E-02 0. -1.
       -2   -1    0    0    0  501  0.00000000000E+00  0.00000000000E+00 -0.11480981784E+03  0.11480981786E+03  0.25500000920E-02 0.  1.
    10030    2    1    2    0    0  0.00000000000E+00  0.00000000000E+00  0.42613932160E+03  0.65575895731E+03  0.49842260049E+03 0.  0.
        2    1    3    3  502    0  0.98008993940E+02 -0.15769843997E+03  0.43177047310E+03  0.47000032161E+03  0.25500000920E-02 0. -1.
       -2    1    3    3    0  502 -0.98008993940E+02  0.15769843997E+03 -0.56311514989E+01  0.18575863570E+03  0.25500000920E-02 0.  1.
</event>
<event>
 5   0  0.1982847E-02  0.4979866E+03  0.7818609E-02  0.1014306E+00
        2   -1    0    0  501    0  0.00000000000E+00  0.00000000000E+00  0.34488304028E+03  0.34488304029E+03  0.25500000920E-02 0.  1.
       -2   -1    0    0    0  501  0.00000000000E+00  0.00000000000E+00 -0.17976428607E+03  0.17976428609E+03  0.25500000920E-02 0. -1.
    10030    2    1    2    0    0  0.00000000000E+00  0.00000000000E+00  0.16511875421E+03  0.52464732637E+03  0.49798656014E+03 0.  0.
        2    1    3    3  502    0 -0.99452027778E+02 -0.87304748149E+02 -0.13964663385E+03  0.19239024723E+03  0.25500000920E-02 0. -1.
       -2    1    3    3    0  502  0.99452027778E+02  0.87304748149E+02  0.30476538805E+03  0.33225707914E+03  0.25500000920E-02 0.  1.
</event>
<event>
 5   0  0.1227864E-02  0.4998918E+03  0.7818609E-02  0.1013807E+00
       -1   -1    0    0    0  501  0.00000000000E+00  0.00000000000E+00  0.25213182007E+03  0.25213182012E+03  0.50400001928E-02 0.  1.
        1   -1    0    0  501    0  0.00000000000E+00  0.00000000000E+00 -0.24777897854E+03  0.24777897859E+03  0.50400001928E-02 0. -1.
    10030    2    1    2    0    0  0.00000000000E+00  0.00000000000E+00  0.43528415290E+01  0.49991079871E+03  0.49989184774E+03 0.  0.
        5    1    3    3  502    0  0.14564749988E+03  0.19836884181E+03 -0.41270401346E+02  0.24957709760E+03  0.46999998093E+01 0. -1.
       -5    1    3    3    0  502 -0.14564749988E+03 -0.19836884181E+03  0.45623242875E+02  0.25033370111E+03  0.46999998093E+01 0.  1.
</event>
<event>
 5   0  0.1923706E-02  0.4991561E+03  0.7818609E-02  0.1013999E+00
        2   -1    0    0  501    0  0.00000000000E+00  0.00000000000E+00  0.11016885310E+04  0.11016885310E+04  0.25500000920E-02 0. -1.
       -2   -1    0    0    0  501  0.00000000000E+00  0.00000000000E+00 -0.56539758328E+02  0.56539758385E+02  0.25500000920E-02 0.  1.
    10030    2    1    2    0    0  0.00000000000E+00  0.00000000000E+00  0.10451487727E+04  0.11582282894E+04  0.49915610115E+03 0.  0.
        3    1    3    3  502    0 -0.24206473826E+01 -0.22150026722E+03  0.25577221131E+03  0.33836025504E+03  0.10100000352E+00 0.  1.
       -3    1    3    3    0  502  0.24206473826E+01  0.22150026722E+03  0.78937656135E+03  0.81986803434E+03  0.10100000352E+00 0. -1.
</event>
<event>
 5   0  0.8012875E-03  0.5001306E+03  0.7818609E-02  0.1013745E+00
       -4   -1    0    0    0  501  0.00000000000E+00  0.00000000000E+00  0.16967357223E+03  0.16967832511E+03  0.12699999809E+01 0.  1.
        4   -1    0    0  501    0  0.00000000000E+00  0.00000000000E+00 -0.36853586728E+03  0.36853805553E+03  0.12699999809E+01 0. -1.
    10030    2    1    2    0    0  0.00000000000E+00  0.00000000000E+00 -0.19886229505E+03  0.53821638063E+03  0.50013064292E+03 0.  0.
        2    1    3    3  502    0  0.13172485446E+03 -0.67254726827E+02  0.11756229500E+03  0.18893260380E+03  0.25500000920E-02 0.  1.
       -2    1    3    3    0  502 -0.13172485446E+03  0.67254726827E+02 -0.31642459006E+03  0.34928377684E+03  0.25500000920E-02 0. -1.
</event>
<event>
 5   0  0.1209831E-02  0.5001862E+03  0.7818609E-02  0.1013730E+00
       -1   -1    0    0    0  501  0.00000000000E+00  0.00000000000E+00  0.36967255913E+03  0.36967255916E+03  0.50400001928E-02 0. -1.
        1   -1    0    0  501    0  0.00000000000E+00  0.00000000000E+00 -0.16919447243E+03  0.16919447251E+03  0.50400001928E-02 0.  1.
    10030    2    1    2    0    0  0.00000000000E+00  0.00000000000E+00  0.20047808670E+03  0.53886703167E+03  0.50018617991E+03 0.  0.
        4    1    3    3  502    0 -0.71207663404E+02 -0.23561440311E+03  0.52540288996E+02  0.25168784863E+03  0.12699999809E+01 0.  1.
       -4    1    3    3    0  502  0.71207663404E+02  0.23561440311E+03  0.14793779770E+03  0.28717918304E+03  0.12699999809E+01 0. -1.
</event>
<event>
 5   0  0.1982847E-02  0.5001397E+03  0.7818609E-02  0.1013742E+00
       -2   -1    0    0    0  501  0.00000000000E+00  0.00000000000E+00  0.55344772368E+02  0.55344772427E+02  0.25500000920E-02 0. -1.
        2   -1    0    0  501    0  0.00000000000E+00  0.00000000000E+00 -0.11299157796E+04  0.11299157796E+04  0.25500000920E-02 0.  1.
    10030    2    1    2    0    0  0.00000000000E+00  0.00000000000E+00 -0.10745710072E+04  0.11852605520E+04  0.50013970709E+03 0.  0.
        2    1    3    3  502    0  0.50264666724E+02  0.74164738817E+02 -0.10905751769E+04  0.10942491315E+04  0.25500000920E-02 0.  1.
       -2    1    3    3    0  502 -0.50264666724E+02 -0.74164738817E+02  0.16004169752E+02  0.91011420496E+02  0.25500000920E-02 0. -1.
</event>
<event>
 5   0  0.1923706E-02  0.4999187E+03  0.7818609E-02  0.1013800E+00
        2   -1    0    0  501    0  0.00000000000E+00  0.00000000000E+00  0.11340525588E+04  0.11340525588E+04  0.25500000920E-02 0.  1.
       -2   -1    0    0    0  501  0.00000000000E+00  0.00000000000E+00 -0.55094172250E+02  0.55094172309E+02  0.25500000920E-02 0. -1.
    10030    2    1    2    0    0  0.00000000000E+00  0.00000000000E+00  0.10789583865E+04  0.11891467311E+04  0.49991874160E+03 0.  0.
        3    1    3    3  502    0  0.28364922723E+02  0.37881945780E+02  0.11232988969E+04  0.11242953493E+04  0.10100000352E+00 0.  1.
       -3    1    3    3    0  502 -0.28364922723E+02 -0.37881945780E+02 -0.44340510334E+02  0.64851381750E+02  0.10100000352E+00 0. -1.
</event>
<event>
 5   0  0.1967813E-02  0.4997778E+03  0.7818609E-02  0.1013837E+00
       -2   -1    0    0    0  501  0.00000000000E+00  0.00000000000E+00  0.41428140027E+02  0.41428140105E+02  0.25500000920E-02 0.  1.
        2   -1    0    0  501    0  0.00000000000E+00  0.00000000000E+00 -0.15072956813E+04  0.15072956813E+04  0.25500000920E-02 0. -1.
    10030    2    1    2    0    0  0.00000000000E+00  0.00000000000E+00 -0.14658675413E+04  0.15487238214E+04  0.49977777706E+03 0.  0.
        5    1    3    3  502    0 -0.78558684576E+02 -0.32489770125E+02 -0.14609618729E+04  0.14634407184E+04  0.46999998093E+01 0. -1.
       -5    1    3    3    0  502  0.78558684576E+02  0.32489770125E+02 -0.49056683719E+01  0.85283103048E+02  0.46999998093E+01 0.  1.
</event>
<event>
 5   0  0.1227864E-02  0.4997373E+03  0.7818609E-02  0.1013848E+00
       -1   -1    0    0    0  501  0.00000000000E+00  0.00000000000E+00  0.87647874147E+02  0.87647874292E+02  0.50400001928E-02 0.  1.
        1   -1    0    0  501    0  0.00000000000E+00  0.00000000000E+00 -0.71233154315E+03  0.71233154317E+03  0.50400001928E-02 0. -1.
    10030    2    1    2    0    0  0.00000000000E+00  0.00000000000E+00 -0.62468366900E+03  0.79997941746E+03  0.49973731304E+03 0.  0.
        5    1    3    3  502    0 -0.21547972934E+03 -0.68034538488E+02 -0.14178306430E+03  0.26680468419E+03  0.46999998093E+01 0.  1.
       -5    1    3    3    0  502  0.21547972934E+03  0.68034538488E+02 -0.48290060470E+03  0.53317473328E+03  0.46999998093E+01 0. -1.
</event>
<event>
 5   0  0.1941387E-02  0.4952848E+03  0.7818609E-02  0.1015017E+00
       -2   -1    0    0    0  501  0.00000000000E+00  0.00000000000E+00  0.75094877235E+02  0.75094877279E+02  0.25500000920E-02 0. -1.
        2   -1    0    0  501    0  0.00000000000E+00  0.00000000000E+00 -0.81665712593E+03  0.81665712593E+03  0.25500000920E-02 0.  1.
    10030    2    1    2    0    0  0.00000000000E+00  0.00000000000E+00 -0.74156224869E+03  0.89175200321E+03  0.49528483375E+03 0.  0.
        4    1    3    3  502    0 -0.45133897955E+02 -0.10496884669E+02  0.67213560572E+02  0.81648814793E+02  0.12699999809E+01 0. -1.
       -4    1    3    3    0  502  0.45133897955E+02  0.10496884669E+02 -0.80877580926E+03  0.81010318842E+03  0.12699999809E+01 0.  1.
</event>
<event>
 5   0  0.1180937E-02  0.5002558E+03  0.7818609E-02  0.1013712E+00
       -1   -1    0    0    0  501  0.00000000000E+00  0.00000000000E+00  0.10718010640E+03  0.10718010652E+03  0.50400001928E-02 0. -1.
        1   -1    0    0  501    0  0.00000000000E+00  0.00000000000E+00 -0.58372742374E+03  0.58372742376E+03  0.50400001928E-02 0.  1.
    10030    2    1    2    0    0  0.00000000000E+00  0.00000000000E+00 -0.47654731734E+03  0.69090753028E+03  0.50025580430E+03 0.  0.
        1    1    3    3  502    0  0.10778401413E+03  0.11488904934E+03  0.30056489754E+02  0.16037543441E+03  0.50400001928E-02 0. -1.
       -1    1    3    3    0  502 -0.10778401413E+03 -0.11488904934E+03 -0.50660380710E+03  0.53053209587E+03  0.50400001928E-02 0.  1.
</event>
<event>
 5   0  0.8012875E-03  0.4989840E+03  0.7818609E-02  0.1014044E+00
        4   -1    0    0  501    0  0.00000000000E+00  0.00000000000E+00  0.19120876941E+03  0.19121298700E+03  0.12699999809E+01 0. -1.
       -4   -1    0    0    0  501  0.00000000000E+00  0.00000000000E+00 -0.32553182843E+03  0.32553430575E+03  0.12699999809E+01 0.  1.
    10030    2    1    2    0    0  0.00000000000E+00  0.00000000000E+00 -0.13432305902E+03  0.51674729275E+03  0.49898404823E+03 0.  0.
        5    1    3    3  502    0 -0.18851200227E+03 -0.71697724695E+02  0.84852389358E+02  0.21885921663E+03  0.46999998093E+01 0. -1.
       -5    1    3    3    0  502  0.18851200227E+03  0.71697724695E+02 -0.21917544838E+03  0.29788807612E+03  0.46999998093E+01 0.  1.
</event>
<event>
 5   0  0.1982847E-02  0.5008235E+03  0.7818609E-02  0.1013564E+00
       -2   -1    0    0    0  501  0.00000000000E+00  0.00000000000E+00  0.45649613397E+02  0.45649613469E+02  0.25500000920E-02 0.  1.
        2   -1    0    0  501    0  0.00000000000E+00  0.00000000000E+00 -0.13736382263E+04  0.13736382263E+04  0.25500000920E-02 0. -1.
    10030    2    1    2    0    0  0.00000000000E+00  0.00000000000E+00 -0.13279886129E+04  0.14192878397E+04  0.50082353790E+03 0.  0.
        2    1    3    3  502    0 -0.36921528381E+02  0.21995836031E+02 -0.13631087770E+04  0.13637861101E+04  0.25500000920E-02 0. -1.
       -2    1    3    3    0  502  0.36921528381E+02 -0.21995836031E+02  0.35120164136E+02  0.55501729669E+02  0.25500000920E-02 0.  1.
</event>
<event>
 5   0  0.1923706E-02  0.5000897E+03  0.7818609E-02  0.1013756E+00
        2   -1    0    0  501    0  0.00000000000E+00  0.00000000000E+00  0.63326206446E+03  0.63326206447E+03  0.25500000920E-02 0. -1.
       -2   -1    0    0    0  501  0.00000000000E+00  0.00000000000E+00 -0.98730732621E+02  0.98730732654E+02  0.25500000920E-02 0.  1.
    10030    2    1    2    0    0  0.00000000000E+00  0.00000000000E+00  0.53453133184E+03  0.73199279712E+03  0.50008970227E+03 0.  0.
        3    1    3    3  502    0 -0.13946928046E+03  0.35513204399E+02  0.56655872130E+03  0.58455253208E+03  0.10100000352E+00 0. -1.
       -3    1    3    3    0  502  0.13946928046E+03 -0.35513204399E+02 -0.32027389462E+02  0.14744026504E+03  0.10100000352E+00 0.  1.
</event>
<event>
 5   0  0.1209831E-02  0.4983689E+03  0.7818609E-02  0.1014206E+00
        1   -1    0    0  501    0  0.00000000000E+00  0.00000000000E+00  0.14281701062E+04  0.14281701062E+04  0.50400001928E-02 0. -1.
       -1   -1    0    0    0  501  0.00000000000E+00  0.00000000000E+00 -0.43477243464E+02  0.43477243756E+02  0.50400001928E-02 0.  1.
    10030    2    1    2    0    0  0.00000000000E+00  0.00000000000E+00  0.13846928627E+04  0.14716473500E+04  0.49836893819E+03 0.  0.
        4    1    3    3  502    0  0.95269528291E+02 -0.22969325910E+03  0.64509862789E+03  0.69136757872E+03  0.12699999809E+01 0.  1.
       -4    1    3    3    0  502 -0.95269528291E+02  0.22969325910E+03  0.73959423485E+03  0.78027977125E+03  0.12699999809E+01 0. -1.
</event>
<event>
 5   0  0.1923706E-02  0.4992502E+03  0.7818609E-02  0.1013975E+00
       -2   -1    0    0    0  501  0.00000000000E+00  0.00000000000E+00  0.12845554449E+03  0.12845554452E+03  0.25500000920E-02 0. -1.
        2   -1    0    0  501    0  0.00000000000E+00  0.00000000000E+00 -0.48509156038E+03  0.48509156039E+03  0.25500000920E-02 0.  1.
    10030    2    1    2    0    0  0.00000000000E+00  0.00000000000E+00 -0.35663601589E+03  0.61354710490E+03  0.49925023996E+03 0.  0.
        3    1    3    3  502    0 -0.18285400041E+03 -0.64774238299E+02 -0.37138789821E+03  0.41899912715E+03  0.10100000352E+00 0.  1.
       -3    1    3    3    0  502  0.18285400041E+03  0.64774238299E+02  0.14751882319E+02  0.19454797775E+03  0.10100000352E+00 0. -1.
</event>
<event>
 5   0  0.8012875E-03  0.5006947E+03  0.7818609E-02  0.1013598E+00
        3   -1    0    0  501    0  0.00000000000E+00  0.00000000000E+00  0.64597242396E+03  0.64597243185E+03  0.10100000352E+00 0. -1.
       -3   -1    0    0    0  501  0.00000000000E+00  0.00000000000E+00 -0.97022378218E+02  0.97022430788E+02  0.10100000352E+00 0.  1.
    10030    2    1    2    0    0  0.00000000000E+00  0.00000000000E+00  0.54895004574E+03  0.74299486264E+03  0.50069473054E+03 0.  0.
        2    1    3    3  502    0 -0.13852314529E+03  0.19307019702E+03  0.15754526843E+03  0.28510572489E+03  0.25500000920E-02 0.  1.
       -2    1    3    3    0  502  0.13852314529E+03 -0.19307019702E+03  0.39140477731E+03  0.45788913775E+03  0.25500000920E-02 0. -1.
</event>
<event>
 5   0  0.1180937E-02  0.4996928E+03  0.7818609E-02  0.1013859E+00
       -1   -1    0    0    0  501  0.00000000000E+00  0.00000000000E+00  0.15262040451E+03  0.15262040459E+03  0.50400001928E-02 0.  1.
        1   -1    0    0  501    0  0.00000000000E+00  0.00000000000E+00 -0.40900973091E+03  0.40900973094E+03  0.50400001928E-02 0. -1.
    10030    2    1    2    0    0  0.00000000000E+00  0.00000000000E+00 -0.25638932640E+03  0.56163013553E+03  0.49969282810E+03 0.  0.
        1    1    3    3  502    0 -0.22280084826E+03  0.54661508037E+02 -0.16956851644E+02  0.23003398290E+03  0.50400001928E-02 0.  1.
       -1    1    3    3    0  502  0.22280084826E+03 -0.54661508037E+02 -0.23943247475E+03  0.33159615263E+03  0.50400001928E-02 0. -1.
</event>
<event>
 5   0  0.1982847E-02  0.4968075E+03  0.7818609E-02  0.1014616E+00
        2   -1    0    0  501    0  0.00000000000E+00  0.00000000000E+00  0.73082958664E+03  0.73082958665E+03  0.25500000920E-02 0.  1.
       -2   -1    0    0    0  501  0.00000000000E+00  0.00000000000E+00 -0.84430660730E+02  0.84430660768E+02  0.25500000920E-02 0. -1.
    10030    2    1    2    0    0  0.00000000000E+00  0.00000000000E+00  0.64639892591E+03  0.81526024742E+03  0.49680750759E+03 0.  0.
        2    1    3    3  502    0  0.64627583061E+02 -0.87792616373E+02 -0.43078391672E+02  0.11721781357E+03  0.25500000920E-02 0. -1.
       -2    1    3    3    0  502 -0.64627583061E+02  0.87792616373E+02  0.68947731759E+03  0.69804243385E+03  0.25500000920E-02 0.  1.
</event>
<event>
 5   0  0.1923706E-02  0.4999304E+03  0.7818609E-02  0.1013797E+00
       -2   -1    0    0    0  501  0.00000000000E+00  0.00000000000E+00  0.61944018492E+02  0.61944018544E+02  0.25500000920E-02 0.  1.
        2   -1    0    0  501    0  0.00000000000E+00  0.00000000000E+00 -0.10086947117E+04  0.10086947117E+04  0.25500000920E-02 0. -1.
    10030    2    1    2    0    0  0.00000000000E+00  0.00000000000E+00 -0.94675069320E+03  0.10706387302E+04  0.49993041077E+03 0.  0.
        3    1    3    3  502    0 -0.15160241082E+03  0.18271655440E+03 -0.64082907224E+03  0.68339632736E+03  0.10100000352E+00 0.  1.
       -3    1    3    3    0  502  0.15160241082E+03 -0.18271655440E+03 -0.30592162096E+03  0.38724240288E+03  0.10100000352E+00 0. -1.
</event>
<event>
 5   0  0.1855407E-02  0.4952848E+03  0.7818609E-02  0.1015017E+00
        2   -1    0    0  501    0  0.00000000000E+00  0.00000000000E+00  0.26570333123E+04  0.26570333123E+04  0.25500000920E-02 0. -1.
       -2   -1    0    0    0  501  0.00000000000E+00  0.00000000000E+00 -0.23080913013E+02  0.23080913154E+02  0.25500000920E-02 0.  1.
    10030    2    1    2    0    0  0.00000000000E+00  0.00000000000E+00  0.26339523993E+04  0.26801142255E+04  0.49528478654E+03 0.  0.
        1    1    3    3  502    0  0.40431456989E+01  0.21602658841E+03  0.19717814836E+04  0.19835841431E+04  0.50400001928E-02 0. -1.
       -1    1    3    3    0  502 -0.40431456989E+01 -0.21602658841E+03  0.66217091574E+03  0.69653008234E+03  0.50400001928E-02 0.  1.
</event>
<event>
 5   0  0.1209831E-02  0.4998036E+03  0.7818609E-02  0.1013830E+00
        1   -1    0    0  501    0  0.00000000000E+00  0.00000000000E+00  0.48297211430E+03  0.48297211433E+03  0.50400001928E-02 0.  1.
       -1   -1    0    0    0  501  0.00000000000E+00  0.00000000000E+00 -0.12930543751E+03  0.12930543761E+03  0.50400001928E-02 0. -1.
    10030    2    1    2    0    0  0.00000000000E+00  0.00000000000E+00  0.35366667679E+03  0.61227755194E+03  0.49980364378E+03 0.  0.
        4    1    3    3  502    0 -0.69392695123E+02  0.38274868936E+01 -0.11722463029E+03  0.13628361104E+03  0.12699999809E+01 0. -1.
       -4    1    3    3    0  502  0.69392695123E+02 -0.38274868936E+01  0.47089130707E+03  0.47599394090E+03  0.12699999809E+01 0.  1.
</event>
<event>
 5   0  0.1923706E-02  0.5001400E+03  0.7818609E-02  0.1013742E+00
        2   -1    0    0  501    0  0.00000000000E+00  0.00000000000E+00  0.53232538668E+02  0.53232538730E+02  0.25500000920E-02 0.  1.
       -2   -1    0    0    0  501  0.00000000000E+00  0.00000000000E+00 -0.11747513078E+04  0.11747513079E+04  0.25500000920E-02 0. -1.
    10030    2    1    2    0    0  0.00000000000E+00  0.00000000000E+00 -0.11215187692E+04  0.12279838466E+04  0.50013995825E+03 0.  0.
        3    1    3    3  502    0  0.21735463899E+03 -0.12735622229E+01 -0.86436474370E+03  0.89127497519E+03  0.10100000352E+00 0. -1.
       -3    1    3    3    0  502 -0.21735463899E+03  0.12735622229E+01 -0.25715402548E+03  0.33670887139E+03  0.10100000352E+00 0.  1.
</event>
<event>
 5   0  0.1209831E-02  0.4999751E+03  0.7818609E-02  0.1013785E+00
        1   -1    0    0  501    0  0.00000000000E+00  0.00000000000E+00  0.87942290452E+02  0.87942290596E+02  0.50400001928E-02 0.  1.
       -1   -1    0    0    0  501  0.00000000000E+00  0.00000000000E+00 -0.71062247648E+03  0.71062247650E+03  0.50400001928E-02 0. -1.
    10030    2    1    2    0    0  0.00000000000E+00  0.00000000000E+00 -0.62268018603E+03  0.79856476709E+03  0.49997507255E+03 0.  0.
        4    1    3    3  502    0 -0.10691941536E+03 -0.16106344374E+03 -0.56448117363E+03  0.59666892208E+03  0.12699999809E+01 0. -1.
       -4    1    3    3    0  502  0.10691941536E+03  0.16106344374E+03 -0.58199012397E+02  0.20189584502E+03  0.12699999809E+01 0.  1.
</event>
<event>
 5   0  0.1967813E-02  0.5000042E+03  0.7818609E-02  0.1013778E+00
       -2   -1    0    0    0  501  0.00000000000E+00  0.00000000000E+00  0.46998922367E+02  0.46998922436E+02  0.25500000920E-02 0. -1.
        2   -1    0    0  501    0  0.00000000000E+00  0.00000000000E+00 -0.13298400161E+04  0.13298400161E+04  0.25500000920E-02 0.  1.
    10030    2    1    2    0    0  0.00000000000E+00  0.00000000000E+00 -0.12828410938E+04  0.13768389386E+04  0.50000419090E+03 0.  0.
        5    1    3    3  502    0  0.55221034839E+02  0.11428524789E+03 -0.12343744222E+04  0.12408919312E+04  0.46999998093E+01 0.  1.
       -5    1    3    3    0  502 -0.55221034839E+02 -0.11428524789E+03 -0.48466671537E+02  0.13594700741E+03  0.46999998093E+01 0. -1.
</event>
<event>
 5   0  0.1217270E-02  0.4997773E+03  0.7818609E-02  0.1013837E+00
       -1   -1    0    0    0  501  0.00000000000E+00  0.00000000000E+00  0.26363649974E+03  0.26363649979E+03  0.50400001928E-02 0.  1.
        1   -1    0    0  501    0  0.00000000000E+00  0.00000000000E+00 -0.23685773314E+03  0.23685773319E+03  0.50400001928E-02 0. -1.
    10030    2    1    2    0    0  0.00000000000E+00  0.00000000000E+00  0.26778766600E+02  0.50049423298E+03  0.49977732533E+03 0.  0.
        2    1    3    3  502    0  0.15280030169E+03 -0.19759933712E+03  0.20534987729E+02  0.25062943953E+03  0.25500000920E-02 0.  1.
       -2    1    3    3    0  502 -0.15280030169E+03  0.19759933712E+03  0.62437788713E+01  0.24986479346E+03  0.25500000920E-02 0. -1.
</event>
<event>
 5   0  0.1225989E-02  0.5003942E+03  0.7818609E-02  0.1013676E+00
       -1   -1    0    0    0  501  0.00000000000E+00  0.00000000000E+00  0.45438541628E+03  0.45438541631E+03  0.50400001928E-02 0. -1.
        1   -1    0    0  501    0  0.00000000000E+00  0.00000000000E+00 -0.13776540654E+03  0.13776540663E+03  0.50400001928E-02 0.  1.
    10030    2    1    2    0    0  0.00000000000E+00  0.00000000000E+00  0.31662000974E+03  0.59215082294E+03  0.50039421114E+03 0.  0.
        3    1    3    3  502    0 -0.22283400423E+03  0.10131390335E+03  0.21956097634E+03  0.32882599195E+03  0.10100000352E+00 0. -1.
       -3    1    3    3    0  502  0.22283400423E+03 -0.10131390335E+03  0.97059033400E+02  0.26332483099E+03  0.10100000352E+00 0.  1.
</event>
<event>
 5   0  0.1855407E-02  0.4995858E+03  0.7818609E-02  0.1013887E+00
       -2   -1    0    0    0  501  0.00000000000E+00  0.00000000000E+00  0.94765216661E+02  0.94765216695E+02  0.25500000920E-02 0. -1.
        2   -1    0    0  501    0  0.00000000000E+00  0.00000000000E+00 -0.65843239937E+03  0.65843239938E+03  0.25500000920E-02 0.  1.
    10030    2    1    2    0    0  0.00000000000E+00  0.00000000000E+00 -0.56366718271E+03  0.75319761607E+03  0.49958578442E+03 0.  0.
        1    1    3    3  502    0  0.11202348252E+03 -0.18612547778E+03 -0.46773617858E+03  0.51572190849E+03  0.50400001928E-02 0. -1.
       -1    1    3    3    0  502 -0.11202348252E+03  0.18612547778E+03 -0.95931004130E+02  0.23747570759E+03  0.50400001928E-02 0.  1.
</event>
<event>
 5   0  0.1941387E-02  0.5007881E+03  0.7818609E-02  0.1013573E+00
        2   -1    0    0  501    0  0.00000000000E+00  0.00000000000E+00  0.12957140951E+04  0.12957140951E+04  0.25500000920E-02 0.  1.
       -2   -1    0    0    0  501  0.00000000000E+00  0.00000000000E+00 -0.48388119903E+02  0.48388119970E+02  0.25500000920E-02 0. -1.
    10030    2    1    2    0    0  0.00000000000E+00  0.00000000000E+00  0.12473259752E+04  0.13441022150E+04  0.50078805512E+03 0.  0.
        4    1    3    3  502    0 -0.75878699771E+02 -0.96017397371E+02  0.37359662571E+02  0.12796200594E+03  0.12699999809E+01 0. -1.
       -4    1    3    3    0  502  0.75878699771E+02  0.96017397371E+02  0.12099663126E+04  0.12161402091E+04  0.12699999809E+01 0.  1.
</event>
<event>
 5   0  0.1923706E-02  0.5002587E+03  0.7818609E-02  0.1013711E+00
       -2   -1    0    0    0  501  0.00000000000E+00  0.00000000000E+00  0.56024876292E+02  0.56024876350E+02  0.25500000920E-02 0. -1.
        2   -1    0    0  501    0  0.00000000000E+00  0.00000000000E+00 -0.11167305791E+04  0.11167305791E+04  0.25500000920E-02 0.  1.
    10030    2    1    2    0    0  0.00000000000E+00  0.00000000000E+00 -0.10607057028E+04  0.11727554554E+04  0.50025870339E+03 0.  0.
        3    1    3    3  502    0 -0.46367317439E+02  0.20817600602E+03 -0.83670788212E+03  0.86346237197E+03  0.10100000352E+00 0.  1.
       -3    1    3    3    0  502  0.46367317439E+02 -0.20817600602E+03 -0.22399782066E+03  0.30929308345E+03  0.10100000352E+00 0. -1.
</event>
<event>
 5   0  0.1217270E-02  0.4998096E+03  0.7818609E-02  0.1013829E+00
       -1   -1    0    0    0  501  0.00000000000E+00  0.00000000000E+00  0.24301371370E+03  0.24301371375E+03  0.50400001928E-02 0.  1.
        1   -1    0    0  501    0  0.00000000000E+00  0.00000000000E+00 -0.25699131223E+03  0.25699131227E+03  0.50400001928E-02 0. -1.
    10030    2    1    2    0    0  0.00000000000E+00  0.00000000000E+00 -0.13977598524E+02  0.50000502603E+03  0.49980961655E+03 0.  0.
        2    1    3    3  502    0 -0.24801208520E+03 -0.25389655317E+02 -0.24251970524E+02  0.25048510352E+03  0.25500000920E-02 0. -1.
       -2    1    3    3    0  502  0.24801208520E+03  0.25389655317E+02  0.10274372000E+02  0.24951992251E+03  0.25500000920E-02 0.  1.
</event>
<event>
 5   0  0.1217270E-02  0.5021354E+03  0.7818609E-02  0.1013223E+00
       -1   -1    0    0    0  501  0.00000000000E+00  0.00000000000E+00  0.62307426619E+02  0.62307426822E+02  0.50400001928E-02 0. -1.
        1   -1    0    0  501    0  0.00000000000E+00  0.00000000000E+00 -0.10116771052E+04  0.10116771053E+04  0.50400001928E-02 0.  1.
    10030    2    1    2    0    0  0.00000000000E+00  0.00000000000E+00 -0.94936967863E+03  0.10739845321E+04  0.50213542840E+03 0.  0.
        2    1    3    3  502    0 -0.15349942510E+03 -0.90302512057E+02 -0.85319435868E+03  0.87158317497E+03  0.25500000920E-02 0.  1.
       -2    1    3    3    0  502  0.15349942510E+03  0.90302512057E+02 -0.96175319941E+02  0.20240135711E+03  0.25500000920E-02 0. -1.
</event>
<event>
 5   0  0.1967813E-02  0.5001537E+03  0.7818609E-02  0.1013739E+00
        2   -1    0    0  501    0  0.00000000000E+00  0.00000000000E+00  0.97258544443E+03  0.97258544443E+03  0.25500000920E-02 0. -1.
       -2   -1    0    0    0  501  0.00000000000E+00  0.00000000000E+00 -0.64301218896E+02  0.64301218947E+02  0.25500000920E-02 0.  1.
    10030    2    1    2    0    0  0.00000000000E+00  0.00000000000E+00  0.90828422553E+03  0.10368866634E+04  0.50015369472E+03 0.  0.
        5    1    3    3  502    0  0.80250839680E+02 -0.14790345430E+03  0.83753616529E+03  0.85428598679E+03  0.46999998093E+01 0. -1.
       -5    1    3    3    0  502 -0.80250839680E+02  0.14790345430E+03  0.70748060236E+02  0.18260067658E+03  0.46999998093E+01 0.  1.
</event>
<event>
 5   0  0.1209831E-02  0.5001052E+03  0.7818609E-02  0.1013751E+00
       -1   -1    0    0    0  501  0.00000000000E+00  0.00000000000E+00  0.91169242986E+03  0.91169242987E+03  0.50400001928E-02 0. -1.
        1   -1    0    0  501    0  0.00000000000E+00  0.00000000000E+00 -0.68582670286E+02  0.68582670471E+02  0.50400001928E-02 0.  1.
    10030    2    1    2    0    0  0.00000000000E+00  0.00000000000E+00  0.84310975957E+03  0.98027510035E+03  0.50010519460E+03 0.  0.
        4    1    3    3  502    0  0.24475722886E+03  0.41437912368E+02  0.36270219144E+03  0.43951984510E+03  0.12699999809E+01 0.  1.
       -4    1    3    3    0  502 -0.24475722886E+03 -0.41437912368E+02  0.48040756813E+03  0.54075525525E+03  0.12699999809E+01 0. -1.
</event>
<event>
 5   0  0.1855407E-02  0.4996355E+03  0.7818609E-02  0.1013874E+00
        2   -1    0    0  501    0  0.00000000000E+00  0.00000000000E+00  0.12366289196E+04  0.12366289196E+04  0.25500000920E-02 0.  1.
       -2   -1    0    0    0  501  0.00000000000E+00  0.00000000000E+00 -0.50466959160E+02  0.50466959224E+02  0.25500000920E-02 0. -1.
    10030    2    1    2    0    0  0.00000000000E+00  0.00000000000E+00  0.11861619605E+04  0.12870958789E+04  0.49963547202E+03 0.  0.
        1    1    3    3  502    0 -0.96575669512E+02 -0.21866737794E+03  0.40613178926E+03  0.47125928361E+03  0.50400001928E-02 0. -1.
       -1    1    3    3    0  502  0.96575669512E+02  0.21866737794E+03  0.78003017121E+03  0.81583659525E+03  0.50400001928E-02 0.  1.
</event>
<event>
 5   0  0.8012875E-03  0.4996966E+03  0.7818609E-02  0.1013858E+00
        4   -1    0    0  501    0  0.00000000000E+00  0.00000000000E+00  0.87279180147E+02  0.87288419548E+02  0.12699999809E+01 0.  1.
       -4   -1    0    0    0  501  0.00000000000E+00  0.00000000000E+00 -0.71517643616E+03  0.71517756378E+03  0.12699999809E+01 0. -1.
    10030    2    1    2    0    0  0.00000000000E+00  0.00000000000E+00 -0.62789725601E+03  0.80246598333E+03  0.49969659824E+03 0.  0.
        4    1    3    3  502    0  0.19236338826E+02  0.15003728057E+03 -0.63328318296E+03  0.65109939718E+03  0.12699999809E+01 0. -1.
       -4    1    3    3    0  502 -0.19236338826E+02 -0.15003728057E+03  0.53859269520E+01  0.15136658614E+03  0.12699999809E+01 0.  1.
</event>
<event>
 5   0  0.1209831E-02  0.5011045E+03  0.7818609E-02  0.1013491E+00
        1   -1    0    0  501    0  0.00000000000E+00  0.00000000000E+00  0.87080622820E+02  0.87080622966E+02  0.50400001928E-02 0.  1.
       -1   -1    0    0    0  501  0.00000000000E+00  0.00000000000E+00 -0.72090019970E+03  0.72090019972E+03  0.50400001928E-02 0. -1.
    10030    2    1    2    0    0  0.00000000000E+00  0.00000000000E+00 -0.63381957688E+03  0.80798082269E+03  0.50110453380E+03 0.  0.
        4    1    3    3  502    0 -0.23090213849E+03 -0.19405978546E+02 -0.47057441103E+03  0.52453243825E+03  0.12699999809E+01 0. -1.
       -4    1    3    3    0  502  0.23090213849E+03  0.19405978546E+02 -0.16324516586E+03  0.28344838444E+03  0.12699999809E+01 0.  1.
</event>
<event>
 5   0  0.1227864E-02  0.5071805E+03  0.7818609E-02  0.1011922E+00
        1   -1    0    0  501    0  0.00000000000E+00  0.00000000000E+00  0.15191847497E+03  0.15191847506E+03  0.50400001928E-02 0. -1.
       -1   -1    0    0    0  501  0.00000000000E+00  0.00000000000E+00 -0.42330611587E+03  0.42330611590E+03  0.50400001928E-02 0.  1.
    10030    2    1    2    0    0  0.00000000000E+00  0.00000000000E+00 -0.27138764090E+03  0.57522459096E+03  0.50718051857E+03 0.  0.
        5    1    3    3  502    0  0.10359412540E+03 -0.16123136964E+03 -0.32397361258E+03  0.37644161435E+03  0.46999998093E+01 0.  1.
       -5    1    3    3    0  502 -0.10359412540E+03  0.16123136964E+03  0.52585971679E+02  0.19878297661E+03  0.46999998093E+01 0. -1.
</event>
<event>
 5   0  0.1941387E-02  0.5009544E+03  0.7818609E-02  0.1013530E+00
        2   -1    0    0  501    0  0.00000000000E+00  0.00000000000E+00  0.48220751848E+03  0.48220751849E+03  0.25500000920E-02 0. -1.
       -2   -1    0    0    0  501  0.00000000000E+00  0.00000000000E+00 -0.13010750237E+03  0.13010750239E+03  0.25500000920E-02 0.  1.
    10030    2    1    2    0    0  0.00000000000E+00  0.00000000000E+00  0.35210001611E+03  0.61231502089E+03  0.50095435267E+03 0.  0.
        4    1    3    3  502    0  0.18496808686E+03 -0.34646806915E+02  0.37809392833E+03  0.42233899409E+03  0.12699999809E+01 0. -1.
       -4    1    3    3    0  502 -0.18496808686E+03  0.34646806915E+02 -0.25993912218E+02  0.18997602680E+03  0.12699999809E+01 0.  1.
</event>
<event>
 5   0  0.1225989E-02  0.4997949E+03  0.7818609E-02  0.1013832E+00
       -1   -1    0    0    0  501  0.00000000000E+00  0.00000000000E+00  0.18667715087E+03  0.18667715093E+03  0.50400001928E-02 0.  1.
        1   -1    0    0  501    0  0.00000000000E+00  0.00000000000E+00 -0.33452801078E+03  0.33452801082E+03  0.50400001928E-02 0. -1.
    10030    2    1    2    0    0  0.00000000000E+00  0.00000000000E+00 -0.14785085992E+03  0.52120516175E+03  0.49979490180E+03 0.  0.
        3    1    3    3  502    0  0.77636341607E+02 -0.27030814487E+02 -0.32002341961E+03  0.33041347698E+03  0.10100000352E+00 0. -1.
       -3    1    3    3    0  502 -0.77636341607E+02  0.27030814487E+02  0.17217255969E+03  0.19079168478E+03  0.10100000352E+00 0.  1.
</event>
<event>
 5   0  0.1982847E-02  0.5003460E+03  0.7818609E-02  0.1013689E+00
       -2   -1    0    0    0  501  0.00000000000E+00  0.00000000000E+00  0.62815913728E+02  0.62815913780E+02  0.25500000920E-02 0.  1.
        2   -1    0    0  501    0  0.00000000000E+00  0.00000000000E+00 -0.99634816204E+03  0.99634816204E+03  0.25500000920E-02 0. -1.
    10030    2    1    2    0    0  0.00000000000E+00  0.00000000000E+00 -0.93353224831E+03  0.10591640758E+04  0.50034596118E+03 0.  0.
        2    1    3    3  502    0  0.10832030411E+03 -0.42979436985E+01 -0.94404611838E+03  0.95024987990E+03  0.25500000920E-02 0. -1.
       -2    1    3    3    0  502 -0.10832030411E+03  0.42979436985E+01  0.10513870075E+02  0.10891419592E+03  0.25500000920E-02 0.  1.
</event>
<event>
 5   0  0.1217270E-02  0.4994772E+03  0.7818609E-02  0.1013915E+00
       -1   -1    0    0    0  501  0.00000000000E+00  0.00000000000E+00  0.32495940676E+02  0.32495941067E+02  0.50400001928E-02 0.  1.
        1   -1    0    0  501    0  0.00000000000E+00  0.00000000000E+00 -0.19192970969E+04  0.19192970969E+04  0.50400001928E-02 0. -1.
    10030    2    1    2    0    0  0.00000000000E+00  0.00000000000E+00 -0.18868011562E+04  0.19517930379E+04  0.49947718661E+03 0.  0.
        2    1    3    3  502    0 -0.68158739695E+02 -0.18450198647E+03 -0.15447603044E+04  0.15572318373E+04  0.25500000920E-02 0. -1.
       -2    1    3    3    0  502  0.68158739695E+02  0.18450198647E+03 -0.34204085176E+03  0.39456120068E+03  0.25500000920E-02 0.  1.
</event>
<event>
 5   0  0.1209831E-02  0.4999395E+03  0.7818609E-02  0.1013795E+00
       -1   -1    0    0    0  501  0.00000000000E+00  0.00000000000E+00  0.24558924653E+03  0.24558924658E+03  0.50400001928E-02 0.  1.
        1   -1    0    0  501    0  0.00000000000E+00  0.00000000000E+00 -0.25442838539E+03  0.25442838544E+03  0.50400001928E-02 0. -1.
    10030    2    1    2    0    0  0.00000000000E+00  0.00000000000E+00 -0.88391388611E+01  0.50001763202E+03  0.49993949830E+03 0.  0.
        4    1    3    3  502    0  0.27839123597E+02 -0.13795965584E+03 -0.21103205538E+03  0.25366124012E+03  0.12699999809E+01 0. -1.
       -4    1    3    3    0  502 -0.27839123597E+02  0.13795965584E+03  0.20219291652E+03  0.24635639190E+03  0.12699999809E+01 0.  1.
</event>
<event>
 5   0  0.1982847E-02  0.4989562E+03  0.7818609E-02  0.1014052E+00
        2   -1    0    0  501    0  0.00000000000E+00  0.00000000000E+00  0.36245567555E+03  0.36245567556E+03  0.25500000920E-02 0.  1.
       -2   -1    0    0    0  501  0.00000000000E+00  0.00000000000E+00 -0.17171568626E+03  0.17171568628E+03  0.25500000920E-02 0. -1.
    10030    2    1    2    0    0  0.00000000000E+00  0.00000000000E+00  0.19073998929E+03  0.53417136184E+03  0.49895621080E+03 0.  0.
        2    1    3    3  502    0 -0.12921811101E+03  0.99760250929E+02 -0.10659752622E+03  0.19496784474E+03  0.25500000920E-02 0. -1.
       -2    1    3    3    0  502  0.12921811101E+03 -0.99760250929E+02  0.29733751551E+03  0.33920351710E+03  0.25500000920E-02 0.  1.
</event>
<event>
 5   0  0.1855407E-02  0.5002160E+03  0.7818609E-02  0.1013723E+00
       -2   -1    0    0    0  501  0.00000000000E+00  0.00000000000E+00  0.39542329397E+03  0.39542329398E+03  0.25500000920E-02 0. -1.
        2   -1    0    0  501    0  0.00000000000E+00  0.00000000000E+00 -0.15819507491E+03  0.15819507493E+03  0.25500000920E-02 0.  1.
    10030    2    1    2    0    0  0.00000000000E+00  0.00000000000E+00  0.23722821906E+03  0.55361836891E+03  0.50021602381E+03 0.  0.
        1    1    3    3  502    0  0.19586061700E+03 -0.76364856967E+02  0.26858314156E+03  0.34107165908E+03  0.50400001928E-02 0. -1.
       -1    1    3    3    0  502 -0.19586061700E+03  0.76364856967E+02 -0.31354922504E+02  0.21254670983E+03  0.50400001928E-02 0.  1.
</event>
<event>
 5   0  0.8012875E-03  0.4983900E+03  0.7818609E-02  0.1014200E+00
       -3   -1    0    0    0  501  0.00000000000E+00  0.00000000000E+00  0.35554992688E+03  0.35554994122E+03  0.10100000352E+00 0.  1.
        3   -1    0    0  501    0  0.00000000000E+00  0.00000000000E+00 -0.17465377134E+03  0.17465380054E+03  0.10100000352E+00 0. -1.
    10030    2    1    2    0    0  0.00000000000E+00  0.00000000000E+00  0.18089615554E+03  0.53020374177E+03  0.49838999658E+03 0.  0.
        1    1    3    3  502    0 -0.15248468440E+03  0.90748141401E+02  0.27657734319E+03  0.32860588999E+03  0.50400001928E-02 0.  1.
       -1    1    3    3    0  502  0.15248468440E+03 -0.90748141401E+02 -0.95681187653E+02  0.20159785178E+03  0.50400001928E-02 0. -1.
</event>
<event>
 5   0  0.8012875E-03  0.4998411E+03  0.7818609E-02  0.1013820E+00
        4   -1    0    0  501    0  0.00000000000E+00  0.00000000000E+00  0.51777595841E+02  0.51793168768E+02  0.12699999809E+01 0.  1.
       -4   -1    0    0    0  501  0.00000000000E+00  0.00000000000E+00 -0.12061212874E+04  0.12061219560E+04  0.12699999809E+01 0. -1.
    10030    2    1    2    0    0  0.00000000000E+00  0.00000000000E+00 -0.11543436915E+04  0.12579151248E+04  0.49984107769E+03 0.  0.
        5    1    3    3  502    0  0.80528074518E+02 -0.12011080604E+03 -0.10900139531E+04  0.10995744106E+04  0.46999998093E+01 0. -1.
       -5    1    3    3    0  502 -0.80528074518E+02  0.12011080604E+03 -0.64329738409E+02  0.15834071414E+03  0.46999998093E+01 0.  1.
</event>
<event>
 5   0  0.1180937E-02  0.5001356E+03  0.7818609E-02  0.1013744E+00
        1   -1    0    0  501    0  0.00000000000E+00  0.00000000000E+00  0.36170297365E+03  0.36170297368E+03  0.50400001928E-02 0.  1.
       -1   -1    0    0    0  501  0.00000000000E+00  0.00000000000E+00 -0.17288741798E+03  0.17288741805E+03  0.50400001928E-02 0. -1.
    10030    2    1    2    0    0  0.00000000000E+00  0.00000000000E+00  0.18881555567E+03  0.53459039173E+03  0.50013555449E+03 0.  0.
        1    1    3    3  502    0 -0.81898059467E+02  0.18955077296E+03 -0.56366886711E+02  0.21404208375E+03  0.50400001928E-02 0. -1.
       -1    1    3    3    0  502  0.81898059467E+02 -0.18955077296E+03  0.24518244238E+03  0.32054830798E+03  0.50400001928E-02 0.  1.
</event>
<event>
 5   0  0.1209831E-02  0.4986449E+03  0.7818609E-02  0.1014133E+00
        1   -1    0    0  501    0  0.00000000000E+00  0.00000000000E+00  0.32977631108E+03  0.32977631112E+03  0.50400001928E-02 0. -1.
       -1   -1    0    0    0  501  0.00000000000E+00  0.00000000000E+00 -0.18849653876E+03  0.18849653882E+03  0.50400001928E-02 0.  1.
    10030    2    1    2    0    0  0.00000000000E+00  0.00000000000E+00  0.14127977233E+03  0.51827284995E+03  0.49864493673E+03 0.  0.
        4    1    3    3  502    0  0.15043726147E+03  0.10499071682E+03  0.24612189447E+03  0.30697234419E+03  0.12699999809E+01 0. -1.
       -4    1    3    3    0  502 -0.15043726147E+03 -0.10499071682E+03 -0.10484212214E+03  0.21130050576E+03  0.12699999809E+01 0.  1.
</event>
<event>
 5   0  0.1941387E-02  0.4995484E+03  0.7818609E-02  0.1013897E+00
       -2   -1    0    0    0  501  0.00000000000E+00  0.00000000000E+00  0.35831612683E+02  0.35831612774E+02  0.25500000920E-02 0.  1.
        2   -1    0    0  501    0  0.00000000000E+00  0.00000000000E+00 -0.17411206190E+04  0.17411206190E+04  0.25500000920E-02 0. -1.
    10030    2    1    2    0    0  0.00000000000E+00  0.00000000000E+00 -0.17052890063E+04  0.17769522318E+04  0.49954843504E+03 0.  0.
        4    1    3    3  502    0  0.21334910924E+03  0.69718290727E+02 -0.12424218273E+04  0.12625339965E+04  0.12699999809E+01 0. -1.
       -4    1    3    3    0  502 -0.21334910924E+03 -0.69718290727E+02 -0.46286717905E+03  0.51441823531E+03  0.12699999809E+01 0.  1.
</event>
<event>
 5   0  0.1225989E-02  0.5033492E+03  0.7818609E-02  0.1012908E+00
        1   -1    0    0  501    0  0.00000000000E+00  0.00000000000E+00  0.80216305305E+02  0.80216305464E+02  0.50400001928E-02 0. -1.
       -1   -1    0    0    0  501  0.00000000000E+00  0.00000000000E+00 -0.78961631710E+03  0.78961631711E+03  0.50400001928E-02 0.  1.
    10030    2    1    2    0    0  0.00000000000E+00  0.00000000000E+00 -0.70940001179E+03  0.86983262258E+03  0.50334919744E+03 0.  0.
        3    1    3    3  502    0  0.24321457446E+03 -0.64441760320E+02 -0.34462008060E+03  0.42669553532E+03  0.10100000352E+00 0.  1.
       -3    1    3    3    0  502 -0.24321457446E+03  0.64441760320E+02 -0.36477993119E+03  0.44313708726E+03  0.10100000352E+00 0. -1.
</event>
<event>
 5   0  0.1180937E-02  0.4997464E+03  0.7818609E-02  0.1013845E+00
       -1   -1    0    0    0  501  0.00000000000E+00  0.00000000000E+00  0.11209192282E+03  0.11209192294E+03  0.50400001928E-02 0.  1.
        1   -1    0    0  501    0  0.00000000000E+00  0.00000000000E+00 -0.55701254530E+03  0.55701254532E+03  0.50400001928E-02 0. -1.
    10030    2    1    2    0    0  0.00000000000E+00  0.00000000000E+00 -0.44492062247E+03  0.66910446826E+03  0.49974636480E+03 0.  0.
        1    1    3    3  502    0 -0.24525323505E+03 -0.35079001897E+02 -0.26598800618E+03  0.36349594927E+03  0.50400001928E-02 0. -1.
       -1    1    3    3    0  502  0.24525323505E+03  0.35079001897E+02 -0.17893261630E+03  0.30560851899E+03  0.50400001928E-02 0.  1.
</event>
<event>
 5   0  0.1180937E-02  0.4997970E+03  0.7818609E-02  0.1013832E+00
        1   -1    0    0  501    0  0.00000000000E+00  0.00000000000E+00  0.67862341937E+03  0.67862341939E+03  0.50400001928E-02 0. -1.
       -1   -1    0    0    0  501  0.00000000000E+00  0.00000000000E+00 -0.92023448764E+02  0.92023448902E+02  0.50400001928E-02 0.  1.
    10030    2    1    2    0    0  0.00000000000E+00  0.00000000000E+00  0.58659997060E+03  0.77064686829E+03  0.49979702889E+03 0.  0.
        1    1    3    3  502    0 -0.16377798640E+03  0.17451819911E+03  0.18243781793E+03  0.30093751526E+03  0.50400001928E-02 0.  1.
       -1    1    3    3    0  502  0.16377798640E+03 -0.17451819911E+03  0.40416215267E+03  0.46970935303E+03  0.50400001928E-02 0. -1.
</event>
<event>
 5   0  0.1941387E-02  0.5004326E+03  0.7818609E-02  0.1013666E+00
       -2   -1    0    0    0  501  0.00000000000E+00  0.00000000000E+00  0.14383004704E+03  0.14383004707E+03  0.25500000920E-02 0. -1.
        2   -1    0    0  501    0  0.00000000000E+00  0.00000000000E+00 -0.43529282314E+03  0.43529282315E+03  0.25500000920E-02 0.  1.
    10030    2    1    2    0    0  0.00000000000E+00  0.00000000000E+00 -0.29146277610E+03  0.57912287021E+03  0.50043256184E+03 0.  0.
        4    1    3    3  502    0  0.16837492892E+03 -0.18736011246E+02  0.67356967063E+02  0.18231765882E+03  0.12699999809E+01 0. -1.
       -4    1    3    3    0  502 -0.16837492892E+03  0.18736011246E+02 -0.35881974316E+03  0.39680521139E+03  0.12699999809E+01 0.  1.
</event>
<event>
 5   0  0.1923706E-02  0.5000067E+03  0.7818609E-02  0.1013777E+00
        2   -1    0    0  501    0  0.00000000000E+00  0.00000000000E+00  0.53451817854E+03  0.53451817855E+03  0.25500000920E-02 0. -1.
       -2   -1    0    0    0  501  0.00000000000E+00  0.00000000000E+00 -0.11693086610E+03  0.11693086613E+03  0.25500000920E-02 0.  1.
    10030    2    1    2    0    0  0.00000000000E+00  0.00000000000E+00  0.41758731244E+03  0.65144904467E+03  0.50000669425E+03 0.  0.
        3    1    3    3  502    0  0.13873674312E+03 -0.13333406484E+03  0.41674829124E+03  0.45902614870E+03  0.10100000352E+00 0. -1.
       -3    1    3    3    0  502 -0.13873674312E+03  0.13333406484E+03  0.83902119652E+00  0.19242289597E+03  0.10100000352E+00 0.  1.
</event>
<event>
 5   0  0.8012875E-03  0.5001686E+03  0.7818609E-02  0.1013735E+00
        3   -1    0    0  501    0  0.00000000000E+00  0.00000000000E+00  0.11151947786E+03  0.11151952359E+03  0.10100000352E+00 0.  1.
       -3   -1    0    0    0  501  0.00000000000E+00  0.00000000000E+00 -0.56081800152E+03  0.56081801062E+03  0.10100000352E+00 0. -1.
    10030    2    1    2    0    0  0.00000000000E+00  0.00000000000E+00 -0.44929852367E+03  0.67233753421E+03  0.50016856813E+03 0.  0.
        2    1    3    3  502    0 -0.11933076435E+03  0.92610678914E+02  0.43271323962E+02  0.15712726261E+03  0.25500000920E-02 0.  1.
       -2    1    3    3    0  502  0.11933076435E+03 -0.92610678914E+02 -0.49256984763E+03  0.51521027161E+03  0.25500000920E-02 0. -1.
</event>
<event>
 5   0  0.1967813E-02  0.5003817E+03  0.7818609E-02  0.1013679E+00
       -2   -1    0    0    0  501  0.00000000000E+00  0.00000000000E+00  0.36687869630E+03  0.36687869631E+03  0.25500000920E-02 0.  1.
        2   -1    0    0  501    0  0.00000000000E+00  0.00000000000E+00 -0.17061626052E+03  0.17061626054E+03  0.25500000920E-02 0. -1.
    10030    2    1    2    0    0  0.00000000000E+00  0.00000000000E+00  0.19626243578E+03  0.53749495685E+03  0.50038173922E+03 0.  0.
        5    1    3    3  502    0 -0.55663019753E+02  0.53389690249E+02  0.35373973746E+03  0.36208109954E+03  0.46999998093E+01 0.  1.
       -5    1    3    3    0  502  0.55663019753E+02 -0.53389690249E+02 -0.15747730168E+03  0.17541385731E+03  0.46999998093E+01 0. -1.
</event>
<event>
 5   0  0.1923706E-02  0.4989963E+03  0.7818609E-02  0.1014041E+00
       -2   -1    0    0    0  501  0.00000000000E+00  0.00000000000E+00  0.10447708522E+03  0.10447708525E+03  0.25500000920E-02 0. -1.
        2   -1    0    0  501    0  0.00000000000E+00  0.00000000000E+00 -0.59581793610E+03  0.59581793611E+03  0.25500000920E-02 0.  1.
    10030    2    1    2    0    0  0.00000000000E+00  0.00000000000E+00 -0.49134085089E+03  0.70029502136E+03  0.49899627773E+03 0.  0.
        3    1    3    3  502    0 -0.35885207043E+02  0.86400208636E+02 -0.57026906047E+03  0.57789233917E+03  0.10100000352E+00 0.  1.
       -3    1    3    3    0  502  0.35885207043E+02 -0.86400208636E+02  0.78928209586E+02  0.12240268219E+03  0.10100000352E+00 0. -1.
</event>
<event>
 5   0  0.1225989E-02  0.4997614E+03  0.7818609E-02  0.1013841E+00
       -1   -1    0    0    0  501  0.00000000000E+00  0.00000000000E+00  0.21351006834E+03  0.21351006840E+03  0.50400001928E-02 0.  1.
        1   -1    0    0  501    0  0.00000000000E+00  0.00000000000E+00 -0.29244692697E+03  0.29244692701E+03  0.50400001928E-02 0. -1.
    10030    2    1    2    0    0  0.00000000000E+00  0.00000000000E+00 -0.78936858623E+02  0.50595699541E+03  0.49976139662E+03 0.  0.
        3    1    3    3  502    0 -0.19518494402E+03  0.47828603087E+02 -0.18982087251E+03  0.27643572759E+03  0.10100000352E+00 0. -1.
       -3    1    3    3    0  502  0.19518494402E+03 -0.47828603087E+02  0.11088401389E+03  0.22952126782E+03  0.10100000352E+00 0.  1.
</event>
<event>
 5   0  0.1967813E-02  0.5011100E+03  0.7818609E-02  0.1013490E+00
        2   -1    0    0  501    0  0.00000000000E+00  0.00000000000E+00  0.81389507541E+02  0.81389507581E+02  0.25500000920E-02 0.  1.
       -2   -1    0    0    0  501  0.00000000000E+00  0.00000000000E+00 -0.77132556488E+03  0.77132556489E+03  0.25500000920E-02 0. -1.
    10030    2    1    2    0    0  0.00000000000E+00  0.00000000000E+00 -0.68993605734E+03  0.85271507247E+03  0.50110999950E+03 0.  0.
        5    1    3    3  502    0  0.26910028375E+02  0.21982016197E+03 -0.54421885219E+03  0.58757238049E+03  0.46999998093E+01 0. -1.
       -5    1    3    3    0  502 -0.26910028375E+02 -0.21982016197E+03 -0.14571720515E+03  0.26514269198E+03  0.46999998093E+01 0.  1.
</event>
<event>
 5   0  0.1982847E-02  0.5000443E+03  0.7818609E-02  0.1013767E+00
       -2   -1    0    0    0  501  0.00000000000E+00  0.00000000000E+00  0.95914948039E+02  0.95914948073E+02  0.25500000920E-02 0. -1.
        2   -1    0    0  501    0  0.00000000000E+00  0.00000000000E+00 -0.65173431927E+03  0.65173431927E+03  0.25500000920E-02 0.  1.
    10030    2    1    2    0    0  0.00000000000E+00  0.00000000000E+00 -0.55581937123E+03  0.74764926734E+03  0.50004425157E+03 0.  0.
        2    1    3    3  502    0  0.75581064789E+02  0.11268766705E+03 -0.59189478760E+03  0.60724825833E+03  0.25500000920E-02 0.  1.
       -2    1    3    3    0  502 -0.75581064789E+02 -0.11268766705E+03  0.36075416370E+02  0.14040100901E+03  0.25500000920E-02 0. -1.
</event>
<event>
 5   0  0.1967813E-02  0.5002693E+03  0.7818609E-02  0.1013709E+00
        2   -1    0    0  501    0  0.00000000000E+00  0.00000000000E+00  0.53317994939E+03  0.53317994940E+03  0.25500000920E-02 0.  1.
       -2   -1    0    0    0  501  0.00000000000E+00  0.00000000000E+00 -0.11734751656E+03  0.11734751659E+03  0.25500000920E-02 0. -1.
    10030    2    1    2    0    0  0.00000000000E+00  0.00000000000E+00  0.41583243283E+03  0.65052746599E+03  0.50026929930E+03 0.  0.
        5    1    3    3  502    0  0.12427454297E+03 -0.19155091238E+03  0.75246023723E+02  0.24045783029E+03  0.46999998093E+01 0. -1.
       -5    1    3    3    0  502 -0.12427454297E+03  0.19155091238E+03  0.34058640911E+03  0.41006963571E+03  0.46999998093E+01 0.  1.
</event>
<event>
 5   0  0.1209831E-02  0.4997538E+03  0.7818609E-02  0.1013843E+00
        1   -1    0    0  501    0  0.00000000000E+00  0.00000000000E+00  0.28285082452E+03  0.28285082456E+03  0.50400001928E-02 0.  1.
       -1   -1    0    0    0  501  0.00000000000E+00  0.00000000000E+00 -0.22074698988E+03  0.22074698994E+03  0.50400001928E-02 0. -1.
    10030    2    1    2    0    0  0.00000000000E+00  0.00000000000E+00  0.62103834637E+02  0.50359781450E+03  0.49975381189E+03 0.  0.
        4    1    3    3  502    0  0.18753165388E+03 -0.24316071466E+02  0.19564060477E+03  0.27209603392E+03  0.12699999809E+01 0.  1.
       -4    1    3    3    0  502 -0.18753165388E+03  0.24316071466E+02 -0.13353677014E+03  0.23150178059E+03  0.12699999809E+01 0. -1.
</event>
<event>
 5   0  0.8012875E-03  0.5003672E+03  0.7818609E-02  0.1013683E+00
       -3   -1    0    0    0  501  0.00000000000E+00  0.00000000000E+00  0.39132223510E+03  0.39132224813E+03  0.10100000352E+00 0.  1.
        3   -1    0    0  501    0  0.00000000000E+00  0.00000000000E+00 -0.15994954078E+03  0.15994957266E+03  0.10100000352E+00 0. -1.
    10030    2    1    2    0    0  0.00000000000E+00  0.00000000000E+00  0.23137269432E+03  0.55127182080E+03  0.50036716192E+03 0.  0.
        4    1    3    3  502    0 -0.72115283698E+02 -0.23370080525E+03  0.17370845300E+03  0.29998819987E+03  0.12699999809E+01 0.  1.
       -4    1    3    3    0  502  0.72115283698E+02  0.23370080525E+03  0.57664241323E+02  0.25128362093E+03  0.12699999809E+01 0. -1.
</event>
<event>
 5   0  0.1982847E-02  0.4998089E+03  0.7818609E-02  0.1013829E+00
        2   -1    0    0  501    0  0.00000000000E+00  0.00000000000E+00  0.11060985558E+04  0.11060985558E+04  0.25500000920E-02 0. -1.
       -2   -1    0    0    0  501  0.00000000000E+00  0.00000000000E+00 -0.56461727374E+02  0.56461727431E+02  0.25500000920E-02 0.  1.
    10030    2    1    2    0    0  0.00000000000E+00  0.00000000000E+00  0.10496368285E+04  0.11625602833E+04  0.49980890406E+03 0.  0.
        2    1    3    3  502    0  0.30560236198E+02 -0.23457396701E+03  0.71225150673E+03  0.75050721708E+03  0.25500000920E-02 0. -1.
       -2    1    3    3    0  502 -0.30560236198E+02  0.23457396701E+03  0.33738532174E+03  0.41205306620E+03  0.25500000920E-02 0.  1.
</event>
<event>
 5   0  0.1227864E-02  0.4993261E+03  0.7818609E-02  0.1013955E+00
       -1   -1    0    0    0  501  0.00000000000E+00  0.00000000000E+00  0.46502543313E+02  0.46502543586E+02  0.50400001928E-02 0.  1.
        1   -1    0    0  501    0  0.00000000000E+00  0.00000000000E+00 -0.13403920722E+04  0.13403920722E+04  0.50400001928E-02 0. -1.
    10030    2    1    2    0    0  0.00000000000E+00  0.00000000000E+00 -0.12938895289E+04  0.13868946158E+04  0.49932610823E+03 0.  0.
        5    1    3    3  502    0  0.46903106007E+02 -0.22707217776E+03 -0.90374077780E+03  0.93302259282E+03  0.46999998093E+01 0.  1.
       -5    1    3    3    0  502 -0.46903106007E+02  0.22707217776E+03 -0.39014875111E+03  0.45387202299E+03  0.46999998093E+01 0. -1.
</event>
<event>
 5   0  0.1225989E-02  0.5005611E+03  0.7818609E-02  0.1013633E+00
        1   -1    0    0  501    0  0.00000000000E+00  0.00000000000E+00  0.61039471232E+03  0.61039471234E+03  0.50400001928E-02 0.  1.
       -1   -1    0    0    0  501  0.00000000000E+00  0.00000000000E+00 -0.10262269137E+03  0.10262269150E+03  0.50400001928E-02 0. -1.
    10030    2    1    2    0    0  0.00000000000E+00  0.00000000000E+00  0.50777202094E+03  0.71301740384E+03  0.50056107811E+03 0.  0.
        3    1    3    3  502    0  0.52194456355E+02 -0.68233787570E+02 -0.80963281866E+02  0.11804733903E+03  0.10100000352E+00 0. -1.
       -3    1    3    3    0  502 -0.52194456355E+02  0.68233787570E+02  0.58873530281E+03  0.59497006481E+03  0.10100000352E+00 0.  1.
</event>
<event>
 5   0  0.1941387E-02  0.5015584E+03  0.7818609E-02  0.1013373E+00
       -2   -1    0    0    0  501  0.00000000000E+00  0.00000000000E+00  0.16850403832E+03  0.16850403834E+03  0.25500000920E-02 0. -1.
        2   -1    0    0  501    0  0.00000000000E+00  0.00000000000E+00 -0.37322674220E+03  0.37322674221E+03  0.25500000920E-02 0.  1.
    10030    2    1    2    0    0  0.00000000000E+00  0.00000000000E+00 -0.20472270388E+03  0.54173078055E+03  0.50155842442E+03 0.  0.
        4    1    3    3  502    0 -0.11497746870E+01  0.24892825778E+03 -0.69564840591E+02  0.25847142869E+03  0.12699999809E+01 0.  1.
       -4    1    3    3    0  502  0.11497746870E+01 -0.24892825778E+03 -0.13515786329E+03  0.28325935185E+03  0.12699999809E+01 0. -1.
</event>
<event>
 5   0  0.1225989E-02  0.4995449E+03  0.7818609E-02  0.1013898E+00
       -1   -1    0    0    0  501  0.00000000000E+00  0.00000000000E+00  0.66271038564E+03  0.66271038566E+03  0.50400001928E-02 0.  1.
        1   -1    0    0  501    0  0.00000000000E+00  0.00000000000E+00 -0.94138073935E+02  0.94138074070E+02  0.50400001928E-02 0. -1.
    10030    2    1    2    0    0  0.00000000000E+00  0.00000000000E+00  0.56857231171E+03  0.75684845973E+03  0.49954491025E+03 0.  0.
        3    1    3    3  502    0  0.81537762936E+02  0.18194827692E+03  0.56355652000E+02  0.20719447863E+03  0.10100000352E+00 0. -1.
       -3    1    3    3    0  502 -0.81537762936E+02 -0.18194827692E+03  0.51221665971E+03  0.54965398110E+03  0.10100000352E+00 0.  1.
</event>
<event>
 5   0  0.1209831E-02  0.5066705E+03  0.7818609E-02  0.1012052E+00
       -1   -1    0    0    0  501  0.00000000000E+00  0.00000000000E+00  0.21773820070E+03  0.21773820076E+03  0.50400001928E-02 0. -1.
        1   -1    0    0  501    0  0.00000000000E+00  0.00000000000E+00 -0.29475186210E+03  0.29475186214E+03  0.50400001928E-02 0.  1.
    10030    2    1    2    0    0  0.00000000000E+00  0.00000000000E+00 -0.77013661394E+02  0.51249006290E+03  0.50667046543E+03 0.  0.
        4    1    3    3  502    0 -0.83172028405E+02 -0.15731758671E+02  0.20300766293E+03  0.21995180983E+03  0.12699999809E+01 0. -1.
       -4    1    3    3    0  502  0.83172028405E+02  0.15731758671E+02 -0.28002132432E+03  0.29253825308E+03  0.12699999809E+01 0.  1.
</event>
<event>
 5   0  0.1225989E-02  0.4995822E+03  0.7818609E-02  0.1013888E+00
        1   -1    0    0  501    0  0.00000000000E+00  0.00000000000E+00  0.30063793768E+03  0.30063793772E+03  0.50400001928E-02 0.  1.
       -1   -1    0    0    0  501  0.00000000000E+00  0.00000000000E+00 -0.20754401014E+03  0.20754401020E+03  0.50400001928E-02 0. -1.
    10030    2    1    2    0    0  0.00000000000E+00  0.00000000000E+00  0.93093927534E+02  0.50818194792E+03  0.49958223832E+03 0.  0.
        3    1    3    3  502    0 -0.18874545636E+03 -0.95905540028E+02 -0.88297658371E+02  0.22938876733E+03  0.10100000352E+00 0. -1.
       -3    1    3    3    0  502  0.18874545636E+03  0.95905540028E+02  0.18139158591E+03  0.27879318059E+03  0.10100000352E+00 0.  1.
</event>
<event>
 5   0  0.1923706E-02  0.4998625E+03  0.7818609E-02  0.1013815E+00
        2   -1    0    0  501    0  0.00000000000E+00  0.00000000000E+00  0.82032210812E+03  0.82032210813E+03  0.25500000920E-02 0.  1.
       -2   -1    0    0    0  501  0.00000000000E+00  0.00000000000E+00 -0.76147681095E+02  0.76147681138E+02  0.25500000920E-02 0. -1.
    10030    2    1    2    0    0  0.00000000000E+00  0.00000000000E+00  0.74417442703E+03  0.89646978927E+03  0.49986248631E+03 0.  0.
        3    1    3    3  502    0  0.29967665555E+02  0.17931499885E+02  0.81592475814E+03  0.81667179504E+03  0.10100000352E+00 0.  1.
       -3    1    3    3    0  502 -0.29967665555E+02 -0.17931499885E+02 -0.71750331111E+02  0.79797994226E+02  0.10100000352E+00 0. -1.
</event>
<event>
 5   0  0.1209831E-02  0.4988967E+03  0.7818609E-02  0.1014067E+00
        1   -1    0    0  501    0  0.00000000000E+00  0.00000000000E+00  0.24738613161E+03  0.24738613167E+03  0.50400001928E-02 0. -1.
       -1   -1    0    0    0  501  0.00000000000E+00  0.00000000000E+00 -0.25152775305E+03  0.25152775310E+03  0.50400001928E-02 0.  1.
    10030    2    1    2    0    0  0.00000000000E+00  0.00000000000E+00 -0.41416214335E+01  0.49891388476E+03  0.49889669410E+03 0.  0.
        4    1    3    3  502    0 -0.71430339559E+02  0.23430763837E+03  0.45053017272E+02  0.24906575452E+03  0.12699999809E+01 0.  1.
       -4    1    3    3    0  502  0.71430339559E+02 -0.23430763837E+03 -0.49194638706E+02  0.24984813024E+03  0.12699999809E+01 0. -1.
</event>
<event>
 5   0  0.1227864E-02  0.4997677E+03  0.7818609E-02  0.1013840E+00
        1   -1    0    0  501    0  0.00000000000E+00  0.00000000000E+00  0.86483199446E+03  0.86483199447E+03  0.50400001928E-02 0. -1.
       -1   -1    0    0    0  501  0.00000000000E+00  0.00000000000E+00 -0.72201243348E+02  0.72201243524E+02  0.50400001928E-02 0.  1.
    10030    2    1    2    0    0  0.00000000000E+00  0.00000000000E+00  0.79263075111E+03  0.93703323800E+03  0.49976772755E+03 0.  0.
        5    1    3    3  502    0 -0.17195473244E+03 -0.10978345021E+03  0.66671632886E+03  0.69724715066E+03  0.46999998093E+01 0. -1.
       -5    1    3    3    0  502  0.17195473244E+03  0.10978345021E+03  0.12591442225E+03  0.23978608733E+03  0.46999998093E+01 0.  1.
</event>
<event>
 5   0  0.1967813E-02  0.4988136E+03  0.7818609E-02  0.1014089E+00
        2   -1    0    0  501    0  0.00000000000E+00  0.00000000000E+00  0.15580025126E+04  0.15580025126E+04  0.25500000920E-02 0. -1.
       -2   -1    0    0    0  501  0.00000000000E+00  0.00000000000E+00 -0.39925316290E+02  0.39925316371E+02  0.25500000920E-02 0.  1.
    10030    2    1    2    0    0  0.00000000000E+00  0.00000000000E+00  0.15180771963E+04  0.15979278290E+04  0.49881356503E+03 0.  0.
        5    1    3    3  502    0 -0.23163246254E+03 -0.62649955398E+02  0.97637937300E+03  0.10054438744E+04  0.46999998093E+01 0. -1.
       -5    1    3    3    0  502  0.23163246254E+03  0.62649955398E+02  0.54169782332E+03  0.59248395455E+03  0.46999998093E+01 0.  1.
</event>
<event>
 5   0  0.1227864E-02  0.5001791E+03  0.7818609E-02  0.1013732E+00
       -1   -1    0    0    0  501  0.00000000000E+00  0.00000000000E+00  0.43691336994E+02  0.43691337284E+02  0.50400001928E-02 0. -1.
        1   -1    0    0  501    0  0.00000000000E+00  0.00000000000E+00 -0.14315145471E+04  0.14315145471E+04  0.50400001928E-02 0.  1.
    10030    2    1    2    0    0  0.00000000000E+00  0.00000000000E+00 -0.13878232101E+04  0.14752058843E+04  0.50017910675E+03 0.  0.
        5    1    3    3  502    0  0.10021879715E+03  0.37572420980E+02 -0.27414733759E+02  0.11058549519E+03  0.46999998093E+01 0. -1.
       -5    1    3    3    0  502 -0.10021879715E+03 -0.37572420980E+02 -0.13604084763E+04  0.13646203892E+04  0.46999998093E+01 0.  1.
</event>
<event>
 5   0  0.1941387E-02  0.4979187E+03  0.7818609E-02  0.1014324E+00
        2   -1    0    0  501    0  0.00000000000E+00  0.00000000000E+00  0.55220829275E+03  0.55220829276E+03  0.25500000920E-02 0. -1.
       -2   -1    0    0    0  501  0.00000000000E+00  0.00000000000E+00 -0.11224164849E+03  0.11224164852E+03  0.25500000920E-02 0.  1.
    10030    2    1    2    0    0  0.00000000000E+00  0.00000000000E+00  0.43996664427E+03  0.66444994127E+03  0.49791874477E+03 0.  0.
        4    1    3    3  502    0 -0.65802656851E+01 -0.12281139019E+03  0.50883407712E+03  0.52348798305E+03  0.12699999809E+01 0. -1.
       -4    1    3    3    0  502  0.65802656851E+01  0.12281139019E+03 -0.68867432856E+02  0.14096195822E+03  0.12699999809E+01 0.  1.
</event>
<event>
 5   0  0.8012875E-03  0.4998927E+03  0.7818609E-02  0.1013807E+00
       -3   -1    0    0    0  501  0.00000000000E+00  0.00000000000E+00  0.43686702051E+02  0.43686818802E+02  0.10100000352E+00 0.  1.
        3   -1    0    0  501    0  0.00000000000E+00  0.00000000000E+00 -0.14300253612E+04  0.14300253648E+04  0.10100000352E+00 0. -1.
    10030    2    1    2    0    0  0.00000000000E+00  0.00000000000E+00 -0.13863386592E+04  0.14737121836E+04  0.49989271064E+03 0.  0.
        5    1    3    3  502    0  0.53513274057E+02 -0.11789153248E+02  0.25627389907E+02  0.60675429510E+02  0.46999998093E+01 0.  1.
       -5    1    3    3    0  502 -0.53513274057E+02  0.11789153248E+02 -0.14119660491E+04  0.14130367541E+04  0.46999998093E+01 0. -1.
</event>
<event>
 5   0  0.1217270E-02  0.4994808E+03  0.7818609E-02  0.1013915E+00
       -1   -1    0    0    0  501  0.00000000000E+00  0.00000000000E+00  0.22882751574E+03  0.22882751579E+03  0.50400001928E-02 0. -1.
        1   -1    0    0  501    0  0.00000000000E+00  0.00000000000E+00 -0.27256449122E+03  0.27256449127E+03  0.50400001928E-02 0.  1.
    10030    2    1    2    0    0  0.00000000000E+00  0.00000000000E+00 -0.43736975484E+02  0.50139200706E+03  0.49948075210E+03 0.  0.
        2    1    3    3  502    0 -0.72294254763E+01 -0.19736397977E+03 -0.17531100944E+03  0.26408096323E+03  0.25500000920E-02 0.  1.
       -2    1    3    3    0  502  0.72294254763E+01  0.19736397977E+03  0.13157403396E+03  0.23731104383E+03  0.25500000920E-02 0. -1.
</event>
<event>
 5   0  0.8012875E-03  0.4989706E+03  0.7818609E-02  0.1014048E+00
       -4   -1    0    0    0  501  0.00000000000E+00  0.00000000000E+00  0.14552402526E+03  0.14552956686E+03  0.12699999809E+01 0.  1.
        4   -1    0    0  501    0  0.00000000000E+00  0.00000000000E+00 -0.42770113587E+03  0.42770302142E+03  0.12699999809E+01 0. -1.
    10030    2    1    2    0    0  0.00000000000E+00  0.00000000000E+00 -0.28217711061E+03  0.57323258827E+03  0.49897061888E+03 0.  0.
        3    1    3    3  502    0  0.57229677929E+02 -0.14138078804E+03  0.85726594499E+02  0.17496520359E+03  0.10100000352E+00 0.  1.
       -3    1    3    3    0  502 -0.57229677929E+02  0.14138078804E+03 -0.36790370511E+03  0.39826738468E+03  0.10100000352E+00 0. -1.
</event>
<event>
 5   0  0.1180937E-02  0.5004296E+03  0.7818609E-02  0.1013667E+00
        1   -1    0    0  501    0  0.00000000000E+00  0.00000000000E+00  0.33425302906E+03  0.33425302909E+03  0.50400001928E-02 0. -1.
       -1   -1    0    0    0  501  0.00000000000E+00  0.00000000000E+00 -0.18730556764E+03  0.18730556771E+03  0.50400001928E-02 0.  1.
    10030    2    1    2    0    0  0.00000000000E+00  0.00000000000E+00  0.14694746142E+03  0.52155859680E+03  0.50042962890E+03 0.  0.
        1    1    3    3  502    0  0.96550835544E+01 -0.17556551683E+03 -0.11206216347E+03  0.20850515544E+03  0.50400001928E-02 0.  1.
       -1    1    3    3    0  502 -0.96550835544E+01  0.17556551683E+03  0.25900962489E+03  0.31305344136E+03  0.50400001928E-02 0. -1.
</event>
<event>
 5   0  0.1923706E-02  0.5001446E+03  0.7818609E-02  0.1013741E+00
       -2   -1    0    0    0  501  0.00000000000E+00  0.00000000000E+00  0.96649639635E+02  0.96649639669E+02  0.25500000920E-02 0. -1.
        2   -1    0    0  501    0  0.00000000000E+00  0.00000000000E+00 -0.64703967271E+03  0.64703967271E+03  0.25500000920E-02 0.  1.
    10030    2    1    2    0    0  0.00000000000E+00  0.00000000000E+00 -0.55039003307E+03  0.74368931238E+03  0.50014458394E+03 0.  0.
        3    1    3    3  502    0  0.56323021741E+02 -0.22821329992E+03 -0.14830202177E+03  0.27793361240E+03  0.10100000352E+00 0. -1.
       -3    1    3    3    0  502 -0.56323021741E+02  0.22821329992E+03 -0.40208801130E+03  0.46575569999E+03  0.10100000352E+00 0.  1.
</event>
<event>
 5   0  0.1217270E-02  0.4950462E+03  0.7818609E-02  0.1015080E+00
       -1   -1    0    0    0  501  0.00000000000E+00  0.00000000000E+00  0.10444733933E+03  0.10444733946E+03  0.50400001928E-02 0. -1.
        1   -1    0    0  501    0  0.00000000000E+00  0.00000000000E+00 -0.58658923691E+03  0.58658923693E+03  0.50400001928E-02 0.  1.
    10030    2    1    2    0    0  0.00000000000E+00  0.00000000000E+00 -0.48214189757E+03  0.69103657639E+03  0.49504620038E+03 0.  0.
        2    1    3    3  502    0  0.11828985325E+03 -0.13866322204E+03 -0.72927644317E+01  0.18240932802E+03  0.25500000920E-02 0. -1.
       -2    1    3    3    0  502 -0.11828985325E+03  0.13866322204E+03 -0.47484913314E+03  0.50862724837E+03  0.25500000920E-02 0.  1.
</event>
<event>
 5   0  0.1227864E-02  0.5038135E+03  0.7818609E-02  0.1012788E+00
       -1   -1    0    0    0  501  0.00000000000E+00  0.00000000000E+00  0.12940662149E+03  0.12940662159E+03  0.50400001928E-02 0.  1.
        1   -1    0    0  501    0  0.00000000000E+00  0.00000000000E+00 -0.49036907899E+03  0.49036907901E+03  0.50400001928E-02 0. -1.
    10030    2    1    2    0    0  0.00000000000E+00  0.00000000000E+00 -0.36096245750E+03  0.61977570060E+03  0.50381348070E+03 0.  0.
        5    1    3    3  502    0  0.31031865732E+01  0.15764808360E+02 -0.48968403379E+03  0.48997010306E+03  0.46999998093E+01 0. -1.
       -5    1    3    3    0  502 -0.31031865732E+01 -0.15764808360E+02  0.12872157629E+03  0.12980559753E+03  0.46999998093E+01 0.  1.
</event>
<event>
 5   0  0.1217270E-02  0.4993300E+03  0.7818609E-02  0.1013954E+00
       -1   -1    0    0    0  501  0.00000000000E+00  0.00000000000E+00  0.13541664151E+03  0.13541664160E+03  0.50400001928E-02 0. -1.
        1   -1    0    0  501    0  0.00000000000E+00  0.00000000000E+00 -0.46030240474E+03  0.46030240477E+03  0.50400001928E-02 0.  1.
    10030    2    1    2    0    0  0.00000000000E+00  0.00000000000E+00 -0.32488576323E+03  0.59571904637E+03  0.49932997412E+03 0.  0.
        2    1    3    3  502    0  0.15723112463E+03  0.17502271251E+03 -0.26210273488E+03  0.35221076088E+03  0.25500000920E-02 0.  1.
       -2    1    3    3    0  502 -0.15723112463E+03 -0.17502271251E+03 -0.62783028350E+02  0.24350828549E+03  0.25500000920E-02 0. -1.
</event>
<event>
 5   0  0.1967813E-02  0.5004601E+03  0.7818609E-02  0.1013659E+00
       -2   -1    0    0    0  501  0.00000000000E+00  0.00000000000E+00  0.12088092685E+03  0.12088092688E+03  0.25500000920E-02 0.  1.
        2   -1    0    0  501    0  0.00000000000E+00  0.00000000000E+00 -0.51798973367E+03  0.51798973368E+03  0.25500000920E-02 0. -1.
    10030    2    1    2    0    0  0.00000000000E+00  0.00000000000E+00 -0.39710880681E+03  0.63887066056E+03  0.50046010477E+03 0.  0.
        5    1    3    3  502    0 -0.19208375547E+03  0.27303070810E+02 -0.40020086844E+03  0.44477460796E+03  0.46999998093E+01 0. -1.
       -5    1    3    3    0  502  0.19208375547E+03 -0.27303070810E+02  0.30920616219E+01  0.19409605260E+03  0.46999998093E+01 0.  1.
</event>
<event>
 5   0  0.1941387E-02  0.4996647E+03  0.7818609E-02  0.1013866E+00
       -2   -1    0    0    0  501  0.00000000000E+00  0.00000000000E+00  0.89798094028E+02  0.89798094064E+02  0.25500000920E-02 0.  1.
        2   -1    0    0  501    0  0.00000000000E+00  0.00000000000E+00 -0.69507278747E+03  0.69507278747E+03  0.25500000920E-02 0. -1.
    10030    2    1    2    0    0  0.00000000000E+00  0.00000000000E+00 -0.60527469344E+03  0.78487088154E+03  0.49966473376E+03 0.  0.
        4    1    3    3  502    0  0.68923992657E+02  0.22652031463E+03 -0.42783502157E+03  0.48898505937E+03  0.12699999809E+01 0. -1.
       -4    1    3    3    0  502 -0.68923992657E+02 -0.22652031463E+03 -0.17743967187E+03  0.29588582216E+03  0.12699999809E+01 0.  1.
</event>
<event>
 5   0  0.8012875E-03  0.4997755E+03  0.7818609E-02  0.1013838E+00
       -4   -1    0    0    0  501  0.00000000000E+00  0.00000000000E+00  0.38451896076E+03  0.38452105805E+03  0.12699999809E+01 0.  1.
        4   -1    0    0  501    0  0.00000000000E+00  0.00000000000E+00 -0.16238980033E+03  0.16239476639E+03  0.12699999809E+01 0. -1.
    10030    2    1    2    0    0  0.00000000000E+00  0.00000000000E+00  0.22212916043E+03  0.54691582444E+03  0.49977550472E+03 0.  0.
        5    1    3    3  502    0  0.91650591380E+02 -0.19879237416E+03  0.24285469274E+03  0.32698429734E+03  0.46999998093E+01 0.  1.
       -5    1    3    3    0  502 -0.91650591380E+02  0.19879237416E+03 -0.20725532310E+02  0.21993152710E+03  0.46999998093E+01 0. -1.
</event>
<event>
 5   0  0.1180937E-02  0.5001865E+03  0.7818609E-02  0.1013730E+00
       -1   -1    0    0    0  501  0.00000000000E+00  0.00000000000E+00  0.85094671194E+02  0.85094671344E+02  0.50400001928E-02 0. -1.
        1   -1    0    0  501    0  0.00000000000E+00  0.00000000000E+00 -0.73502400691E+03  0.73502400693E+03  0.50400001928E-02 0.  1.
    10030    2    1    2    0    0  0.00000000000E+00  0.00000000000E+00 -0.64992933572E+03  0.82011867827E+03  0.50018647025E+03 0.  0.
        1    1    3    3  502    0  0.13958148596E+03 -0.20230128492E+01 -0.66520004446E+03  0.67968976966E+03  0.50400001928E-02 0.  1.
       -1    1    3    3    0  502 -0.13958148596E+03  0.20230128492E+01  0.15270708741E+02  0.14042890862E+03  0.50400001928E-02 0. -1.
</event>
<event>
 5   0  0.1225989E-02  0.5010649E+03  0.7818609E-02  0.1013501E+00
        1   -1    0    0  501    0  0.00000000000E+00  0.00000000000E+00  0.23565293960E+03  0.23565293965E+03  0.50400001928E-02 0.  1.
       -1   -1    0    0    0  501  0.00000000000E+00  0.00000000000E+00 -0.26635149237E+03  0.26635149242E+03  0.50400001928E-02 0. -1.
    10030    2    1    2    0    0  0.00000000000E+00  0.00000000000E+00 -0.30698552774E+02  0.50200443207E+03  0.50106491464E+03 0.  0.
        3    1    3    3  502    0  0.10747781556E+03  0.46157298935E+02  0.20661641575E+03  0.23742857987E+03  0.10100000352E+00 0.  1.
       -3    1    3    3    0  502 -0.10747781556E+03 -0.46157298935E+02 -0.23731496853E+03  0.26457585220E+03  0.10100000352E+00 0. -1.
</event>
<event>
 5   0  0.1982847E-02  0.5010151E+03  0.7818609E-02  0.1013514E+00
       -2   -1    0    0    0  501  0.00000000000E+00  0.00000000000E+00  0.27053722830E+03  0.27053722831E+03  0.25500000920E-02 0. -1.
        2   -1    0    0  501    0  0.00000000000E+00  0.00000000000E+00 -0.23196083494E+03  0.23196083495E+03  0.25500000920E-02 0.  1.
    10030    2    1    2    0    0  0.00000000000E+00  0.00000000000E+00  0.38576393366E+02  0.50249806326E+03  0.50101513496E+03 0.  0.
        2    1    3    3  502    0  0.20507185180E+03 -0.41356265697E+02  0.15749750565E+03  0.26185925495E+03  0.25500000920E-02 0. -1.
       -2    1    3    3    0  502 -0.20507185180E+03  0.41356265697E+02 -0.11892111228E+03  0.24063880831E+03  0.25500000920E-02 0.  1.
</event>
<event>
 5   0  0.1180937E-02  0.5003344E+03  0.7818609E-02  0.1013692E+00
        1   -1    0    0  501    0  0.00000000000E+00  0.00000000000E+00  0.15362210016E+04  0.15362210016E+04  0.50400001928E-02 0. -1.
       -1   -1    0    0    0  501  0.00000000000E+00  0.00000000000E+00 -0.40738690293E+02  0.40738690604E+02  0.50400001928E-02 0.  1.
    10030    2    1    2    0    0  0.00000000000E+00  0.00000000000E+00  0.14954823113E+04  0.15769596922E+04  0.50033441560E+03 0.  0.
        1    1    3    3  502    0 -0.63310163111E+02  0.10794675166E+03  0.65005023039E+02  0.14101890297E+03  0.50400001928E-02 0.  1.
       -1    1    3    3    0  502  0.63310163111E+02 -0.10794675166E+03  0.14304772883E+04  0.14359407893E+04  0.50400001928E-02 0. -1.
</event>
<event>
 5   0  0.1967813E-02  0.5002597E+03  0.7818609E-02  0.1013711E+00
        2   -1    0    0  501    0  0.00000000000E+00  0.00000000000E+00  0.18978799046E+03  0.18978799048E+03  0.25500000920E-02 0. -1.
       -2   -1    0    0    0  501  0.00000000000E+00  0.00000000000E+00 -0.32965704732E+03  0.32965704733E+03  0.25500000920E-02 0.  1.
    10030    2    1    2    0    0  0.00000000000E+00  0.00000000000E+00 -0.13986905686E+03  0.51944503781E+03  0.50025972679E+03 0.  0.
        5    1    3    3  502    0  0.88435524364E+02 -0.17363677020E+03  0.92832660944E+02  0.21589479584E+03  0.46999998093E+01 0. -1.
       -5    1    3    3    0  502 -0.88435524364E+02  0.17363677020E+03 -0.23270171780E+03  0.30355024197E+03  0.46999998093E+01 0.  1.
</event>
<event>
 5   0  0.1180937E-02  0.4998406E+03  0.7818609E-02  0.1013821E+00
        1   -1    0    0  501    0  0.00000000000E+00  0.00000000000E+00  0.94332230993E+03  0.94332230994E+03  0.50400001928E-02 0. -1.
       -1   -1    0    0    0  501  0.00000000000E+00  0.00000000000E+00 -0.66212944016E+02  0.66212944208E+02  0.50400001928E-02 0.  1.
    10030    2    1    2    0    0  0.00000000000E+00  0.00000000000E+00  0.87710936591E+03  0.10095352542E+04  0.49984056418E+03 0.  0.
        1    1    3    3  502    0 -0.21194940756E+03  0.12568269288E+03  0.52283891505E+03  0.57799586657E+03  0.50400001928E-02 0.  1.
       -1    1    3    3    0  502  0.21194940756E+03 -0.12568269288E+03  0.35427045086E+03  0.43153938758E+03  0.50400001928E-02 0. -1.
</event>
<event>
 5   0  0.1982847E-02  0.4998441E+03  0.7818609E-02  0.1013820E+00
       -2   -1    0    0    0  501  0.00000000000E+00  0.00000000000E+00  0.61037486850E+02  0.61037486903E+02  0.25500000920E-02 0. -1.
        2   -1    0    0  501    0  0.00000000000E+00  0.00000000000E+00 -0.10233226231E+04  0.10233226231E+04  0.25500000920E-02 0.  1.
    10030    2    1    2    0    0  0.00000000000E+00  0.00000000000E+00 -0.96228513628E+03  0.10843601100E+04  0.49984414044E+03 0.  0.
        2    1    3    3  502    0 -0.24051025956E+03  0.10204772857E+02 -0.62685947404E+03  0.67149245904E+03  0.25500000920E-02 0.  1.
       -2    1    3    3    0  502  0.24051025956E+03 -0.10204772857E+02 -0.33542566224E+03  0.41286765100E+03  0.25500000920E-02 0. -1.
</event>
<event>
 5   0  0.1227864E-02  0.4992728E+03  0.7818609E-02  0.1013969E+00
       -1   -1    0    0    0  501  0.00000000000E+00  0.00000000000E+00  0.29271144465E+03  0.29271144470E+03  0.50400001928E-02 0.  1.
        1   -1    0    0  501    0  0.00000000000E+00  0.00000000000E+00 -0.21290026265E+03  0.21290026271E+03  0.50400001928E-02 0. -1.
    10030    2    1    2    0    0  0.00000000000E+00  0.00000000000E+00  0.79811182009E+02  0.50561170740E+03  0.49927284514E+03 0.  0.
        5    1    3    3  502    0 -0.20169911106E+03  0.73072899876E+02 -0.89283936667E+02  0.23241319120E+03  0.46999998093E+01 0. -1.
       -5    1    3    3    0  502  0.20169911106E+03 -0.73072899876E+02  0.16909511868E+03  0.27319851620E+03  0.46999998093E+01 0.  1.
</event>
<event>
 5   0  0.1923706E-02  0.4999168E+03  0.7818609E-02  0.1013801E+00
       -2   -1    0    0    0  501  0.00000000000E+00  0.00000000000E+00  0.63187556092E+02  0.63187556143E+02  0.25500000920E-02 0. -1.
        2   -1    0    0  501    0  0.00000000000E+00  0.00000000000E+00 -0.98878964536E+03  0.98878964537E+03  0.25500000920E-02 0.  1.
    10030    2    1    2    0    0  0.00000000000E+00  0.00000000000E+00 -0.92560208927E+03  0.10519772015E+04  0.49991679791E+03 0.  0.
        3    1    3    3  502    0 -0.20928806849E+03  0.13546805811E+03 -0.50080111621E+03  0.55942368432E+03  0.10100000352E+00 0.  1.
       -3    1    3    3    0  502  0.20928806849E+03 -0.13546805811E+03 -0.42480097306E+03  0.49255351719E+03  0.10100000352E+00 0. -1.
</event>
<event>
 5   0  0.1180937E-02  0.5000374E+03  0.7818609E-02  0.1013769E+00
        1   -1    0    0  501    0  0.00000000000E+00  0.00000000000E+00  0.10462700383E+04  0.10462700383E+04  0.50400001928E-02 0. -1.
       -1   -1    0    0    0  501  0.00000000000E+00  0.00000000000E+00 -0.59744960349E+02  0.59744960562E+02  0.50400001928E-02 0.  1.
    10030    2    1    2    0    0  0.00000000000E+00  0.00000000000E+00  0.98652507797E+03  0.11060149989E+04  0.50003744691E+03 0.  0.
        1    1    3    3  502    0 -0.39056555702E+02  0.10742813047E+03  0.98508858948E+03  0.99169841530E+03  0.50400001928E-02 0. -1.
       -1    1    3    3    0  502  0.39056555702E+02 -0.10742813047E+03  0.14364884879E+01  0.11431658359E+03  0.50400001928E-02 0.  1.
</event>
<event>
 5   0  0.1217270E-02  0.5002951E+03  0.7818609E-02  0.1013702E+00
        1   -1    0    0  501    0  0.00000000000E+00  0.00000000000E+00  0.34407529912E+03  0.34407529916E+03  0.50400001928E-02 0.  1.
       -1   -1    0    0    0  501  0.00000000000E+00  0.00000000000E+00 -0.18186075022E+03  0.18186075029E+03  0.50400001928E-02 0. -1.
    10030    2    1    2    0    0  0.00000000000E+00  0.00000000000E+00  0.16221454890E+03  0.52593604946E+03  0.50029508117E+03 0.  0.
        2    1    3    3  502    0  0.23593635055E+03  0.11151366695E+02 -0.54757801525E+01  0.23626319786E+03  0.25500000920E-02 0. -1.
       -2    1    3    3    0  502 -0.23593635055E+03 -0.11151366695E+02  0.16769032905E+03  0.28967285160E+03  0.25500000920E-02 0.  1.
</event>
<event>
 5   0  0.1923706E-02  0.5003335E+03  0.7818609E-02  0.1013692E+00
        2   -1    0    0  501    0  0.00000000000E+00  0.00000000000E+00  0.71770143632E+03  0.71770143632E+03  0.25500000920E-02 0.  1.
       -2   -1    0    0    0  501  0.00000000000E+00  0.00000000000E+00 -0.87199790537E+02  0.87199790574E+02  0.25500000920E-02 0. -1.
    10030    2    1    2    0    0  0.00000000000E+00  0.00000000000E+00  0.63050164578E+03  0.80490122690E+03  0.50033354847E+03 0.  0.
        3    1    3    3  502    0 -0.15458642822E+02  0.30449405783E+02 -0.83432633628E+02  0.90150709956E+02  0.10100000352E+00 0. -1.
       -3    1    3    3    0  502  0.15458642822E+02 -0.30449405783E+02  0.71393427941E+03  0.71475051694E+03  0.10100000352E+00 0.  1.
</event>
<event>
 5   0  0.1225989E-02  0.4997115E+03  0.7818609E-02  0.1013854E+00
       -1   -1    0    0    0  501  0.00000000000E+00  0.00000000000E+00  0.51032012625E+03  0.51032012628E+03  0.50400001928E-02 0. -1.
        1   -1    0    0  501    0  0.00000000000E+00  0.00000000000E+00 -0.12233083357E+03  0.12233083368E+03  0.50400001928E-02 0.  1.
    10030    2    1    2    0    0  0.00000000000E+00  0.00000000000E+00  0.38798929268E+03  0.63265095996E+03  0.49971146265E+03 0.  0.
        3    1    3    3  502    0  0.17907920965E+03  0.12565637968E+03  0.41181914229E+02  0.22260918522E+03  0.10100000352E+00 0.  1.
       -3    1    3    3    0  502 -0.17907920965E+03 -0.12565637968E+03  0.34680737845E+03  0.41004177474E+03  0.10100000352E+00 0. -1.
</event>
<event>
 5   0  0.8012875E-03  0.5000053E+03  0.7818609E-02  0.1013778E+00
       -3   -1    0    0    0  501  0.00000000000E+00  0.00000000000E+00  0.15659843893E+03  0.15659847150E+03  0.10100000352E+00 0.  1.
        3   -1    0    0  501    0  0.00000000000E+00  0.00000000000E+00 -0.39911842770E+03  0.39911844048E+03  0.10100000352E+00 0. -1.
    10030    2    1    2    0    0  0.00000000000E+00  0.00000000000E+00 -0.24251998877E+03  0.55571691198E+03  0.50000534128E+03 0.  0.
        3    1    3    3  502    0 -0.86587833774E+02 -0.18053115870E+03 -0.28764833478E+03  0.35047186323E+03  0.10100000352E+00 0. -1.
       -3    1    3    3    0  502  0.86587833774E+02  0.18053115870E+03  0.45128346006E+02  0.20524504874E+03  0.10100000352E+00 0.  1.
</event>
<event>
 5   0  0.1855407E-02  0.4991164E+03  0.7818609E-02  0.1014010E+00
       -2   -1    0    0    0  501  0.00000000000E+00  0.00000000000E+00  0.63200527397E+02  0.63200527448E+02  0.25500000920E-02 0. -1.
        2   -1    0    0  501    0  0.00000000000E+00  0.00000000000E+00 -0.98542363287E+03  0.98542363287E+03  0.25500000920E-02 0.  1.
    10030    2    1    2    0    0  0.00000000000E+00  0.00000000000E+00 -0.92222310547E+03  0.10486241603E+04  0.49911639258E+03 0.  0.
        1    1    3    3  502    0 -0.61979357395E+02 -0.24078390583E+03 -0.50621930447E+03  0.56398254786E+03  0.50400001928E-02 0. -1.
       -1    1    3    3    0  502  0.61979357395E+02  0.24078390583E+03 -0.41600380100E+03  0.48464161246E+03  0.50400001928E-02 0.  1.
</event>
<event>
 5   0  0.1209831E-02  0.5010756E+03  0.7818609E-02  0.1013499E+00
        1   -1    0    0  501    0  0.00000000000E+00  0.00000000000E+00  0.79188916472E+02  0.79188916632E+02  0.50400001928E-02 0. -1.
       -1   -1    0    0    0  501  0.00000000000E+00  0.00000000000E+00 -0.79265121630E+03  0.79265121631E+03  0.50400001928E-02 0.  1.
    10030    2    1    2    0    0  0.00000000000E+00  0.00000000000E+00 -0.71346229982E+03  0.87184013294E+03  0.50107560721E+03 0.  0.
        4    1    3    3  502    0  0.19053139521E+03 -0.45601477839E+02 -0.62843934002E+03  0.65826994791E+03  0.12699999809E+01 0.  1.
       -4    1    3    3    0  502 -0.19053139521E+03  0.45601477839E+02 -0.85022959805E+02  0.21357018503E+03  0.12699999809E+01 0. -1.
</event>
<event>
 5   0  0.1982847E-02  0.5012262E+03  0.7818609E-02  0.1013459E+00
       -2   -1    0    0    0  501  0.00000000000E+00  0.00000000000E+00  0.39649463592E+02  0.39649463674E+02  0.25500000920E-02 0.  1.
        2   -1    0    0  501    0  0.00000000000E+00  0.00000000000E+00 -0.15840551179E+04  0.15840551179E+04  0.25500000920E-02 0. -1.
    10030    2    1    2    0    0  0.00000000000E+00  0.00000000000E+00 -0.15444056543E+04  0.16237045816E+04  0.50122623951E+03 0.  0.
        2    1    3    3  502    0  0.36094178178E+02  0.20616165841E+03 -0.12187500075E+04  0.12365908781E+04  0.25500000920E-02 0. -1.
       -2    1    3    3    0  502 -0.36094178178E+02 -0.20616165841E+03 -0.32565564687E+03  0.38711370351E+03  0.25500000920E-02 0.  1.
</event>
<event>
 5   0  0.1180937E-02  0.5013979E+03  0.7818609E-02  0.1013415E+00
        1   -1    0    0  501    0  0.00000000000E+00  0.00000000000E+00  0.10449628852E+04  0.10449628853E+04  0.50400001928E-02 0.  1.
       -1   -1    0    0    0  501  0.00000000000E+00  0.00000000000E+00 -0.60145635150E+02  0.60145635361E+02  0.50400001928E-02 0. -1.
    10030    2    1    2    0    0  0.00000000000E+00  0.00000000000E+00  0.98481725010E+03  0.11051085206E+04  0.50139787221E+03 0.  0.
        1    1    3    3  502    0 -0.20507602268E+02  0.18532878826E+03  0.12305584797E+03  0.22340560256E+03  0.50400001928E-02 0. -1.
       -1    1    3    3    0  502  0.20507602268E+02 -0.18532878826E+03  0.86176140212E+03  0.88170291806E+03  0.50400001928E-02 0.  1.
</event>
<event>
 5   0  0.1941387E-02  0.5015408E+03  0.7818609E-02  0.1013378E+00
       -2   -1    0    0    0  501  0.00000000000E+00  0.00000000000E+00  0.74144830115E+02  0.74144830158E+02  0.25500000920E-02 0.  1.
        2   -1    0    0  501    0  0.00000000000E+00  0.00000000000E+00 -0.84814820927E+03  0.84814820928E+03  0.25500000920E-02 0. -1.
    10030    2    1    2    0    0  0.00000000000E+00  0.00000000000E+00 -0.77400337916E+03  0.92229303944E+03  0.50154084544E+03 0.  0.
        4    1    3    3  502    0  0.25908275135E+01  0.51139918296E+02  0.64422755329E+02  0.82303754074E+02  0.12699999809E+01 0.  1.
       -4    1    3    3    0  502 -0.25908275135E+01 -0.51139918296E+02 -0.83842613449E+03  0.83998928536E+03  0.12699999809E+01 0. -1.
</event>
<event>
 5   0  0.1855407E-02  0.5007855E+03  0.7818609E-02  0.1013574E+00
       -2   -1    0    0    0  501  0.00000000000E+00  0.00000000000E+00  0.96939524409E+02  0.96939524442E+02  0.25500000920E-02 0. -1.
        2   -1    0    0  501    0  0.00000000000E+00  0.00000000000E+00 -0.64675920042E+03  0.64675920042E+03  0.25500000920E-02 0.  1.
    10030    2    1    2    0    0  0.00000000000E+00  0.00000000000E+00 -0.54981967601E+03  0.74369872486E+03  0.50078550023E+03 0.  0.
        1    1    3    3  502    0  0.95690544704E+01 -0.24561980966E+03 -0.34575646325E+03  0.42422657815E+03  0.50400001928E-02 0. -1.
       -1    1    3    3    0  502 -0.95690544704E+01  0.24561980966E+03 -0.20406321276E+03  0.31947214672E+03  0.50400001928E-02 0.  1.
</event>
<event>
 5   0  0.1225989E-02  0.5001724E+03  0.7818609E-02  0.1013734E+00
        1   -1    0    0  501    0  0.00000000000E+00  0.00000000000E+00  0.16788363318E+04  0.16788363318E+04  0.50400001928E-02 0.  1.
       -1   -1    0    0    0  501  0.00000000000E+00  0.00000000000E+00 -0.37253851447E+02  0.37253851788E+02  0.50400001928E-02 0. -1.
    10030    2    1    2    0    0  0.00000000000E+00  0.00000000000E+00  0.16415824803E+04  0.17160901836E+04  0.50017244869E+03 0.  0.
        3    1    3    3  502    0 -0.88933985870E+02 -0.22987235312E+03  0.96605484211E+03  0.99700176566E+03  0.10100000352E+00 0. -1.
       -3    1    3    3    0  502  0.88933985870E+02  0.22987235312E+03  0.67552763821E+03  0.71908841790E+03  0.10100000352E+00 0.  1.
</event>
<event>
 5   0  0.1227864E-02  0.4994962E+03  0.7818609E-02  0.1013911E+00
        1   -1    0    0  501    0  0.00000000000E+00  0.00000000000E+00  0.83822207476E+03  0.83822207478E+03  0.50400001928E-02 0.  1.
       -1   -1    0    0    0  501  0.00000000000E+00  0.00000000000E+00 -0.74412388760E+02  0.74412388931E+02  0.50400001928E-02 0. -1.
    10030    2    1    2    0    0  0.00000000000E+00  0.00000000000E+00  0.76380968600E+03  0.91263446371E+03  0.49949617408E+03 0.  0.
        5    1    3    3  502    0  0.16894849638E+03  0.76893045490E+02  0.68706986153E+03  0.71171849737E+03  0.46999998093E+01 0.  1.
       -5    1    3    3    0  502 -0.16894849638E+03 -0.76893045490E+02  0.76739824472E+02  0.20091596634E+03  0.46999998093E+01 0. -1.
</event>
<event>
 5   0  0.1180937E-02  0.5123970E+03  0.7818609E-02  0.1010593E+00
       -1   -1    0    0    0  501  0.00000000000E+00  0.00000000000E+00  0.55228690859E+03  0.55228690862E+03  0.50400001928E-02 0. -1.
        1   -1    0    0  501    0  0.00000000000E+00  0.00000000000E+00 -0.11884704612E+03  0.11884704623E+03  0.50400001928E-02 0.  1.
    10030    2    1    2    0    0  0.00000000000E+00  0.00000000000E+00  0.43343986247E+03  0.67113395485E+03  0.51239698571E+03 0.  0.
        1    1    3    3  502    0 -0.24622405783E+03  0.36743648317E+02  0.29597361099E+03  0.38675154916E+03  0.50400001928E-02 0. -1.
       -1    1    3    3    0  502  0.24622405783E+03 -0.36743648317E+02  0.13746625148E+03  0.28438240569E+03  0.50400001928E-02 0.  1.
</event>
<event>
 5   0  0.1227864E-02  0.5014610E+03  0.7818609E-02  0.1013398E+00
        1   -1    0    0  501    0  0.00000000000E+00  0.00000000000E+00  0.10055611731E+03  0.10055611743E+03  0.50400001928E-02 0.  1.
       -1   -1    0    0    0  501  0.00000000000E+00  0.00000000000E+00 -0.62518121410E+03  0.62518121412E+03  0.50400001928E-02 0. -1.
    10030    2    1    2    0    0  0.00000000000E+00  0.00000000000E+00 -0.52462509679E+03  0.72573733156E+03  0.50146104757E+03 0.  0.
        5    1    3    3  502    0 -0.11434485061E+03 -0.21426969219E+03 -0.35219873565E+03  0.42784609995E+03  0.46999998093E+01 0. -1.
       -5    1    3    3    0  502  0.11434485061E+03  0.21426969219E+03 -0.17242636115E+03  0.29789123161E+03  0.46999998093E+01 0.  1.
</event>
<event>
 5   0  0.1982847E-02  0.5073928E+03  0.7818609E-02  0.1011867E+00
       -2   -1    0    0    0  501  0.00000000000E+00  0.00000000000E+00  0.30341805302E+03  0.30341805303E+03  0.25500000920E-02 0.  1.
        2   -1    0    0  501    0  0.00000000000E+00  0.00000000000E+00 -0.21212275280E+03  0.21212275282E+03  0.25500000920E-02 0. -1.
    10030    2    1    2    0    0  0.00000000000E+00  0.00000000000E+00  0.91295300219E+02  0.51554080585E+03  0.50739283662E+03 0.  0.
        2    1    3    3  502    0  0.25293428617E+03  0.19602390882E+02  0.44259770169E+02  0.25752462817E+03  0.25500000920E-02 0.  1.
       -2    1    3    3    0  502 -0.25293428617E+03 -0.19602390882E+02  0.47035530050E+02  0.25801617768E+03  0.25500000920E-02 0. -1.
</event>
<event>
 5   0  0.1180937E-02  0.5007435E+03  0.7818609E-02  0.1013585E+00
       -1   -1    0    0    0  501  0.00000000000E+00  0.00000000000E+00  0.77905488341E+02  0.77905488504E+02  0.50400001928E-02 0. -1.
        1   -1    0    0  501    0  0.00000000000E+00  0.00000000000E+00 -0.80464192614E+03  0.80464192616E+03  0.50400001928E-02 0.  1.
    10030    2    1    2    0    0  0.00000000000E+00  0.00000000000E+00 -0.72673643780E+03  0.88254741466E+03  0.50074353625E+03 0.  0.
        1    1    3    3  502    0 -0.15368077896E+03 -0.23108715746E+01 -0.15026943468E+02  0.15443099107E+03  0.50400001928E-02 0. -1.
       -1    1    3    3    0  502  0.15368077896E+03  0.23108715746E+01 -0.71170949433E+03  0.72811642359E+03  0.50400001928E-02 0.  1.
</event>
<event>
 5   0  0.1855407E-02  0.4998998E+03  0.7818609E-02  0.1013805E+00
        2   -1    0    0  501    0  0.00000000000E+00  0.00000000000E+00  0.27625651075E+03  0.27625651076E+03  0.25500000920E-02 0.  1.
       -2   -1    0    0    0  501  0.00000000000E+00  0.00000000000E+00 -0.22614832117E+03  0.22614832118E+03  0.25500000920E-02 0. -1.
    10030    2    1    2    0    0  0.00000000000E+00  0.00000000000E+00  0.50108189579E+02  0.50240483194E+03  0.49989977445E+03 0.  0.
        1    1    3    3  502    0 -0.51554500375E+02  0.21458285628E+03 -0.92885051500E+02  0.23943955717E+03  0.50400001928E-02 0. -1.
       -1    1    3    3    0  502  0.51554500375E+02 -0.21458285628E+03  0.14299324108E+03  0.26296527478E+03  0.50400001928E-02 0.  1.
</event>
<event>
 5   0  0.1941387E-02  0.4997227E+03  0.7818609E-02  0.1013851E+00
        2   -1    0    0  501    0  0.00000000000E+00  0.00000000000E+00  0.83579623077E+03  0.83579623077E+03  0.25500000920E-02 0.  1.
       -2   -1    0    0    0  501  0.00000000000E+00  0.00000000000E+00 -0.74696068595E+02  0.74696068639E+02  0.25500000920E-02 0. -1.
    10030    2    1    2    0    0  0.00000000000E+00  0.00000000000E+00  0.76110016217E+03  0.91049229941E+03  0.49972269353E+03 0.  0.
        4    1    3    3  502    0 -0.48853744456E+02  0.21931981628E+02 -0.64111470401E+02  0.83543962693E+02  0.12699999809E+01 0. -1.
       -4    1    3    3    0  502  0.48853744456E+02 -0.21931981628E+02  0.82521163257E+03  0.82694833672E+03  0.12699999809E+01 0.  1.
</event>
<event>
 5   0  0.1225989E-02  0.5003894E+03  0.7818609E-02  0.1013677E+00
        1   -1    0    0  501    0  0.00000000000E+00  0.00000000000E+00  0.61642294846E+03  0.61642294848E+03  0.50400001928E-02 0.  1.
       -1   -1    0    0    0  501  0.00000000000E+00  0.00000000000E+00 -0.10154939358E+03  0.10154939371E+03  0.50400001928E-02 0. -1.
    10030    2    1    2    0    0  0.00000000000E+00  0.00000000000E+00  0.51487355487E+03  0.71797234218E+03  0.50038935503E+03 0.  0.
        3    1    3    3  502    0 -0.78028134302E+02 -0.12482113222E+03 -0.32840756125E+02  0.15082184940E+03  0.10100000352E+00 0. -1.
       -3    1    3    3    0  502  0.78028134302E+02  0.12482113222E+03  0.54771431100E+03  0.56715049279E+03  0.10100000352E+00 0.  1.
</event>
<event>
 5   0  0.1923706E-02  0.4998639E+03  0.7818609E-02  0.1013814E+00
        2   -1    0    0  501    0  0.00000000000E+00  0.00000000000E+00  0.31847317610E+03  0.31847317611E+03  0.25500000920E-02 0.  1.
       -2   -1    0    0    0  501  0.00000000000E+00  0.00000000000E+00 -0.19614202433E+03  0.19614202434E+03  0.25500000920E-02 0. -1.
    10030    2    1    2    0    0  0.00000000000E+00  0.00000000000E+00  0.12233115177E+03  0.51461520045E+03  0.49986387531E+03 0.  0.
        3    1    3    3  502    0  0.18019618334E+03 -0.10233597824E+03  0.20501237471E+03  0.29150197413E+03  0.10100000352E+00 0.  1.
       -3    1    3    3    0  502 -0.18019618334E+03  0.10233597824E+03 -0.82681222934E+02  0.22311322633E+03  0.10100000352E+00 0. -1.
</event>
<event>
 5   0  0.1855407E-02  0.5000130E+03  0.7818609E-02  0.1013776E+00
        2   -1    0    0  501    0  0.00000000000E+00  0.00000000000E+00  0.51648077272E+03  0.51648077273E+03  0.25500000920E-02 0.  1.
       -2   -1    0    0    0  501  0.00000000000E+00  0.00000000000E+00 -0.12101759457E+03  0.12101759460E+03  0.25500000920E-02 0. -1.
    10030    2    1    2    0    0  0.00000000000E+00  0.00000000000E+00  0.39546317815E+03  0.63749836732E+03  0.50001304290E+03 0.  0.
        1    1    3    3  502    0  0.24239072522E+03 -0.58904348023E+02  0.21907627704E+03  0.33199006171E+03  0.50400001928E-02 0.  1.
       -1    1    3    3    0  502 -0.24239072522E+03  0.58904348023E+02  0.17638690111E+03  0.30550830561E+03  0.50400001928E-02 0. -1.
</event>
<event>
 5   0  0.1217270E-02  0.4979470E+03  0.7818609E-02  0.1014316E+00
        1   -1    0    0  501    0  0.00000000000E+00  0.00000000000E+00  0.49652301466E+03  0.49652301468E+03  0.50400001928E-02 0. -1.
       -1   -1    0    0    0  501  0.00000000000E+00  0.00000000000E+00 -0.12484376683E+03  0.12484376693E+03  0.50400001928E-02 0.  1.
    10030    2    1    2    0    0  0.00000000000E+00  0.00000000000E+00  0.37167924783E+03  0.62136678162E+03  0.49794699922E+03 0.  0.
        2    1    3    3  502    0 -0.59052821170E+02  0.16797152364E+03  0.40300312761E+03  0.44058278373E+03  0.25500000920E-02 0. -1.
       -2    1    3    3    0  502  0.59052821170E+02 -0.16797152364E+03 -0.31323879785E+02  0.18078399789E+03  0.25500000920E-02 0.  1.
</event>
<event>
 5   0  0.1225989E-02  0.4997498E+03  0.7818609E-02  0.1013844E+00
        1   -1    0    0  501    0  0.00000000000E+00  0.00000000000E+00  0.32621234117E+03  0.32621234120E+03  0.50400001928E-02 0.  1.
       -1   -1    0    0    0  501  0.00000000000E+00  0.00000000000E+00 -0.19140126733E+03  0.19140126740E+03  0.50400001928E-02 0. -1.
    10030    2    1    2    0    0  0.00000000000E+00  0.00000000000E+00  0.13481107383E+03  0.51761360860E+03  0.49974975956E+03 0.  0.
        3    1    3    3  502    0  0.59369368594E+02  0.22814019085E+03  0.15322114825E+03  0.28115724974E+03  0.10100000352E+00 0.  1.
       -3    1    3    3    0  502 -0.59369368594E+02 -0.22814019085E+03 -0.18410074412E+02  0.23645635887E+03  0.10100000352E+00 0. -1.
</event>
<event>
 5   0  0.1209831E-02  0.4992758E+03  0.7818609E-02  0.1013968E+00
       -1   -1    0    0    0  501  0.00000000000E+00  0.00000000000E+00  0.10074094994E+03  0.10074095006E+03  0.50400001928E-02 0. -1.
        1   -1    0    0  501    0  0.00000000000E+00  0.00000000000E+00 -0.61860719084E+03  0.61860719086E+03  0.50400001928E-02 0.  1.
    10030    2    1    2    0    0  0.00000000000E+00  0.00000000000E+00 -0.51786624090E+03  0.71934814092E+03  0.49927577989E+03 0.  0.
        4    1    3    3  502    0 -0.33349308931E+02 -0.20643739532E+01  0.97499936431E+02  0.10307418954E+03  0.12699999809E+01 0. -1.
       -4    1    3    3    0  502  0.33349308931E+02  0.20643739532E+01 -0.61536617733E+03  0.61627395138E+03  0.12699999809E+01 0.  1.
</event>
<event>
 5   0  0.1967813E-02  0.5001010E+03  0.7818609E-02  0.1013753E+00
       -2   -1    0    0    0  501  0.00000000000E+00  0.00000000000E+00  0.43837221702E+02  0.43837221776E+02  0.25500000920E-02 0.  1.
        2   -1    0    0  501    0  0.00000000000E+00  0.00000000000E+00 -0.14263052053E+04  0.14263052053E+04  0.25500000920E-02 0. -1.
    10030    2    1    2    0    0  0.00000000000E+00  0.00000000000E+00 -0.13824679836E+04  0.14701424271E+04  0.50010102002E+03 0.  0.
        5    1    3    3  502    0  0.73504304308E+02  0.15494858940E+03 -0.15647504825E+03  0.23220352889E+03  0.46999998093E+01 0.  1.
       -5    1    3    3    0  502 -0.73504304308E+02 -0.15494858940E+03 -0.12259929354E+04  0.12379388982E+04  0.46999998093E+01 0. -1.
</event>
<event>
 5   0  0.1923706E-02  0.4992855E+03  0.7818609E-02  0.1013966E+00
       -2   -1    0    0    0  501  0.00000000000E+00  0.00000000000E+00  0.17909787176E+03  0.17909787178E+03  0.25500000920E-02 0.  1.
        2   -1    0    0  501    0  0.00000000000E+00  0.00000000000E+00 -0.34797450221E+03  0.34797450222E+03  0.25500000920E-02 0. -1.
    10030    2    1    2    0    0  0.00000000000E+00  0.00000000000E+00 -0.16887663045E+03  0.52707237399E+03  0.49928546055E+03 0.  0.
        3    1    3    3  502    0 -0.14548460636E+03  0.51365469065E+02 -0.29161899567E+03  0.32991791546E+03  0.10100000352E+00 0. -1.
       -3    1    3    3    0  502  0.14548460636E+03 -0.51365469065E+02  0.12274236522E+03  0.19715445854E+03  0.10100000352E+00 0.  1.
</event>
<event>
 5   0  0.1941387E-02  0.5002151E+03  0.7818609E-02  0.1013723E+00
       -2   -1    0    0    0  501  0.00000000000E+00  0.00000000000E+00  0.10030926714E+03  0.10030926717E+03  0.25500000920E-02 0.  1.
        2   -1    0    0  501    0  0.00000000000E+00  0.00000000000E+00 -0.62360935593E+03  0.62360935593E+03  0.25500000920E-02 0. -1.
    10030    2    1    2    0    0  0.00000000000E+00  0.00000000000E+00 -0.52330008878E+03  0.72391862311E+03  0.50021514367E+03 0.  0.
        4    1    3    3  502    0  0.14596471665E+03  0.80250404276E+02  0.83489889896E+01  0.16678472476E+03  0.12699999809E+01 0.  1.
       -4    1    3    3    0  502 -0.14596471665E+03 -0.80250404276E+02 -0.53164907777E+03  0.55713389835E+03  0.12699999809E+01 0. -1.
</event>
<event>
 5   0  0.1923706E-02  0.4997878E+03  0.7818609E-02  0.1013834E+00
        2   -1    0    0  501    0  0.00000000000E+00  0.00000000000E+00  0.12970783896E+04  0.12970783896E+04  0.25500000920E-02 0.  1.
       -2   -1    0    0    0  501  0.00000000000E+00  0.00000000000E+00 -0.48144317348E+02  0.48144317415E+02  0.25500000920E-02 0. -1.
    10030    2    1    2    0    0  0.00000000000E+00  0.00000000000E+00  0.12489340723E+04  0.13452227071E+04  0.49978776961E+03 0.  0.
        3    1    3    3  502    0 -0.79563281800E+01  0.13068621216E+03  0.11973691897E+04  0.12045061959E+04  0.10100000352E+00 0.  1.
       -3    1    3    3    0  502  0.79563281800E+01 -0.13068621216E+03  0.51564882585E+02  0.14071651120E+03  0.10100000352E+00 0. -1.
</event>
<event>
 5   0  0.1227864E-02  0.4995317E+03  0.7818609E-02  0.1013901E+00
        1   -1    0    0  501    0  0.00000000000E+00  0.00000000000E+00  0.16334397906E+03  0.16334397914E+03  0.50400001928E-02 0.  1.
       -1   -1    0    0    0  501  0.00000000000E+00  0.00000000000E+00 -0.38191170988E+03  0.38191170991E+03  0.50400001928E-02 0. -1.
    10030    2    1    2    0    0  0.00000000000E+00  0.00000000000E+00 -0.21856773082E+03  0.54525568905E+03  0.49953169417E+03 0.  0.
        5    1    3    3  502    0  0.15560856666E+02 -0.20125496443E+03 -0.26976229277E+03  0.33695620719E+03  0.46999998093E+01 0.  1.
       -5    1    3    3    0  502 -0.15560856666E+02  0.20125496443E+03  0.51194561946E+02  0.20829948185E+03  0.46999998093E+01 0. -1.
</event>
<event>
 5   0  0.1209831E-02  0.5000656E+03  0.7818609E-02  0.1013762E+00
        1   -1    0    0  501    0  0.00000000000E+00  0.00000000000E+00  0.57816979385E+02  0.57816979605E+02  0.50400001928E-02 0. -1.
       -1   -1    0    0    0  501  0.00000000000E+00  0.00000000000E+00 -0.10812811610E+04  0.10812811610E+04  0.50400001928E-02 0.  1.
    10030    2    1    2    0    0  0.00000000000E+00  0.00000000000E+00 -0.10234641816E+04  0.11390981406E+04  0.50006563860E+03 0.  0.
        4    1    3    3  502    0  0.22161530248E+03  0.81101879727E+02 -0.69990268210E+03  0.73861778648E+03  0.12699999809E+01 0. -1.
       -4    1    3    3    0  502 -0.22161530248E+03 -0.81101879727E+02 -0.32356149953E+03  0.40048035416E+03  0.12699999809E+01 0.  1.
</event>
<event>
 5   0  0.1227864E-02  0.4998267E+03  0.7818609E-02  0.1013824E+00
       -1   -1    0    0    0  501  0.00000000000E+00  0.00000000000E+00  0.39454381705E+03  0.39454381708E+03  0.50400001928E-02 0. -1.
        1   -1    0    0  501    0  0.00000000000E+00  0.00000000000E+00 -0.15830099052E+03  0.15830099060E+03  0.50400001928E-02 0.  1.
    10030    2    1    2    0    0  0.00000000000E+00  0.00000000000E+00  0.23624282653E+03  0.55284480769E+03  0.49982667826E+03 0.  0.
        5    1    3    3  502    0 -0.14641093135E+03  0.32941913871E+02  0.33909602733E+03  0.37084974890E+03  0.46999998093E+01 0. -1.
       -5    1    3    3    0  502  0.14641093135E+03 -0.32941913871E+02 -0.10285320080E+03  0.18199505879E+03  0.46999998093E+01 0.  1.
</event>
<event>
 5   0  0.1209831E-02  0.4989546E+03  0.7818609E-02  0.1014052E+00
       -1   -1    0    0    0  501  0.00000000000E+00  0.00000000000E+00  0.72193063343E+02  0.72193063519E+02  0.50400001928E-02 0. -1.
        1   -1    0    0  501    0  0.00000000000E+00  0.00000000000E+00 -0.86211768428E+03  0.86211768429E+03  0.50400001928E-02 0.  1.
    10030    2    1    2    0    0  0.00000000000E+00  0.00000000000E+00 -0.78992462093E+03  0.93431074781E+03  0.49895457380E+03 0.  0.
        4    1    3    3  502    0  0.50063866940E+02 -0.15510323720E+03 -0.41286282249E+02  0.16813558506E+03  0.12699999809E+01 0. -1.
       -4    1    3    3    0  502 -0.50063866940E+02  0.15510323720E+03 -0.74863833868E+03  0.76617516275E+03  0.12699999809E+01 0.  1.
</event>
<event>
 5   0  0.1923706E-02  0.4993462E+03  0.7818609E-02  0.1013950E+00
       -2   -1    0    0    0  501  0.00000000000E+00  0.00000000000E+00  0.85634460803E+02  0.85634460841E+02  0.25500000920E-02 0. -1.
        2   -1    0    0  501    0  0.00000000000E+00  0.00000000000E+00 -0.72793883697E+03  0.72793883697E+03  0.25500000920E-02 0.  1.
    10030    2    1    2    0    0  0.00000000000E+00  0.00000000000E+00 -0.64230437616E+03  0.81357329781E+03  0.49934617178E+03 0.  0.
        3    1    3    3  502    0 -0.12070925297E+03 -0.20963681609E+03 -0.42182940259E+03  0.48626985667E+03  0.10100000352E+00 0.  1.
       -3    1    3    3    0  502  0.12070925297E+03  0.20963681609E+03 -0.22047497358E+03  0.32730344115E+03  0.10100000352E+00 0. -1.
</event>
<event>
 5   0  0.1180937E-02  0.5019458E+03  0.7818609E-02  0.1013272E+00
       -1   -1    0    0    0  501  0.00000000000E+00  0.00000000000E+00  0.12461531458E+03  0.12461531468E+03  0.50400001928E-02 0.  1.
        1   -1    0    0  501    0  0.00000000000E+00  0.00000000000E+00 -0.50545463845E+03  0.50545463847E+03  0.50400001928E-02 0. -1.
    10030    2    1    2    0    0  0.00000000000E+00  0.00000000000E+00 -0.38083932386E+03  0.63006995316E+03  0.50194576925E+03 0.  0.
        1    1    3    3  502    0 -0.12985122334E+02 -0.17388297445E+03  0.36165125375E+02  0.17807812478E+03  0.50400001928E-02 0.  1.
       -1    1    3    3    0  502  0.12985122334E+02  0.17388297445E+03 -0.41700444924E+03  0.45199182837E+03  0.50400001928E-02 0. -1.
</event>
<event>
 5   0  0.1967813E-02  0.5014208E+03  0.7818609E-02  0.1013409E+00
       -2   -1    0    0    0  501  0.00000000000E+00  0.00000000000E+00  0.53791334408E+02  0.53791334469E+02  0.25500000920E-02 0.  1.
        2   -1    0    0  501    0  0.00000000000E+00  0.00000000000E+00 -0.11685099280E+04  0.11685099280E+04  0.25500000920E-02 0. -1.
    10030    2    1    2    0    0  0.00000000000E+00  0.00000000000E+00 -0.11147185936E+04  0.12223012625E+04  0.50142081463E+03 0.  0.
        5    1    3    3  502    0  0.99633865462E+02  0.31759405730E+02 -0.11126896706E+04  0.11176027738E+04  0.46999998093E+01 0. -1.
       -5    1    3    3    0  502 -0.99633865462E+02 -0.31759405730E+02 -0.20289229952E+01  0.10469848865E+03  0.46999998093E+01 0.  1.
</event>
<event>
 5   0  0.1923706E-02  0.4985730E+03  0.7818609E-02  0.1014152E+00
        2   -1    0    0  501    0  0.00000000000E+00  0.00000000000E+00  0.52494243623E+03  0.52494243624E+03  0.25500000920E-02 0. -1.
       -2   -1    0    0    0  501  0.00000000000E+00  0.00000000000E+00 -0.11838206839E+03  0.11838206842E+03  0.25500000920E-02 0.  1.
    10030    2    1    2    0    0  0.00000000000E+00  0.00000000000E+00  0.40656036785E+03  0.64332450466E+03  0.49857304940E+03 0.  0.
        3    1    3    3  502    0 -0.23823396424E+03  0.69241445546E+02  0.23472727770E+03  0.34153580280E+03  0.10100000352E+00 0. -1.
       -3    1    3    3    0  502  0.23823396424E+03 -0.69241445546E+02  0.17183309015E+03  0.30178870186E+03  0.10100000352E+00 0.  1.
</event>
<event>
 5   0  0.1225989E-02  0.5004824E+03  0.7818609E-02  0.1013653E+00
        1   -1    0    0  501    0  0.00000000000E+00  0.00000000000E+00  0.11396427538E+04  0.11396427538E+04  0.50400001928E-02 0.  1.
       -1   -1    0    0    0  501  0.00000000000E+00  0.00000000000E+00 -0.54947611294E+02  0.54947611525E+02  0.50400001928E-02 0. -1.
    10030    2    1    2    0    0  0.00000000000E+00  0.00000000000E+00  0.10846951425E+04  0.11945903653E+04  0.50048235611E+03 0.  0.
        3    1    3    3  502    0  0.20066805825E+03 -0.44113414747E+02  0.20137492346E+03  0.28768999454E+03  0.10100000352E+00 0. -1.
       -3    1    3    3    0  502 -0.20066805825E+03  0.44113414747E+02  0.88332021905E+03  0.90690037079E+03  0.10100000352E+00 0.  1.
</event>
<event>
 5   0  0.1941387E-02  0.5002081E+03  0.7818609E-02  0.1013725E+00
        2   -1    0    0  501    0  0.00000000000E+00  0.00000000000E+00  0.12992406252E+03  0.12992406255E+03  0.25500000920E-02 0. -1.
       -2   -1    0    0    0  501  0.00000000000E+00  0.00000000000E+00 -0.48145082962E+03  0.48145082963E+03  0.25500000920E-02 0.  1.
    10030    2    1    2    0    0  0.00000000000E+00  0.00000000000E+00 -0.35152676710E+03  0.61137489218E+03  0.50020814747E+03 0.  0.
        4    1    3    3  502    0  0.21256630608E+03 -0.13176978530E+03 -0.17778063595E+03  0.30684732070E+03  0.12699999809E+01 0. -1.
       -4    1    3    3    0  502 -0.21256630608E+03  0.13176978530E+03 -0.17374613115E+03  0.30452757148E+03  0.12699999809E+01 0.  1.
</event>
<event>
 5   0  0.1967813E-02  0.4997691E+03  0.7818609E-02  0.1013839E+00
        2   -1    0    0  501    0  0.00000000000E+00  0.00000000000E+00  0.44163507184E+03  0.44163507185E+03  0.25500000920E-02 0.  1.
       -2   -1    0    0    0  501  0.00000000000E+00  0.00000000000E+00 -0.14138886334E+03  0.14138886336E+03  0.25500000920E-02 0. -1.
    10030    2    1    2    0    0  0.00000000000E+00  0.00000000000E+00  0.30024620851E+03  0.58302393521E+03  0.49976906998E+03 0.  0.
        5    1    3    3  502    0 -0.83323271754E+02  0.75208065683E+02  0.41051290614E+03  0.42560775001E+03  0.46999998093E+01 0.  1.
       -5    1    3    3    0  502  0.83323271754E+02 -0.75208065683E+02 -0.11026669763E+03  0.15741618520E+03  0.46999998093E+01 0. -1.
</event>
<event>
 5   0  0.1217270E-02  0.5002876E+03  0.7818609E-02  0.1013704E+00
        1   -1    0    0  501    0  0.00000000000E+00  0.00000000000E+00  0.59699335777E+03  0.59699335779E+03  0.50400001928E-02 0. -1.
       -1   -1    0    0    0  501  0.00000000000E+00  0.00000000000E+00 -0.10481176229E+03  0.10481176241E+03  0.50400001928E-02 0.  1.
    10030    2    1    2    0    0  0.00000000000E+00  0.00000000000E+00  0.49218159548E+03  0.70180512020E+03  0.50028762109E+03 0.  0.
        2    1    3    3  502    0  0.16388459258E+03  0.15282917215E+03  0.90152251345E+02  0.24154159884E+03  0.25500000920E-02 0.  1.
       -2    1    3    3    0  502 -0.16388459258E+03 -0.15282917215E+03  0.40202934413E+03  0.46026352136E+03  0.25500000920E-02 0. -1.
</event>
<event>
 5   0  0.1209831E-02  0.4997856E+03  0.7818609E-02  0.1013835E+00
       -1   -1    0    0    0  501  0.00000000000E+00  0.00000000000E+00  0.57053855130E+02  0.57053855353E+02  0.50400001928E-02 0. -1.
        1   -1    0    0  501    0  0.00000000000E+00  0.00000000000E+00 -0.10945169978E+04  0.10945169978E+04  0.50400001928E-02 0.  1.
    10030    2    1    2    0    0  0.00000000000E+00  0.00000000000E+00 -0.10374631427E+04  0.11515708532E+04  0.49978561150E+03 0.  0.
        4    1    3    3  502    0 -0.98446156263E+02 -0.13262857331E+02  0.95991425693E+01  0.99806340007E+02  0.12699999809E+01 0. -1.
       -4    1    3    3    0  502  0.98446156263E+02  0.13262857331E+02 -0.10470622853E+04  0.10517645132E+04  0.12699999809E+01 0.  1.
</event>
<event>
 5   0  0.1180937E-02  0.5003141E+03  0.7818609E-02  0.1013697E+00
       -1   -1    0    0    0  501  0.00000000000E+00  0.00000000000E+00  0.38705880665E+03  0.38705880668E+03  0.50400001928E-02 0.  1.
        1   -1    0    0  501    0  0.00000000000E+00  0.00000000000E+00 -0.16167712846E+03  0.16167712854E+03  0.50400001928E-02 0. -1.
    10030    2    1    2    0    0  0.00000000000E+00  0.00000000000E+00  0.22538167819E+03  0.54873593522E+03  0.50031412706E+03 0.  0.
        1    1    3    3  502    0  0.13309133048E+03 -0.15133349684E+03  0.27523474343E+03  0.34112943808E+03  0.50400001928E-02 0. -1.
       -1    1    3    3    0  502 -0.13309133048E+03  0.15133349684E+03 -0.49853065238E+02  0.20760649713E+03  0.50400001928E-02 0.  1.
</event>
<event>
 5   0  0.1227864E-02  0.4997867E+03  0.7818609E-02  0.1013835E+00
       -1   -1    0    0    0  501  0.00000000000E+00  0.00000000000E+00  0.43550264095E+02  0.43550264386E+02  0.50400001928E-02 0.  1.
        1   -1    0    0  501    0  0.00000000000E+00  0.00000000000E+00 -0.14338988759E+04  0.14338988759E+04  0.50400001928E-02 0. -1.
    10030    2    1    2    0    0  0.00000000000E+00  0.00000000000E+00 -0.13903486118E+04  0.14774491402E+04  0.49978665429E+03 0.  0.
        5    1    3    3  502    0 -0.10430389366E+03  0.51211201377E+02 -0.13490317517E+04  0.13540349502E+04  0.46999998093E+01 0. -1.
       -5    1    3    3    0  502  0.10430389366E+03 -0.51211201377E+02 -0.41316860096E+02  0.12341419005E+03  0.46999998093E+01 0.  1.
</event>
<event>
 5   0  0.1855407E-02  0.5004241E+03  0.7818609E-02  0.1013668E+00
       -2   -1    0    0    0  501  0.00000000000E+00  0.00000000000E+00  0.21247642010E+03  0.21247642012E+03  0.25500000920E-02 0.  1.
        2   -1    0    0  501    0  0.00000000000E+00  0.00000000000E+00 -0.29464953562E+03  0.29464953563E+03  0.25500000920E-02 0. -1.
    10030    2    1    2    0    0  0.00000000000E+00  0.00000000000E+00 -0.82173115518E+02  0.50712595575E+03  0.50042413419E+03 0.  0.
        1    1    3    3  502    0  0.36350720558E+02  0.21287682015E+03 -0.16914407338E+03  0.27431302015E+03  0.50400001928E-02 0. -1.
       -1    1    3    3    0  502 -0.36350720558E+02 -0.21287682015E+03  0.86970957858E+02  0.23281293559E+03  0.50400001928E-02 0.  1.
</event>
<event>
 5   0  0.1209831E-02  0.5002195E+03  0.7818609E-02  0.1013722E+00
       -1   -1    0    0    0  501  0.00000000000E+00  0.00000000000E+00  0.32649455921E+03  0.32649455925E+03  0.50400001928E-02 0. -1.
        1   -1    0    0  501    0  0.00000000000E+00  0.00000000000E+00 -0.19159551692E+03  0.19159551698E+03  0.50400001928E-02 0.  1.
    10030    2    1    2    0    0  0.00000000000E+00  0.00000000000E+00  0.13489904229E+03  0.51809007624E+03  0.50021952729E+03 0.  0.
        4    1    3    3  502    0  0.96799515021E+02  0.23061468890E+03  0.67438004723E+02  0.25904203950E+03  0.12699999809E+01 0. -1.
       -4    1    3    3    0  502 -0.96799515021E+02 -0.23061468890E+03  0.67461037571E+02  0.25904803674E+03  0.12699999809E+01 0.  1.
</event>
<event>
 5   0  0.1855407E-02  0.5031367E+03  0.7818609E-02  0.1012963E+00
       -2   -1    0    0    0  501  0.00000000000E+00  0.00000000000E+00  0.33273792485E+02  0.33273792583E+02  0.25500000920E-02 0.  1.
        2   -1    0    0  501    0  0.00000000000E+00  0.00000000000E+00 -0.19019967345E+04  0.19019967345E+04  0.25500000920E-02 0. -1.
    10030    2    1    2    0    0  0.00000000000E+00  0.00000000000E+00 -0.18687229420E+04  0.19352705271E+04  0.50313673985E+03 0.  0.
        1    1    3    3  502    0  0.33801091494E+02  0.15439988987E+03 -0.16871660965E+04  0.16945534152E+04  0.50400001928E-02 0. -1.
       -1    1    3    3    0  502 -0.33801091494E+02 -0.15439988987E+03 -0.18155684556E+03  0.24071711192E+03  0.50400001928E-02 0.  1.
</event>
<event>
 5   0  0.1225989E-02  0.4993261E+03  0.7818609E-02  0.1013955E+00
        1   -1    0    0  501    0  0.00000000000E+00  0.00000000000E+00  0.71983561861E+03  0.71983561863E+03  0.50400001928E-02 0.  1.
       -1   -1    0    0    0  501  0.00000000000E+00  0.00000000000E+00 -0.86591501519E+02  0.86591501666E+02  0.50400001928E-02 0. -1.
    10030    2    1    2    0    0  0.00000000000E+00  0.00000000000E+00  0.63324411709E+03  0.80642712029E+03  0.49932613442E+03 0.  0.
        3    1    3    3  502    0  0.14204616663E+03 -0.22603865800E+02  0.64619754498E+03  0.66201157508E+03  0.10100000352E+00 0.  1.
       -3    1    3    3    0  502 -0.14204616663E+03  0.22603865800E+02 -0.12953427892E+02  0.14441554521E+03  0.10100000352E+00 0. -1.
</event>
<event>
 5   0  0.8012875E-03  0.4997438E+03  0.7818609E-02  0.1013846E+00
       -4   -1    0    0    0  501  0.00000000000E+00  0.00000000000E+00  0.24276855598E+03  0.24277187784E+03  0.12699999809E+01 0. -1.
        4   -1    0    0  501    0  0.00000000000E+00  0.00000000000E+00 -0.25717646607E+03  0.25717960183E+03  0.12699999809E+01 0.  1.
    10030    2    1    2    0    0  0.00000000000E+00  0.00000000000E+00 -0.14407910092E+02  0.49995147968E+03  0.49974382853E+03 0.  0.
        5    1    3    3  502    0 -0.16354274649E+02  0.73693580585E+02 -0.24545344542E+03  0.25684176060E+03  0.46999998093E+01 0.  1.
       -5    1    3    3    0  502  0.16354274649E+02 -0.73693580585E+02  0.23104553533E+03  0.24310971908E+03  0.46999998093E+01 0. -1.
</event>
<event>
 5   0  0.1227864E-02  0.4999664E+03  0.7818609E-02  0.1013788E+00
        1   -1    0    0  501    0  0.00000000000E+00  0.00000000000E+00  0.11792099687E+03  0.11792099698E+03  0.50400001928E-02 0. -1.
       -1   -1    0    0    0  501  0.00000000000E+00  0.00000000000E+00 -0.52994457680E+03  0.52994457682E+03  0.50400001928E-02 0.  1.
    10030    2    1    2    0    0  0.00000000000E+00  0.00000000000E+00 -0.41202357993E+03  0.64786557381E+03  0.49996637018E+03 0.  0.
        5    1    3    3  502    0  0.51717119704E+02 -0.20237360640E+03 -0.28150327102E+02  0.21081809209E+03  0.46999998093E+01 0. -1.
       -5    1    3    3    0  502 -0.51717119704E+02  0.20237360640E+03 -0.38387325282E+03  0.43704748171E+03  0.46999998093E+01 0.  1.
</event>
<event>
 5   0  0.1967813E-02  0.4992311E+03  0.7818609E-02  0.1013980E+00
       -2   -1    0    0    0  501  0.00000000000E+00  0.00000000000E+00  0.74596766192E+03  0.74596766192E+03  0.25500000920E-02 0.  1.
        2   -1    0    0  501    0  0.00000000000E+00  0.00000000000E+00 -0.83526311199E+02  0.83526311238E+02  0.25500000920E-02 0. -1.
    10030    2    1    2    0    0  0.00000000000E+00  0.00000000000E+00  0.66244135072E+03  0.82949397316E+03  0.49923111718E+03 0.  0.
        5    1    3    3  502    0  0.94921809164E+02  0.12151748888E+01  0.71472485305E+03  0.72101687364E+03  0.46999998093E+01 0.  1.
       -5    1    3    3    0  502 -0.94921809164E+02 -0.12151748888E+01 -0.52283502335E+02  0.10847709952E+03  0.46999998093E+01 0. -1.
</event>
<event>
 5   0  0.1967813E-02  0.4999260E+03  0.7818609E-02  0.1013798E+00
        2   -1    0    0  501    0  0.00000000000E+00  0.00000000000E+00  0.21753977839E+03  0.21753977840E+03  0.25500000920E-02 0. -1.
       -2   -1    0    0    0  501  0.00000000000E+00  0.00000000000E+00 -0.28721873593E+03  0.28721873594E+03  0.25500000920E-02 0.  1.
    10030    2    1    2    0    0  0.00000000000E+00  0.00000000000E+00 -0.69678957547E+02  0.50475851435E+03  0.49992599520E+03 0.  0.
        5    1    3    3  502    0 -0.22373814139E+03 -0.12891817473E+02  0.76839196276E+02  0.23696266996E+03  0.46999998093E+01 0. -1.
       -5    1    3    3    0  502  0.22373814139E+03  0.12891817473E+02 -0.14651815382E+03  0.26779584439E+03  0.46999998093E+01 0.  1.
</event>
<event>
 5   0  0.1967813E-02  0.4998118E+03  0.7818609E-02  0.1013828E+00
        2   -1    0    0  501    0  0.00000000000E+00  0.00000000000E+00  0.14062393063E+04  0.14062393063E+04  0.25500000920E-02 0. -1.
       -2   -1    0    0    0  501  0.00000000000E+00  0.00000000000E+00 -0.44411334965E+02  0.44411335038E+02  0.25500000920E-02 0.  1.
    10030    2    1    2    0    0  0.00000000000E+00  0.00000000000E+00  0.13618279713E+04  0.14506506413E+04  0.49981182430E+03 0.  0.
        5    1    3    3  502    0  0.12151758211E+03  0.21498576069E+03  0.57056671893E+03  0.62173456620E+03  0.46999998093E+01 0. -1.
       -5    1    3    3    0  502 -0.12151758211E+03 -0.21498576069E+03  0.79126125237E+03  0.82891607510E+03  0.46999998093E+01 0.  1.
</event>
<event>
 5   0  0.1217270E-02  0.5008391E+03  0.7818609E-02  0.1013560E+00
       -1   -1    0    0    0  501  0.00000000000E+00  0.00000000000E+00  0.41116232261E+02  0.41116232570E+02  0.50400001928E-02 0. -1.
        1   -1    0    0  501    0  0.00000000000E+00  0.00000000000E+00 -0.15251872636E+04  0.15251872636E+04  0.50400001928E-02 0.  1.
    10030    2    1    2    0    0  0.00000000000E+00  0.00000000000E+00 -0.14840710313E+04  0.15663034962E+04  0.50083911197E+03 0.  0.
        2    1    3    3  502    0 -0.15376094794E+03 -0.18011278837E+03 -0.99662072171E+03  0.10243709819E+04  0.25500000920E-02 0.  1.
       -2    1    3    3    0  502  0.15376094794E+03  0.18011278837E+03 -0.48745030961E+03  0.54193251424E+03  0.25500000920E-02 0. -1.
</event>
<event>
 5   0  0.8012875E-03  0.4977684E+03  0.7818609E-02  0.1014363E+00
       -3   -1    0    0    0  501  0.00000000000E+00  0.00000000000E+00  0.49076767237E+02  0.49076871166E+02  0.10100000352E+00 0.  1.
        3   -1    0    0  501    0  0.00000000000E+00  0.00000000000E+00 -0.12621712002E+04  0.12621712042E+04  0.10100000352E+00 0. -1.
    10030    2    1    2    0    0  0.00000000000E+00  0.00000000000E+00 -0.12130944329E+04  0.13112480754E+04  0.49776843207E+03 0.  0.
        3    1    3    3  502    0  0.16706462534E+03 -0.40707606206E+02 -0.10805345376E+04  0.10941309773E+04  0.10100000352E+00 0. -1.
       -3    1    3    3    0  502 -0.16706462534E+03  0.40707606206E+02 -0.13255989532E+03  0.21711709811E+03  0.10100000352E+00 0.  1.
</event>
<event>
 5   0  0.1982847E-02  0.4999633E+03  0.7818609E-02  0.1013789E+00
       -2   -1    0    0    0  501  0.00000000000E+00  0.00000000000E+00  0.10586645098E+03  0.10586645101E+03  0.25500000920E-02 0.  1.
        2   -1    0    0  501    0  0.00000000000E+00  0.00000000000E+00 -0.59027970805E+03  0.59027970806E+03  0.25500000920E-02 0. -1.
    10030    2    1    2    0    0  0.00000000000E+00  0.00000000000E+00 -0.48441325707E+03  0.69614615907E+03  0.49996326982E+03 0.  0.
        2    1    3    3  502    0 -0.21074330753E+03 -0.42020126511E+02 -0.42004319477E+03  0.47182064196E+03  0.25500000920E-02 0. -1.
       -2    1    3    3    0  502  0.21074330753E+03  0.42020126511E+02 -0.64370062299E+02  0.22432551711E+03  0.25500000920E-02 0.  1.
</event>
<event>
 5   0  0.1923706E-02  0.5000754E+03  0.7818609E-02  0.1013759E+00
        2   -1    0    0  501    0  0.00000000000E+00  0.00000000000E+00  0.11824995671E+04  0.11824995671E+04  0.25500000920E-02 0. -1.
       -2   -1    0    0    0  501  0.00000000000E+00  0.00000000000E+00 -0.52870079728E+02  0.52870079789E+02  0.25500000920E-02 0.  1.
    10030    2    1    2    0    0  0.00000000000E+00  0.00000000000E+00  0.11296294874E+04  0.12353696469E+04  0.50007538004E+03 0.  0.
        3    1    3    3  502    0  0.24405425549E+03 -0.87965382580E+01  0.69736500544E+03  0.73888958561E+03  0.10100000352E+00 0. -1.
       -3    1    3    3    0  502 -0.24405425549E+03  0.87965382580E+01  0.43226448193E+03  0.49648006128E+03  0.10100000352E+00 0.  1.
</event>
<event>
 5   0  0.1180937E-02  0.4933812E+03  0.7818609E-02  0.1015521E+00
       -1   -1    0    0    0  501  0.00000000000E+00  0.00000000000E+00  0.20575373762E+03  0.20575373768E+03  0.50400001928E-02 0. -1.
        1   -1    0    0  501    0  0.00000000000E+00  0.00000000000E+00 -0.29577229523E+03  0.29577229527E+03  0.50400001928E-02 0.  1.
    10030    2    1    2    0    0  0.00000000000E+00  0.00000000000E+00 -0.90018557609E+02  0.50152603295E+03  0.49338121266E+03 0.  0.
        1    1    3    3  502    0  0.18186020929E+03 -0.15154906996E+03  0.25533743489E+02  0.23810129864E+03  0.50400001928E-02 0. -1.
       -1    1    3    3    0  502 -0.18186020929E+03  0.15154906996E+03 -0.11555230110E+03  0.26342473431E+03  0.50400001928E-02 0.  1.
</event>
<event>
 5   0  0.1923706E-02  0.4981445E+03  0.7818609E-02  0.1014264E+00
        2   -1    0    0  501    0  0.00000000000E+00  0.00000000000E+00  0.86717447259E+03  0.86717447259E+03  0.25500000920E-02 0.  1.
       -2   -1    0    0    0  501  0.00000000000E+00  0.00000000000E+00 -0.71539228901E+02  0.71539228947E+02  0.25500000920E-02 0. -1.
    10030    2    1    2    0    0  0.00000000000E+00  0.00000000000E+00  0.79563524369E+03  0.93871370154E+03  0.49814452969E+03 0.  0.
        3    1    3    3  502    0  0.91552584213E+02  0.18798136323E+02  0.83287693880E+03  0.83810455851E+03  0.10100000352E+00 0.  1.
       -3    1    3    3    0  502 -0.91552584213E+02 -0.18798136323E+02 -0.37241695114E+02  0.10060914303E+03  0.10100000352E+00 0. -1.
</event>
<event>
 5   0  0.1209831E-02  0.5002724E+03  0.7818609E-02  0.1013708E+00
        1   -1    0    0  501    0  0.00000000000E+00  0.00000000000E+00  0.28096006306E+03  0.28096006311E+03  0.50400001928E-02 0. -1.
       -1   -1    0    0    0  501  0.00000000000E+00  0.00000000000E+00 -0.22269400254E+03  0.22269400260E+03  0.50400001928E-02 0.  1.
    10030    2    1    2    0    0  0.00000000000E+00  0.00000000000E+00  0.58266060520E+02  0.50365406571E+03  0.50027240989E+03 0.  0.
        4    1    3    3  502    0 -0.11882056172E+03 -0.74250361706E+02  0.23774146264E+03  0.27596024724E+03  0.12699999809E+01 0. -1.
       -4    1    3    3    0  502  0.11882056172E+03  0.74250361706E+02 -0.17947540212E+03  0.22769381846E+03  0.12699999809E+01 0.  1.
</event>
<event>
 5   0  0.1967813E-02  0.4987059E+03  0.7818609E-02  0.1014117E+00
        2   -1    0    0  501    0  0.00000000000E+00  0.00000000000E+00  0.11818954270E+04  0.11818954270E+04  0.25500000920E-02 0.  1.
       -2   -1    0    0    0  501  0.00000000000E+00  0.00000000000E+00 -0.52607776821E+02  0.52607776883E+02  0.25500000920E-02 0. -1.
    10030    2    1    2    0    0  0.00000000000E+00  0.00000000000E+00  0.11292876502E+04  0.12345032039E+04  0.49870588883E+03 0.  0.
        5    1    3    3  502    0 -0.14761190430E+03 -0.14032572601E+03  0.20871573645E+03  0.29165893148E+03  0.46999998093E+01 0. -1.
       -5    1    3    3    0  502  0.14761190430E+03  0.14032572601E+03  0.92057191372E+03  0.94284427241E+03  0.46999998093E+01 0.  1.
</event>
<event>
 5   0  0.1225989E-02  0.4993407E+03  0.7818609E-02  0.1013951E+00
       -1   -1    0    0    0  501  0.00000000000E+00  0.00000000000E+00  0.24890975859E+03  0.24890975864E+03  0.50400001928E-02 0. -1.
        1   -1    0    0  501    0  0.00000000000E+00  0.00000000000E+00 -0.25043322118E+03  0.25043322123E+03  0.50400001928E-02 0.  1.
    10030    2    1    2    0    0  0.00000000000E+00  0.00000000000E+00 -0.15234625860E+01  0.49934297987E+03  0.49934065587E+03 0.  0.
        3    1    3    3  502    0  0.34184201337E+02  0.58457820833E+02  0.23955040648E+03  0.24893831341E+03  0.10100000352E+00 0. -1.
       -3    1    3    3    0  502 -0.34184201337E+02 -0.58457820833E+02 -0.24107386906E+03  0.25040466646E+03  0.10100000352E+00 0.  1.
</event>
<event>
 5   0  0.1982847E-02  0.4988386E+03  0.7818609E-02  0.1014082E+00
        2   -1    0    0  501    0  0.00000000000E+00  0.00000000000E+00  0.52881374976E+03  0.52881374976E+03  0.25500000920E-02 0.  1.
       -2   -1    0    0    0  501  0.00000000000E+00  0.00000000000E+00 -0.11764064355E+03  0.11764064358E+03  0.25500000920E-02 0. -1.
    10030    2    1    2    0    0  0.00000000000E+00  0.00000000000E+00  0.41117310620E+03  0.64645439334E+03  0.49883861058E+03 0.  0.
        2    1    3    3  502    0 -0.41419704033E+02 -0.23673988136E+03  0.29202178559E+03  0.37820376330E+03  0.25500000920E-02 0.  1.
       -2    1    3    3    0  502  0.41419704033E+02  0.23673988136E+03  0.11915132061E+03  0.26825063004E+03  0.25500000920E-02 0. -1.
</event>
<event>
 5   0  0.1227864E-02  0.5012332E+03  0.7818609E-02  0.1013458E+00
        1   -1    0    0  501    0  0.00000000000E+00  0.00000000000E+00  0.17299566574E+03  0.17299566581E+03  0.50400001928E-02 0. -1.
       -1   -1    0    0    0  501  0.00000000000E+00  0.00000000000E+00 -0.36306509392E+03  0.36306509396E+03  0.50400001928E-02 0.  1.
    10030    2    1    2    0    0  0.00000000000E+00  0.00000000000E+00 -0.19006942819E+03  0.53606075977E+03  0.50123322978E+03 0.  0.
        5    1    3    3  502    0  0.11456070268E+03 -0.62855105989E+02  0.13362399513E+03  0.18695555894E+03  0.46999998093E+01 0. -1.
       -5    1    3    3    0  502 -0.11456070268E+03  0.62855105989E+02 -0.32369342332E+03  0.34910520082E+03  0.46999998093E+01 0.  1.
</event>
<event>
 5   0  0.1217270E-02  0.5000287E+03  0.7818609E-02  0.1013771E+00
       -1   -1    0    0    0  501  0.00000000000E+00  0.00000000000E+00  0.16569552825E+03  0.16569552833E+03  0.50400001928E-02 0. -1.
        1   -1    0    0  501    0  0.00000000000E+00  0.00000000000E+00 -0.37724123080E+03  0.37724123084E+03  0.50400001928E-02 0.  1.
    10030    2    1    2    0    0  0.00000000000E+00  0.00000000000E+00 -0.21154570255E+03  0.54293675916E+03  0.50002873935E+03 0.  0.
        2    1    3    3  502    0  0.10853577740E+03  0.20304063084E+03  0.68238730034E-01  0.23022927140E+03  0.25500000920E-02 0.  1.
       -2    1    3    3    0  502 -0.10853577740E+03 -0.20304063084E+03 -0.21161394128E+03  0.31270748776E+03  0.25500000920E-02 0. -1.
</event>
<event>
 5   0  0.1227864E-02  0.4997219E+03  0.7818609E-02  0.1013852E+00
       -1   -1    0    0    0  501  0.00000000000E+00  0.00000000000E+00  0.18436153287E+03  0.18436153293E+03  0.50400001928E-02 0. -1.
        1   -1    0    0  501    0  0.00000000000E+00  0.00000000000E+00 -0.33863076300E+03  0.33863076303E+03  0.50400001928E-02 0.  1.
    10030    2    1    2    0    0  0.00000000000E+00  0.00000000000E+00 -0.15426923013E+03  0.52299229597E+03  0.49972186892E+03 0.  0.
        5    1    3    3  502    0  0.24479417504E+03  0.43619837809E+02 -0.10237224613E+03  0.26894059782E+03  0.46999998093E+01 0. -1.
       -5    1    3    3    0  502 -0.24479417504E+03 -0.43619837809E+02 -0.51896984003E+02  0.25405169814E+03  0.46999998093E+01 0.  1.
</event>
<event>
 5   0  0.1923706E-02  0.5002083E+03  0.7818609E-02  0.1013725E+00
        2   -1    0    0  501    0  0.00000000000E+00  0.00000000000E+00  0.15202588319E+04  0.15202588319E+04  0.25500000920E-02 0.  1.
       -2   -1    0    0    0  501  0.00000000000E+00  0.00000000000E+00 -0.41145677110E+02  0.41145677189E+02  0.25500000920E-02 0. -1.
    10030    2    1    2    0    0  0.00000000000E+00  0.00000000000E+00  0.14791131548E+04  0.15614045091E+04  0.50020827297E+03 0.  0.
        3    1    3    3  502    0 -0.18975372330E+03  0.12848682215E+03  0.42683296250E+03  0.48446024300E+03  0.10100000352E+00 0. -1.
       -3    1    3    3    0  502  0.18975372330E+03 -0.12848682215E+03  0.10522801923E+04  0.10769442661E+04  0.10100000352E+00 0.  1.
</event>
<event>
 5   0  0.1227864E-02  0.4999081E+03  0.7818609E-02  0.1013803E+00
        1   -1    0    0  501    0  0.00000000000E+00  0.00000000000E+00  0.75434763491E+02  0.75434763659E+02  0.50400001928E-02 0. -1.
       -1   -1    0    0    0  501  0.00000000000E+00  0.00000000000E+00 -0.82822603426E+03  0.82822603427E+03  0.50400001928E-02 0.  1.
    10030    2    1    2    0    0  0.00000000000E+00  0.00000000000E+00 -0.75279127077E+03  0.90366079793E+03  0.49990813194E+03 0.  0.
        5    1    3    3  502    0 -0.12341971579E+03  0.16242694056E+02 -0.76811337948E+03  0.77814941052E+03  0.46999998093E+01 0.  1.
       -5    1    3    3    0  502  0.12341971579E+03 -0.16242694056E+02  0.15322108715E+02  0.12551138741E+03  0.46999998093E+01 0. -1.
</event>
<event>
 5   0  0.1855407E-02  0.4996990E+03  0.7818609E-02  0.1013858E+00
        2   -1    0    0  501    0  0.00000000000E+00  0.00000000000E+00  0.51252297231E+03  0.51252297232E+03  0.25500000920E-02 0.  1.
       -2   -1    0    0    0  501  0.00000000000E+00  0.00000000000E+00 -0.12179895531E+03  0.12179895534E+03  0.25500000920E-02 0. -1.
    10030    2    1    2    0    0  0.00000000000E+00  0.00000000000E+00  0.39072401700E+03  0.63432192766E+03  0.49969895982E+03 0.  0.
        1    1    3    3  502    0 -0.12607401918E+03 -0.18573937995E+03  0.33459812708E+03  0.40292639806E+03  0.50400001928E-02 0. -1.
       -1    1    3    3    0  502  0.12607401918E+03  0.18573937995E+03  0.56125889919E+02  0.23139552960E+03  0.50400001928E-02 0.  1.
</event>
<event>
 5   0  0.1967813E-02  0.5002001E+03  0.7818609E-02  0.1013727E+00
        2   -1    0    0  501    0  0.00000000000E+00  0.00000000000E+00  0.20829637755E+04  0.20829637755E+04  0.25500000920E-02 0. -1.
       -2   -1    0    0    0  501  0.00000000000E+00  0.00000000000E+00 -0.30029347332E+02  0.30029347440E+02  0.25500000920E-02 0.  1.
    10030    2    1    2    0    0  0.00000000000E+00  0.00000000000E+00  0.20529344282E+04  0.21129931230E+04  0.50020013119E+03 0.  0.
        5    1    3    3  502    0  0.18389896347E+02  0.66369472754E+02  0.20419236723E+04  0.20430901764E+04  0.46999998093E+01 0. -1.
       -5    1    3    3    0  502 -0.18389896347E+02 -0.66369472754E+02  0.11010755885E+02  0.69902946609E+02  0.46999998093E+01 0.  1.
</event>
<event>
 5   0  0.1967813E-02  0.4976774E+03  0.7818609E-02  0.1014387E+00
       -2   -1    0    0    0  501  0.00000000000E+00  0.00000000000E+00  0.84775068314E+02  0.84775068352E+02  0.25500000920E-02 0. -1.
        2   -1    0    0  501    0  0.00000000000E+00  0.00000000000E+00 -0.73041161144E+03  0.73041161144E+03  0.25500000920E-02 0.  1.
    10030    2    1    2    0    0  0.00000000000E+00  0.00000000000E+00 -0.64563654312E+03  0.81518667980E+03  0.49767738255E+03 0.  0.
        5    1    3    3  502    0  0.71463223009E+02  0.23073902728E+03 -0.22520891803E+03  0.33028569105E+03  0.46999998093E+01 0. -1.
       -5    1    3    3    0  502 -0.71463223009E+02 -0.23073902728E+03 -0.42042762509E+03  0.48490098875E+03  0.46999998093E+01 0.  1.
</event>
<event>
 5   0  0.1225989E-02  0.4995646E+03  0.7818609E-02  0.1013893E+00
        1   -1    0    0  501    0  0.00000000000E+00  0.00000000000E+00  0.34901929491E+03  0.34901929494E+03  0.50400001928E-02 0. -1.
       -1   -1    0    0    0  501  0.00000000000E+00  0.00000000000E+00 -0.17876149115E+03  0.17876149122E+03  0.50400001928E-02 0.  1.
    10030    2    1    2    0    0  0.00000000000E+00  0.00000000000E+00  0.17025780376E+03  0.52778078616E+03  0.49956464897E+03 0.  0.
        3    1    3    3  502    0 -0.86777010309E+02 -0.16305230551E+03 -0.92519940574E+02  0.20658231642E+03  0.10100000352E+00 0.  1.
       -3    1    3    3    0  502  0.86777010309E+02  0.16305230551E+03  0.26277774433E+03  0.32119846975E+03  0.10100000352E+00 0. -1.
</event>
<event>
 5   0  0.1227864E-02  0.5001573E+03  0.7818609E-02  0.1013738E+00
       -1   -1    0    0    0  501  0.00000000000E+00  0.00000000000E+00  0.16638817072E+03  0.16638817079E+03  0.50400001928E-02 0. -1.
        1   -1    0    0  501    0  0.00000000000E+00  0.00000000000E+00 -0.37586399029E+03  0.37586399033E+03  0.50400001928E-02 0.  1.
    10030    2    1    2    0    0  0.00000000000E+00  0.00000000000E+00 -0.20947581958E+03  0.54225216112E+03  0.50015726252E+03 0.  0.
        5    1    3    3  502    0 -0.75251527637E+02  0.16028245626E+02 -0.36266292782E+03  0.37076432715E+03  0.46999998093E+01 0.  1.
       -5    1    3    3    0  502  0.75251527637E+02 -0.16028245626E+02  0.15318710825E+03  0.17148783397E+03  0.46999998093E+01 0. -1.
</event>
<event>
 5   0  0.1967813E-02  0.4972479E+03  0.7818609E-02  0.1014500E+00
        2   -1    0    0  501    0  0.00000000000E+00  0.00000000000E+00  0.24869517135E+03  0.24869517136E+03  0.25500000920E-02 0.  1.
       -2   -1    0    0    0  501  0.00000000000E+00  0.00000000000E+00 -0.24855274183E+03  0.24855274184E+03  0.25500000920E-02 0. -1.
    10030    2    1    2    0    0  0.00000000000E+00  0.00000000000E+00  0.14242951756E+00  0.49724791321E+03  0.49724789281E+03 0.  0.
        5    1    3    3  502    0 -0.34491748253E+02  0.24604966631E+03  0.79234593791E+01  0.24862620577E+03  0.46999998093E+01 0.  1.
       -5    1    3    3    0  502  0.34491748253E+02 -0.24604966631E+03 -0.77810298615E+01  0.24862170744E+03  0.46999998093E+01 0. -1.
</event>
<event>
 5   0  0.1217270E-02  0.4999817E+03  0.7818609E-02  0.1013784E+00
        1   -1    0    0  501    0  0.00000000000E+00  0.00000000000E+00  0.14982803071E+03  0.14982803080E+03  0.50400001928E-02 0. -1.
       -1   -1    0    0    0  501  0.00000000000E+00  0.00000000000E+00 -0.41711445056E+03  0.41711445059E+03  0.50400001928E-02 0.  1.
    10030    2    1    2    0    0  0.00000000000E+00  0.00000000000E+00 -0.26728641985E+03  0.56694248139E+03  0.49998174663E+03 0.  0.
        2    1    3    3  502    0  0.68600764265E+02 -0.13027541925E+03  0.95448327329E+02  0.17546547499E+03  0.25500000920E-02 0. -1.
       -2    1    3    3    0  502 -0.68600764265E+02  0.13027541925E+03 -0.36273474718E+03  0.39147700640E+03  0.25500000920E-02 0.  1.
</event>
<event>
 5   0  0.1855407E-02  0.4992561E+03  0.7818609E-02  0.1013973E+00
        2   -1    0    0  501    0  0.00000000000E+00  0.00000000000E+00  0.48598403864E+03  0.48598403864E+03  0.25500000920E-02 0. -1.
       -2   -1    0    0    0  501  0.00000000000E+00  0.00000000000E+00 -0.12822267273E+03  0.12822267276E+03  0.25500000920E-02 0.  1.
    10030    2    1    2    0    0  0.00000000000E+00  0.00000000000E+00  0.35776136590E+03  0.61420671140E+03  0.49925613607E+03 0.  0.
        1    1    3    3  502    0  0.30130395243E+02 -0.22703256065E+03  0.30105662928E+03  0.37826805095E+03  0.50400001928E-02 0.  1.
       -1    1    3    3    0  502 -0.30130395243E+02  0.22703256065E+03  0.56704736625E+02  0.23593866045E+03  0.50400001928E-02 0. -1.
</event>
<event>
 5   0  0.1227864E-02  0.4999489E+03  0.7818609E-02  0.1013792E+00
       -1   -1    0    0    0  501  0.00000000000E+00  0.00000000000E+00  0.10293380736E+03  0.10293380749E+03  0.50400001928E-02 0. -1.
        1   -1    0    0  501    0  0.00000000000E+00  0.00000000000E+00 -0.60706217537E+03  0.60706217539E+03  0.50400001928E-02 0.  1.
    10030    2    1    2    0    0  0.00000000000E+00  0.00000000000E+00 -0.50412836801E+03  0.70999598288E+03  0.49994888166E+03 0.  0.
        5    1    3    3  502    0  0.15662305788E+03  0.12617327567E+03 -0.46277470241E+03  0.50461172494E+03  0.46999998093E+01 0. -1.
       -5    1    3    3    0  502 -0.15662305788E+03 -0.12617327567E+03 -0.41353665598E+02  0.20538425794E+03  0.46999998093E+01 0.  1.
</event>
<event>
 5   0  0.1180937E-02  0.4995392E+03  0.7818609E-02  0.1013899E+00
       -1   -1    0    0    0  501  0.00000000000E+00  0.00000000000E+00  0.70958871161E+02  0.70958871340E+02  0.50400001928E-02 0.  1.
        1   -1    0    0  501    0  0.00000000000E+00  0.00000000000E+00 -0.87916922129E+03  0.87916922130E+03  0.50400001928E-02 0. -1.
    10030    2    1    2    0    0  0.00000000000E+00  0.00000000000E+00 -0.80821035013E+03  0.95012809264E+03  0.49953921005E+03 0.  0.
        1    1    3    3  502    0  0.12808896478E+03 -0.14404439929E+03 -0.10199521975E+03  0.21807933589E+03  0.50400001928E-02 0.  1.
       -1    1    3    3    0  502 -0.12808896478E+03  0.14404439929E+03 -0.70621513038E+03  0.73204875675E+03  0.50400001928E-02 0. -1.
</event>
<event>
 5   0  0.1180937E-02  0.4989670E+03  0.7818609E-02  0.1014049E+00
       -1   -1    0    0    0  501  0.00000000000E+00  0.00000000000E+00  0.13216478852E+03  0.13216478862E+03  0.50400001928E-02 0.  1.
        1   -1    0    0  501    0  0.00000000000E+00  0.00000000000E+00 -0.47094253262E+03  0.47094253265E+03  0.50400001928E-02 0. -1.
    10030    2    1    2    0    0  0.00000000000E+00  0.00000000000E+00 -0.33877774410E+03  0.60310732127E+03  0.49896701401E+03 0.  0.
        1    1    3    3  502    0  0.18817324722E+03  0.72949787607E+02 -0.34666687842E+03  0.40113435043E+03  0.50400001928E-02 0. -1.
       -1    1    3    3    0  502 -0.18817324722E+03 -0.72949787607E+02  0.78891343136E+01  0.20197297083E+03  0.50400001928E-02 0.  1.
</event>
<event>
 5   0  0.1217270E-02  0.4950076E+03  0.7818609E-02  0.1015090E+00
        1   -1    0    0  501    0  0.00000000000E+00  0.00000000000E+00  0.18271153217E+03  0.18271153224E+03  0.50400001928E-02 0.  1.
       -1   -1    0    0    0  501  0.00000000000E+00  0.00000000000E+00 -0.33527233729E+03  0.33527233732E+03  0.50400001928E-02 0. -1.
    10030    2    1    2    0    0  0.00000000000E+00  0.00000000000E+00 -0.15256080511E+03  0.51798386956E+03  0.49500756547E+03 0.  0.
        2    1    3    3  502    0  0.21619334184E+03  0.11438551789E+02 -0.20179678159E+03  0.29596003546E+03  0.25500000920E-02 0.  1.
       -2    1    3    3    0  502 -0.21619334184E+03 -0.11438551789E+02  0.49235976475E+02  0.22202383410E+03  0.25500000920E-02 0. -1.
</event>
<event>
 5   0  0.1941387E-02  0.4998637E+03  0.7818609E-02  0.1013814E+00
       -2   -1    0    0    0  501  0.00000000000E+00  0.00000000000E+00  0.27473320417E+02  0.27473320535E+02  0.25500000920E-02 0. -1.
        2   -1    0    0  501    0  0.00000000000E+00  0.00000000000E+00 -0.22736942074E+04  0.22736942074E+04  0.25500000920E-02 0.  1.
    10030    2    1    2    0    0  0.00000000000E+00  0.00000000000E+00 -0.22462208870E+04  0.23011675280E+04  0.49986369993E+03 0.  0.
        4    1    3    3  502    0  0.16901042816E+03 -0.68531544826E+02 -0.19098156098E+04  0.19185042022E+04  0.12699999809E+01 0.  1.
       -4    1    3    3    0  502 -0.16901042816E+03  0.68531544826E+02 -0.33640527724E+03  0.38266332581E+03  0.12699999809E+01 0. -1.
</event>
<event>
 5   0  0.1855407E-02  0.4990160E+03  0.7818609E-02  0.1014036E+00
        2   -1    0    0  501    0  0.00000000000E+00  0.00000000000E+00  0.13321140021E+04  0.13321140021E+04  0.25500000920E-02 0.  1.
       -2   -1    0    0    0  501  0.00000000000E+00  0.00000000000E+00 -0.46733417818E+02  0.46733417888E+02  0.25500000920E-02 0. -1.
    10030    2    1    2    0    0  0.00000000000E+00  0.00000000000E+00  0.12853805843E+04  0.13788474200E+04  0.49901599290E+03 0.  0.
        1    1    3    3  502    0  0.83597785813E+02 -0.59915528149E+02  0.14566467430E+02  0.10387801647E+03  0.50400001928E-02 0. -1.
       -1    1    3    3    0  502 -0.83597785813E+02  0.59915528149E+02  0.12708141169E+04  0.12749694035E+04  0.50400001928E-02 0.  1.
</event>
<event>
 5   0  0.1209831E-02  0.5024306E+03  0.7818609E-02  0.1013146E+00
       -1   -1    0    0    0  501  0.00000000000E+00  0.00000000000E+00  0.49317261650E+03  0.49317261652E+03  0.50400001928E-02 0.  1.
        1   -1    0    0  501    0  0.00000000000E+00  0.00000000000E+00 -0.12796560346E+03  0.12796560356E+03  0.50400001928E-02 0. -1.
    10030    2    1    2    0    0  0.00000000000E+00  0.00000000000E+00  0.36520701304E+03  0.62113822008E+03  0.50243061817E+03 0.  0.
        4    1    3    3  502    0  0.69216971070E+02 -0.23747195348E+03  0.23682477022E+03  0.34244926991E+03  0.12699999809E+01 0. -1.
       -4    1    3    3    0  502 -0.69216971070E+02  0.23747195348E+03  0.12838224282E+03  0.27868895017E+03  0.12699999809E+01 0.  1.
</event>
<event>
 5   0  0.1967813E-02  0.5005788E+03  0.7818609E-02  0.1013628E+00
       -2   -1    0    0    0  501  0.00000000000E+00  0.00000000000E+00  0.53539382223E+02  0.53539382283E+02  0.25500000920E-02 0. -1.
        2   -1    0    0  501    0  0.00000000000E+00  0.00000000000E+00 -0.11700691387E+04  0.11700691387E+04  0.25500000920E-02 0.  1.
    10030    2    1    2    0    0  0.00000000000E+00  0.00000000000E+00 -0.11165297565E+04  0.12236085210E+04  0.50057878055E+03 0.  0.
        5    1    3    3  502    0  0.88704446172E+02 -0.82656512762E+02 -0.23161088072E+02  0.12352774535E+03  0.46999998093E+01 0. -1.
       -5    1    3    3    0  502 -0.88704446172E+02  0.82656512762E+02 -0.10933686685E+04  0.11000807757E+04  0.46999998093E+01 0.  1.
</event>
<event>
 5   0  0.1923706E-02  0.4925396E+03  0.7818609E-02  0.1015745E+00
       -2   -1    0    0    0  501  0.00000000000E+00  0.00000000000E+00  0.30603485430E+02  0.30603485536E+02  0.25500000920E-02 0.  1.
        2   -1    0    0  501    0  0.00000000000E+00  0.00000000000E+00 -0.19817619012E+04  0.19817619012E+04  0.25500000920E-02 0. -1.
    10030    2    1    2    0    0  0.00000000000E+00  0.00000000000E+00 -0.19511584158E+04  0.20123653868E+04  0.49253962918E+03 0.  0.
        3    1    3    3  502    0 -0.38473089957E+01 -0.16693960523E+03 -0.17151366712E+04  0.17232461939E+04  0.10100000352E+00 0. -1.
       -3    1    3    3    0  502  0.38473089957E+01  0.16693960523E+03 -0.23602174462E+03  0.28911919292E+03  0.10100000352E+00 0.  1.
</event>
<event>
 5   0  0.1941387E-02  0.4950511E+03  0.7818609E-02  0.1015079E+00
        2   -1    0    0  501    0  0.00000000000E+00  0.00000000000E+00  0.66026692072E+03  0.66026692072E+03  0.25500000920E-02 0.  1.
       -2   -1    0    0    0  501  0.00000000000E+00  0.00000000000E+00 -0.92794120907E+02  0.92794120942E+02  0.25500000920E-02 0. -1.
    10030    2    1    2    0    0  0.00000000000E+00  0.00000000000E+00  0.56747279981E+03  0.75306104166E+03  0.49505106196E+03 0.  0.
        4    1    3    3  502    0 -0.38996142606E+02  0.24221079198E+03  0.33373919921E+03  0.41421037273E+03  0.12699999809E+01 0. -1.
       -4    1    3    3    0  502  0.38996142606E+02 -0.24221079198E+03  0.23373360060E+03  0.33885066893E+03  0.12699999809E+01 0.  1.
</event>
<event>
 5   0  0.1982847E-02  0.5010926E+03  0.7818609E-02  0.1013494E+00
        2   -1    0    0  501    0  0.00000000000E+00  0.00000000000E+00  0.62866473218E+03  0.62866473218E+03  0.25500000920E-02 0.  1.
       -2   -1    0    0    0  501  0.00000000000E+00  0.00000000000E+00 -0.99852017134E+02  0.99852017166E+02  0.25500000920E-02 0. -1.
    10030    2    1    2    0    0  0.00000000000E+00  0.00000000000E+00  0.52881271504E+03  0.72851674935E+03  0.50109257277E+03 0.  0.
        2    1    3    3  502    0  0.22535806674E+03 -0.10420415600E+03  0.21556289317E+03  0.32880408344E+03  0.25500000920E-02 0.  1.
       -2    1    3    3    0  502 -0.22535806674E+03  0.10420415600E+03  0.31324982187E+03  0.39971266590E+03  0.25500000920E-02 0. -1.
</event>
<event>
 5   0  0.1982847E-02  0.5000600E+03  0.7818609E-02  0.1013763E+00
        2   -1    0    0  501    0  0.00000000000E+00  0.00000000000E+00  0.14521077983E+04  0.14521077983E+04  0.25500000920E-02 0. -1.
       -2   -1    0    0    0  501  0.00000000000E+00  0.00000000000E+00 -0.43051212139E+02  0.43051212215E+02  0.25500000920E-02 0.  1.
    10030    2    1    2    0    0  0.00000000000E+00  0.00000000000E+00  0.14090565862E+04  0.14951590105E+04  0.50006000012E+03 0.  0.
        2    1    3    3  502    0 -0.11347023215E+03  0.20382919667E+03  0.97351107933E+03  0.10010722534E+04  0.25500000920E-02 0.  1.
       -2    1    3    3    0  502  0.11347023215E+03 -0.20382919667E+03  0.43554550683E+03  0.49408675708E+03  0.25500000920E-02 0. -1.
</event>
<event>
 5   0  0.1982847E-02  0.4999053E+03  0.7818609E-02  0.1013804E+00
        2   -1    0    0  501    0  0.00000000000E+00  0.00000000000E+00  0.39946652953E+03  0.39946652954E+03  0.25500000920E-02 0. -1.
       -2   -1    0    0    0  501  0.00000000000E+00  0.00000000000E+00 -0.15639938045E+03  0.15639938047E+03  0.25500000920E-02 0.  1.
    10030    2    1    2    0    0  0.00000000000E+00  0.00000000000E+00  0.24306714908E+03  0.55586591001E+03  0.49990526197E+03 0.  0.
        2    1    3    3  502    0 -0.88743127177E+02 -0.70965004630E+02 -0.12602024925E+03  0.16968346334E+03  0.25500000920E-02 0.  1.
       -2    1    3    3    0  502  0.88743127177E+02  0.70965004630E+02  0.36908739833E+03  0.38618244667E+03  0.25500000920E-02 0. -1.
</event>
<event>
 5   0  0.1923706E-02  0.5016711E+03  0.7818609E-02  0.1013344E+00
       -2   -1    0    0    0  501  0.00000000000E+00  0.00000000000E+00  0.25863882699E+03  0.25863882701E+03  0.25500000920E-02 0.  1.
        2   -1    0    0  501    0  0.00000000000E+00  0.00000000000E+00 -0.24326770077E+03  0.24326770078E+03  0.25500000920E-02 0. -1.
    10030    2    1    2    0    0  0.00000000000E+00  0.00000000000E+00  0.15371126224E+02  0.50190652779E+03  0.50167109854E+03 0.  0.
        3    1    3    3  502    0 -0.38066561578E+02  0.10796536332E+03  0.23097829505E+03  0.25779171005E+03  0.10100000352E+00 0.  1.
       -3    1    3    3    0  502  0.38066561578E+02 -0.10796536332E+03 -0.21560716883E+03  0.24411481773E+03  0.10100000352E+00 0. -1.
</event>
<event>
 5   0  0.1941387E-02  0.5008250E+03  0.7818609E-02  0.1013564E+00
        2   -1    0    0  501    0  0.00000000000E+00  0.00000000000E+00  0.34556390300E+03  0.34556390301E+03  0.25500000920E-02 0.  1.
       -2   -1    0    0    0  501  0.00000000000E+00  0.00000000000E+00 -0.18146114241E+03  0.18146114242E+03  0.25500000920E-02 0. -1.
    10030    2    1    2    0    0  0.00000000000E+00  0.00000000000E+00  0.16410276060E+03  0.52702504544E+03  0.50082500185E+03 0.  0.
        4    1    3    3  502    0 -0.86039468415E+01 -0.10875859558E+03  0.31923633899E+03  0.33736614093E+03  0.12699999809E+01 0.  1.
       -4    1    3    3    0  502  0.86039468415E+01  0.10875859558E+03 -0.15513357839E+03  0.18965890451E+03  0.12699999809E+01 0. -1.
</event>
<event>
 5   0  0.1855407E-02  0.5002740E+03  0.7818609E-02  0.1013707E+00
        2   -1    0    0  501    0  0.00000000000E+00  0.00000000000E+00  0.65741987527E+03  0.65741987527E+03  0.25500000920E-02 0. -1.
       -2   -1    0    0    0  501  0.00000000000E+00  0.00000000000E+00 -0.95172833681E+02  0.95172833715E+02  0.25500000920E-02 0.  1.
    10030    2    1    2    0    0  0.00000000000E+00  0.00000000000E+00  0.56224704159E+03  0.75259270899E+03  0.50027397479E+03 0.  0.
        1    1    3    3  502    0 -0.33073993363E+02 -0.22406977467E+03  0.44080817096E+03  0.49559358003E+03  0.50400001928E-02 0.  1.
       -1    1    3    3    0  502  0.33073993363E+02  0.22406977467E+03  0.12143887063E+03  0.25699912896E+03  0.50400001928E-02 0. -1.
</event>
<event>
 5   0  0.1209831E-02  0.4993557E+03  0.7818609E-02  0.1013947E+00
        1   -1    0    0  501    0  0.00000000000E+00  0.00000000000E+00  0.59523371033E+03  0.59523371035E+03  0.50400001928E-02 0.  1.
       -1   -1    0    0    0  501  0.00000000000E+00  0.00000000000E+00 -0.10473036063E+03  0.10473036075E+03  0.50400001928E-02 0. -1.
    10030    2    1    2    0    0  0.00000000000E+00  0.00000000000E+00  0.49050334970E+03  0.69996407111E+03  0.49935574972E+03 0.  0.
        4    1    3    3  502    0 -0.23696823589E+03 -0.77539067711E+02  0.22691216591E+03  0.33713053226E+03  0.12699999809E+01 0. -1.
       -4    1    3    3    0  502  0.23696823589E+03  0.77539067711E+02  0.26359118379E+03  0.36283353885E+03  0.12699999809E+01 0.  1.
</event>
<event>
 5   0  0.1225989E-02  0.5011379E+03  0.7818609E-02  0.1013482E+00
        1   -1    0    0  501    0  0.00000000000E+00  0.00000000000E+00  0.34493036060E+03  0.34493036064E+03  0.50400001928E-02 0. -1.
       -1   -1    0    0    0  501  0.00000000000E+00  0.00000000000E+00 -0.18202164491E+03  0.18202164497E+03  0.50400001928E-02 0.  1.
    10030    2    1    2    0    0  0.00000000000E+00  0.00000000000E+00  0.16290871570E+03  0.52695200561E+03  0.50113787182E+03 0.  0.
        3    1    3    3  502    0  0.87005845064E+02 -0.22477597822E+03  0.94391003451E+01  0.24121228052E+03  0.10100000352E+00 0.  1.
       -3    1    3    3    0  502 -0.87005845064E+02  0.22477597822E+03  0.15346961535E+03  0.28573972509E+03  0.10100000352E+00 0. -1.
</event>
<event>
 5   0  0.1209831E-02  0.4939150E+03  0.7818609E-02  0.1015380E+00
       -1   -1    0    0    0  501  0.00000000000E+00  0.00000000000E+00  0.91225063725E+02  0.91225063864E+02  0.50400001928E-02 0.  1.
        1   -1    0    0  501    0  0.00000000000E+00  0.00000000000E+00 -0.66854439415E+03  0.66854439417E+03  0.50400001928E-02 0. -1.
    10030    2    1    2    0    0  0.00000000000E+00  0.00000000000E+00 -0.57731933042E+03  0.75976945803E+03  0.49391499276E+03 0.  0.
        4    1    3    3  502    0 -0.20284268378E+03 -0.13161751850E+03 -0.21146927673E+03  0.32123074797E+03  0.12699999809E+01 0.  1.
       -4    1    3    3    0  502  0.20284268378E+03  0.13161751850E+03 -0.36585005369E+03  0.43853871006E+03  0.12699999809E+01 0. -1.
</event>
<event>
 5   0  0.1941387E-02  0.5000246E+03  0.7818609E-02  0.1013772E+00
        2   -1    0    0  501    0  0.00000000000E+00  0.00000000000E+00  0.48840765377E+03  0.48840765378E+03  0.25500000920E-02 0.  1.
       -2   -1    0    0    0  501  0.00000000000E+00  0.00000000000E+00 -0.12797948128E+03  0.12797948130E+03  0.25500000920E-02 0. -1.
    10030    2    1    2    0    0  0.00000000000E+00  0.00000000000E+00  0.36042817250E+03  0.61638713508E+03  0.50002463216E+03 0.  0.
        4    1    3    3  502    0 -0.62414030784E+02 -0.19870732393E+03  0.35068742074E+03  0.40787668699E+03  0.12699999809E+01 0.  1.
       -4    1    3    3    0  502  0.62414030784E+02  0.19870732393E+03  0.97407517561E+01  0.20851044810E+03  0.12699999809E+01 0. -1.
</event>
<event>
 5   0  0.1982847E-02  0.5010008E+03  0.7818609E-02  0.1013518E+00
        2   -1    0    0  501    0  0.00000000000E+00  0.00000000000E+00  0.13208697591E+03  0.13208697593E+03  0.25500000920E-02 0. -1.
       -2   -1    0    0    0  501  0.00000000000E+00  0.00000000000E+00 -0.47506913561E+03  0.47506913562E+03  0.25500000920E-02 0.  1.
    10030    2    1    2    0    0  0.00000000000E+00  0.00000000000E+00 -0.34298215970E+03  0.60715611155E+03  0.50100078035E+03 0.  0.
        2    1    3    3  502    0  0.21240508620E+03 -0.13025731913E+03 -0.14017944788E+03  0.28589013178E+03  0.25500000920E-02 0.  1.
       -2    1    3    3    0  502 -0.21240508620E+03  0.13025731913E+03 -0.20280271182E+03  0.32126597977E+03  0.25500000920E-02 0. -1.
</event>
<event>
 5   0  0.1982847E-02  0.5006690E+03  0.7818609E-02  0.1013604E+00
       -2   -1    0    0    0  501  0.00000000000E+00  0.00000000000E+00  0.10248508115E+03  0.10248508118E+03  0.25500000920E-02 0. -1.
        2   -1    0    0  501    0  0.00000000000E+00  0.00000000000E+00 -0.61147801641E+03  0.61147801642E+03  0.25500000920E-02 0.  1.
    10030    2    1    2    0    0  0.00000000000E+00  0.00000000000E+00 -0.50899293526E+03  0.71396309760E+03  0.50066904896E+03 0.  0.
        2    1    3    3  502    0  0.77633294302E+02 -0.23633108590E+02 -0.59220066996E+03  0.59773496277E+03  0.25500000920E-02 0.  1.
       -2    1    3    3    0  502 -0.77633294302E+02  0.23633108590E+02  0.83207734699E+02  0.11622813483E+03  0.25500000920E-02 0. -1.
</event>
<event>
 5   0  0.1855407E-02  0.4999283E+03  0.7818609E-02  0.1013798E+00
       -2   -1    0    0    0  501  0.00000000000E+00  0.00000000000E+00  0.49149560081E+02  0.49149560147E+02  0.25500000920E-02 0. -1.
        2   -1    0    0  501    0  0.00000000000E+00  0.00000000000E+00 -0.12712640691E+04  0.12712640691E+04  0.25500000920E-02 0.  1.
    10030    2    1    2    0    0  0.00000000000E+00  0.00000000000E+00 -0.12221145090E+04  0.13204136293E+04  0.49992827401E+03 0.  0.
        1    1    3    3  502    0  0.19642240791E+03 -0.81587291075E+02 -0.26422533726E+03  0.33919504310E+03  0.50400001928E-02 0. -1.
       -1    1    3    3    0  502 -0.19642240791E+03  0.81587291075E+02 -0.95788917177E+03  0.98121858615E+03  0.50400001928E-02 0.  1.
</event>
<event>
 5   0  0.1967813E-02  0.5001468E+03  0.7818609E-02  0.1013741E+00
        2   -1    0    0  501    0  0.00000000000E+00  0.00000000000E+00  0.39623643802E+03  0.39623643803E+03  0.25500000920E-02 0.  1.
       -2   -1    0    0    0  501  0.00000000000E+00  0.00000000000E+00 -0.15782673444E+03  0.15782673446E+03  0.25500000920E-02 0. -1.
    10030    2    1    2    0    0  0.00000000000E+00  0.00000000000E+00  0.23840970358E+03  0.55406317249E+03  0.50014679080E+03 0.  0.
        5    1    3    3  502    0  0.94620400130E+02  0.20210679465E+03  0.24411863358E+03  0.33078115699E+03  0.46999998093E+01 0.  1.
       -5    1    3    3    0  502 -0.94620400130E+02 -0.20210679465E+03 -0.57089300019E+01  0.22328201549E+03  0.46999998093E+01 0. -1.
</event>
<event>
 5   0  0.1217270E-02  0.5003630E+03  0.7818609E-02  0.1013684E+00
       -1   -1    0    0    0  501  0.00000000000E+00  0.00000000000E+00  0.12295531274E+03  0.12295531285E+03  0.50400001928E-02 0.  1.
        1   -1    0    0  501    0  0.00000000000E+00  0.00000000000E+00 -0.50905307082E+03  0.50905307084E+03  0.50400001928E-02 0. -1.
    10030    2    1    2    0    0  0.00000000000E+00  0.00000000000E+00 -0.38609775807E+03  0.63200838369E+03  0.50036298651E+03 0.  0.
        2    1    3    3  502    0 -0.34016662253E+02  0.23142966060E+03 -0.80967304709E+02  0.24753287772E+03  0.25500000920E-02 0.  1.
       -2    1    3    3    0  502  0.34016662253E+02 -0.23142966060E+03 -0.30513045337E+03  0.38447550597E+03  0.25500000920E-02 0. -1.
</event>
<event>
 5   0  0.1225989E-02  0.5002334E+03  0.7818609E-02  0.1013718E+00
        1   -1    0    0  501    0  0.00000000000E+00  0.00000000000E+00  0.15144681550E+04  0.15144681550E+04  0.50400001928E-02 0. -1.
       -1   -1    0    0    0  501  0.00000000000E+00  0.00000000000E+00 -0.41307152807E+02  0.41307153114E+02  0.50400001928E-02 0.  1.
    10030    2    1    2    0    0  0.00000000000E+00  0.00000000000E+00  0.14731610022E+04  0.15557753081E+04  0.50023341650E+03 0.  0.
        3    1    3    3  502    0 -0.22579419491E+03 -0.10726055862E+03  0.76269637919E+03  0.80261673476E+03  0.10100000352E+00 0. -1.
       -3    1    3    3    0  502  0.22579419491E+03  0.10726055862E+03  0.71046462299E+03  0.75315857335E+03  0.10100000352E+00 0.  1.
</event>
<event>
 5   0  0.1180937E-02  0.5000166E+03  0.7818609E-02  0.1013775E+00
        1   -1    0    0  501    0  0.00000000000E+00  0.00000000000E+00  0.21603922598E+03  0.21603922604E+03  0.50400001928E-02 0.  1.
       -1   -1    0    0    0  501  0.00000000000E+00  0.00000000000E+00 -0.28931853902E+03  0.28931853907E+03  0.50400001928E-02 0. -1.
    10030    2    1    2    0    0  0.00000000000E+00  0.00000000000E+00 -0.73279313041E+02  0.50535776511E+03  0.50001661276E+03 0.  0.
        1    1    3    3  502    0  0.54924812394E+02 -0.10701392680E+03 -0.25815070138E+03  0.28479905230E+03  0.50400001928E-02 0. -1.
       -1    1    3    3    0  502 -0.54924812394E+02  0.10701392680E+03  0.18487138834E+03  0.22055871281E+03  0.50400001928E-02 0.  1.
</event>
<event>
 5   0  0.1217270E-02  0.5068789E+03  0.7818609E-02  0.1011999E+00
       -1   -1    0    0    0  501  0.00000000000E+00  0.00000000000E+00  0.73608137249E+02  0.73608137421E+02  0.50400001928E-02 0.  1.
        1   -1    0    0  501    0  0.00000000000E+00  0.00000000000E+00 -0.87261469762E+03  0.87261469763E+03  0.50400001928E-02 0. -1.
    10030    2    1    2    0    0  0.00000000000E+00  0.00000000000E+00 -0.79900656037E+03  0.94622283505E+03  0.50687885147E+03 0.  0.
        2    1    3    3  502    0 -0.64464835980E+02  0.19376805808E+03 -0.67970294033E+03  0.70971674809E+03  0.25500000920E-02 0. -1.
       -2    1    3    3    0  502  0.64464835980E+02 -0.19376805808E+03 -0.11930362003E+03  0.23650608696E+03  0.25500000920E-02 0.  1.
</event>
<event>
 5   0  0.1923706E-02  0.5008080E+03  0.7818609E-02  0.1013568E+00
        2   -1    0    0  501    0  0.00000000000E+00  0.00000000000E+00  0.10550550540E+04  0.10550550540E+04  0.25500000920E-02 0. -1.
       -2   -1    0    0    0  501  0.00000000000E+00  0.00000000000E+00 -0.59430216946E+02  0.59430217001E+02  0.25500000920E-02 0.  1.
    10030    2    1    2    0    0  0.00000000000E+00  0.00000000000E+00  0.99562483707E+03  0.11144852710E+04  0.50080795035E+03 0.  0.
        3    1    3    3  502    0 -0.10659290103E+02 -0.23567135375E+03  0.68463169330E+03  0.72413753743E+03  0.10100000352E+00 0. -1.
       -3    1    3    3    0  502  0.10659290103E+02  0.23567135375E+03  0.31099314377E+03  0.39034773359E+03  0.10100000352E+00 0.  1.
</event>
<event>
 5   0  0.1217270E-02  0.5004152E+03  0.7818609E-02  0.1013671E+00
        1   -1    0    0  501    0  0.00000000000E+00  0.00000000000E+00  0.46677249456E+03  0.46677249459E+03  0.50400001928E-02 0.  1.
       -1   -1    0    0    0  501  0.00000000000E+00  0.00000000000E+00 -0.13412068901E+03  0.13412068910E+03  0.50400001928E-02 0. -1.
    10030    2    1    2    0    0  0.00000000000E+00  0.00000000000E+00  0.33265180555E+03  0.60089318369E+03  0.50041522206E+03 0.  0.
        2    1    3    3  502    0  0.13141942660E+03 -0.16242529513E+03  0.10229492430E+01  0.20893560878E+03  0.25500000920E-02 0. -1.
       -2    1    3    3    0  502 -0.13141942660E+03  0.16242529513E+03  0.33162885631E+03  0.39195757491E+03  0.25500000920E-02 0.  1.
</event>
<event>
 5   0  0.1967813E-02  0.4983772E+03  0.7818609E-02  0.1014203E+00
        2   -1    0    0  501    0  0.00000000000E+00  0.00000000000E+00  0.10092631224E+04  0.10092631224E+04  0.25500000920E-02 0. -1.
       -2   -1    0    0    0  501  0.00000000000E+00  0.00000000000E+00 -0.61525042174E+02  0.61525042227E+02  0.25500000920E-02 0.  1.
    10030    2    1    2    0    0  0.00000000000E+00  0.00000000000E+00  0.94773808024E+03  0.10707881646E+04  0.49837719130E+03 0.  0.
        5    1    3    3  502    0  0.24478900503E+03  0.37584968326E+02  0.53225978194E+03  0.58707482683E+03  0.46999998093E+01 0. -1.
       -5    1    3    3    0  502 -0.24478900503E+03 -0.37584968326E+02  0.41547829831E+03  0.48371333782E+03  0.46999998093E+01 0.  1.
</event>
<event>
 5   0  0.1855407E-02  0.5004275E+03  0.7818609E-02  0.1013667E+00
       -2   -1    0    0    0  501  0.00000000000E+00  0.00000000000E+00  0.11909292847E+03  0.11909292850E+03  0.25500000920E-02 0. -1.
        2   -1    0    0  501    0  0.00000000000E+00  0.00000000000E+00 -0.52569802032E+03  0.52569802033E+03  0.25500000920E-02 0.  1.
    10030    2    1    2    0    0  0.00000000000E+00  0.00000000000E+00 -0.40660509185E+03  0.64479094882E+03  0.50042748422E+03 0.  0.
        1    1    3    3  502    0 -0.12719282311E+03  0.17692875459E+03 -0.36176528853E+03  0.42232206012E+03  0.50400001928E-02 0.  1.
       -1    1    3    3    0  502  0.12719282311E+03 -0.17692875459E+03 -0.44839803319E+02  0.22246888870E+03  0.50400001928E-02 0. -1.
</event>
<event>
 5   0  0.1227864E-02  0.5000077E+03  0.7818609E-02  0.1013777E+00
       -1   -1    0    0    0  501  0.00000000000E+00  0.00000000000E+00  0.15351498673E+03  0.15351498681E+03  0.50400001928E-02 0. -1.
        1   -1    0    0  501    0  0.00000000000E+00  0.00000000000E+00 -0.40713893491E+03  0.40713893494E+03  0.50400001928E-02 0.  1.
    10030    2    1    2    0    0  0.00000000000E+00  0.00000000000E+00 -0.25362394818E+03  0.56065392175E+03  0.50000771282E+03 0.  0.
        5    1    3    3  502    0 -0.23667161418E+03 -0.80396004400E+02 -0.12491313595E+03  0.27946798030E+03  0.46999998093E+01 0.  1.
       -5    1    3    3    0  502  0.23667161418E+03  0.80396004400E+02 -0.12871081224E+03  0.28118594145E+03  0.46999998093E+01 0. -1.
</event>
<event>
 5   0  0.1180937E-02  0.5004679E+03  0.7818609E-02  0.1013657E+00
        1   -1    0    0  501    0  0.00000000000E+00  0.00000000000E+00  0.69721265700E+03  0.69721265702E+03  0.50400001928E-02 0.  1.
       -1   -1    0    0    0  501  0.00000000000E+00  0.00000000000E+00 -0.89810515768E+02  0.89810515909E+02  0.50400001928E-02 0. -1.
    10030    2    1    2    0    0  0.00000000000E+00  0.00000000000E+00  0.60740214123E+03  0.78702317293E+03  0.50046789463E+03 0.  0.
        1    1    3    3  502    0 -0.23991060529E+03  0.12904683319E+02  0.41370713082E+03  0.47841114065E+03  0.50400001928E-02 0.  1.
       -1    1    3    3    0  502  0.23991060529E+03 -0.12904683319E+02  0.19369501041E+03  0.30861203228E+03  0.50400001928E-02 0. -1.
</event>
<event>
 5   0  0.1209831E-02  0.4981354E+03  0.7818609E-02  0.1014267E+00
       -1   -1    0    0    0  501  0.00000000000E+00  0.00000000000E+00  0.76900600074E+03  0.76900600076E+03  0.50400001928E-02 0.  1.
        1   -1    0    0  501    0  0.00000000000E+00  0.00000000000E+00 -0.80668698933E+02  0.80668699090E+02  0.50400001928E-02 0. -1.
    10030    2    1    2    0    0  0.00000000000E+00  0.00000000000E+00  0.68833730181E+03  0.84967469985E+03  0.49813537769E+03 0.  0.
        4    1    3    3  502    0 -0.92222409698E+01  0.14318422294E+03  0.69142351431E+03  0.70615498332E+03  0.12699999809E+01 0.  1.
       -4    1    3    3    0  502  0.92222409698E+01 -0.14318422294E+03 -0.30862124967E+01  0.14351971653E+03  0.12699999809E+01 0. -1.
</event>
<event>
 5   0  0.1227864E-02  0.5016038E+03  0.7818609E-02  0.1013361E+00
        1   -1    0    0  501    0  0.00000000000E+00  0.00000000000E+00  0.61227223273E+03  0.61227223275E+03  0.50400001928E-02 0. -1.
       -1   -1    0    0    0  501  0.00000000000E+00  0.00000000000E+00 -0.10273467050E+03  0.10273467062E+03  0.50400001928E-02 0.  1.
    10030    2    1    2    0    0  0.00000000000E+00  0.00000000000E+00  0.50953756223E+03  0.71500690338E+03  0.50160377246E+03 0.  0.
        5    1    3    3  502    0 -0.18490668306E+03  0.79334228847E+02  0.46808599058E+03  0.50952034884E+03  0.46999998093E+01 0. -1.
       -5    1    3    3    0  502  0.18490668306E+03 -0.79334228847E+02  0.41451571656E+02  0.20548655454E+03  0.46999998093E+01 0.  1.
</event>
<event>
 5   0  0.1982847E-02  0.5020322E+03  0.7818609E-02  0.1013250E+00
       -2   -1    0    0    0  501  0.00000000000E+00  0.00000000000E+00  0.30391265531E+02  0.30391265638E+02  0.25500000920E-02 0.  1.
        2   -1    0    0  501    0  0.00000000000E+00  0.00000000000E+00 -0.20732631668E+04  0.20732631668E+04  0.25500000920E-02 0. -1.
    10030    2    1    2    0    0  0.00000000000E+00  0.00000000000E+00 -0.20428719012E+04  0.21036544324E+04  0.50203223614E+03 0.  0.
        2    1    3    3  502    0 -0.23361918257E+03 -0.43740714341E+02 -0.68313963065E+03  0.72330555613E+03  0.25500000920E-02 0.  1.
       -2    1    3    3    0  502  0.23361918257E+03  0.43740714341E+02 -0.13597322706E+04  0.13803488763E+04  0.25500000920E-02 0. -1.
</event>
<event>
 5   0  0.1217270E-02  0.5020744E+03  0.7818609E-02  0.1013239E+00
       -1   -1    0    0    0  501  0.00000000000E+00  0.00000000000E+00  0.95919374587E+02  0.95919374720E+02  0.50400001928E-02 0. -1.
        1   -1    0    0  501    0  0.00000000000E+00  0.00000000000E+00 -0.65700672508E+03  0.65700672510E+03  0.50400001928E-02 0.  1.
    10030    2    1    2    0    0  0.00000000000E+00  0.00000000000E+00 -0.56108735049E+03  0.75292609982E+03  0.50207439380E+03 0.  0.
        2    1    3    3  502    0  0.66169847167E+02  0.23604860507E+02  0.80876733561E+02  0.10712928709E+03  0.25500000920E-02 0. -1.
       -2    1    3    3    0  502 -0.66169847167E+02 -0.23604860507E+02 -0.64196408405E+03  0.64579681273E+03  0.25500000920E-02 0.  1.
</event>
<event>
 5   0  0.1923706E-02  0.5027348E+03  0.7818609E-02  0.1013068E+00
       -2   -1    0    0    0  501  0.00000000000E+00  0.00000000000E+00  0.12192413623E+03  0.12192413625E+03  0.25500000920E-02 0.  1.
        2   -1    0    0  501    0  0.00000000000E+00  0.00000000000E+00 -0.51823680561E+03  0.51823680562E+03  0.25500000920E-02 0. -1.
    10030    2    1    2    0    0  0.00000000000E+00  0.00000000000E+00 -0.39631266939E+03  0.64016094187E+03  0.50273482034E+03 0.  0.
        3    1    3    3  502    0 -0.15118311189E+03  0.13803438303E+03 -0.38389082091E+03  0.43506550863E+03  0.10100000352E+00 0. -1.
       -3    1    3    3    0  502  0.15118311189E+03 -0.13803438303E+03 -0.12421848472E+02  0.20509543324E+03  0.10100000352E+00 0.  1.
</event>
<event>
 5   0  0.1180937E-02  0.4983871E+03  0.7818609E-02  0.1014201E+00
        1   -1    0    0  501    0  0.00000000000E+00  0.00000000000E+00  0.77818395916E+03  0.77818395918E+03  0.50400001928E-02 0.  1.
       -1   -1    0    0    0  501  0.00000000000E+00  0.00000000000E+00 -0.79797858533E+02  0.79797858692E+02  0.50400001928E-02 0. -1.
    10030    2    1    2    0    0  0.00000000000E+00  0.00000000000E+00  0.69838610063E+03  0.85798181787E+03  0.49838705264E+03 0.  0.
        1    1    3    3  502    0 -0.10764325049E+03 -0.16467753048E+03  0.61248756359E+03  0.64330923669E+03  0.50400001928E-02 0.  1.
       -1    1    3    3    0  502  0.10764325049E+03  0.16467753048E+03  0.85898537033E+02  0.21467258118E+03  0.50400001928E-02 0. -1.
</event>
<event>
 5   0  0.1923706E-02  0.4999362E+03  0.7818609E-02  0.1013796E+00
       -2   -1    0    0    0  501  0.00000000000E+00  0.00000000000E+00  0.16232281737E+03  0.16232281739E+03  0.25500000920E-02 0.  1.
        2   -1    0    0  501    0  0.00000000000E+00  0.00000000000E+00 -0.38493693360E+03  0.38493693361E+03  0.25500000920E-02 0. -1.
    10030    2    1    2    0    0  0.00000000000E+00  0.00000000000E+00 -0.22261411623E+03  0.54725975100E+03  0.49993618625E+03 0.  0.
        3    1    3    3  502    0 -0.12870598212E+03 -0.38579420599E+02  0.11943099422E+03  0.17977033712E+03  0.10100000352E+00 0.  1.
       -3    1    3    3    0  502  0.12870598212E+03  0.38579420599E+02 -0.34204511045E+03  0.36748941388E+03  0.10100000352E+00 0. -1.
</event>
<event>
 5   0  0.1967813E-02  0.4995761E+03  0.7818609E-02  0.1013890E+00
        2   -1    0    0  501    0  0.00000000000E+00  0.00000000000E+00  0.14417279041E+04  0.14417279041E+04  0.25500000920E-02 0. -1.
       -2   -1    0    0    0  501  0.00000000000E+00  0.00000000000E+00 -0.43277287768E+02  0.43277287843E+02  0.25500000920E-02 0.  1.
    10030    2    1    2    0    0  0.00000000000E+00  0.00000000000E+00  0.13984506164E+04  0.14850051920E+04  0.49957611411E+03 0.  0.
        5    1    3    3  502    0  0.15627575489E+03 -0.10952453216E+03  0.11781095405E+04  0.11934747228E+04  0.46999998093E+01 0. -1.
       -5    1    3    3    0  502 -0.15627575489E+03  0.10952453216E+03  0.22034107588E+03  0.29153046913E+03  0.46999998093E+01 0.  1.
</event>
<event>
 5   0  0.1967813E-02  0.4996871E+03  0.7818609E-02  0.1013861E+00
       -2   -1    0    0    0  501  0.00000000000E+00  0.00000000000E+00  0.12354488069E+03  0.12354488072E+03  0.25500000920E-02 0.  1.
        2   -1    0    0  501    0  0.00000000000E+00  0.00000000000E+00 -0.50525607410E+03  0.50525607410E+03  0.25500000920E-02 0. -1.
    10030    2    1    2    0    0  0.00000000000E+00  0.00000000000E+00 -0.38171119341E+03  0.62880095482E+03  0.49968710771E+03 0.  0.
        5    1    3    3  502    0  0.10412238854E+03  0.98569460007E+00  0.94877136952E+02  0.14094752394E+03  0.46999998093E+01 0.  1.
       -5    1    3    3    0  502 -0.10412238854E+03 -0.98569460007E+00 -0.47658833036E+03  0.48785343088E+03  0.46999998093E+01 0. -1.
</event>
<event>
 5   0  0.1923706E-02  0.5004062E+03  0.7818609E-02  0.1013673E+00
       -2   -1    0    0    0  501  0.00000000000E+00  0.00000000000E+00  0.38633202804E+02  0.38633202888E+02  0.25500000920E-02 0. -1.
        2   -1    0    0  501    0  0.00000000000E+00  0.00000000000E+00 -0.16204087920E+04  0.16204087920E+04  0.25500000920E-02 0.  1.
    10030    2    1    2    0    0  0.00000000000E+00  0.00000000000E+00 -0.15817755892E+04  0.16590419949E+04  0.50040616127E+03 0.  0.
        3    1    3    3  502    0  0.33040019928E+02 -0.16139207565E+01 -0.16131269349E+04  0.16134660722E+04  0.10100000352E+00 0.  1.
       -3    1    3    3    0  502 -0.33040019928E+02  0.16139207565E+01  0.31351345696E+02  0.45575922755E+02  0.10100000352E+00 0. -1.
</event>
<event>
 5   0  0.1180937E-02  0.4998511E+03  0.7818609E-02  0.1013818E+00
        1   -1    0    0  501    0  0.00000000000E+00  0.00000000000E+00  0.52691568226E+03  0.52691568229E+03  0.50400001928E-02 0. -1.
       -1   -1    0    0    0  501  0.00000000000E+00  0.00000000000E+00 -0.11854418782E+03  0.11854418793E+03  0.50400001928E-02 0.  1.
    10030    2    1    2    0    0  0.00000000000E+00  0.00000000000E+00  0.40837149444E+03  0.64545987022E+03  0.49985114443E+03 0.  0.
        1    1    3    3  502    0 -0.19159560707E+03  0.15929457347E+03  0.17904163637E+03  0.30682168334E+03  0.50400001928E-02 0. -1.
       -1    1    3    3    0  502  0.19159560707E+03 -0.15929457347E+03  0.22932985807E+03  0.33863818688E+03  0.50400001928E-02 0.  1.
</event>
<event>
 5   0  0.1217270E-02  0.5002626E+03  0.7818609E-02  0.1013710E+00
       -1   -1    0    0    0  501  0.00000000000E+00  0.00000000000E+00  0.90756718778E+02  0.90756718918E+02  0.50400001928E-02 0.  1.
        1   -1    0    0  501    0  0.00000000000E+00  0.00000000000E+00 -0.68937767543E+03  0.68937767545E+03  0.50400001928E-02 0. -1.
    10030    2    1    2    0    0  0.00000000000E+00  0.00000000000E+00 -0.59862095665E+03  0.78013439437E+03  0.50026255460E+03 0.  0.
        2    1    3    3  502    0 -0.10824062251E+02  0.20130470330E+03 -0.53021921126E+03  0.56725052304E+03  0.25500000920E-02 0. -1.
       -2    1    3    3    0  502  0.10824062251E+02 -0.20130470330E+03 -0.68401745394E+02  0.21288387133E+03  0.25500000920E-02 0.  1.
</event>
<event>
 5   0  0.1227864E-02  0.4996060E+03  0.7818609E-02  0.1013882E+00
       -1   -1    0    0    0  501  0.00000000000E+00  0.00000000000E+00  0.21034424611E+03  0.21034424617E+03  0.50400001928E-02 0.  1.
        1   -1    0    0  501    0  0.00000000000E+00  0.00000000000E+00 -0.29666392362E+03  0.29666392366E+03  0.50400001928E-02 0. -1.
    10030    2    1    2    0    0  0.00000000000E+00  0.00000000000E+00 -0.86319677508E+02  0.50700816983E+03  0.49960604235E+03 0.  0.
        5    1    3    3  502    0  0.56110725071E+02  0.23306515111E+03  0.27961899630E+02  0.24139539341E+03  0.46999998093E+01 0.  1.
       -5    1    3    3    0  502 -0.56110725071E+02 -0.23306515111E+03 -0.11428157714E+03  0.26561277642E+03  0.46999998093E+01 0. -1.
</event>
<event>
 5   0  0.1982847E-02  0.4996615E+03  0.7818609E-02  0.1013867E+00
       -2   -1    0    0    0  501  0.00000000000E+00  0.00000000000E+00  0.12559653312E+03  0.12559653315E+03  0.25500000920E-02 0.  1.
        2   -1    0    0  501    0  0.00000000000E+00  0.00000000000E+00 -0.49695159063E+03  0.49695159063E+03  0.25500000920E-02 0. -1.
    10030    2    1    2    0    0  0.00000000000E+00  0.00000000000E+00 -0.37135505750E+03  0.62254812378E+03  0.49966147309E+03 0.  0.
        2    1    3    3  502    0 -0.20566072902E+03  0.48724833421E+02 -0.19705661570E+02  0.21227048301E+03  0.25500000920E-02 0.  1.
       -2    1    3    3    0  502  0.20566072902E+03 -0.48724833421E+02 -0.35164939593E+03  0.41027764077E+03  0.25500000920E-02 0. -1.
</event>
<event>
 5   0  0.1225989E-02  0.5013327E+03  0.7818609E-02  0.1013432E+00
       -1   -1    0    0    0  501  0.00000000000E+00  0.00000000000E+00  0.32219850519E+02  0.32219850913E+02  0.50400001928E-02 0.  1.
        1   -1    0    0  501    0  0.00000000000E+00  0.00000000000E+00 -0.19501523450E+04  0.19501523450E+04  0.50400001928E-02 0. -1.
    10030    2    1    2    0    0  0.00000000000E+00  0.00000000000E+00 -0.19179324945E+04  0.19823721960E+04  0.50133269370E+03 0.  0.
        3    1    3    3  502    0 -0.25549047836E+02  0.62552190620E+02 -0.19134631259E+04  0.19146557589E+04  0.10100000352E+00 0. -1.
       -3    1    3    3    0  502  0.25549047836E+02 -0.62552190620E+02 -0.44693685778E+01  0.67716437098E+02  0.10100000352E+00 0.  1.
</event>
<event>
 5   0  0.8012875E-03  0.4986845E+03  0.7818609E-02  0.1014123E+00
        3   -1    0    0  501    0  0.00000000000E+00  0.00000000000E+00  0.19511756787E+03  0.19511759402E+03  0.10100000352E+00 0.  1.
       -3   -1    0    0    0  501  0.00000000000E+00  0.00000000000E+00 -0.31863635819E+03  0.31863637420E+03  0.10100000352E+00 0. -1.
    10030    2    1    2    0    0  0.00000000000E+00  0.00000000000E+00 -0.12351879032E+03  0.51375396822E+03  0.49868451780E+03 0.  0.
        5    1    3    3  502    0  0.59003458356E+02  0.62201941762E+02  0.17940631102E+03  0.19889495742E+03  0.46999998093E+01 0.  1.
       -5    1    3    3    0  502 -0.59003458356E+02 -0.62201941762E+02 -0.30292510134E+03  0.31485901079E+03  0.46999998093E+01 0. -1.
</event>
<event>
 5   0  0.1209831E-02  0.4984374E+03  0.7818609E-02  0.1014188E+00
       -1   -1    0    0    0  501  0.00000000000E+00  0.00000000000E+00  0.15403217177E+03  0.15403217185E+03  0.50400001928E-02 0. -1.
        1   -1    0    0  501    0  0.00000000000E+00  0.00000000000E+00 -0.40322725497E+03  0.40322725500E+03  0.50400001928E-02 0.  1.
    10030    2    1    2    0    0  0.00000000000E+00  0.00000000000E+00 -0.24919508320E+03  0.55725942685E+03  0.49843743772E+03 0.  0.
        4    1    3    3  502    0 -0.21865871682E+02  0.22762990616E+03 -0.13836006680E+02  0.22909940747E+03  0.12699999809E+01 0. -1.
       -4    1    3    3    0  502  0.21865871682E+02 -0.22762990616E+03 -0.23535907652E+03  0.32816001938E+03  0.12699999809E+01 0.  1.
</event>
<event>
 5   0  0.1941387E-02  0.5011187E+03  0.7818609E-02  0.1013487E+00
       -2   -1    0    0    0  501  0.00000000000E+00  0.00000000000E+00  0.88620784956E+02  0.88620784993E+02  0.25500000920E-02 0. -1.
        2   -1    0    0  501    0  0.00000000000E+00  0.00000000000E+00 -0.70841165698E+03  0.70841165698E+03  0.25500000920E-02 0.  1.
    10030    2    1    2    0    0  0.00000000000E+00  0.00000000000E+00 -0.61979087202E+03  0.79703244198E+03  0.50111873695E+03 0.  0.
        4    1    3    3  502    0 -0.23555759720E+02 -0.24703976921E+03 -0.36487412571E+03  0.44126892243E+03  0.12699999809E+01 0.  1.
       -4    1    3    3    0  502  0.23555759720E+02  0.24703976921E+03 -0.25491674631E+03  0.35576351954E+03  0.12699999809E+01 0. -1.
</event>
<event>
 5   0  0.8012875E-03  0.5033925E+03  0.7818609E-02  0.1012897E+00
        3   -1    0    0  501    0  0.00000000000E+00  0.00000000000E+00  0.33012321407E+03  0.33012322952E+03  0.10100000352E+00 0. -1.
       -3   -1    0    0    0  501  0.00000000000E+00  0.00000000000E+00 -0.19190101617E+03  0.19190104275E+03  0.10100000352E+00 0.  1.
    10030    2    1    2    0    0  0.00000000000E+00  0.00000000000E+00  0.13822219790E+03  0.52202427227E+03  0.50339245609E+03 0.  0.
        2    1    3    3  502    0 -0.45361839325E+02 -0.15456816936E+03 -0.13144287226E+03  0.20790922086E+03  0.25500000920E-02 0.  1.
       -2    1    3    3    0  502  0.45361839325E+02  0.15456816936E+03  0.26966507017E+03  0.31411505140E+03  0.25500000920E-02 0. -1.
</event>
<event>
 5   0  0.1209831E-02  0.4997981E+03  0.7818609E-02  0.1013832E+00
       -1   -1    0    0    0  501  0.00000000000E+00  0.00000000000E+00  0.15050560785E+03  0.15050560793E+03  0.50400001928E-02 0.  1.
        1   -1    0    0  501    0  0.00000000000E+00  0.00000000000E+00 -0.41493168534E+03  0.41493168537E+03  0.50400001928E-02 0. -1.
    10030    2    1    2    0    0  0.00000000000E+00  0.00000000000E+00 -0.26442607749E+03  0.56543729330E+03  0.49979814145E+03 0.  0.
        4    1    3    3  502    0 -0.58143699375E+02 -0.24281722445E+03 -0.14391771989E+03  0.28819232686E+03  0.12699999809E+01 0.  1.
       -4    1    3    3    0  502  0.58143699375E+02  0.24281722445E+03 -0.12050835760E+03  0.27724496644E+03  0.12699999809E+01 0. -1.
</event>
<event>
 5   0  0.8012875E-03  0.4999805E+03  0.7818609E-02  0.1013784E+00
       -3   -1    0    0    0  501  0.00000000000E+00  0.00000000000E+00  0.17514027169E+03  0.17514030082E+03  0.10100000352E+00 0.  1.
        3   -1    0    0  501    0  0.00000000000E+00  0.00000000000E+00 -0.35682898658E+03  0.35682900088E+03  0.10100000352E+00 0. -1.
    10030    2    1    2    0    0  0.00000000000E+00  0.00000000000E+00 -0.18168871489E+03  0.53196930169E+03  0.49998054845E+03 0.  0.
        1    1    3    3  502    0 -0.16734715453E+02 -0.50710619375E+02  0.16900107921E+03  0.17723707969E+03  0.50400001928E-02 0.  1.
       -1    1    3    3    0  502  0.16734715453E+02  0.50710619375E+02 -0.35068979410E+03  0.35473222200E+03  0.50400001928E-02 0. -1.
</event>
<event>
 5   0  0.1209831E-02  0.4998670E+03  0.7818609E-02  0.1013814E+00
       -1   -1    0    0    0  501  0.00000000000E+00  0.00000000000E+00  0.16401260755E+03  0.16401260762E+03  0.50400001928E-02 0. -1.
        1   -1    0    0  501    0  0.00000000000E+00  0.00000000000E+00 -0.38086553705E+03  0.38086553708E+03  0.50400001928E-02 0.  1.
    10030    2    1    2    0    0  0.00000000000E+00  0.00000000000E+00 -0.21685292950E+03  0.54487814471E+03  0.49986698185E+03 0.  0.
        4    1    3    3  502    0  0.19654069988E+03 -0.18151191886E+02 -0.27555379001E+03  0.33895311854E+03  0.12699999809E+01 0.  1.
       -4    1    3    3    0  502 -0.19654069988E+03  0.18151191886E+02  0.58700860511E+02  0.20592502617E+03  0.12699999809E+01 0. -1.
</event>
<event>
 5   0  0.1180937E-02  0.5071588E+03  0.7818609E-02  0.1011927E+00
       -1   -1    0    0    0  501  0.00000000000E+00  0.00000000000E+00  0.41301814122E+02  0.41301814430E+02  0.50400001928E-02 0.  1.
        1   -1    0    0  501    0  0.00000000000E+00  0.00000000000E+00 -0.15568934457E+04  0.15568934457E+04  0.50400001928E-02 0. -1.
    10030    2    1    2    0    0  0.00000000000E+00  0.00000000000E+00 -0.15155916316E+04  0.15981952602E+04  0.50715884674E+03 0.  0.
        1    1    3    3  502    0 -0.13330701138E+03  0.98793315783E+02 -0.13620815817E+04  0.13721505434E+04  0.50400001928E-02 0. -1.
       -1    1    3    3    0  502  0.13330701138E+03 -0.98793315783E+02 -0.15351004989E+03  0.22604471675E+03  0.50400001928E-02 0.  1.
</event>
<event>
 5   0  0.1855407E-02  0.5002265E+03  0.7818609E-02  0.1013720E+00
       -2   -1    0    0    0  501  0.00000000000E+00  0.00000000000E+00  0.21215886130E+03  0.21215886132E+03  0.25500000920E-02 0. -1.
        2   -1    0    0  501    0  0.00000000000E+00  0.00000000000E+00 -0.29485757681E+03  0.29485757682E+03  0.25500000920E-02 0.  1.
    10030    2    1    2    0    0  0.00000000000E+00  0.00000000000E+00 -0.82698715506E+02  0.50701643814E+03  0.50022653968E+03 0.  0.
        1    1    3    3  502    0  0.24519052413E+03  0.49083463389E+02 -0.35884680242E+02  0.25261688345E+03  0.50400001928E-02 0. -1.
       -1    1    3    3    0  502 -0.24519052413E+03 -0.49083463389E+02 -0.46814035264E+02  0.25439955469E+03  0.50400001928E-02 0.  1.
</event>
<event>
 5   0  0.1225989E-02  0.5004484E+03  0.7818609E-02  0.1013662E+00
        1   -1    0    0  501    0  0.00000000000E+00  0.00000000000E+00  0.12295585701E+04  0.12295585701E+04  0.50400001928E-02 0.  1.
       -1   -1    0    0    0  501  0.00000000000E+00  0.00000000000E+00 -0.50922457415E+02  0.50922457664E+02  0.50400001928E-02 0. -1.
    10030    2    1    2    0    0  0.00000000000E+00  0.00000000000E+00  0.11786361127E+04  0.12804810278E+04  0.50044837533E+03 0.  0.
        3    1    3    3  502    0  0.22962628970E+02 -0.56327500074E+02 -0.31716812431E+02  0.68600553828E+02  0.10100000352E+00 0. -1.
       -3    1    3    3    0  502 -0.22962628970E+02  0.56327500074E+02  0.12103529252E+04  0.12118804740E+04  0.10100000352E+00 0.  1.
</event>
<event>
 5   0  0.1982847E-02  0.5022714E+03  0.7818609E-02  0.1013188E+00
       -2   -1    0    0    0  501  0.00000000000E+00  0.00000000000E+00  0.45478087172E+02  0.45478087243E+02  0.25500000920E-02 0. -1.
        2   -1    0    0  501    0  0.00000000000E+00  0.00000000000E+00 -0.13868028757E+04  0.13868028757E+04  0.25500000920E-02 0.  1.
    10030    2    1    2    0    0  0.00000000000E+00  0.00000000000E+00 -0.13413247885E+04  0.14322809629E+04  0.50227140919E+03 0.  0.
        2    1    3    3  502    0 -0.42859080398E+02 -0.50718306569E+02  0.19991399394E+02  0.69346257650E+02  0.25500000920E-02 0. -1.
       -2    1    3    3    0  502  0.42859080398E+02  0.50718306569E+02 -0.13613161879E+04  0.13629347053E+04  0.25500000920E-02 0.  1.
</event>
<event>
 5   0  0.1923706E-02  0.5003461E+03  0.7818609E-02  0.1013689E+00
       -2   -1    0    0    0  501  0.00000000000E+00  0.00000000000E+00  0.59019369281E+02  0.59019369337E+02  0.25500000920E-02 0. -1.
        2   -1    0    0  501    0  0.00000000000E+00  0.00000000000E+00 -0.10604407992E+04  0.10604407992E+04  0.25500000920E-02 0.  1.
    10030    2    1    2    0    0  0.00000000000E+00  0.00000000000E+00 -0.10014214299E+04  0.11194601686E+04  0.50034606889E+03 0.  0.
        3    1    3    3  502    0 -0.22518098822E+03 -0.61190230452E+02 -0.70251886037E+03  0.74025906353E+03  0.10100000352E+00 0.  1.
       -3    1    3    3    0  502  0.22518098822E+03  0.61190230452E+02 -0.29890256956E+03  0.37920110503E+03  0.10100000352E+00 0. -1.
</event>
<event>
 5   0  0.1227864E-02  0.5014200E+03  0.7818609E-02  0.1013409E+00
        1   -1    0    0  501    0  0.00000000000E+00  0.00000000000E+00  0.67721036535E+03  0.67721036537E+03  0.50400001928E-02 0.  1.
       -1   -1    0    0    0  501  0.00000000000E+00  0.00000000000E+00 -0.92815325414E+02  0.92815325551E+02  0.50400001928E-02 0. -1.
    10030    2    1    2    0    0  0.00000000000E+00  0.00000000000E+00  0.58439503994E+03  0.77002569092E+03  0.50141998562E+03 0.  0.
        5    1    3    3  502    0 -0.17828937637E+03 -0.31521189881E+02  0.25974569789E+02  0.18296845469E+03  0.46999998093E+01 0. -1.
       -5    1    3    3    0  502  0.17828937637E+03  0.31521189881E+02  0.55842047015E+03  0.58705723624E+03  0.46999998093E+01 0.  1.
</event>
<event>
 5   0  0.1227864E-02  0.5001270E+03  0.7818609E-02  0.1013746E+00
       -1   -1    0    0    0  501  0.00000000000E+00  0.00000000000E+00  0.16651608395E+03  0.16651608403E+03  0.50400001928E-02 0. -1.
        1   -1    0    0  501    0  0.00000000000E+00  0.00000000000E+00 -0.37552983477E+03  0.37552983481E+03  0.50400001928E-02 0.  1.
    10030    2    1    2    0    0  0.00000000000E+00  0.00000000000E+00 -0.20901375082E+03  0.54204591883E+03  0.50012701396E+03 0.  0.
        5    1    3    3  502    0 -0.22327363115E+03  0.43948398090E+01  0.17340511748E+02  0.22403841709E+03  0.46999998093E+01 0. -1.
       -5    1    3    3    0  502  0.22327363115E+03 -0.43948398090E+01 -0.22635426257E+03  0.31800750175E+03  0.46999998093E+01 0.  1.
</event>
<event>
 5   0  0.1941387E-02  0.5001391E+03  0.7818609E-02  0.1013743E+00
       -2   -1    0    0    0  501  0.00000000000E+00  0.00000000000E+00  0.48049427354E+02  0.48049427422E+02  0.25500000920E-02 0.  1.
        2   -1    0    0  501    0  0.00000000000E+00  0.00000000000E+00 -0.13014676445E+04  0.13014676445E+04  0.25500000920E-02 0. -1.
    10030    2    1    2    0    0  0.00000000000E+00  0.00000000000E+00 -0.12534182171E+04  0.13495170719E+04  0.50013908099E+03 0.  0.
        4    1    3    3  502    0  0.60707061129E+02  0.12883747474E+03 -0.11813276305E+04  0.11898827781E+04  0.12699999809E+01 0. -1.
       -4    1    3    3    0  502 -0.60707061129E+02 -0.12883747474E+03 -0.72090586586E+02  0.15963429375E+03  0.12699999809E+01 0.  1.
</event>
<event>
 5   0  0.1941387E-02  0.4996082E+03  0.7818609E-02  0.1013881E+00
        2   -1    0    0  501    0  0.00000000000E+00  0.00000000000E+00  0.30098100769E+03  0.30098100770E+03  0.25500000920E-02 0. -1.
       -2   -1    0    0    0  501  0.00000000000E+00  0.00000000000E+00 -0.20732897868E+03  0.20732897870E+03  0.25500000920E-02 0.  1.
    10030    2    1    2    0    0  0.00000000000E+00  0.00000000000E+00  0.93652029007E+02  0.50830998640E+03  0.49960818622E+03 0.  0.
        4    1    3    3  502    0 -0.15890589798E+03  0.87990076943E+02 -0.12764586774E+03  0.22200995137E+03  0.12699999809E+01 0.  1.
       -4    1    3    3    0  502  0.15890589798E+03 -0.87990076943E+02  0.22129789675E+03  0.28630003503E+03  0.12699999809E+01 0. -1.
</event>
<event>
 5   0  0.1982847E-02  0.4999535E+03  0.7818609E-02  0.1013791E+00
       -2   -1    0    0    0  501  0.00000000000E+00  0.00000000000E+00  0.43212355646E+02  0.43212355722E+02  0.25500000920E-02 0. -1.
        2   -1    0    0  501    0  0.00000000000E+00  0.00000000000E+00 -0.14460763872E+04  0.14460763872E+04  0.25500000920E-02 0.  1.
    10030    2    1    2    0    0  0.00000000000E+00  0.00000000000E+00 -0.14028640315E+04  0.14892887429E+04  0.49995346660E+03 0.  0.
        2    1    3    3  502    0  0.11102051195E+03 -0.51125488457E+02 -0.51870920536E+02  0.13277786731E+03  0.25500000920E-02 0. -1.
       -2    1    3    3    0  502 -0.11102051195E+03  0.51125488457E+02 -0.13509931110E+04  0.13565108756E+04  0.25500000920E-02 0.  1.
</event>
<event>
 5   0  0.1225989E-02  0.5020309E+03  0.7818609E-02  0.1013250E+00
        1   -1    0    0  501    0  0.00000000000E+00  0.00000000000E+00  0.70014104762E+02  0.70014104943E+02  0.50400001928E-02 0.  1.
       -1   -1    0    0    0  501  0.00000000000E+00  0.00000000000E+00 -0.89994362998E+03  0.89994363000E+03  0.50400001928E-02 0. -1.
    10030    2    1    2    0    0  0.00000000000E+00  0.00000000000E+00 -0.82992952522E+03  0.96995773494E+03  0.50203086632E+03 0.  0.
        3    1    3    3  502    0 -0.21409499725E+03  0.20058808837E+02 -0.66516355935E+03  0.69905764751E+03  0.10100000352E+00 0. -1.
       -3    1    3    3    0  502  0.21409499725E+03 -0.20058808837E+02 -0.16476596587E+03  0.27090008743E+03  0.10100000352E+00 0.  1.
</event>
<event>
 5   0  0.1923706E-02  0.4986900E+03  0.7818609E-02  0.1014121E+00
       -2   -1    0    0    0  501  0.00000000000E+00  0.00000000000E+00  0.69541807879E+02  0.69541807926E+02  0.25500000920E-02 0.  1.
        2   -1    0    0  501    0  0.00000000000E+00  0.00000000000E+00 -0.89403655492E+03  0.89403655492E+03  0.25500000920E-02 0. -1.
    10030    2    1    2    0    0  0.00000000000E+00  0.00000000000E+00 -0.82449474704E+03  0.96357836285E+03  0.49868995724E+03 0.  0.
        3    1    3    3  502    0 -0.11827608552E+03  0.96174414707E+02 -0.79350786982E+03  0.80801825482E+03  0.10100000352E+00 0. -1.
       -3    1    3    3    0  502  0.11827608552E+03 -0.96174414707E+02 -0.30986877216E+02  0.15556010803E+03  0.10100000352E+00 0.  1.
</event>
<event>
 5   0  0.1227864E-02  0.5005029E+03  0.7818609E-02  0.1013648E+00
        1   -1    0    0  501    0  0.00000000000E+00  0.00000000000E+00  0.26700066287E+03  0.26700066291E+03  0.50400001928E-02 0. -1.
       -1   -1    0    0    0  501  0.00000000000E+00  0.00000000000E+00 -0.23455295076E+03  0.23455295082E+03  0.50400001928E-02 0.  1.
    10030    2    1    2    0    0  0.00000000000E+00  0.00000000000E+00  0.32447712104E+02  0.50155361373E+03  0.50050292049E+03 0.  0.
        5    1    3    3  502    0 -0.44478767490E+01  0.55673400398E+02  0.26063008054E+03  0.26658852189E+03  0.46999998093E+01 0. -1.
       -5    1    3    3    0  502  0.44478767490E+01 -0.55673400398E+02 -0.22818236844E+03  0.23496509184E+03  0.46999998093E+01 0.  1.
</event>
<event>
 5   0  0.1225989E-02  0.4989640E+03  0.7818609E-02  0.1014050E+00
        1   -1    0    0  501    0  0.00000000000E+00  0.00000000000E+00  0.13461371079E+04  0.13461371079E+04  0.50400001928E-02 0.  1.
       -1   -1    0    0    0  501  0.00000000000E+00  0.00000000000E+00 -0.46236950210E+02  0.46236950484E+02  0.50400001928E-02 0. -1.
    10030    2    1    2    0    0  0.00000000000E+00  0.00000000000E+00  0.12999001577E+04  0.13923740584E+04  0.49896402528E+03 0.  0.
        3    1    3    3  502    0 -0.10363800955E+03 -0.24092468980E+02  0.20254270601E+02  0.10831218659E+03  0.10100000352E+00 0. -1.
       -3    1    3    3    0  502  0.10363800955E+03  0.24092468980E+02  0.12796458871E+04  0.12840618718E+04  0.10100000352E+00 0.  1.
</event>
<event>
 5   0  0.1227864E-02  0.4976405E+03  0.7818609E-02  0.1014397E+00
        1   -1    0    0  501    0  0.00000000000E+00  0.00000000000E+00  0.23665208633E+03  0.23665208639E+03  0.50400001928E-02 0.  1.
       -1   -1    0    0    0  501  0.00000000000E+00  0.00000000000E+00 -0.26161402642E+03  0.26161402647E+03  0.50400001928E-02 0. -1.
    10030    2    1    2    0    0  0.00000000000E+00  0.00000000000E+00 -0.24961940090E+02  0.49826611286E+03  0.49764045331E+03 0.  0.
        5    1    3    3  502    0 -0.14498908433E+03  0.19702050581E+03  0.32858418402E+02  0.24686166155E+03  0.46999998093E+01 0.  1.
       -5    1    3    3    0  502  0.14498908433E+03 -0.19702050581E+03 -0.57820358492E+02  0.25140445131E+03  0.46999998093E+01 0. -1.
</event>
<event>
 5   0  0.1941387E-02  0.5012177E+03  0.7818609E-02  0.1013462E+00
        2   -1    0    0  501    0  0.00000000000E+00  0.00000000000E+00  0.43408221749E+03  0.43408221750E+03  0.25500000920E-02 0.  1.
       -2   -1    0    0    0  501  0.00000000000E+00  0.00000000000E+00 -0.14468409499E+03  0.14468409502E+03  0.25500000920E-02 0. -1.
    10030    2    1    2    0    0  0.00000000000E+00  0.00000000000E+00  0.28939812250E+03  0.57876631251E+03  0.50121768843E+03 0.  0.
        4    1    3    3  502    0 -0.31758961167E+02  0.24797837038E+03  0.16474189856E+03  0.29940509320E+03  0.12699999809E+01 0. -1.
       -4    1    3    3    0  502  0.31758961167E+02 -0.24797837038E+03  0.12465622394E+03  0.27936121931E+03  0.12699999809E+01 0.  1.
</event>
<event>
 5   0  0.1217270E-02  0.5002721E+03  0.7818609E-02  0.1013708E+00
       -1   -1    0    0    0  501  0.00000000000E+00  0.00000000000E+00  0.33636725428E+03  0.33636725432E+03  0.50400001928E-02 0. -1.
        1   -1    0    0  501    0  0.00000000000E+00  0.00000000000E+00 -0.18601107777E+03  0.18601107784E+03  0.50400001928E-02 0.  1.
    10030    2    1    2    0    0  0.00000000000E+00  0.00000000000E+00  0.15035617651E+03  0.52237833216E+03  0.50027206807E+03 0.  0.
        2    1    3    3  502    0 -0.10461774219E+03  0.20490926250E+03 -0.27319304780E+02  0.23168733729E+03  0.25500000920E-02 0.  1.
       -2    1    3    3    0  502  0.10461774219E+03 -0.20490926250E+03  0.17767548129E+03  0.29069099487E+03  0.25500000920E-02 0. -1.
</event>
<event>
 5   0  0.1225989E-02  0.4999025E+03  0.7818609E-02  0.1013804E+00
       -1   -1    0    0    0  501  0.00000000000E+00  0.00000000000E+00  0.91218355881E+02  0.91218356020E+02  0.50400001928E-02 0. -1.
        1   -1    0    0  501    0  0.00000000000E+00  0.00000000000E+00 -0.68490187311E+03  0.68490187313E+03  0.50400001928E-02 0.  1.
    10030    2    1    2    0    0  0.00000000000E+00  0.00000000000E+00 -0.59368351723E+03  0.77612022915E+03  0.49990248195E+03 0.  0.
        3    1    3    3  502    0  0.15853287716E+03 -0.38637795228E+02 -0.59080204074E+03  0.61292137661E+03  0.10100000352E+00 0.  1.
       -3    1    3    3    0  502 -0.15853287716E+03  0.38637795228E+02 -0.28814764888E+01  0.16319885254E+03  0.10100000352E+00 0. -1.
</event>
<event>
 5   0  0.1982847E-02  0.4998133E+03  0.7818609E-02  0.1013828E+00
       -2   -1    0    0    0  501  0.00000000000E+00  0.00000000000E+00  0.95204944357E+02  0.95204944391E+02  0.25500000920E-02 0.  1.
        2   -1    0    0  501    0  0.00000000000E+00  0.00000000000E+00 -0.65598835616E+03  0.65598835616E+03  0.25500000920E-02 0. -1.
    10030    2    1    2    0    0  0.00000000000E+00  0.00000000000E+00 -0.56078341180E+03  0.75119330055E+03  0.49981330499E+03 0.  0.
        2    1    3    3  502    0 -0.13260206043E+03  0.43783705875E+02  0.31095865909E+02  0.14306387459E+03  0.25500000920E-02 0.  1.
       -2    1    3    3    0  502  0.13260206043E+03 -0.43783705875E+02 -0.59187927771E+03  0.60812942596E+03  0.25500000920E-02 0. -1.
</event>
<event>
 5   0  0.1225989E-02  0.5004052E+03  0.7818609E-02  0.1013673E+00
        1   -1    0    0  501    0  0.00000000000E+00  0.00000000000E+00  0.60133384652E+03  0.60133384654E+03  0.50400001928E-02 0. -1.
       -1   -1    0    0    0  501  0.00000000000E+00  0.00000000000E+00 -0.10410413596E+03  0.10410413608E+03  0.50400001928E-02 0.  1.
    10030    2    1    2    0    0  0.00000000000E+00  0.00000000000E+00  0.49722971056E+03  0.70543798262E+03  0.50040519807E+03 0.  0.
        3    1    3    3  502    0 -0.12205483832E+02  0.14493479550E+03  0.53561340951E+03  0.55501063362E+03  0.10100000352E+00 0. -1.
       -3    1    3    3    0  502  0.12205483832E+02 -0.14493479550E+03 -0.38383698946E+02  0.15042734900E+03  0.10100000352E+00 0.  1.
</event>
<event>
 5   0  0.1941387E-02  0.5006783E+03  0.7818609E-02  0.1013602E+00
       -2   -1    0    0    0  501  0.00000000000E+00  0.00000000000E+00  0.93983316390E+03  0.93983316391E+03  0.25500000920E-02 0. -1.
        2   -1    0    0  501    0  0.00000000000E+00  0.00000000000E+00 -0.66681717616E+02  0.66681717664E+02  0.25500000920E-02 0.  1.
    10030    2    1    2    0    0  0.00000000000E+00  0.00000000000E+00  0.87315144629E+03  0.10065148816E+04  0.50067829858E+03 0.  0.
        4    1    3    3  502    0 -0.24615856445E+03  0.22938311283E+02  0.51566706172E+03  0.57186916023E+03  0.12699999809E+01 0.  1.
       -4    1    3    3    0  502  0.24615856445E+03 -0.22938311283E+02  0.35748438457E+03  0.43464572135E+03  0.12699999809E+01 0. -1.
</event>
<event>
 5   0  0.1855407E-02  0.4996549E+03  0.7818609E-02  0.1013869E+00
        2   -1    0    0  501    0  0.00000000000E+00  0.00000000000E+00  0.58386849666E+03  0.58386849667E+03  0.25500000920E-02 0.  1.
       -2   -1    0    0    0  501  0.00000000000E+00  0.00000000000E+00 -0.10689693222E+03  0.10689693225E+03  0.25500000920E-02 0. -1.
    10030    2    1    2    0    0  0.00000000000E+00  0.00000000000E+00  0.47697156445E+03  0.69076542892E+03  0.49965488539E+03 0.  0.
        1    1    3    3  502    0  0.51727922269E+02 -0.48483391399E+02  0.56966912125E+03  0.57406386832E+03  0.50400001928E-02 0.  1.
       -1    1    3    3    0  502 -0.51727922269E+02  0.48483391399E+02 -0.92697556800E+02  0.11670156060E+03  0.50400001928E-02 0. -1.
</event>
<event>
 5   0  0.1855407E-02  0.5008725E+03  0.7818609E-02  0.1013551E+00
        2   -1    0    0  501    0  0.00000000000E+00  0.00000000000E+00  0.20901881573E+03  0.20901881575E+03  0.25500000920E-02 0. -1.
       -2   -1    0    0    0  501  0.00000000000E+00  0.00000000000E+00 -0.30006064366E+03  0.30006064367E+03  0.25500000920E-02 0.  1.
    10030    2    1    2    0    0  0.00000000000E+00  0.00000000000E+00 -0.91041827926E+02  0.50907945942E+03  0.50087252028E+03 0.  0.
        1    1    3    3  502    0 -0.40567920984E+02  0.19669677441E+03 -0.19758160654E+03  0.28173368372E+03  0.50400001928E-02 0.  1.
       -1    1    3    3    0  502  0.40567920984E+02 -0.19669677441E+03  0.10653977861E+03  0.22734577570E+03  0.50400001928E-02 0. -1.
</event>
<event>
 5   0  0.1923706E-02  0.4989610E+03  0.7818609E-02  0.1014050E+00
        2   -1    0    0  501    0  0.00000000000E+00  0.00000000000E+00  0.34983246922E+03  0.34983246923E+03  0.25500000920E-02 0. -1.
       -2   -1    0    0    0  501  0.00000000000E+00  0.00000000000E+00 -0.17791519352E+03  0.17791519353E+03  0.25500000920E-02 0.  1.
    10030    2    1    2    0    0  0.00000000000E+00  0.00000000000E+00  0.17191727570E+03  0.52774766276E+03  0.49896096628E+03 0.  0.
        3    1    3    3  502    0  0.11985573955E+03  0.87674092875E+02 -0.12607749215E+03  0.19480166604E+03  0.10100000352E+00 0.  1.
       -3    1    3    3    0  502 -0.11985573955E+03 -0.87674092875E+02  0.29799476785E+03  0.33294599672E+03  0.10100000352E+00 0. -1.
</event>
<event>
 5   0  0.1967813E-02  0.4994772E+03  0.7818609E-02  0.1013915E+00
        2   -1    0    0  501    0  0.00000000000E+00  0.00000000000E+00  0.31675084719E+03  0.31675084720E+03  0.25500000920E-02 0. -1.
       -2   -1    0    0    0  501  0.00000000000E+00  0.00000000000E+00 -0.19690353237E+03  0.19690353239E+03  0.25500000920E-02 0.  1.
    10030    2    1    2    0    0  0.00000000000E+00  0.00000000000E+00  0.11984731482E+03  0.51365437959E+03  0.49947716945E+03 0.  0.
        5    1    3    3  502    0 -0.89683166815E+02  0.24897969040E+01 -0.17970970132E+03  0.20091524642E+03  0.46999998093E+01 0.  1.
       -5    1    3    3    0  502  0.89683166815E+02 -0.24897969040E+01  0.29955701614E+03  0.31273913317E+03  0.46999998093E+01 0. -1.
</event>
<event>
 5   0  0.8012875E-03  0.4997596E+03  0.7818609E-02  0.1013842E+00
        3   -1    0    0  501    0  0.00000000000E+00  0.00000000000E+00  0.30653973352E+03  0.30653975016E+03  0.10100000352E+00 0. -1.
       -3   -1    0    0    0  501  0.00000000000E+00  0.00000000000E+00 -0.20369270909E+03  0.20369273413E+03  0.10100000352E+00 0.  1.
    10030    2    1    2    0    0  0.00000000000E+00  0.00000000000E+00  0.10284702444E+03  0.51023248429E+03  0.49975961980E+03 0.  0.
        3    1    3    3  502    0  0.46285425588E+02  0.22989217360E+03 -0.36681821345E+02  0.23735694286E+03  0.10100000352E+00 0.  1.
       -3    1    3    3    0  502 -0.46285425588E+02 -0.22989217360E+03  0.13952884578E+03  0.27287554143E+03  0.10100000352E+00 0. -1.
</event>
<event>
 5   0  0.1225989E-02  0.4985789E+03  0.7818609E-02  0.1014151E+00
        1   -1    0    0  501    0  0.00000000000E+00  0.00000000000E+00  0.65246775819E+03  0.65246775821E+03  0.50400001928E-02 0. -1.
       -1   -1    0    0    0  501  0.00000000000E+00  0.00000000000E+00 -0.95246427051E+02  0.95246427184E+02  0.50400001928E-02 0.  1.
    10030    2    1    2    0    0  0.00000000000E+00  0.00000000000E+00  0.55722133114E+03  0.74771418540E+03  0.49857887156E+03 0.  0.
        3    1    3    3  502    0 -0.16181756663E+03  0.54486815860E+02  0.62134816261E+01  0.17085770550E+03  0.10100000352E+00 0.  1.
       -3    1    3    3    0  502  0.16181756663E+03 -0.54486815860E+02  0.55100784952E+03  0.57685647990E+03  0.10100000352E+00 0. -1.
</event>
<event>
 5   0  0.1209831E-02  0.5005685E+03  0.7818609E-02  0.1013631E+00
       -1   -1    0    0    0  501  0.00000000000E+00  0.00000000000E+00  0.86659522999E+02  0.86659523146E+02  0.50400001928E-02 0.  1.
        1   -1    0    0  501    0  0.00000000000E+00  0.00000000000E+00 -0.72285427489E+03  0.72285427491E+03  0.50400001928E-02 0. -1.
    10030    2    1    2    0    0  0.00000000000E+00  0.00000000000E+00 -0.63619475189E+03  0.80951379805E+03  0.50056850371E+03 0.  0.
        4    1    3    3  502    0 -0.14381001548E+03  0.90079191386E+02 -0.20582917943E+02  0.17094107371E+03  0.12699999809E+01 0.  1.
       -4    1    3    3    0  502  0.14381001548E+03 -0.90079191386E+02 -0.61561183395E+03  0.63857272434E+03  0.12699999809E+01 0. -1.
</event>
<event>
 5   0  0.1941387E-02  0.4992379E+03  0.7818609E-02  0.1013978E+00
       -2   -1    0    0    0  501  0.00000000000E+00  0.00000000000E+00  0.21248164499E+03  0.21248164501E+03  0.25500000920E-02 0.  1.
        2   -1    0    0  501    0  0.00000000000E+00  0.00000000000E+00 -0.29324708290E+03  0.29324708292E+03  0.25500000920E-02 0. -1.
    10030    2    1    2    0    0  0.00000000000E+00  0.00000000000E+00 -0.80765437912E+02  0.50572872792E+03  0.49923790950E+03 0.  0.
        4    1    3    3  502    0 -0.44451812850E+01  0.13390434690E+03 -0.25373409061E+03  0.28693681429E+03  0.12699999809E+01 0. -1.
       -4    1    3    3    0  502  0.44451812850E+01 -0.13390434690E+03  0.17296865270E+03  0.21879191363E+03  0.12699999809E+01 0.  1.
</event>
<event>
 5   0  0.1180937E-02  0.4996321E+03  0.7818609E-02  0.1013875E+00
       -1   -1    0    0    0  501  0.00000000000E+00  0.00000000000E+00  0.28216044570E+03  0.28216044574E+03  0.50400001928E-02 0.  1.
        1   -1    0    0  501    0  0.00000000000E+00  0.00000000000E+00 -0.22117934247E+03  0.22117934253E+03  0.50400001928E-02 0. -1.
    10030    2    1    2    0    0  0.00000000000E+00  0.00000000000E+00  0.60981103224E+02  0.50333978827E+03  0.49963211216E+03 0.  0.
        1    1    3    3  502    0 -0.13313849704E+03  0.63160815664E+02 -0.17273125742E+03  0.22704897125E+03  0.50400001928E-02 0. -1.
       -1    1    3    3    0  502  0.13313849704E+03 -0.63160815664E+02  0.23371236065E+03  0.27629081702E+03  0.50400001928E-02 0.  1.
</event>
<event>
 5   0  0.1217270E-02  0.4994789E+03  0.7818609E-02  0.1013915E+00
       -1   -1    0    0    0  501  0.00000000000E+00  0.00000000000E+00  0.19342816276E+03  0.19342816283E+03  0.50400001928E-02 0.  1.
        1   -1    0    0  501    0  0.00000000000E+00  0.00000000000E+00 -0.32244416431E+03  0.32244416435E+03  0.50400001928E-02 0. -1.
    10030    2    1    2    0    0  0.00000000000E+00  0.00000000000E+00 -0.12901600155E+03  0.51587232717E+03  0.49947885770E+03 0.  0.
        2    1    3    3  502    0 -0.24095049427E+03 -0.65647014788E+02 -0.66329715158E+02  0.25839176140E+03  0.25500000920E-02 0. -1.
       -2    1    3    3    0  502  0.24095049427E+03  0.65647014788E+02 -0.62686286388E+02  0.25748056577E+03  0.25500000920E-02 0.  1.
</event>
<event>
 5   0  0.1225989E-02  0.4996927E+03  0.7818609E-02  0.1013859E+00
       -1   -1    0    0    0  501  0.00000000000E+00  0.00000000000E+00  0.41249153073E+03  0.41249153076E+03  0.50400001928E-02 0.  1.
        1   -1    0    0  501    0  0.00000000000E+00  0.00000000000E+00 -0.15133210286E+03  0.15133210294E+03  0.50400001928E-02 0. -1.
    10030    2    1    2    0    0  0.00000000000E+00  0.00000000000E+00  0.26115942787E+03  0.56382363370E+03  0.49969274876E+03 0.  0.
        3    1    3    3  502    0  0.13651412589E+03 -0.30156494190E+02  0.36422437829E+03  0.39013450072E+03  0.10100000352E+00 0.  1.
       -3    1    3    3    0  502 -0.13651412589E+03  0.30156494190E+02 -0.10306495042E+03  0.17368913298E+03  0.10100000352E+00 0. -1.
</event>
<event>
 5   0  0.1180937E-02  0.5005642E+03  0.7818609E-02  0.1013632E+00
       -1   -1    0    0    0  501  0.00000000000E+00  0.00000000000E+00  0.11934492864E+03  0.11934492875E+03  0.50400001928E-02 0.  1.
        1   -1    0    0  501    0  0.00000000000E+00  0.00000000000E+00 -0.52487474121E+03  0.52487474124E+03  0.50400001928E-02 0. -1.
    10030    2    1    2    0    0  0.00000000000E+00  0.00000000000E+00 -0.40552981257E+03  0.64421966998E+03  0.50056423595E+03 0.  0.
        1    1    3    3  502    0 -0.75390234583E+02 -0.54184712767E+02  0.96363291678E+02  0.13381163842E+03  0.50400001928E-02 0.  1.
       -1    1    3    3    0  502  0.75390234583E+02  0.54184712767E+02 -0.50189310425E+03  0.51040803156E+03  0.50400001928E-02 0. -1.
</event>
<event>
 5   0  0.1227864E-02  0.4983628E+03  0.7818609E-02  0.1014207E+00
       -1   -1    0    0    0  501  0.00000000000E+00  0.00000000000E+00  0.67100124469E+03  0.67100124470E+03  0.50400001928E-02 0. -1.
        1   -1    0    0  501    0  0.00000000000E+00  0.00000000000E+00 -0.92535388622E+02  0.92535388759E+02  0.50400001928E-02 0.  1.
    10030    2    1    2    0    0  0.00000000000E+00  0.00000000000E+00  0.57846585606E+03  0.76353663346E+03  0.49836276347E+03 0.  0.
        5    1    3    3  502    0 -0.19621116636E+03 -0.15341020507E+03  0.29839454219E+03  0.38870928163E+03  0.46999998093E+01 0. -1.
       -5    1    3    3    0  502  0.19621116636E+03  0.15341020507E+03  0.28007131388E+03  0.37482735183E+03  0.46999998093E+01 0.  1.
</event>
<event>
 5   0  0.8012875E-03  0.5024734E+03  0.7818609E-02  0.1013135E+00
       -4   -1    0    0    0  501  0.00000000000E+00  0.00000000000E+00  0.71743424845E+02  0.71754664715E+02  0.12699999809E+01 0. -1.
        4   -1    0    0  501    0  0.00000000000E+00  0.00000000000E+00 -0.87971958237E+03  0.87972049908E+03  0.12699999809E+01 0.  1.
    10030    2    1    2    0    0  0.00000000000E+00  0.00000000000E+00 -0.80797615753E+03  0.95147516380E+03  0.50247339849E+03 0.  0.
        1    1    3    3  502    0 -0.14043848835E+03 -0.57984700445E+02 -0.25107288020E+02  0.15399860529E+03  0.50400001928E-02 0. -1.
       -1    1    3    3    0  502  0.14043848835E+03  0.57984700445E+02 -0.78286886951E+03  0.79747655850E+03  0.50400001928E-02 0.  1.
</event>
<event>
 5   0  0.1227864E-02  0.4996828E+03  0.7818609E-02  0.1013862E+00
       -1   -1    0    0    0  501  0.00000000000E+00  0.00000000000E+00  0.11751920180E+03  0.11751920191E+03  0.50400001928E-02 0.  1.
        1   -1    0    0  501    0  0.00000000000E+00  0.00000000000E+00 -0.53115334400E+03  0.53115334402E+03  0.50400001928E-02 0. -1.
    10030    2    1    2    0    0  0.00000000000E+00  0.00000000000E+00 -0.41363414219E+03  0.64867254593E+03  0.49968276762E+03 0.  0.
        5    1    3    3  502    0 -0.20347533161E+03 -0.90082953987E+02 -0.59479335358E+02  0.23038452749E+03  0.46999998093E+01 0.  1.
       -5    1    3    3    0  502  0.20347533161E+03  0.90082953987E+02 -0.35415480684E+03  0.41828801845E+03  0.46999998093E+01 0. -1.
</event>
<event>
 5   0  0.8012875E-03  0.4989464E+03  0.7818609E-02  0.1014054E+00
       -4   -1    0    0    0  501  0.00000000000E+00  0.00000000000E+00  0.79924881340E+03  0.79924982241E+03  0.12699999809E+01 0. -1.
        4   -1    0    0  501    0  0.00000000000E+00  0.00000000000E+00 -0.77862979186E+02  0.77873335794E+02  0.12699999809E+01 0.  1.
    10030    2    1    2    0    0  0.00000000000E+00  0.00000000000E+00  0.72138583421E+03  0.87712315820E+03  0.49894640278E+03 0.  0.
        2    1    3    3  502    0 -0.16429072445E+03  0.91917145162E+02  0.72921846771E+02  0.20188560983E+03  0.25500000920E-02 0.  1.
       -2    1    3    3    0  502  0.16429072445E+03 -0.91917145162E+02  0.64846398744E+03  0.67523754837E+03  0.25500000920E-02 0. -1.
</event>
<event>
 5   0  0.1967813E-02  0.4992379E+03  0.7818609E-02  0.1013978E+00
       -2   -1    0    0    0  501  0.00000000000E+00  0.00000000000E+00  0.11401003311E+03  0.11401003314E+03  0.25500000920E-02 0.  1.
        2   -1    0    0  501    0  0.00000000000E+00  0.00000000000E+00 -0.54652749894E+03  0.54652749894E+03  0.25500000920E-02 0. -1.
    10030    2    1    2    0    0  0.00000000000E+00  0.00000000000E+00 -0.43251746582E+03  0.66053753209E+03  0.49923789224E+03 0.  0.
        5    1    3    3  502    0  0.20884837214E+03 -0.91996508255E+02 -0.82590262554E+02  0.24274315962E+03  0.46999998093E+01 0.  1.
       -5    1    3    3    0  502 -0.20884837214E+03  0.91996508255E+02 -0.34992720327E+03  0.41779437246E+03  0.46999998093E+01 0. -1.
</event>
<event>
 5   0  0.1180937E-02  0.5001033E+03  0.7818609E-02  0.1013752E+00
        1   -1    0    0  501    0  0.00000000000E+00  0.00000000000E+00  0.16570858334E+04  0.16570858334E+04  0.50400001928E-02 0. -1.
       -1   -1    0    0    0  501  0.00000000000E+00  0.00000000000E+00 -0.37732398935E+02  0.37732399272E+02  0.50400001928E-02 0.  1.
    10030    2    1    2    0    0  0.00000000000E+00  0.00000000000E+00  0.16193534345E+04  0.16948182327E+04  0.50010328544E+03 0.  0.
        1    1    3    3  502    0  0.15265378462E+03 -0.18138482550E+03  0.54021490263E+03  0.58994556862E+03  0.50400001928E-02 0.  1.
       -1    1    3    3    0  502 -0.15265378462E+03  0.18138482550E+03  0.10791385318E+04  0.11048726641E+04  0.50400001928E-02 0. -1.
</event>
<event>
 5   0  0.1967813E-02  0.4988250E+03  0.7818609E-02  0.1014086E+00
       -2   -1    0    0    0  501  0.00000000000E+00  0.00000000000E+00  0.93543681883E+03  0.93543681883E+03  0.25500000920E-02 0.  1.
        2   -1    0    0  501    0  0.00000000000E+00  0.00000000000E+00 -0.66500059104E+02  0.66500059153E+02  0.25500000920E-02 0. -1.
    10030    2    1    2    0    0  0.00000000000E+00  0.00000000000E+00  0.86893675973E+03  0.10019368780E+04  0.49882503452E+03 0.  0.
        5    1    3    3  502    0 -0.17641332149E+03  0.76204077348E+02  0.75367553657E+03  0.77780307651E+03  0.46999998093E+01 0.  1.
       -5    1    3    3    0  502  0.17641332149E+03 -0.76204077348E+02  0.11526122315E+03  0.22413380148E+03  0.46999998093E+01 0. -1.
</event>
<event>
 5   0  0.1225989E-02  0.5000684E+03  0.7818609E-02  0.1013761E+00
       -1   -1    0    0    0  501  0.00000000000E+00  0.00000000000E+00  0.76351186658E+03  0.76351186660E+03  0.50400001928E-02 0.  1.
        1   -1    0    0  501    0  0.00000000000E+00  0.00000000000E+00 -0.81880965362E+02  0.81880965517E+02  0.50400001928E-02 0. -1.
    10030    2    1    2    0    0  0.00000000000E+00  0.00000000000E+00  0.68163090122E+03  0.84539283211E+03  0.50006835042E+03 0.  0.
        3    1    3    3  502    0 -0.29943312488E+02  0.24021923299E+02  0.75850021561E+03  0.75947102779E+03  0.10100000352E+00 0.  1.
       -3    1    3    3    0  502  0.29943312488E+02 -0.24021923299E+02 -0.76869314397E+02  0.85921804326E+02  0.10100000352E+00 0. -1.
</event>
<event>
 5   0  0.1941387E-02  0.5003980E+03  0.7818609E-02  0.1013675E+00
        2   -1    0    0  501    0  0.00000000000E+00  0.00000000000E+00  0.27889604646E+03  0.27889604647E+03  0.25500000920E-02 0. -1.
       -2   -1    0    0    0  501  0.00000000000E+00  0.00000000000E+00 -0.22445476691E+03  0.22445476693E+03  0.25500000920E-02 0.  1.
    10030    2    1    2    0    0  0.00000000000E+00  0.00000000000E+00  0.54441279542E+02  0.50335081340E+03  0.50039803000E+03 0.  0.
        4    1    3    3  502    0 -0.18333941523E+03  0.11431994382E+03  0.15412189566E+03  0.26540075801E+03  0.12699999809E+01 0. -1.
       -4    1    3    3    0  502  0.18333941523E+03 -0.11431994382E+03 -0.99680616118E+02  0.23795005539E+03  0.12699999809E+01 0.  1.
</event>
<event>
 5   0  0.1217270E-02  0.5006322E+03  0.7818609E-02  0.1013614E+00
       -1   -1    0    0    0  501  0.00000000000E+00  0.00000000000E+00  0.12441968216E+03  0.12441968226E+03  0.50400001928E-02 0. -1.
        1   -1    0    0  501    0  0.00000000000E+00  0.00000000000E+00 -0.50360327258E+03  0.50360327260E+03  0.50400001928E-02 0.  1.
    10030    2    1    2    0    0  0.00000000000E+00  0.00000000000E+00 -0.37918359042E+03  0.62802295486E+03  0.50063223687E+03 0.  0.
        2    1    3    3  502    0  0.18505850816E+03 -0.16853680501E+03 -0.19287576293E+03  0.31599424997E+03  0.25500000920E-02 0.  1.
       -2    1    3    3    0  502 -0.18505850816E+03  0.16853680501E+03 -0.18630782749E+03  0.31202870489E+03  0.25500000920E-02 0. -1.
</event>
<event>
 5   0  0.1941387E-02  0.5014712E+03  0.7818609E-02  0.1013396E+00
        2   -1    0    0  501    0  0.00000000000E+00  0.00000000000E+00  0.91502921300E+03  0.91502921300E+03  0.25500000920E-02 0. -1.
       -2   -1    0    0    0  501  0.00000000000E+00  0.00000000000E+00 -0.68706369301E+02  0.68706369348E+02  0.25500000920E-02 0.  1.
    10030    2    1    2    0    0  0.00000000000E+00  0.00000000000E+00  0.84632284370E+03  0.98373558235E+03  0.50147117586E+03 0.  0.
        4    1    3    3  502    0 -0.21529933200E+03 -0.10962926994E+03  0.29164938302E+03  0.37872596254E+03  0.12699999809E+01 0.  1.
       -4    1    3    3    0  502  0.21529933200E+03  0.10962926994E+03  0.55467346068E+03  0.60500961981E+03  0.12699999809E+01 0. -1.
</event>
<event>
 5   0  0.1982847E-02  0.5002151E+03  0.7818609E-02  0.1013723E+00
       -2   -1    0    0    0  501  0.00000000000E+00  0.00000000000E+00  0.58064214171E+03  0.58064214171E+03  0.25500000920E-02 0.  1.
        2   -1    0    0  501    0  0.00000000000E+00  0.00000000000E+00 -0.10773208925E+03  0.10773208928E+03  0.25500000920E-02 0. -1.
    10030    2    1    2    0    0  0.00000000000E+00  0.00000000000E+00  0.47291005245E+03  0.68837423100E+03  0.50021511791E+03 0.  0.
        2    1    3    3  502    0  0.10886092323E+03  0.22096685570E+02  0.54483330224E+03  0.55604162736E+03  0.25500000920E-02 0.  1.
       -2    1    3    3    0  502 -0.10886092323E+03 -0.22096685570E+02 -0.71923249786E+02  0.13233260364E+03  0.25500000920E-02 0. -1.
</event>
<event>
 5   0  0.1180937E-02  0.4997400E+03  0.7818609E-02  0.1013847E+00
        1   -1    0    0  501    0  0.00000000000E+00  0.00000000000E+00  0.27971924407E+03  0.27971924412E+03  0.50400001928E-02 0. -1.
       -1   -1    0    0    0  501  0.00000000000E+00  0.00000000000E+00 -0.22320605212E+03  0.22320605217E+03  0.50400001928E-02 0.  1.
    10030    2    1    2    0    0  0.00000000000E+00  0.00000000000E+00  0.56513191957E+02  0.50292529629E+03  0.49974004521E+03 0.  0.
        1    1    3    3  502    0 -0.38683135551E+02 -0.97138740608E+02  0.25664516435E+03  0.27712643380E+03  0.50400001928E-02 0. -1.
       -1    1    3    3    0  502  0.38683135551E+02  0.97138740608E+02 -0.20013197239E+03  0.22579886249E+03  0.50400001928E-02 0.  1.
</event>
<event>
 5   0  0.1227864E-02  0.4992859E+03  0.7818609E-02  0.1013965E+00
       -1   -1    0    0    0  501  0.00000000000E+00  0.00000000000E+00  0.76382613436E+03  0.76382613438E+03  0.50400001928E-02 0. -1.
        1   -1    0    0  501    0  0.00000000000E+00  0.00000000000E+00 -0.81591332073E+02  0.81591332229E+02  0.50400001928E-02 0.  1.
    10030    2    1    2    0    0  0.00000000000E+00  0.00000000000E+00  0.68223480229E+03  0.84541746660E+03  0.49928585739E+03 0.  0.
        5    1    3    3  502    0  0.16436236801E+02 -0.17939612862E+03  0.48589165980E+02  0.18664436207E+03  0.46999998093E+01 0.  1.
       -5    1    3    3    0  502 -0.16436236801E+02  0.17939612862E+03  0.63364563631E+03  0.65877310453E+03  0.46999998093E+01 0. -1.
</event>
<event>
 5   0  0.1180937E-02  0.5002916E+03  0.7818609E-02  0.1013703E+00
        1   -1    0    0  501    0  0.00000000000E+00  0.00000000000E+00  0.74496052908E+03  0.74496052910E+03  0.50400001928E-02 0.  1.
       -1   -1    0    0    0  501  0.00000000000E+00  0.00000000000E+00 -0.83994949004E+02  0.83994949156E+02  0.50400001928E-02 0. -1.
    10030    2    1    2    0    0  0.00000000000E+00  0.00000000000E+00  0.66096558008E+03  0.82895547825E+03  0.50029160185E+03 0.  0.
        1    1    3    3  502    0 -0.14519985958E+03 -0.74801299911E+02  0.16559827133E+02  0.16417204875E+03  0.50400001928E-02 0. -1.
       -1    1    3    3    0  502  0.14519985958E+03  0.74801299911E+02  0.64440575294E+03  0.66478342950E+03  0.50400001928E-02 0.  1.
</event>
<event>
 5   0  0.1967813E-02  0.4975977E+03  0.7818609E-02  0.1014408E+00
       -2   -1    0    0    0  501  0.00000000000E+00  0.00000000000E+00  0.31716984780E+02  0.31716984882E+02  0.25500000920E-02 0.  1.
        2   -1    0    0  501    0  0.00000000000E+00  0.00000000000E+00 -0.19516633274E+04  0.19516633274E+04  0.25500000920E-02 0. -1.
    10030    2    1    2    0    0  0.00000000000E+00  0.00000000000E+00 -0.19199463426E+04  0.19833803122E+04  0.49759773372E+03 0.  0.
        5    1    3    3  502    0 -0.26310474781E+02  0.24283334894E+03 -0.11477138015E+04  0.11734263235E+04  0.46999998093E+01 0.  1.
       -5    1    3    3    0  502  0.26310474781E+02 -0.24283334894E+03 -0.77223254105E+03  0.80995398875E+03  0.46999998093E+01 0. -1.
</event>
<event>
 5   0  0.1923706E-02  0.4967230E+03  0.7818609E-02  0.1014638E+00
       -2   -1    0    0    0  501  0.00000000000E+00  0.00000000000E+00  0.39881153984E+03  0.39881153985E+03  0.25500000920E-02 0. -1.
        2   -1    0    0  501    0  0.00000000000E+00  0.00000000000E+00 -0.15466810190E+03  0.15466810193E+03  0.25500000920E-02 0.  1.
    10030    2    1    2    0    0  0.00000000000E+00  0.00000000000E+00  0.24414343794E+03  0.55347964178E+03  0.49672295656E+03 0.  0.
        3    1    3    3  502    0 -0.13183070796E+03 -0.25124273657E+02 -0.11078736325E+03  0.17402417862E+03  0.10100000352E+00 0.  1.
       -3    1    3    3    0  502  0.13183070796E+03  0.25124273657E+02  0.35493080119E+03  0.37945546316E+03  0.10100000352E+00 0. -1.
</event>
<event>
 5   0  0.1923706E-02  0.5000714E+03  0.7818609E-02  0.1013760E+00
        2   -1    0    0  501    0  0.00000000000E+00  0.00000000000E+00  0.16150499480E+04  0.16150499480E+04  0.25500000920E-02 0.  1.
       -2   -1    0    0    0  501  0.00000000000E+00  0.00000000000E+00 -0.38709552333E+02  0.38709552417E+02  0.25500000920E-02 0. -1.
    10030    2    1    2    0    0  0.00000000000E+00  0.00000000000E+00  0.15763403956E+04  0.16537595004E+04  0.50007143711E+03 0.  0.
        3    1    3    3  502    0  0.19798927618E+03  0.14337505098E+03  0.96196144276E+03  0.99253513101E+03  0.10100000352E+00 0.  1.
       -3    1    3    3    0  502 -0.19798927618E+03 -0.14337505098E+03  0.61437895288E+03  0.66122436938E+03  0.10100000352E+00 0. -1.
</event>
<event>
 5   0  0.1217270E-02  0.5001564E+03  0.7818609E-02  0.1013738E+00
       -1   -1    0    0    0  501  0.00000000000E+00  0.00000000000E+00  0.60370802566E+03  0.60370802568E+03  0.50400001928E-02 0.  1.
        1   -1    0    0  501    0  0.00000000000E+00  0.00000000000E+00 -0.10359165731E+03  0.10359165743E+03  0.50400001928E-02 0. -1.
    10030    2    1    2    0    0  0.00000000000E+00  0.00000000000E+00  0.50011636835E+03  0.70729968312E+03  0.50015643537E+03 0.  0.
        2    1    3    3  502    0 -0.30735879938E+02 -0.48418665429E+02  0.59428284107E+03  0.59704368071E+03  0.25500000920E-02 0.  1.
       -2    1    3    3    0  502  0.30735879938E+02  0.48418665429E+02 -0.94166472715E+02  0.11025600241E+03  0.25500000920E-02 0. -1.
</event>
<event>
 5   0  0.1941387E-02  0.5011945E+03  0.7818609E-02  0.1013468E+00
       -2   -1    0    0    0  501  0.00000000000E+00  0.00000000000E+00  0.41099023990E+03  0.41099023991E+03  0.25500000920E-02 0. -1.
        2   -1    0    0  501    0  0.00000000000E+00  0.00000000000E+00 -0.15279921309E+03  0.15279921311E+03  0.25500000920E-02 0.  1.
    10030    2    1    2    0    0  0.00000000000E+00  0.00000000000E+00  0.25819102682E+03  0.56378945302E+03  0.50119451414E+03 0.  0.
        4    1    3    3  502    0  0.66666026549E+02 -0.19193647806E+02 -0.14177830842E+03  0.15784630769E+03  0.12699999809E+01 0.  1.
       -4    1    3    3    0  502 -0.66666026549E+02  0.19193647806E+02  0.39996933524E+03  0.40594314533E+03  0.12699999809E+01 0. -1.
</event>
<event>
 5   0  0.1180937E-02  0.4996024E+03  0.7818609E-02  0.1013883E+00
        1   -1    0    0  501    0  0.00000000000E+00  0.00000000000E+00  0.12985830014E+04  0.12985830014E+04  0.50400001928E-02 0. -1.
       -1   -1    0    0    0  501  0.00000000000E+00  0.00000000000E+00 -0.48052872588E+02  0.48052872852E+02  0.50400001928E-02 0.  1.
    10030    2    1    2    0    0  0.00000000000E+00  0.00000000000E+00  0.12505301288E+04  0.13466358743E+04  0.49960241671E+03 0.  0.
        1    1    3    3  502    0 -0.13037150293E+03 -0.56942311041E+02  0.71808408217E+02  0.15935997954E+03  0.50400001928E-02 0.  1.
       -1    1    3    3    0  502  0.13037150293E+03  0.56942311041E+02  0.11787217206E+04  0.11872758947E+04  0.50400001928E-02 0. -1.
</event>
<event>
 5   0  0.1923706E-02  0.4996451E+03  0.7818609E-02  0.1013872E+00
       -2   -1    0    0    0  501  0.00000000000E+00  0.00000000000E+00  0.78020885901E+02  0.78020885942E+02  0.25500000920E-02 0.  1.
        2   -1    0    0  501    0  0.00000000000E+00  0.00000000000E+00 -0.79993074096E+03  0.79993074096E+03  0.25500000920E-02 0. -1.
    10030    2    1    2    0    0  0.00000000000E+00  0.00000000000E+00 -0.72190985506E+03  0.87795162691E+03  0.49964509440E+03 0.  0.
        3    1    3    3  502    0 -0.10351652847E+03 -0.22551918603E+03 -0.41178245962E+03  0.48076956973E+03  0.10100000352E+00 0. -1.
       -3    1    3    3    0  502  0.10351652847E+03  0.22551918603E+03 -0.31012739544E+03  0.39718205717E+03  0.10100000352E+00 0.  1.
</event>
<event>
 5   0  0.1180937E-02  0.4968605E+03  0.7818609E-02  0.1014602E+00
        1   -1    0    0  501    0  0.00000000000E+00  0.00000000000E+00  0.11689817839E+03  0.11689817850E+03  0.50400001928E-02 0. -1.
       -1   -1    0    0    0  501  0.00000000000E+00  0.00000000000E+00 -0.52796029240E+03  0.52796029242E+03  0.50400001928E-02 0.  1.
    10030    2    1    2    0    0  0.00000000000E+00  0.00000000000E+00 -0.41106211401E+03  0.64485847093E+03  0.49686052968E+03 0.  0.
        1    1    3    3  502    0 -0.15833463884E+03 -0.14919330472E+03 -0.36121602177E+03  0.42166991170E+03  0.50400001928E-02 0.  1.
       -1    1    3    3    0  502  0.15833463884E+03  0.14919330472E+03 -0.49846092243E+02  0.22318855922E+03  0.50400001928E-02 0. -1.
</event>
<event>
 5   0  0.8012875E-03  0.5001319E+03  0.7818609E-02  0.1013744E+00
       -3   -1    0    0    0  501  0.00000000000E+00  0.00000000000E+00  0.65557730434E+03  0.65557731212E+03  0.10100000352E+00 0.  1.
        3   -1    0    0  501    0  0.00000000000E+00  0.00000000000E+00 -0.95386100166E+02  0.95386153638E+02  0.10100000352E+00 0. -1.
    10030    2    1    2    0    0  0.00000000000E+00  0.00000000000E+00  0.56019120418E+03  0.75096346576E+03  0.50013192427E+03 0.  0.
        1    1    3    3  502    0 -0.35737100355E+01 -0.22549550069E+03  0.11787472539E+03  0.25447090825E+03  0.50400001928E-02 0.  1.
       -1    1    3    3    0  502  0.35737100355E+01  0.22549550069E+03  0.44231647879E+03  0.49649255752E+03  0.50400001928E-02 0. -1.
</event>
<event>
 5   0  0.1967813E-02  0.4993832E+03  0.7818609E-02  0.1013940E+00
        2   -1    0    0  501    0  0.00000000000E+00  0.00000000000E+00  0.19509978809E+04  0.19509978809E+04  0.25500000920E-02 0. -1.
       -2   -1    0    0    0  501  0.00000000000E+00  0.00000000000E+00 -0.31955907289E+02  0.31955907391E+02  0.25500000920E-02 0.  1.
    10030    2    1    2    0    0  0.00000000000E+00  0.00000000000E+00  0.19190419736E+04  0.19829537883E+04  0.49938324964E+03 0.  0.
        5    1    3    3  502    0 -0.55426696259E+02  0.21219101062E+03  0.14331412883E+04  0.14498321234E+04  0.46999998093E+01 0. -1.
       -5    1    3    3    0  502  0.55426696259E+02 -0.21219101062E+03  0.48590068524E+03  0.53312166487E+03  0.46999998093E+01 0.  1.
</event>
<event>
 5   0  0.1227864E-02  0.4996785E+03  0.7818609E-02  0.1013863E+00
        1   -1    0    0  501    0  0.00000000000E+00  0.00000000000E+00  0.21889360693E+03  0.21889360699E+03  0.50400001928E-02 0.  1.
       -1   -1    0    0    0  501  0.00000000000E+00  0.00000000000E+00 -0.28515981332E+03  0.28515981337E+03  0.50400001928E-02 0. -1.
    10030    2    1    2    0    0  0.00000000000E+00  0.00000000000E+00 -0.66266206395E+02  0.50405342036E+03  0.49967853712E+03 0.  0.
        5    1    3    3  502    0 -0.28190245861E+02  0.23983925151E+03 -0.97567338043E+02  0.26049766213E+03  0.46999998093E+01 0. -1.
       -5    1    3    3    0  502  0.28190245861E+02 -0.23983925151E+03  0.31301131648E+02  0.24355575823E+03  0.46999998093E+01 0.  1.
</event>
<event>
 5   0  0.1217270E-02  0.5011347E+03  0.7818609E-02  0.1013483E+00
        1   -1    0    0  501    0  0.00000000000E+00  0.00000000000E+00  0.94664900328E+03  0.94664900329E+03  0.50400001928E-02 0.  1.
       -1   -1    0    0    0  501  0.00000000000E+00  0.00000000000E+00 -0.66322363356E+02  0.66322363548E+02  0.50400001928E-02 0. -1.
    10030    2    1    2    0    0  0.00000000000E+00  0.00000000000E+00  0.88032663993E+03  0.10129713668E+04  0.50113470952E+03 0.  0.
        2    1    3    3  502    0 -0.12337001157E+03  0.64198672350E+02  0.86147106280E+03  0.87262478840E+03  0.25500000920E-02 0.  1.
       -2    1    3    3    0  502  0.12337001157E+03 -0.64198672350E+02  0.18855577126E+02  0.14034657844E+03  0.25500000920E-02 0. -1.
</event>
<event>
 5   0  0.1982847E-02  0.4998401E+03  0.7818609E-02  0.1013821E+00
        2   -1    0    0  501    0  0.00000000000E+00  0.00000000000E+00  0.26905869997E+03  0.26905869998E+03  0.25500000920E-02 0. -1.
       -2   -1    0    0    0  501  0.00000000000E+00  0.00000000000E+00 -0.23214280355E+03  0.23214280356E+03  0.25500000920E-02 0.  1.
    10030    2    1    2    0    0  0.00000000000E+00  0.00000000000E+00  0.36915896419E+02  0.50120150354E+03  0.49984013819E+03 0.  0.
        2    1    3    3  502    0  0.23443546518E+03  0.84204145121E+02 -0.18386126487E+01  0.24910581264E+03  0.25500000920E-02 0. -1.
       -2    1    3    3    0  502 -0.23443546518E+03 -0.84204145121E+02  0.38754509068E+02  0.25209569090E+03  0.25500000920E-02 0.  1.
</event>
<event>
 5   0  0.1923706E-02  0.4999587E+03  0.7818609E-02  0.1013790E+00
        2   -1    0    0  501    0  0.00000000000E+00  0.00000000000E+00  0.63985870025E+03  0.63985870026E+03  0.25500000920E-02 0. -1.
       -2   -1    0    0    0  501  0.00000000000E+00  0.00000000000E+00 -0.97661674947E+02  0.97661674980E+02  0.25500000920E-02 0.  1.
    10030    2    1    2    0    0  0.00000000000E+00  0.00000000000E+00  0.54219702531E+03  0.73752037524E+03  0.49995868793E+03 0.  0.
        3    1    3    3  502    0  0.80781745451E+02 -0.23588270297E+03  0.29762365350E+03  0.38826046577E+03  0.10100000352E+00 0. -1.
       -3    1    3    3    0  502 -0.80781745451E+02  0.23588270297E+03  0.24457337181E+03  0.34925990946E+03  0.10100000352E+00 0.  1.
</event>
<event>
 5   0  0.1225989E-02  0.4979944E+03  0.7818609E-02  0.1014304E+00
       -1   -1    0    0    0  501  0.00000000000E+00  0.00000000000E+00  0.17908808647E+03  0.17908808654E+03  0.50400001928E-02 0.  1.
        1   -1    0    0  501    0  0.00000000000E+00  0.00000000000E+00 -0.34619617122E+03  0.34619617126E+03  0.50400001928E-02 0. -1.
    10030    2    1    2    0    0  0.00000000000E+00  0.00000000000E+00 -0.16710808475E+03  0.52528425779E+03  0.49799441713E+03 0.  0.
        3    1    3    3  502    0  0.12910007426E+03  0.17471799639E+03  0.44795562693E+02  0.22181041471E+03  0.10100000352E+00 0.  1.
       -3    1    3    3    0  502 -0.12910007426E+03 -0.17471799639E+03 -0.21190364745E+03  0.30347384309E+03  0.10100000352E+00 0. -1.
</event>
<event>
 5   0  0.1967813E-02  0.4976956E+03  0.7818609E-02  0.1014382E+00
       -2   -1    0    0    0  501  0.00000000000E+00  0.00000000000E+00  0.15010016531E+03  0.15010016533E+03  0.25500000920E-02 0.  1.
        2   -1    0    0  501    0  0.00000000000E+00  0.00000000000E+00 -0.41255932380E+03  0.41255932381E+03  0.25500000920E-02 0. -1.
    10030    2    1    2    0    0  0.00000000000E+00  0.00000000000E+00 -0.26245915849E+03  0.56265948914E+03  0.49769558049E+03 0.  0.
        5    1    3    3  502    0  0.13465264847E+03  0.20093357045E+03 -0.19712593830E+03  0.31206787888E+03  0.46999998093E+01 0.  1.
       -5    1    3    3    0  502 -0.13465264847E+03 -0.20093357045E+03 -0.65333220183E+02  0.25059161026E+03  0.46999998093E+01 0. -1.
</event>
<event>
 5   0  0.1941387E-02  0.5001311E+03  0.7818609E-02  0.1013745E+00
        2   -1    0    0  501    0  0.00000000000E+00  0.00000000000E+00  0.16706238836E+04  0.16706238836E+04  0.25500000920E-02 0. -1.
       -2   -1    0    0    0  501  0.00000000000E+00  0.00000000000E+00 -0.37430793299E+02  0.37430793386E+02  0.25500000920E-02 0.  1.
    10030    2    1    2    0    0  0.00000000000E+00  0.00000000000E+00  0.16331930903E+04  0.17080546770E+04  0.50013109218E+03 0.  0.
        4    1    3    3  502    0  0.55508787984E+02  0.19027292960E+03  0.29588951284E+03  0.35614214857E+03  0.12699999809E+01 0.  1.
       -4    1    3    3    0  502 -0.55508787984E+02 -0.19027292960E+03  0.13373035774E+04  0.13519125284E+04  0.12699999809E+01 0. -1.
</event>
<event>
 5   0  0.1982847E-02  0.4963764E+03  0.7818609E-02  0.1014729E+00
       -2   -1    0    0    0  501  0.00000000000E+00  0.00000000000E+00  0.31137231580E+02  0.31137231685E+02  0.25500000920E-02 0.  1.
        2   -1    0    0  501    0  0.00000000000E+00  0.00000000000E+00 -0.19782551035E+04  0.19782551035E+04  0.25500000920E-02 0. -1.
    10030    2    1    2    0    0  0.00000000000E+00  0.00000000000E+00 -0.19471178719E+04  0.20093923352E+04  0.49637641922E+03 0.  0.
        2    1    3    3  502    0 -0.49402550516E+02  0.12983984732E+03 -0.14099898649E+03  0.19793865754E+03  0.25500000920E-02 0.  1.
       -2    1    3    3    0  502  0.49402550516E+02 -0.12983984732E+03 -0.18061188854E+04  0.18114536777E+04  0.25500000920E-02 0. -1.
</event>
<event>
 5   0  0.8012875E-03  0.5006200E+03  0.7818609E-02  0.1013617E+00
        4   -1    0    0  501    0  0.00000000000E+00  0.00000000000E+00  0.47730955230E+03  0.47731124187E+03  0.12699999809E+01 0.  1.
       -4   -1    0    0    0  501  0.00000000000E+00  0.00000000000E+00 -0.13126223234E+03  0.13126837600E+03  0.12699999809E+01 0. -1.
    10030    2    1    2    0    0  0.00000000000E+00  0.00000000000E+00  0.34604731997E+03  0.60857961787E+03  0.50062001921E+03 0.  0.
        4    1    3    3  502    0  0.42135156895E+02 -0.24077031391E+03  0.10747113825E+03  0.26701568112E+03  0.12699999809E+01 0. -1.
       -4    1    3    3    0  502 -0.42135156895E+02  0.24077031391E+03  0.23857618171E+03  0.34156393675E+03  0.12699999809E+01 0.  1.
</event>
<event>
 5   0  0.1941387E-02  0.5032819E+03  0.7818609E-02  0.1012926E+00
        2   -1    0    0  501    0  0.00000000000E+00  0.00000000000E+00  0.21472069694E+04  0.21472069694E+04  0.25500000920E-02 0. -1.
       -2   -1    0    0    0  501  0.00000000000E+00  0.00000000000E+00 -0.29490941609E+02  0.29490941719E+02  0.25500000920E-02 0.  1.
    10030    2    1    2    0    0  0.00000000000E+00  0.00000000000E+00  0.21177160278E+04  0.21766979111E+04  0.50328185137E+03 0.  0.
        4    1    3    3  502    0 -0.21401942167E+03 -0.10958777625E+03  0.13798350495E+04  0.14006284911E+04  0.12699999809E+01 0. -1.
       -4    1    3    3    0  502  0.21401942167E+03  0.10958777625E+03  0.73788097832E+03  0.77606941997E+03  0.12699999809E+01 0.  1.
</event>
<event>
 5   0  0.1967813E-02  0.5001198E+03  0.7818609E-02  0.1013748E+00
        2   -1    0    0  501    0  0.00000000000E+00  0.00000000000E+00  0.65033505471E+03  0.65033505472E+03  0.25500000920E-02 0. -1.
       -2   -1    0    0    0  501  0.00000000000E+00  0.00000000000E+00 -0.96150357401E+02  0.96150357435E+02  0.25500000920E-02 0.  1.
    10030    2    1    2    0    0  0.00000000000E+00  0.00000000000E+00  0.55418469731E+03  0.74648541215E+03  0.50011977748E+03 0.  0.
        5    1    3    3  502    0  0.11032072147E+03  0.22367330853E+03  0.25092060097E+03  0.35381301351E+03  0.46999998093E+01 0.  1.
       -5    1    3    3    0  502 -0.11032072147E+03 -0.22367330853E+03  0.30326409634E+03  0.39267239865E+03  0.46999998093E+01 0. -1.
</event>
<event>
 5   0  0.8012875E-03  0.4995087E+03  0.7818609E-02  0.1013907E+00
       -3   -1    0    0    0  501  0.00000000000E+00  0.00000000000E+00  0.19470451630E+03  0.19470454249E+03  0.10100000352E+00 0.  1.
        3   -1    0    0  501    0  0.00000000000E+00  0.00000000000E+00 -0.32036860983E+03  0.32036862575E+03  0.10100000352E+00 0. -1.
    10030    2    1    2    0    0  0.00000000000E+00  0.00000000000E+00 -0.12566409353E+03  0.51507316824E+03  0.49950866283E+03 0.  0.
        3    1    3    3  502    0 -0.15736226095E+02 -0.91709540437E+02  0.17616341194E+03  0.19922807665E+03  0.10100000352E+00 0.  1.
       -3    1    3    3    0  502  0.15736226095E+02  0.91709540437E+02 -0.30182750548E+03  0.31584509159E+03  0.10100000352E+00 0. -1.
</event>
<event>
 5   0  0.1941387E-02  0.5004656E+03  0.7818609E-02  0.1013657E+00
        2   -1    0    0  501    0  0.00000000000E+00  0.00000000000E+00  0.17861723479E+04  0.17861723479E+04  0.25500000920E-02 0. -1.
       -2   -1    0    0    0  501  0.00000000000E+00  0.00000000000E+00 -0.35056227755E+02  0.35056227847E+02  0.25500000920E-02 0.  1.
    10030    2    1    2    0    0  0.00000000000E+00  0.00000000000E+00  0.17511161202E+04  0.18212285758E+04  0.50046564208E+03 0.  0.
        4    1    3    3  502    0  0.41613514547E+02 -0.47535138403E+02 -0.55442672563E+01  0.63432056370E+02  0.12699999809E+01 0.  1.
       -4    1    3    3    0  502 -0.41613514547E+02  0.47535138403E+02  0.17566603874E+04  0.17577965194E+04  0.12699999809E+01 0. -1.
</event>
<event>
 5   0  0.1982847E-02  0.5010795E+03  0.7818609E-02  0.1013498E+00
       -2   -1    0    0    0  501  0.00000000000E+00  0.00000000000E+00  0.81578606508E+02  0.81578606548E+02  0.25500000920E-02 0. -1.
        2   -1    0    0  501    0  0.00000000000E+00  0.00000000000E+00 -0.76944386941E+03  0.76944386941E+03  0.25500000920E-02 0.  1.
    10030    2    1    2    0    0  0.00000000000E+00  0.00000000000E+00 -0.68786526290E+03  0.85102247596E+03  0.50107946943E+03 0.  0.
        2    1    3    3  502    0  0.19345763633E+02 -0.22392789934E+03 -0.15593975676E+03  0.27356017696E+03  0.25500000920E-02 0. -1.
       -2    1    3    3    0  502 -0.19345763633E+02  0.22392789934E+03 -0.53192550614E+03  0.57746229900E+03  0.25500000920E-02 0.  1.
</event>
<event>
 5   0  0.1967813E-02  0.5000309E+03  0.7818609E-02  0.1013771E+00
        2   -1    0    0  501    0  0.00000000000E+00  0.00000000000E+00  0.34403249745E+03  0.34403249746E+03  0.25500000920E-02 0.  1.
       -2   -1    0    0    0  501  0.00000000000E+00  0.00000000000E+00 -0.18169136090E+03  0.18169136092E+03  0.25500000920E-02 0. -1.
    10030    2    1    2    0    0  0.00000000000E+00  0.00000000000E+00  0.16234113655E+03  0.52572385837E+03  0.50003092969E+03 0.  0.
        5    1    3    3  502    0  0.30734619349E+02 -0.23405267011E+03 -0.52756823689E+01  0.23616772013E+03  0.46999998093E+01 0. -1.
       -5    1    3    3    0  502 -0.30734619349E+02  0.23405267011E+03  0.16761681892E+03  0.28955613824E+03  0.46999998093E+01 0.  1.
</event>
<event>
 5   0  0.1209831E-02  0.5012192E+03  0.7818609E-02  0.1013461E+00
       -1   -1    0    0    0  501  0.00000000000E+00  0.00000000000E+00  0.14063451840E+03  0.14063451849E+03  0.50400001928E-02 0. -1.
        1   -1    0    0  501    0  0.00000000000E+00  0.00000000000E+00 -0.44658432292E+03  0.44658432295E+03  0.50400001928E-02 0.  1.
    10030    2    1    2    0    0  0.00000000000E+00  0.00000000000E+00 -0.30594980451E+03  0.58721884144E+03  0.50121919841E+03 0.  0.
        4    1    3    3  502    0  0.40039799409E+02 -0.70890536909E+02  0.12470436577E+03  0.14893436642E+03  0.12699999809E+01 0. -1.
       -4    1    3    3    0  502 -0.40039799409E+02  0.70890536909E+02 -0.43065417028E+03  0.43828447502E+03  0.12699999809E+01 0.  1.
</event>
<event>
 5   0  0.1923706E-02  0.4994480E+03  0.7818609E-02  0.1013923E+00
        2   -1    0    0  501    0  0.00000000000E+00  0.00000000000E+00  0.12301738188E+03  0.12301738190E+03  0.25500000920E-02 0. -1.
       -2   -1    0    0    0  501  0.00000000000E+00  0.00000000000E+00 -0.50693708186E+03  0.50693708186E+03  0.25500000920E-02 0.  1.
    10030    2    1    2    0    0  0.00000000000E+00  0.00000000000E+00 -0.38391969998E+03  0.62995446376E+03  0.49944798567E+03 0.  0.
        3    1    3    3  502    0 -0.88904656046E+02 -0.19923250411E+03 -0.38700390106E+02  0.22157472545E+03  0.10100000352E+00 0. -1.
       -3    1    3    3    0  502  0.88904656046E+02  0.19923250411E+03 -0.34521930987E+03  0.40837973832E+03  0.10100000352E+00 0.  1.
</event>
<event>
 5   0  0.1209831E-02  0.4989637E+03  0.7818609E-02  0.1014050E+00
       -1   -1    0    0    0  501  0.00000000000E+00  0.00000000000E+00  0.71353156826E+02  0.71353157004E+02  0.50400001928E-02 0.  1.
        1   -1    0    0  501    0  0.00000000000E+00  0.00000000000E+00 -0.87229770676E+03  0.87229770678E+03  0.50400001928E-02 0. -1.
    10030    2    1    2    0    0  0.00000000000E+00  0.00000000000E+00 -0.80094454994E+03  0.94365086378E+03  0.49896370674E+03 0.  0.
        4    1    3    3  502    0 -0.23529639287E+03 -0.59883724725E+02 -0.29200896438E+03  0.37976479716E+03  0.12699999809E+01 0.  1.
       -4    1    3    3    0  502  0.23529639287E+03  0.59883724725E+02 -0.50893558556E+03  0.56388606662E+03  0.12699999809E+01 0. -1.
</event>
<event>
 5   0  0.1982847E-02  0.4994861E+03  0.7818609E-02  0.1013913E+00
        2   -1    0    0  501    0  0.00000000000E+00  0.00000000000E+00  0.59139402416E+03  0.59139402417E+03  0.25500000920E-02 0.  1.
       -2   -1    0    0    0  501  0.00000000000E+00  0.00000000000E+00 -0.10546539038E+03  0.10546539041E+03  0.25500000920E-02 0. -1.
    10030    2    1    2    0    0  0.00000000000E+00  0.00000000000E+00  0.48592863378E+03  0.69685941458E+03  0.49948614251E+03 0.  0.
        2    1    3    3  502    0  0.16108889406E+03 -0.16710389277E+03  0.11435077280E+03  0.25874590241E+03  0.25500000920E-02 0. -1.
       -2    1    3    3    0  502 -0.16108889406E+03  0.16710389277E+03  0.37157786098E+03  0.43811351217E+03  0.25500000920E-02 0.  1.
</event>
<event>
 5   0  0.1967813E-02  0.5018144E+03  0.7818609E-02  0.1013306E+00
        2   -1    0    0  501    0  0.00000000000E+00  0.00000000000E+00  0.51677881764E+03  0.51677881765E+03  0.25500000920E-02 0. -1.
       -2   -1    0    0    0  501  0.00000000000E+00  0.00000000000E+00 -0.12182081598E+03  0.12182081601E+03  0.25500000920E-02 0.  1.
    10030    2    1    2    0    0  0.00000000000E+00  0.00000000000E+00  0.39495800166E+03  0.63859963366E+03  0.50181437707E+03 0.  0.
        5    1    3    3  502    0 -0.51285373622E+02 -0.53500195485E+02 -0.10751568851E+03  0.13066818181E+03  0.46999998093E+01 0.  1.
       -5    1    3    3    0  502  0.51285373622E+02  0.53500195485E+02  0.50247369017E+03  0.50793145185E+03  0.46999998093E+01 0. -1.
</event>
<event>
 5   0  0.1180937E-02  0.4997248E+03  0.7818609E-02  0.1013851E+00
        1   -1    0    0  501    0  0.00000000000E+00  0.00000000000E+00  0.37158939096E+03  0.37158939100E+03  0.50400001928E-02 0.  1.
       -1   -1    0    0    0  501  0.00000000000E+00  0.00000000000E+00 -0.16801128558E+03  0.16801128566E+03  0.50400001928E-02 0. -1.
    10030    2    1    2    0    0  0.00000000000E+00  0.00000000000E+00  0.20357810538E+03  0.53960067666E+03  0.49972476951E+03 0.  0.
        1    1    3    3  502    0  0.85987699288E+02  0.23052607609E+03  0.14879496979E+03  0.28753451836E+03  0.50400001928E-02 0.  1.
       -1    1    3    3    0  502 -0.85987699288E+02 -0.23052607609E+03  0.54783135588E+02  0.25206615830E+03  0.50400001928E-02 0. -1.
</event>
<event>
 5   0  0.1209831E-02  0.4991514E+03  0.7818609E-02  0.1014001E+00
        1   -1    0    0  501    0  0.00000000000E+00  0.00000000000E+00  0.59793400239E+03  0.59793400241E+03  0.50400001928E-02 0.  1.
       -1   -1    0    0    0  501  0.00000000000E+00  0.00000000000E+00 -0.10417209580E+03  0.10417209592E+03  0.50400001928E-02 0. -1.
    10030    2    1    2    0    0  0.00000000000E+00  0.00000000000E+00  0.49376190660E+03  0.70210609833E+03  0.49915143285E+03 0.  0.
        4    1    3    3  502    0  0.47393790174E+02  0.24193057643E+03  0.19222501569E+03  0.31261581009E+03  0.12699999809E+01 0. -1.
       -4    1    3    3    0  502 -0.47393790174E+02 -0.24193057643E+03  0.30153689091E+03  0.38949028825E+03  0.12699999809E+01 0.  1.
</event>
<event>
 5   0  0.1225989E-02  0.5001405E+03  0.7818609E-02  0.1013742E+00
        1   -1    0    0  501    0  0.00000000000E+00  0.00000000000E+00  0.83119410454E+03  0.83119410456E+03  0.50400001928E-02 0. -1.
       -1   -1    0    0    0  501  0.00000000000E+00  0.00000000000E+00 -0.75235302573E+02  0.75235302742E+02  0.50400001928E-02 0.  1.
    10030    2    1    2    0    0  0.00000000000E+00  0.00000000000E+00  0.75595880197E+03  0.90642940730E+03  0.50014054039E+03 0.  0.
        3    1    3    3  502    0 -0.21689535305E+03  0.10133140524E+03  0.50896452572E+03  0.56245581738E+03  0.10100000352E+00 0.  1.
       -3    1    3    3    0  502  0.21689535305E+03 -0.10133140524E+03  0.24699427625E+03  0.34397358992E+03  0.10100000352E+00 0. -1.
</event>
<event>
 5   0  0.1227864E-02  0.4996736E+03  0.7818609E-02  0.1013864E+00
       -1   -1    0    0    0  501  0.00000000000E+00  0.00000000000E+00  0.78755509381E+02  0.78755509542E+02  0.50400001928E-02 0. -1.
        1   -1    0    0  501    0  0.00000000000E+00  0.00000000000E+00 -0.79255941103E+03  0.79255941105E+03  0.50400001928E-02 0.  1.
    10030    2    1    2    0    0  0.00000000000E+00  0.00000000000E+00 -0.71380390165E+03  0.87131492059E+03  0.49967357428E+03 0.  0.
        5    1    3    3  502    0  0.21477700207E+03  0.97939834884E+02 -0.21443535453E+03  0.31894510993E+03  0.46999998093E+01 0. -1.
       -5    1    3    3    0  502 -0.21477700207E+03 -0.97939834884E+02 -0.49936854712E+03  0.55236981066E+03  0.46999998093E+01 0.  1.
</event>
<event>
 5   0  0.1227864E-02  0.4947304E+03  0.7818609E-02  0.1015164E+00
       -1   -1    0    0    0  501  0.00000000000E+00  0.00000000000E+00  0.10409978420E+03  0.10409978433E+03  0.50400001928E-02 0.  1.
        1   -1    0    0  501    0  0.00000000000E+00  0.00000000000E+00 -0.58779707999E+03  0.58779708001E+03  0.50400001928E-02 0. -1.
    10030    2    1    2    0    0  0.00000000000E+00  0.00000000000E+00 -0.48369729578E+03  0.69189686433E+03  0.49473042855E+03 0.  0.
        5    1    3    3  502    0  0.74414531350E+02  0.19058682703E+03 -0.47525016321E+02  0.21009897260E+03  0.46999998093E+01 0.  1.
       -5    1    3    3    0  502 -0.74414531350E+02 -0.19058682703E+03 -0.43617227946E+03  0.48179789174E+03  0.46999998093E+01 0. -1.
</event>
<event>
 5   0  0.1180937E-02  0.4996704E+03  0.7818609E-02  0.1013865E+00
        1   -1    0    0  501    0  0.00000000000E+00  0.00000000000E+00  0.88979356814E+02  0.88979356957E+02  0.50400001928E-02 0.  1.
       -1   -1    0    0    0  501  0.00000000000E+00  0.00000000000E+00 -0.70148446445E+03  0.70148446447E+03  0.50400001928E-02 0. -1.
    10030    2    1    2    0    0  0.00000000000E+00  0.00000000000E+00 -0.61250510764E+03  0.79046382143E+03  0.49967043749E+03 0.  0.
        1    1    3    3  502    0  0.11027661520E+03  0.11715208462E+03 -0.38846957208E+01  0.16093673812E+03  0.50400001928E-02 0.  1.
       -1    1    3    3    0  502 -0.11027661520E+03 -0.11715208462E+03 -0.60862041192E+03  0.62952708331E+03  0.50400001928E-02 0. -1.
</event>
<event>
 5   0  0.1967813E-02  0.5017515E+03  0.7818609E-02  0.1013323E+00
        2   -1    0    0  501    0  0.00000000000E+00  0.00000000000E+00  0.11119837285E+04  0.11119837285E+04  0.25500000920E-02 0. -1.
       -2   -1    0    0    0  501  0.00000000000E+00  0.00000000000E+00 -0.56600337576E+02  0.56600337633E+02  0.25500000920E-02 0.  1.
    10030    2    1    2    0    0  0.00000000000E+00  0.00000000000E+00  0.10553833909E+04  0.11685840661E+04  0.50175154985E+03 0.  0.
        5    1    3    3  502    0 -0.28228457366E+02  0.20547619036E+03  0.19915065085E+03  0.28757674166E+03  0.46999998093E+01 0.  1.
       -5    1    3    3    0  502  0.28228457366E+02 -0.20547619036E+03  0.85623274004E+03  0.88100732444E+03  0.46999998093E+01 0. -1.
</event>
<event>
 5   0  0.8012875E-03  0.5019280E+03  0.7818609E-02  0.1013277E+00
       -3   -1    0    0    0  501  0.00000000000E+00  0.00000000000E+00  0.33949710297E+03  0.33949711800E+03  0.10100000352E+00 0.  1.
        3   -1    0    0  501    0  0.00000000000E+00  0.00000000000E+00 -0.18551825575E+03  0.18551828324E+03  0.10100000352E+00 0. -1.
    10030    2    1    2    0    0  0.00000000000E+00  0.00000000000E+00  0.15397884723E+03  0.52501540124E+03  0.50192796908E+03 0.  0.
        4    1    3    3  502    0  0.11025579198E+03  0.90991282296E+02 -0.13876402498E+03  0.19923057157E+03  0.12699999809E+01 0. -1.
       -4    1    3    3    0  502 -0.11025579198E+03 -0.90991282296E+02  0.29274287221E+03  0.32578482967E+03  0.12699999809E+01 0.  1.
</event>
<event>
 5   0  0.1227864E-02  0.4996462E+03  0.7818609E-02  0.1013871E+00
        1   -1    0    0  501    0  0.00000000000E+00  0.00000000000E+00  0.44269570210E+03  0.44269570213E+03  0.50400001928E-02 0.  1.
       -1   -1    0    0    0  501  0.00000000000E+00  0.00000000000E+00 -0.14098075758E+03  0.14098075767E+03  0.50400001928E-02 0. -1.
    10030    2    1    2    0    0  0.00000000000E+00  0.00000000000E+00  0.30171494452E+03  0.58367645980E+03  0.49964617679E+03 0.  0.
        5    1    3    3  502    0 -0.12329270416E+03 -0.12773605564E+03  0.35611129369E+03  0.39793835490E+03  0.46999998093E+01 0.  1.
       -5    1    3    3    0  502  0.12329270416E+03  0.12773605564E+03 -0.54396349171E+02  0.18573810490E+03  0.46999998093E+01 0. -1.
</event>
<event>
 5   0  0.1967813E-02  0.5000224E+03  0.7818609E-02  0.1013773E+00
        2   -1    0    0  501    0  0.00000000000E+00  0.00000000000E+00  0.10575786615E+04  0.10575786615E+04  0.25500000920E-02 0. -1.
       -2   -1    0    0    0  501  0.00000000000E+00  0.00000000000E+00 -0.59102563118E+02  0.59102563173E+02  0.25500000920E-02 0.  1.
    10030    2    1    2    0    0  0.00000000000E+00  0.00000000000E+00  0.99847609833E+03  0.11166812246E+04  0.50002243799E+03 0.  0.
        5    1    3    3  502    0 -0.15341834498E+03 -0.94581045376E+02  0.11242080474E+03  0.21246950383E+03  0.46999998093E+01 0.  1.
       -5    1    3    3    0  502  0.15341834498E+03  0.94581045376E+02  0.88605529359E+03  0.90421172079E+03  0.46999998093E+01 0. -1.
</event>
<event>
 5   0  0.1209831E-02  0.5005287E+03  0.7818609E-02  0.1013641E+00
        1   -1    0    0  501    0  0.00000000000E+00  0.00000000000E+00  0.15008298849E+03  0.15008298858E+03  0.50400001928E-02 0. -1.
       -1   -1    0    0    0  501  0.00000000000E+00  0.00000000000E+00 -0.41731744616E+03  0.41731744619E+03  0.50400001928E-02 0.  1.
    10030    2    1    2    0    0  0.00000000000E+00  0.00000000000E+00 -0.26723445767E+03  0.56740043477E+03  0.50052871847E+03 0.  0.
        4    1    3    3  502    0  0.99590567383E+01  0.97376923229E+02  0.12747866170E+03  0.16072918241E+03  0.12699999809E+01 0. -1.
       -4    1    3    3    0  502 -0.99590567383E+01 -0.97376923229E+02 -0.39471311937E+03  0.40667125235E+03  0.12699999809E+01 0.  1.
</event>
<event>
 5   0  0.1227864E-02  0.4998534E+03  0.7818609E-02  0.1013817E+00
       -1   -1    0    0    0  501  0.00000000000E+00  0.00000000000E+00  0.14183105659E+03  0.14183105668E+03  0.50400001928E-02 0.  1.
        1   -1    0    0  501    0  0.00000000000E+00  0.00000000000E+00 -0.44040678590E+03  0.44040678593E+03  0.50400001928E-02 0. -1.
    10030    2    1    2    0    0  0.00000000000E+00  0.00000000000E+00 -0.29857572931E+03  0.58223784262E+03  0.49985341775E+03 0.  0.
        5    1    3    3  502    0 -0.82659875475E+02 -0.11220205184E+03 -0.39088373431E+03  0.41501101093E+03  0.46999998093E+01 0. -1.
       -5    1    3    3    0  502  0.82659875475E+02  0.11220205184E+03  0.92308004996E+02  0.16722683168E+03  0.46999998093E+01 0.  1.
</event>
<event>
 5   0  0.1923706E-02  0.4997539E+03  0.7818609E-02  0.1013843E+00
        2   -1    0    0  501    0  0.00000000000E+00  0.00000000000E+00  0.86689825234E+03  0.86689825234E+03  0.25500000920E-02 0. -1.
       -2   -1    0    0    0  501  0.00000000000E+00  0.00000000000E+00 -0.72025163007E+02  0.72025163052E+02  0.25500000920E-02 0.  1.
    10030    2    1    2    0    0  0.00000000000E+00  0.00000000000E+00  0.79487308933E+03  0.93892341540E+03  0.49975389126E+03 0.  0.
        3    1    3    3  502    0  0.59409023248E+02  0.23911444720E+03  0.47565589749E+03  0.53568058946E+03  0.10100000352E+00 0. -1.
       -3    1    3    3    0  502 -0.59409023248E+02 -0.23911444720E+03  0.31921719184E+03  0.40324282594E+03  0.10100000352E+00 0.  1.
</event>
<event>
 5   0  0.1967813E-02  0.5002555E+03  0.7818609E-02  0.1013712E+00
        2   -1    0    0  501    0  0.00000000000E+00  0.00000000000E+00  0.67877399332E+03  0.67877399332E+03  0.25500000920E-02 0.  1.
       -2   -1    0    0    0  501  0.00000000000E+00  0.00000000000E+00 -0.92171918300E+02  0.92171918335E+02  0.25500000920E-02 0. -1.
    10030    2    1    2    0    0  0.00000000000E+00  0.00000000000E+00  0.58660207502E+03  0.77094591166E+03  0.50025553899E+03 0.  0.
        5    1    3    3  502    0 -0.19301294799E+03 -0.34717506206E+02  0.54144169085E+02  0.20350180435E+03  0.46999998093E+01 0. -1.
       -5    1    3    3    0  502  0.19301294799E+03  0.34717506206E+02  0.53245790593E+03  0.56744410731E+03  0.46999998093E+01 0.  1.
</event>
<event>
 5   0  0.1227864E-02  0.4979614E+03  0.7818609E-02  0.1014312E+00
        1   -1    0    0  501    0  0.00000000000E+00  0.00000000000E+00  0.57717057613E+03  0.57717057615E+03  0.50400001928E-02 0. -1.
       -1   -1    0    0    0  501  0.00000000000E+00  0.00000000000E+00 -0.10740565972E+03  0.10740565984E+03  0.50400001928E-02 0.  1.
    10030    2    1    2    0    0  0.00000000000E+00  0.00000000000E+00  0.46976491641E+03  0.68457623599E+03  0.49796139026E+03 0.  0.
        5    1    3    3  502    0 -0.12407552044E+03 -0.55452346295E+02  0.52160958016E+03  0.53904391435E+03  0.46999998093E+01 0. -1.
       -5    1    3    3    0  502  0.12407552044E+03  0.55452346295E+02 -0.51844663755E+02  0.14553232164E+03  0.46999998093E+01 0.  1.
</event>
<event>
 5   0  0.1941387E-02  0.4994053E+03  0.7818609E-02  0.1013934E+00
        2   -1    0    0  501    0  0.00000000000E+00  0.00000000000E+00  0.28849553545E+03  0.28849553546E+03  0.25500000920E-02 0.  1.
       -2   -1    0    0    0  501  0.00000000000E+00  0.00000000000E+00 -0.21612605907E+03  0.21612605908E+03  0.25500000920E-02 0. -1.
    10030    2    1    2    0    0  0.00000000000E+00  0.00000000000E+00  0.72369476380E+02  0.50462159454E+03  0.49940525885E+03 0.  0.
        4    1    3    3  502    0 -0.21441093633E+03  0.10047171141E+03  0.11627917039E+03  0.26379740859E+03  0.12699999809E+01 0.  1.
       -4    1    3    3    0  502  0.21441093633E+03 -0.10047171141E+03 -0.43909694012E+02  0.24082418595E+03  0.12699999809E+01 0. -1.
</event>
<event>
 5   0  0.8012875E-03  0.4989742E+03  0.7818609E-02  0.1014047E+00
       -3   -1    0    0    0  501  0.00000000000E+00  0.00000000000E+00  0.51913032534E+03  0.51913033516E+03  0.10100000352E+00 0. -1.
        3   -1    0    0  501    0  0.00000000000E+00  0.00000000000E+00 -0.11990012301E+03  0.11990016555E+03  0.10100000352E+00 0.  1.
    10030    2    1    2    0    0  0.00000000000E+00  0.00000000000E+00  0.39923020232E+03  0.63903050072E+03  0.49897417408E+03 0.  0.
        5    1    3    3  502    0  0.16800676632E+03  0.84623625102E+02  0.40940691344E+03  0.45058133807E+03  0.46999998093E+01 0. -1.
       -5    1    3    3    0  502 -0.16800676632E+03 -0.84623625102E+02 -0.10176711113E+02  0.18844916264E+03  0.46999998093E+01 0.  1.
</event>
<event>
 5   0  0.1180937E-02  0.5004575E+03  0.7818609E-02  0.1013660E+00
        1   -1    0    0  501    0  0.00000000000E+00  0.00000000000E+00  0.23111155103E+03  0.23111155108E+03  0.50400001928E-02 0. -1.
       -1   -1    0    0    0  501  0.00000000000E+00  0.00000000000E+00 -0.27092725826E+03  0.27092725831E+03  0.50400001928E-02 0.  1.
    10030    2    1    2    0    0  0.00000000000E+00  0.00000000000E+00 -0.39815707232E+02  0.50203880939E+03  0.50045746632E+03 0.  0.
        1    1    3    3  502    0 -0.21059452720E+03  0.19651401471E+02  0.11422397603E+03  0.24038167399E+03  0.50400001928E-02 0. -1.
       -1    1    3    3    0  502  0.21059452720E+03 -0.19651401471E+02 -0.15403968326E+03  0.26165713541E+03  0.50400001928E-02 0.  1.
</event>
<event>
 5   0  0.1217270E-02  0.5002042E+03  0.7818609E-02  0.1013726E+00
        1   -1    0    0  501    0  0.00000000000E+00  0.00000000000E+00  0.20501463579E+03  0.20501463585E+03  0.50400001928E-02 0. -1.
       -1   -1    0    0    0  501  0.00000000000E+00  0.00000000000E+00 -0.30510533463E+03  0.30510533467E+03  0.50400001928E-02 0.  1.
    10030    2    1    2    0    0  0.00000000000E+00  0.00000000000E+00 -0.10009069884E+03  0.51011997052E+03  0.50020419463E+03 0.  0.
        2    1    3    3  502    0  0.59039863736E+02 -0.69508841688E+02  0.18745284511E+03  0.20846043684E+03  0.25500000920E-02 0. -1.
       -2    1    3    3    0  502 -0.59039863736E+02  0.69508841688E+02 -0.28754354395E+03  0.30165953367E+03  0.25500000920E-02 0.  1.
</event>
<event>
 5   0  0.1217270E-02  0.4999992E+03  0.7818609E-02  0.1013779E+00
       -1   -1    0    0    0  501  0.00000000000E+00  0.00000000000E+00  0.75589073332E+02  0.75589073500E+02  0.50400001928E-02 0. -1.
        1   -1    0    0  501    0  0.00000000000E+00  0.00000000000E+00 -0.82683649179E+03  0.82683649181E+03  0.50400001928E-02 0.  1.
    10030    2    1    2    0    0  0.00000000000E+00  0.00000000000E+00 -0.75124741846E+03  0.90242556531E+03  0.49999921718E+03 0.  0.
        2    1    3    3  502    0  0.97288615163E+02  0.96000752763E+02 -0.75343178853E+03  0.76572885485E+03  0.25500000920E-02 0.  1.
       -2    1    3    3    0  502 -0.97288615163E+02 -0.96000752763E+02  0.21843700711E+01  0.13669671046E+03  0.25500000920E-02 0. -1.
</event>
<event>
 5   0  0.1209831E-02  0.4998636E+03  0.7818609E-02  0.1013815E+00
       -1   -1    0    0    0  501  0.00000000000E+00  0.00000000000E+00  0.64766017932E+02  0.64766018128E+02  0.50400001928E-02 0.  1.
        1   -1    0    0  501    0  0.00000000000E+00  0.00000000000E+00 -0.96448586688E+03  0.96448586690E+03  0.50400001928E-02 0. -1.
    10030    2    1    2    0    0  0.00000000000E+00  0.00000000000E+00 -0.89971984895E+03  0.10292518850E+04  0.49986361763E+03 0.  0.
        4    1    3    3  502    0 -0.11457958549E+03  0.18714659186E+03 -0.20352849908E+03  0.29929549127E+03  0.12699999809E+01 0.  1.
       -4    1    3    3    0  502  0.11457958549E+03 -0.18714659186E+03 -0.69619134987E+03  0.72995639376E+03  0.12699999809E+01 0. -1.
</event>
<event>
 5   0  0.1209831E-02  0.4977736E+03  0.7818609E-02  0.1014362E+00
        1   -1    0    0  501    0  0.00000000000E+00  0.00000000000E+00  0.75045032613E+03  0.75045032614E+03  0.50400001928E-02 0. -1.
       -1   -1    0    0    0  501  0.00000000000E+00  0.00000000000E+00 -0.82543301729E+02  0.82543301883E+02  0.50400001928E-02 0.  1.
    10030    2    1    2    0    0  0.00000000000E+00  0.00000000000E+00  0.66790702440E+03  0.83299362803E+03  0.49777363439E+03 0.  0.
        4    1    3    3  502    0 -0.23137982874E+02  0.21245258309E+03  0.12048958261E+03  0.24533817218E+03  0.12699999809E+01 0.  1.
       -4    1    3    3    0  502  0.23137982874E+02 -0.21245258309E+03  0.54741744179E+03  0.58765545584E+03  0.12699999809E+01 0. -1.
</event>
<event>
 5   0  0.1227864E-02  0.5002768E+03  0.7818609E-02  0.1013707E+00
       -1   -1    0    0    0  501  0.00000000000E+00  0.00000000000E+00  0.80485191397E+03  0.80485191398E+03  0.50400001928E-02 0.  1.
        1   -1    0    0  501    0  0.00000000000E+00  0.00000000000E+00 -0.77740030264E+02  0.77740030427E+02  0.50400001928E-02 0. -1.
    10030    2    1    2    0    0  0.00000000000E+00  0.00000000000E+00  0.72711188370E+03  0.88259194441E+03  0.50027677231E+03 0.  0.
        5    1    3    3  502    0 -0.19045808729E+02  0.13119341411E+03 -0.10575272870E+02  0.13307284145E+03  0.46999998093E+01 0. -1.
       -5    1    3    3    0  502  0.19045808729E+02 -0.13119341411E+03  0.73768715657E+03  0.74951910296E+03  0.46999998093E+01 0.  1.
</event>
<event>
 5   0  0.1941387E-02  0.4997085E+03  0.7818609E-02  0.1013855E+00
        2   -1    0    0  501    0  0.00000000000E+00  0.00000000000E+00  0.17398160927E+03  0.17398160929E+03  0.25500000920E-02 0. -1.
       -2   -1    0    0    0  501  0.00000000000E+00  0.00000000000E+00 -0.35881463295E+03  0.35881463296E+03  0.25500000920E-02 0.  1.
    10030    2    1    2    0    0  0.00000000000E+00  0.00000000000E+00 -0.18483302368E+03  0.53279624225E+03  0.49970850414E+03 0.  0.
        4    1    3    3  502    0 -0.87530295963E+02 -0.11545474640E+03  0.12461550373E+03  0.19110726790E+03  0.12699999809E+01 0. -1.
       -4    1    3    3    0  502  0.87530295963E+02  0.11545474640E+03 -0.30944852741E+03  0.34168897435E+03  0.12699999809E+01 0.  1.
</event>
<event>
 5   0  0.1227864E-02  0.5004156E+03  0.7818609E-02  0.1013670E+00
       -1   -1    0    0    0  501  0.00000000000E+00  0.00000000000E+00  0.78069878944E+03  0.78069878946E+03  0.50400001928E-02 0.  1.
        1   -1    0    0  501    0  0.00000000000E+00  0.00000000000E+00 -0.80189619111E+02  0.80189619269E+02  0.50400001928E-02 0. -1.
    10030    2    1    2    0    0  0.00000000000E+00  0.00000000000E+00  0.70050917033E+03  0.86088840873E+03  0.50041558185E+03 0.  0.
        5    1    3    3  502    0 -0.63794548945E+02 -0.19187332373E+03  0.96850742385E+02  0.22424823998E+03  0.46999998093E+01 0. -1.
       -5    1    3    3    0  502  0.63794548945E+02  0.19187332373E+03  0.60365842795E+03  0.63664016875E+03  0.46999998093E+01 0.  1.
</event>
<event>
 5   0  0.1941387E-02  0.4986770E+03  0.7818609E-02  0.1014125E+00
       -2   -1    0    0    0  501  0.00000000000E+00  0.00000000000E+00  0.10596372996E+03  0.10596372999E+03  0.25500000920E-02 0.  1.
        2   -1    0    0  501    0  0.00000000000E+00  0.00000000000E+00 -0.58670719516E+03  0.58670719517E+03  0.25500000920E-02 0. -1.
    10030    2    1    2    0    0  0.00000000000E+00  0.00000000000E+00 -0.48074346520E+03  0.69267092516E+03  0.49867698085E+03 0.  0.
        4    1    3    3  502    0 -0.65061717619E+02 -0.12513445988E+02 -0.57425188643E+03  0.57806267428E+03  0.12699999809E+01 0. -1.
       -4    1    3    3    0  502  0.65061717619E+02  0.12513445988E+02  0.93508421224E+02  0.11460825088E+03  0.12699999809E+01 0.  1.
</event>
<event>
 5   0  0.1180937E-02  0.5004756E+03  0.7818609E-02  0.1013655E+00
       -1   -1    0    0    0  501  0.00000000000E+00  0.00000000000E+00  0.64728620194E+03  0.64728620196E+03  0.50400001928E-02 0. -1.
        1   -1    0    0  501    0  0.00000000000E+00  0.00000000000E+00 -0.96740737498E+02  0.96740737630E+02  0.50400001928E-02 0.  1.
    10030    2    1    2    0    0  0.00000000000E+00  0.00000000000E+00  0.55054546444E+03  0.74402693959E+03  0.50047555227E+03 0.  0.
        1    1    3    3  502    0 -0.10941289505E+03 -0.12104146484E+03 -0.67845383443E+01  0.16330415732E+03  0.50400001928E-02 0.  1.
       -1    1    3    3    0  502  0.10941289505E+03  0.12104146484E+03  0.55733000279E+03  0.58072278227E+03  0.50400001928E-02 0. -1.
</event>
<event>
 5   0  0.8012875E-03  0.4990133E+03  0.7818609E-02  0.1014037E+00
       -3   -1    0    0    0  501  0.00000000000E+00  0.00000000000E+00  0.32593091644E+03  0.32593093208E+03  0.10100000352E+00 0.  1.
        3   -1    0    0  501    0  0.00000000000E+00  0.00000000000E+00 -0.19100230081E+03  0.19100232751E+03  0.10100000352E+00 0. -1.
    10030    2    1    2    0    0  0.00000000000E+00  0.00000000000E+00  0.13492861563E+03  0.51693325959E+03  0.49901328996E+03 0.  0.
        2    1    3    3  502    0 -0.59613212460E+02 -0.53433170084E+02 -0.17733684019E+03  0.19456925158E+03  0.25500000920E-02 0. -1.
       -2    1    3    3    0  502  0.59613212460E+02  0.53433170084E+02  0.31226545581E+03  0.32236400802E+03  0.25500000920E-02 0.  1.
</event>
<event>
 5   0  0.1855407E-02  0.5002624E+03  0.7818609E-02  0.1013710E+00
        2   -1    0    0  501    0  0.00000000000E+00  0.00000000000E+00  0.10453445709E+04  0.10453445709E+04  0.25500000920E-02 0.  1.
       -2   -1    0    0    0  501  0.00000000000E+00  0.00000000000E+00 -0.59851657994E+02  0.59851658048E+02  0.25500000920E-02 0. -1.
    10030    2    1    2    0    0  0.00000000000E+00  0.00000000000E+00  0.98549291291E+03  0.11051962290E+04  0.50026235427E+03 0.  0.
        1    1    3    3  502    0  0.35570660516E+02  0.12020564485E+03  0.14556212472E+02  0.12620044489E+03  0.50400001928E-02 0. -1.
       -1    1    3    3    0  502 -0.35570660516E+02 -0.12020564485E+03  0.97093670044E+03  0.97899578407E+03  0.50400001928E-02 0.  1.
</event>
<event>
 5   0  0.1180937E-02  0.4997997E+03  0.7818609E-02  0.1013831E+00
       -1   -1    0    0    0  501  0.00000000000E+00  0.00000000000E+00  0.50629054037E+02  0.50629054288E+02  0.50400001928E-02 0.  1.
        1   -1    0    0  501    0  0.00000000000E+00  0.00000000000E+00 -0.12334800156E+04  0.12334800156E+04  0.50400001928E-02 0. -1.
    10030    2    1    2    0    0  0.00000000000E+00  0.00000000000E+00 -0.11828509616E+04  0.12841090699E+04  0.49979966599E+03 0.  0.
        1    1    3    3  502    0 -0.18040375771E+03 -0.14849642381E+03 -0.81910811740E+03  0.85178331264E+03  0.50400001928E-02 0.  1.
       -1    1    3    3    0  502  0.18040375771E+03  0.14849642381E+03 -0.36374284417E+03  0.43232575726E+03  0.50400001928E-02 0. -1.
</event>
<event>
 5   0  0.1982847E-02  0.4986346E+03  0.7818609E-02  0.1014136E+00
        2   -1    0    0  501    0  0.00000000000E+00  0.00000000000E+00  0.83422784858E+03  0.83422784859E+03  0.25500000920E-02 0. -1.
       -2   -1    0    0    0  501  0.00000000000E+00  0.00000000000E+00 -0.74510971907E+02  0.74510971951E+02  0.25500000920E-02 0.  1.
    10030    2    1    2    0    0  0.00000000000E+00  0.00000000000E+00  0.75971687668E+03  0.90873882054E+03  0.49863464706E+03 0.  0.
        2    1    3    3  502    0 -0.13084922008E+03 -0.65351564738E+02  0.74782626445E+03  0.76199505721E+03  0.25500000920E-02 0. -1.
       -2    1    3    3    0  502  0.13084922008E+03  0.65351564738E+02  0.11890612229E+02  0.14674376333E+03  0.25500000920E-02 0.  1.
</event>
<event>
 5   0  0.1180937E-02  0.5000397E+03  0.7818609E-02  0.1013769E+00
        1   -1    0    0  501    0  0.00000000000E+00  0.00000000000E+00  0.67498390168E+03  0.67498390170E+03  0.50400001928E-02 0. -1.
       -1   -1    0    0    0  501  0.00000000000E+00  0.00000000000E+00 -0.92609523072E+02  0.92609523209E+02  0.50400001928E-02 0.  1.
    10030    2    1    2    0    0  0.00000000000E+00  0.00000000000E+00  0.58237437861E+03  0.76759342491E+03  0.50003974752E+03 0.  0.
        1    1    3    3  502    0  0.12031379037E+03 -0.53733582903E+02 -0.34981507984E+02  0.13633199189E+03  0.50400001928E-02 0.  1.
       -1    1    3    3    0  502 -0.12031379037E+03  0.53733582903E+02  0.61735588659E+03  0.63126143302E+03  0.50400001928E-02 0. -1.
</event>
<event>
 5   0  0.8012875E-03  0.4997276E+03  0.7818609E-02  0.1013850E+00
        3   -1    0    0  501    0  0.00000000000E+00  0.00000000000E+00  0.11738325716E+04  0.11738325760E+04  0.10100000352E+00 0. -1.
       -3   -1    0    0    0  501  0.00000000000E+00  0.00000000000E+00 -0.53186345917E+02  0.53186441816E+02  0.10100000352E+00 0.  1.
    10030    2    1    2    0    0  0.00000000000E+00  0.00000000000E+00  0.11206462257E+04  0.12270190178E+04  0.49972763263E+03 0.  0.
        5    1    3    3  502    0  0.14286335105E+03  0.55092295370E+02  0.10450016775E+04  0.10561702959E+04  0.46999998093E+01 0. -1.
       -5    1    3    3    0  502 -0.14286335105E+03 -0.55092295370E+02  0.75644548219E+02  0.17084872184E+03  0.46999998093E+01 0.  1.
</event>
<event>
 5   0  0.1225989E-02  0.4995433E+03  0.7818609E-02  0.1013898E+00
        1   -1    0    0  501    0  0.00000000000E+00  0.00000000000E+00  0.34461520388E+03  0.34461520392E+03  0.50400001928E-02 0.  1.
       -1   -1    0    0    0  501  0.00000000000E+00  0.00000000000E+00 -0.18103055295E+03  0.18103055302E+03  0.50400001928E-02 0. -1.
    10030    2    1    2    0    0  0.00000000000E+00  0.00000000000E+00  0.16358465093E+03  0.52564575693E+03  0.49954331520E+03 0.  0.
        3    1    3    3  502    0 -0.13704292818E+03 -0.20580022428E+03  0.11901551813E+03  0.27440699742E+03  0.10100000352E+00 0.  1.
       -3    1    3    3    0  502  0.13704292818E+03  0.20580022428E+03  0.44569132806E+02  0.25123875951E+03  0.10100000352E+00 0. -1.
</event>
<event>
 5   0  0.1180937E-02  0.5001991E+03  0.7818609E-02  0.1013727E+00
        1   -1    0    0  501    0  0.00000000000E+00  0.00000000000E+00  0.77020055315E+03  0.77020055316E+03  0.50400001928E-02 0. -1.
       -1   -1    0    0    0  501  0.00000000000E+00  0.00000000000E+00 -0.81212322306E+02  0.81212322462E+02  0.50400001928E-02 0.  1.
    10030    2    1    2    0    0  0.00000000000E+00  0.00000000000E+00  0.68898823084E+03  0.85141287562E+03  0.50019906292E+03 0.  0.
        1    1    3    3  502    0 -0.12123742675E+02 -0.17192505190E+03  0.36012625200E+02  0.17607418268E+03  0.50400001928E-02 0. -1.
       -1    1    3    3    0  502  0.12123742675E+02  0.17192505190E+03  0.65297560564E+03  0.67533869295E+03  0.50400001928E-02 0.  1.
</event>
<event>
 5   0  0.1967813E-02  0.4988754E+03  0.7818609E-02  0.1014073E+00
        2   -1    0    0  501    0  0.00000000000E+00  0.00000000000E+00  0.54548483164E+03  0.54548483165E+03  0.25500000920E-02 0.  1.
       -2   -1    0    0    0  501  0.00000000000E+00  0.00000000000E+00 -0.11406212518E+03  0.11406212520E+03  0.25500000920E-02 0. -1.
    10030    2    1    2    0    0  0.00000000000E+00  0.00000000000E+00  0.43142270646E+03  0.65954695685E+03  0.49887537185E+03 0.  0.
        5    1    3    3  502    0  0.17762660632E+03  0.46978934815E+02 -0.72397248540E+01  0.18393676958E+03  0.46999998093E+01 0. -1.
       -5    1    3    3    0  502 -0.17762660632E+03 -0.46978934815E+02  0.43866243132E+03  0.47561018727E+03  0.46999998093E+01 0.  1.
</event>
<event>
 5   0  0.1923706E-02  0.4997690E+03  0.7818609E-02  0.1013839E+00
       -2   -1    0    0    0  501  0.00000000000E+00  0.00000000000E+00  0.19964268865E+03  0.19964268867E+03  0.25500000920E-02 0. -1.
        2   -1    0    0  501    0  0.00000000000E+00  0.00000000000E+00 -0.31277003712E+03  0.31277003713E+03  0.25500000920E-02 0.  1.
    10030    2    1    2    0    0  0.00000000000E+00  0.00000000000E+00 -0.11312734846E+03  0.51241272580E+03  0.49976895121E+03 0.  0.
        3    1    3    3  502    0 -0.12191511088E+03  0.10018633111E+03  0.14209488847E+03  0.21234774012E+03  0.10100000352E+00 0. -1.
       -3    1    3    3    0  502  0.12191511088E+03 -0.10018633111E+03 -0.25522223693E+03  0.30006498568E+03  0.10100000352E+00 0.  1.
</event>
<event>
 5   0  0.8012875E-03  0.4995325E+03  0.7818609E-02  0.1013901E+00
       -3   -1    0    0    0  501  0.00000000000E+00  0.00000000000E+00  0.11415257886E+03  0.11415262354E+03  0.10100000352E+00 0. -1.
        3   -1    0    0  501    0  0.00000000000E+00  0.00000000000E+00 -0.54648926841E+03  0.54648927774E+03  0.10100000352E+00 0.  1.
    10030    2    1    2    0    0  0.00000000000E+00  0.00000000000E+00 -0.43233668955E+03  0.66064190128E+03  0.49953249003E+03 0.  0.
        5    1    3    3  502    0 -0.56058575388E+02  0.32833763895E+02  0.10272219364E+03  0.12163288614E+03  0.46999998093E+01 0. -1.
       -5    1    3    3    0  502  0.56058575388E+02 -0.32833763895E+02 -0.53505888319E+03  0.53900901514E+03  0.46999998093E+01 0.  1.
</event>
<event>
 5   0  0.1855407E-02  0.4943103E+03  0.7818609E-02  0.1015275E+00
       -2   -1    0    0    0  501  0.00000000000E+00  0.00000000000E+00  0.71460231493E+02  0.71460231539E+02  0.25500000920E-02 0.  1.
        2   -1    0    0  501    0  0.00000000000E+00  0.00000000000E+00 -0.85482039374E+03  0.85482039374E+03  0.25500000920E-02 0. -1.
    10030    2    1    2    0    0  0.00000000000E+00  0.00000000000E+00 -0.78336016224E+03  0.92628062528E+03  0.49431028006E+03 0.  0.
        1    1    3    3  502    0 -0.34053236002E+02 -0.24175336090E+02  0.64800744330E+02  0.77092193174E+02  0.50400001928E-02 0.  1.
       -1    1    3    3    0  502  0.34053236002E+02  0.24175336090E+02 -0.84816090657E+03  0.84918843211E+03  0.50400001928E-02 0. -1.
</event>
<event>
 5   0  0.1217270E-02  0.5000555E+03  0.7818609E-02  0.1013764E+00
        1   -1    0    0  501    0  0.00000000000E+00  0.00000000000E+00  0.60344725215E+03  0.60344725217E+03  0.50400001928E-02 0. -1.
       -1   -1    0    0    0  501  0.00000000000E+00  0.00000000000E+00 -0.10359458790E+03  0.10359458802E+03  0.50400001928E-02 0.  1.
    10030    2    1    2    0    0  0.00000000000E+00  0.00000000000E+00  0.49985266425E+03  0.70704184019E+03  0.50005547475E+03 0.  0.
        2    1    3    3  502    0  0.24950158436E+02  0.58535141727E+02  0.59180727349E+03  0.59521821393E+03  0.25500000920E-02 0. -1.
       -2    1    3    3    0  502 -0.24950158436E+02 -0.58535141727E+02 -0.91954609246E+02  0.11182362626E+03  0.25500000920E-02 0.  1.
</event>
<event>
 5   0  0.1180937E-02  0.5119500E+03  0.7818609E-02  0.1010706E+00
        1   -1    0    0  501    0  0.00000000000E+00  0.00000000000E+00  0.16530311059E+04  0.16530311060E+04  0.50400001928E-02 0. -1.
       -1   -1    0    0    0  501  0.00000000000E+00  0.00000000000E+00 -0.39638221157E+02  0.39638221478E+02  0.50400001928E-02 0.  1.
    10030    2    1    2    0    0  0.00000000000E+00  0.00000000000E+00  0.16133928848E+04  0.16926693274E+04  0.51195004770E+03 0.  0.
        1    1    3    3  502    0 -0.24152283955E+03  0.33639424349E+02  0.54934853682E+03  0.60103968907E+03  0.50400001928E-02 0.  1.
       -1    1    3    3    0  502  0.24152283955E+03 -0.33639424349E+02  0.10640443480E+04  0.10916296384E+04  0.50400001928E-02 0. -1.
</event>
<event>
 5   0  0.1967813E-02  0.4980832E+03  0.7818609E-02  0.1014280E+00
       -2   -1    0    0    0  501  0.00000000000E+00  0.00000000000E+00  0.17786160049E+03  0.17786160051E+03  0.25500000920E-02 0. -1.
        2   -1    0    0  501    0  0.00000000000E+00  0.00000000000E+00 -0.34870778149E+03  0.34870778150E+03  0.25500000920E-02 0.  1.
    10030    2    1    2    0    0  0.00000000000E+00  0.00000000000E+00 -0.17084618100E+03  0.52656938201E+03  0.49808322247E+03 0.  0.
        5    1    3    3  502    0 -0.19742886568E+03 -0.14319812149E+03 -0.32397001161E+02  0.24608030129E+03  0.46999998093E+01 0. -1.
       -5    1    3    3    0  502  0.19742886568E+03  0.14319812149E+03 -0.13844917984E+03  0.28048908071E+03  0.46999998093E+01 0.  1.
</event>
<event>
 5   0  0.1225989E-02  0.5000428E+03  0.7818609E-02  0.1013768E+00
        1   -1    0    0  501    0  0.00000000000E+00  0.00000000000E+00  0.13305446434E+03  0.13305446444E+03  0.50400001928E-02 0. -1.
       -1   -1    0    0    0  501  0.00000000000E+00  0.00000000000E+00 -0.46981290291E+03  0.46981290294E+03  0.50400001928E-02 0.  1.
    10030    2    1    2    0    0  0.00000000000E+00  0.00000000000E+00 -0.33675843857E+03  0.60286736738E+03  0.50004281487E+03 0.  0.
        3    1    3    3  502    0 -0.26124306851E+02 -0.55074374049E+01  0.13133088386E+03  0.13401724714E+03  0.10100000352E+00 0. -1.
       -3    1    3    3    0  502  0.26124306851E+02  0.55074374049E+01 -0.46808932243E+03  0.46885012024E+03  0.10100000352E+00 0.  1.
</event>
<event>
 5   0  0.1209831E-02  0.5002566E+03  0.7818609E-02  0.1013712E+00
       -1   -1    0    0    0  501  0.00000000000E+00  0.00000000000E+00  0.10602298385E+03  0.10602298397E+03  0.50400001928E-02 0. -1.
        1   -1    0    0  501    0  0.00000000000E+00  0.00000000000E+00 -0.59009995938E+03  0.59009995940E+03  0.50400001928E-02 0.  1.
    10030    2    1    2    0    0  0.00000000000E+00  0.00000000000E+00 -0.48407697553E+03  0.69612294338E+03  0.50025656823E+03 0.  0.
        4    1    3    3  502    0  0.84136135186E+02  0.89782191616E+02  0.60992339001E+02  0.13733684681E+03  0.12699999809E+01 0. -1.
       -4    1    3    3    0  502 -0.84136135186E+02 -0.89782191616E+02 -0.54506931453E+03  0.55878609657E+03  0.12699999809E+01 0.  1.
</event>
<event>
 5   0  0.1923706E-02  0.5024682E+03  0.7818609E-02  0.1013137E+00
        2   -1    0    0  501    0  0.00000000000E+00  0.00000000000E+00  0.50973356649E+03  0.50973356650E+03  0.25500000920E-02 0.  1.
       -2   -1    0    0    0  501  0.00000000000E+00  0.00000000000E+00 -0.12382659256E+03  0.12382659259E+03  0.25500000920E-02 0. -1.
    10030    2    1    2    0    0  0.00000000000E+00  0.00000000000E+00  0.38590697394E+03  0.63356015909E+03  0.50246819068E+03 0.  0.
        3    1    3    3  502    0  0.61321178505E+02  0.12878027273E+03 -0.67823213588E+02  0.15793873521E+03  0.10100000352E+00 0. -1.
       -3    1    3    3    0  502 -0.61321178505E+02 -0.12878027273E+03  0.45373018752E+03  0.47562142387E+03  0.10100000352E+00 0.  1.
</event>
<event>
 5   0  0.1227864E-02  0.5001360E+03  0.7818609E-02  0.1013743E+00
       -1   -1    0    0    0  501  0.00000000000E+00  0.00000000000E+00  0.51331283745E+02  0.51331283992E+02  0.50400001928E-02 0.  1.
        1   -1    0    0  501    0  0.00000000000E+00  0.00000000000E+00 -0.12182436905E+04  0.12182436905E+04  0.50400001928E-02 0. -1.
    10030    2    1    2    0    0  0.00000000000E+00  0.00000000000E+00 -0.11669124068E+04  0.12695749745E+04  0.50013603234E+03 0.  0.
        5    1    3    3  502    0 -0.60883830438E+02 -0.13716818169E+03 -0.75827982808E+02  0.16820797797E+03  0.46999998093E+01 0.  1.
       -5    1    3    3    0  502  0.60883830438E+02  0.13716818169E+03 -0.10910844240E+04  0.11013669965E+04  0.46999998093E+01 0. -1.
</event>
<event>
 5   0  0.1967813E-02  0.5008125E+03  0.7818609E-02  0.1013567E+00
       -2   -1    0    0    0  501  0.00000000000E+00  0.00000000000E+00  0.11507035234E+03  0.11507035237E+03  0.25500000920E-02 0. -1.
        2   -1    0    0  501    0  0.00000000000E+00  0.00000000000E+00 -0.54491255733E+03  0.54491255734E+03  0.25500000920E-02 0.  1.
    10030    2    1    2    0    0  0.00000000000E+00  0.00000000000E+00 -0.42984220499E+03  0.65998290970E+03  0.50081245982E+03 0.  0.
        5    1    3    3  502    0  0.17169344694E+03 -0.11013079610E+03 -0.23615116801E+02  0.20539521833E+03  0.46999998093E+01 0. -1.
       -5    1    3    3    0  502 -0.17169344694E+03  0.11013079610E+03 -0.40622708819E+03  0.45458769138E+03  0.46999998093E+01 0.  1.
</event>
<event>
 5   0  0.1941387E-02  0.5007022E+03  0.7818609E-02  0.1013596E+00
        2   -1    0    0  501    0  0.00000000000E+00  0.00000000000E+00  0.11886680687E+04  0.11886680687E+04  0.25500000920E-02 0. -1.
       -2   -1    0    0    0  501  0.00000000000E+00  0.00000000000E+00 -0.52727656779E+02  0.52727656841E+02  0.25500000920E-02 0.  1.
    10030    2    1    2    0    0  0.00000000000E+00  0.00000000000E+00  0.11359404119E+04  0.12413957256E+04  0.50070223483E+03 0.  0.
        4    1    3    3  502    0 -0.19078365310E+03 -0.79846131385E+02  0.21821828049E+03  0.30065701027E+03  0.12699999809E+01 0.  1.
       -4    1    3    3    0  502  0.19078365310E+03  0.79846131385E+02  0.91772213145E+03  0.94073871528E+03  0.12699999809E+01 0. -1.
</event>
<event>
 5   0  0.1855407E-02  0.4989665E+03  0.7818609E-02  0.1014049E+00
       -2   -1    0    0    0  501  0.00000000000E+00  0.00000000000E+00  0.28139882167E+02  0.28139882283E+02  0.25500000920E-02 0.  1.
        2   -1    0    0  501    0  0.00000000000E+00  0.00000000000E+00 -0.22118747983E+04  0.22118747983E+04  0.25500000920E-02 0. -1.
    10030    2    1    2    0    0  0.00000000000E+00  0.00000000000E+00 -0.21837349162E+04  0.22400146806E+04  0.49896651721E+03 0.  0.
        1    1    3    3  502    0  0.14146788748E+03  0.12305389676E+03 -0.18307164394E+04  0.18402929404E+04  0.50400001928E-02 0. -1.
       -1    1    3    3    0  502 -0.14146788748E+03 -0.12305389676E+03 -0.35301847673E+03  0.39972174026E+03  0.50400001928E-02 0.  1.
</event>
<event>
 5   0  0.1855407E-02  0.5000560E+03  0.7818609E-02  0.1013764E+00
       -2   -1    0    0    0  501  0.00000000000E+00  0.00000000000E+00  0.12372402889E+03  0.12372402891E+03  0.25500000920E-02 0.  1.
        2   -1    0    0  501    0  0.00000000000E+00  0.00000000000E+00 -0.50526964458E+03  0.50526964459E+03  0.25500000920E-02 0. -1.
    10030    2    1    2    0    0  0.00000000000E+00  0.00000000000E+00 -0.38154561569E+03  0.62899367350E+03  0.50005598131E+03 0.  0.
        1    1    3    3  502    0 -0.20673777422E+03  0.11608290123E+03 -0.90948212481E+02  0.25394354614E+03  0.50400001928E-02 0.  1.
       -1    1    3    3    0  502  0.20673777422E+03 -0.11608290123E+03 -0.29059740321E+03  0.37505012735E+03  0.50400001928E-02 0. -1.
</event>
<event>
 5   0  0.8012875E-03  0.4990419E+03  0.7818609E-02  0.1014029E+00
        3   -1    0    0  501    0  0.00000000000E+00  0.00000000000E+00  0.19177537632E+03  0.19177540291E+03  0.10100000352E+00 0. -1.
       -3   -1    0    0    0  501  0.00000000000E+00  0.00000000000E+00 -0.32465426042E+03  0.32465427613E+03  0.10100000352E+00 0.  1.
    10030    2    1    2    0    0  0.00000000000E+00  0.00000000000E+00 -0.13287888410E+03  0.51642967904E+03  0.49904189760E+03 0.  0.
        1    1    3    3  502    0  0.12158645921E+02  0.24477855626E+03 -0.11493734279E+03  0.27069349285E+03  0.50400001928E-02 0.  1.
       -1    1    3    3    0  502 -0.12158645921E+02 -0.24477855626E+03 -0.17941541310E+02  0.24573618620E+03  0.50400001928E-02 0. -1.
</event>
<event>
 5   0  0.1217270E-02  0.5001156E+03  0.7818609E-02  0.1013749E+00
        1   -1    0    0  501    0  0.00000000000E+00  0.00000000000E+00  0.63933840580E+02  0.63933840778E+02  0.50400001928E-02 0. -1.
       -1   -1    0    0    0  501  0.00000000000E+00  0.00000000000E+00 -0.97802530645E+03  0.97802530646E+03  0.50400001928E-02 0.  1.
    10030    2    1    2    0    0  0.00000000000E+00  0.00000000000E+00 -0.91409146587E+03  0.10419591472E+04  0.50011564317E+03 0.  0.
        2    1    3    3  502    0 -0.77207255357E+02  0.16918663388E+03 -0.10876995547E+03  0.21544368309E+03  0.25500000920E-02 0. -1.
       -2    1    3    3    0  502  0.77207255357E+02 -0.16918663388E+03 -0.80532151040E+03  0.82651546415E+03  0.25500000920E-02 0.  1.
</event>
<event>
 5   0  0.1855407E-02  0.5009666E+03  0.7818609E-02  0.1013527E+00
        2   -1    0    0  501    0  0.00000000000E+00  0.00000000000E+00  0.57104193498E+03  0.57104193498E+03  0.25500000920E-02 0.  1.
       -2   -1    0    0    0  501  0.00000000000E+00  0.00000000000E+00 -0.10987265078E+03  0.10987265081E+03  0.25500000920E-02 0. -1.
    10030    2    1    2    0    0  0.00000000000E+00  0.00000000000E+00  0.46116928419E+03  0.68091458580E+03  0.50096663009E+03 0.  0.
        1    1    3    3  502    0 -0.24419841547E+03  0.51450500348E+02  0.20137379300E+03  0.32067339247E+03  0.50400001928E-02 0.  1.
       -1    1    3    3    0  502  0.24419841547E+03 -0.51450500348E+02  0.25979549119E+03  0.36024119333E+03  0.50400001928E-02 0. -1.
</event>
<event>
 5   0  0.1225989E-02  0.5008039E+03  0.7818609E-02  0.1013569E+00
        1   -1    0    0  501    0  0.00000000000E+00  0.00000000000E+00  0.10046332607E+03  0.10046332620E+03  0.50400001928E-02 0.  1.
       -1   -1    0    0    0  501  0.00000000000E+00  0.00000000000E+00 -0.62411957299E+03  0.62411957301E+03  0.50400001928E-02 0. -1.
    10030    2    1    2    0    0  0.00000000000E+00  0.00000000000E+00 -0.52365624691E+03  0.72458289921E+03  0.50080386669E+03 0.  0.
        3    1    3    3  502    0 -0.11696995149E+03 -0.22139354703E+03 -0.26473832408E+03  0.36439465234E+03  0.10100000352E+00 0. -1.
       -3    1    3    3    0  502  0.11696995149E+03  0.22139354703E+03 -0.25891792283E+03  0.36018824687E+03  0.10100000352E+00 0.  1.
</event>
<event>
 5   0  0.1225989E-02  0.4993950E+03  0.7818609E-02  0.1013937E+00
        1   -1    0    0  501    0  0.00000000000E+00  0.00000000000E+00  0.12454009965E+04  0.12454009965E+04  0.50400001928E-02 0. -1.
       -1   -1    0    0    0  501  0.00000000000E+00  0.00000000000E+00 -0.50063271818E+02  0.50063272071E+02  0.50400001928E-02 0.  1.
    10030    2    1    2    0    0  0.00000000000E+00  0.00000000000E+00  0.11953377247E+04  0.12954642686E+04  0.49939502914E+03 0.  0.
        3    1    3    3  502    0 -0.24701608059E+03 -0.32264447304E+02  0.64191272631E+03  0.68855638624E+03  0.10100000352E+00 0. -1.
       -3    1    3    3    0  502  0.24701608059E+03  0.32264447304E+02  0.55342499840E+03  0.60690788237E+03  0.10100000352E+00 0.  1.
</event>
<event>
 5   0  0.1941387E-02  0.4999988E+03  0.7818609E-02  0.1013779E+00
       -2   -1    0    0    0  501  0.00000000000E+00  0.00000000000E+00  0.66392166358E+03  0.66392166359E+03  0.25500000920E-02 0. -1.
        2   -1    0    0  501    0  0.00000000000E+00  0.00000000000E+00 -0.94137168682E+02  0.94137168716E+02  0.25500000920E-02 0.  1.
    10030    2    1    2    0    0  0.00000000000E+00  0.00000000000E+00  0.56978449490E+03  0.75805883231E+03  0.49999882260E+03 0.  0.
        4    1    3    3  502    0  0.81882567460E+02  0.12585296098E+03 -0.18158999034E+02  0.15124511492E+03  0.12699999809E+01 0.  1.
       -4    1    3    3    0  502 -0.81882567460E+02 -0.12585296098E+03  0.58794349394E+03  0.60681371738E+03  0.12699999809E+01 0. -1.
</event>
<event>
 5   0  0.1209831E-02  0.4989572E+03  0.7818609E-02  0.1014051E+00
        1   -1    0    0  501    0  0.00000000000E+00  0.00000000000E+00  0.94642006490E+02  0.94642006624E+02  0.50400001928E-02 0.  1.
       -1   -1    0    0    0  501  0.00000000000E+00  0.00000000000E+00 -0.65763169667E+03  0.65763169669E+03  0.50400001928E-02 0. -1.
    10030    2    1    2    0    0  0.00000000000E+00  0.00000000000E+00 -0.56298969018E+03  0.75227370332E+03  0.49895724611E+03 0.  0.
        4    1    3    3  502    0  0.44025551295E+02 -0.23713765774E+03 -0.18536306231E+03  0.30419335242E+03  0.12699999809E+01 0.  1.
       -4    1    3    3    0  502 -0.44025551295E+02  0.23713765774E+03 -0.37762662787E+03  0.44808035090E+03  0.12699999809E+01 0. -1.
</event>
<event>
 5   0  0.1855407E-02  0.4997484E+03  0.7818609E-02  0.1013845E+00
       -2   -1    0    0    0  501  0.00000000000E+00  0.00000000000E+00  0.88690648242E+02  0.88690648278E+02  0.25500000920E-02 0. -1.
        2   -1    0    0  501    0  0.00000000000E+00  0.00000000000E+00 -0.70398758732E+03  0.70398758732E+03  0.25500000920E-02 0.  1.
    10030    2    1    2    0    0  0.00000000000E+00  0.00000000000E+00 -0.61529693908E+03  0.79267823560E+03  0.49974839866E+03 0.  0.
        1    1    3    3  502    0 -0.15516090063E+03 -0.59318868738E+02 -0.11570360505E+02  0.16651578466E+03  0.50400001928E-02 0. -1.
       -1    1    3    3    0  502  0.15516090063E+03  0.59318868738E+02 -0.60372657857E+03  0.62616245094E+03  0.50400001928E-02 0.  1.
</event>
<event>
 5   0  0.1923706E-02  0.5006058E+03  0.7818609E-02  0.1013621E+00
       -2   -1    0    0    0  501  0.00000000000E+00  0.00000000000E+00  0.50283064655E+02  0.50283064720E+02  0.25500000920E-02 0. -1.
        2   -1    0    0  501    0  0.00000000000E+00  0.00000000000E+00 -0.12459767966E+04  0.12459767966E+04  0.25500000920E-02 0.  1.
    10030    2    1    2    0    0  0.00000000000E+00  0.00000000000E+00 -0.11956937319E+04  0.12962598613E+04  0.50060576051E+03 0.  0.
        3    1    3    3  502    0  0.21450743889E+03 -0.26453220873E+02 -0.92474867984E+03  0.94967012446E+03  0.10100000352E+00 0.  1.
       -3    1    3    3    0  502 -0.21450743889E+03  0.26453220873E+02 -0.27094505208E+03  0.34658973684E+03  0.10100000352E+00 0. -1.
</event>
<event>
 5   0  0.1923706E-02  0.4999365E+03  0.7818609E-02  0.1013795E+00
       -2   -1    0    0    0  501  0.00000000000E+00  0.00000000000E+00  0.14668105450E+03  0.14668105453E+03  0.25500000920E-02 0. -1.
        2   -1    0    0  501    0  0.00000000000E+00  0.00000000000E+00 -0.42598632842E+03  0.42598632843E+03  0.25500000920E-02 0.  1.
    10030    2    1    2    0    0  0.00000000000E+00  0.00000000000E+00 -0.27930527392E+03  0.57266738296E+03  0.49993649143E+03 0.  0.
        3    1    3    3  502    0 -0.24755247366E+03 -0.27766286235E+02 -0.16343121245E+03  0.29793114183E+03  0.10100000352E+00 0. -1.
       -3    1    3    3    0  502  0.24755247366E+03  0.27766286235E+02 -0.11587406147E+03  0.27473624113E+03  0.10100000352E+00 0.  1.
</event>
<event>
 5   0  0.1217270E-02  0.5006119E+03  0.7818609E-02  0.1013619E+00
       -1   -1    0    0    0  501  0.00000000000E+00  0.00000000000E+00  0.14076667484E+03  0.14076667493E+03  0.50400001928E-02 0. -1.
        1   -1    0    0  501    0  0.00000000000E+00  0.00000000000E+00 -0.44508452250E+03  0.44508452252E+03  0.50400001928E-02 0.  1.
    10030    2    1    2    0    0  0.00000000000E+00  0.00000000000E+00 -0.30431784766E+03  0.58585119745E+03  0.50061189873E+03 0.  0.
        2    1    3    3  502    0  0.23368556912E+03 -0.71031508461E+02 -0.88075030433E+02  0.25963749999E+03  0.25500000920E-02 0. -1.
       -2    1    3    3    0  502 -0.23368556912E+03  0.71031508461E+02 -0.21624281722E+03  0.32621369747E+03  0.25500000920E-02 0.  1.
</event>
<event>
 5   0  0.1967813E-02  0.4999377E+03  0.7818609E-02  0.1013795E+00
       -2   -1    0    0    0  501  0.00000000000E+00  0.00000000000E+00  0.43040899411E+02  0.43040899487E+02  0.25500000920E-02 0.  1.
        2   -1    0    0  501    0  0.00000000000E+00  0.00000000000E+00 -0.14517451821E+04  0.14517451821E+04  0.25500000920E-02 0. -1.
    10030    2    1    2    0    0  0.00000000000E+00  0.00000000000E+00 -0.14087042826E+04  0.14947860815E+04  0.49993766975E+03 0.  0.
        5    1    3    3  502    0  0.59543874937E+02 -0.16542107368E+03 -0.12354586349E+04  0.12479141529E+04  0.46999998093E+01 0. -1.
       -5    1    3    3    0  502 -0.59543874937E+02  0.16542107368E+03 -0.17324564778E+03  0.24687192861E+03  0.46999998093E+01 0.  1.
</event>
<event>
 5   0  0.1967813E-02  0.5001606E+03  0.7818609E-02  0.1013737E+00
        2   -1    0    0  501    0  0.00000000000E+00  0.00000000000E+00  0.11460648334E+04  0.11460648334E+04  0.25500000920E-02 0. -1.
       -2   -1    0    0    0  501  0.00000000000E+00  0.00000000000E+00 -0.54569464974E+02  0.54569465033E+02  0.25500000920E-02 0.  1.
    10030    2    1    2    0    0  0.00000000000E+00  0.00000000000E+00  0.10914953684E+04  0.12006342984E+04  0.50016055350E+03 0.  0.
        5    1    3    3  502    0  0.22089016165E+03  0.14663686072E+02  0.82476946511E+03  0.85397555456E+03  0.46999998093E+01 0.  1.
       -5    1    3    3    0  502 -0.22089016165E+03 -0.14663686072E+02  0.26672590328E+03  0.34665874385E+03  0.46999998093E+01 0. -1.
</event>
<event>
 5   0  0.1941387E-02  0.4980989E+03  0.7818609E-02  0.1014276E+00
       -2   -1    0    0    0  501  0.00000000000E+00  0.00000000000E+00  0.11573790827E+03  0.11573790830E+03  0.25500000920E-02 0.  1.
        2   -1    0    0  501    0  0.00000000000E+00  0.00000000000E+00 -0.53591457737E+03  0.53591457737E+03  0.25500000920E-02 0. -1.
    10030    2    1    2    0    0  0.00000000000E+00  0.00000000000E+00 -0.42017666909E+03  0.65165248567E+03  0.49809891471E+03 0.  0.
        4    1    3    3  502    0 -0.13379269961E+03 -0.14254848917E+03 -0.82421635820E+01  0.19567857418E+03  0.12699999809E+01 0.  1.
       -4    1    3    3    0  502  0.13379269961E+03  0.14254848917E+03 -0.41193450551E+03  0.45597391149E+03  0.12699999809E+01 0. -1.
</event>
<event>
 5   0  0.1941387E-02  0.5006651E+03  0.7818609E-02  0.1013605E+00
       -2   -1    0    0    0  501  0.00000000000E+00  0.00000000000E+00  0.88904067832E+02  0.88904067868E+02  0.25500000920E-02 0. -1.
        2   -1    0    0  501    0  0.00000000000E+00  0.00000000000E+00 -0.70487640292E+03  0.70487640293E+03  0.25500000920E-02 0.  1.
    10030    2    1    2    0    0  0.00000000000E+00  0.00000000000E+00 -0.61597233509E+03  0.79378047080E+03  0.50066507589E+03 0.  0.
        4    1    3    3  502    0  0.58100440335E+02 -0.14315371721E+03 -0.62026838296E+03  0.63922071910E+03  0.12699999809E+01 0.  1.
       -4    1    3    3    0  502 -0.58100440335E+02  0.14315371721E+03  0.42960478722E+01  0.15455975170E+03  0.12699999809E+01 0. -1.
</event>
<event>
 5   0  0.1217270E-02  0.5005073E+03  0.7818609E-02  0.1013647E+00
        1   -1    0    0  501    0  0.00000000000E+00  0.00000000000E+00  0.13260842806E+03  0.13260842815E+03  0.50400001928E-02 0. -1.
       -1   -1    0    0    0  501  0.00000000000E+00  0.00000000000E+00 -0.47226934101E+03  0.47226934104E+03  0.50400001928E-02 0.  1.
    10030    2    1    2    0    0  0.00000000000E+00  0.00000000000E+00 -0.33966091295E+03  0.60487776919E+03  0.50050732250E+03 0.  0.
        2    1    3    3  502    0  0.22398787673E+03  0.80258178705E+02 -0.76101619739E+02  0.24980672670E+03  0.25500000920E-02 0. -1.
       -2    1    3    3    0  502 -0.22398787673E+03 -0.80258178705E+02 -0.26355929321E+03  0.35507104249E+03  0.25500000920E-02 0.  1.
</event>
<event>
 5   0  0.1923706E-02  0.5002070E+03  0.7818609E-02  0.1013725E+00
        2   -1    0    0  501    0  0.00000000000E+00  0.00000000000E+00  0.93351523778E+03  0.93351523778E+03  0.25500000920E-02 0. -1.
       -2   -1    0    0    0  501  0.00000000000E+00  0.00000000000E+00 -0.67006675081E+02  0.67006675129E+02  0.25500000920E-02 0.  1.
    10030    2    1    2    0    0  0.00000000000E+00  0.00000000000E+00  0.86650856270E+03  0.10005219129E+04  0.50020696615E+03 0.  0.
        3    1    3    3  502    0 -0.21199066481E+03 -0.11817067329E+03  0.55405460358E+03  0.60488086756E+03  0.10100000352E+00 0. -1.
       -3    1    3    3    0  502  0.21199066481E+03  0.11817067329E+03  0.31245395912E+03  0.39564104535E+03  0.10100000352E+00 0.  1.
</event>
<event>
 5   0  0.1209831E-02  0.4997501E+03  0.7818609E-02  0.1013844E+00
       -1   -1    0    0    0  501  0.00000000000E+00  0.00000000000E+00  0.51454753835E+02  0.51454754081E+02  0.50400001928E-02 0.  1.
        1   -1    0    0  501    0  0.00000000000E+00  0.00000000000E+00 -0.12134456159E+04  0.12134456159E+04  0.50400001928E-02 0. -1.
    10030    2    1    2    0    0  0.00000000000E+00  0.00000000000E+00 -0.11619908621E+04  0.12649003700E+04  0.49975012004E+03 0.  0.
        4    1    3    3  502    0  0.74993310714E+02 -0.23826350469E+03 -0.56450686409E+03  0.61730309154E+03  0.12699999809E+01 0. -1.
       -4    1    3    3    0  502 -0.74993310714E+02  0.23826350469E+03 -0.59748399798E+03  0.64759727846E+03  0.12699999809E+01 0.  1.
</event>
<event>
 5   0  0.1855407E-02  0.5004111E+03  0.7818609E-02  0.1013672E+00
        2   -1    0    0  501    0  0.00000000000E+00  0.00000000000E+00  0.20758967690E+04  0.20758967690E+04  0.25500000920E-02 0. -1.
       -2   -1    0    0    0  501  0.00000000000E+00  0.00000000000E+00 -0.30157002771E+02  0.30157002879E+02  0.25500000920E-02 0.  1.
    10030    2    1    2    0    0  0.00000000000E+00  0.00000000000E+00  0.20457397662E+04  0.21060537718E+04  0.50041112989E+03 0.  0.
        1    1    3    3  502    0 -0.23094465970E+03 -0.88718984765E+02  0.11801365283E+04  0.12057896664E+04  0.50400001928E-02 0. -1.
       -1    1    3    3    0  502  0.23094465970E+03  0.88718984765E+02  0.86560323788E+03  0.90026410545E+03  0.50400001928E-02 0.  1.
</event>
<event>
 5   0  0.1982847E-02  0.5003570E+03  0.7818609E-02  0.1013686E+00
       -2   -1    0    0    0  501  0.00000000000E+00  0.00000000000E+00  0.51278948288E+03  0.51278948289E+03  0.25500000920E-02 0.  1.
        2   -1    0    0  501    0  0.00000000000E+00  0.00000000000E+00 -0.12205646228E+03  0.12205646231E+03  0.25500000920E-02 0. -1.
    10030    2    1    2    0    0  0.00000000000E+00  0.00000000000E+00  0.39073302060E+03  0.63484594519E+03  0.50035695333E+03 0.  0.
        2    1    3    3  502    0 -0.14660141595E+03  0.20249699204E+03  0.20755367689E+03  0.32492389223E+03  0.25500000920E-02 0. -1.
       -2    1    3    3    0  502  0.14660141595E+03 -0.20249699204E+03  0.18317934371E+03  0.30992205296E+03  0.25500000920E-02 0.  1.
</event>
<event>
 5   0  0.1209831E-02  0.4998731E+03  0.7818609E-02  0.1013812E+00
        1   -1    0    0  501    0  0.00000000000E+00  0.00000000000E+00  0.97722306132E+02  0.97722306262E+02  0.50400001928E-02 0. -1.
       -1   -1    0    0    0  501  0.00000000000E+00  0.00000000000E+00 -0.63924285660E+03  0.63924285662E+03  0.50400001928E-02 0.  1.
    10030    2    1    2    0    0  0.00000000000E+00  0.00000000000E+00 -0.54152055047E+03  0.73696516288E+03  0.49987312863E+03 0.  0.
        4    1    3    3  502    0  0.21017628799E+03  0.87925128210E+02 -0.42227525900E+03  0.47981549315E+03  0.12699999809E+01 0.  1.
       -4    1    3    3    0  502 -0.21017628799E+03 -0.87925128210E+02 -0.11924529147E+03  0.25714966973E+03  0.12699999809E+01 0. -1.
</event>
<event>
 5   0  0.1217270E-02  0.4999934E+03  0.7818609E-02  0.1013781E+00
        1   -1    0    0  501    0  0.00000000000E+00  0.00000000000E+00  0.82416710997E+02  0.82416711151E+02  0.50400001928E-02 0.  1.
       -1   -1    0    0    0  501  0.00000000000E+00  0.00000000000E+00 -0.75832129680E+03  0.75832129681E+03  0.50400001928E-02 0. -1.
    10030    2    1    2    0    0  0.00000000000E+00  0.00000000000E+00 -0.67590458580E+03  0.84073800797E+03  0.49999338889E+03 0.  0.
        2    1    3    3  502    0  0.12681980243E+03 -0.10878978254E+03 -0.65063804026E+03  0.67175020544E+03  0.25500000920E-02 0.  1.
       -2    1    3    3    0  502 -0.12681980243E+03  0.10878978254E+03 -0.25266545546E+02  0.16898780253E+03  0.25500000920E-02 0. -1.
</event>
<event>
 5   0  0.1941387E-02  0.4990869E+03  0.7818609E-02  0.1014018E+00
        2   -1    0    0  501    0  0.00000000000E+00  0.00000000000E+00  0.22148989126E+03  0.22148989128E+03  0.25500000920E-02 0.  1.
       -2   -1    0    0    0  501  0.00000000000E+00  0.00000000000E+00 -0.28115024655E+03  0.28115024656E+03  0.25500000920E-02 0. -1.
    10030    2    1    2    0    0  0.00000000000E+00  0.00000000000E+00 -0.59660355283E+02  0.50264013784E+03  0.49908691645E+03 0.  0.
        4    1    3    3  502    0 -0.80864368468E+02 -0.20438747665E+03 -0.14881117647E+03  0.26544239646E+03  0.12699999809E+01 0. -1.
       -4    1    3    3    0  502  0.80864368468E+02  0.20438747665E+03  0.89150821183E+02  0.23719774138E+03  0.12699999809E+01 0.  1.
</event>
<event>
 5   0  0.1941387E-02  0.5003581E+03  0.7818609E-02  0.1013685E+00
       -2   -1    0    0    0  501  0.00000000000E+00  0.00000000000E+00  0.74805507697E+02  0.74805507741E+02  0.25500000920E-02 0. -1.
        2   -1    0    0  501    0  0.00000000000E+00  0.00000000000E+00 -0.83669710859E+03  0.83669710860E+03  0.25500000920E-02 0.  1.
    10030    2    1    2    0    0  0.00000000000E+00  0.00000000000E+00 -0.76189160090E+03  0.91150261634E+03  0.50035807985E+03 0.  0.
        4    1    3    3  502    0  0.18642372423E+02 -0.24784196564E+03 -0.43294446081E+03  0.49921508093E+03  0.12699999809E+01 0.  1.
       -4    1    3    3    0  502 -0.18642372423E+02  0.24784196564E+03 -0.32894714008E+03  0.41228753541E+03  0.12699999809E+01 0. -1.
</event>
<event>
 5   0  0.1209831E-02  0.5000681E+03  0.7818609E-02  0.1013761E+00
        1   -1    0    0  501    0  0.00000000000E+00  0.00000000000E+00  0.25257229842E+03  0.25257229847E+03  0.50400001928E-02 0. -1.
       -1   -1    0    0    0  501  0.00000000000E+00  0.00000000000E+00 -0.24752129519E+03  0.24752129524E+03  0.50400001928E-02 0.  1.
    10030    2    1    2    0    0  0.00000000000E+00  0.00000000000E+00  0.50510032276E+01  0.50009359371E+03  0.50006808520E+03 0.  0.
        4    1    3    3  502    0 -0.99243408723E+02 -0.41190172060E+02 -0.22325032783E+03  0.24776643482E+03  0.12699999809E+01 0.  1.
       -4    1    3    3    0  502  0.99243408723E+02  0.41190172060E+02  0.22830133106E+03  0.25232715889E+03  0.12699999809E+01 0. -1.
</event>
<event>
 5   0  0.1217270E-02  0.5013903E+03  0.7818609E-02  0.1013417E+00
       -1   -1    0    0    0  501  0.00000000000E+00  0.00000000000E+00  0.43889410548E+02  0.43889410837E+02  0.50400001928E-02 0. -1.
        1   -1    0    0  501    0  0.00000000000E+00  0.00000000000E+00 -0.14319638318E+04  0.14319638318E+04  0.50400001928E-02 0.  1.
    10030    2    1    2    0    0  0.00000000000E+00  0.00000000000E+00 -0.13880744212E+04  0.14758532426E+04  0.50139026206E+03 0.  0.
        2    1    3    3  502    0  0.11385816318E+03  0.85994847827E+02 -0.87291339535E+02  0.16726796806E+03  0.25500000920E-02 0. -1.
       -2    1    3    3    0  502 -0.11385816318E+03 -0.85994847827E+02 -0.13007830817E+04  0.13085852745E+04  0.25500000920E-02 0.  1.
</event>
<event>
 5   0  0.1967813E-02  0.5010427E+03  0.7818609E-02  0.1013507E+00
        2   -1    0    0  501    0  0.00000000000E+00  0.00000000000E+00  0.14468980098E+04  0.14468980098E+04  0.25500000920E-02 0.  1.
       -2   -1    0    0    0  501  0.00000000000E+00  0.00000000000E+00 -0.43376214646E+02  0.43376214721E+02  0.25500000920E-02 0. -1.
    10030    2    1    2    0    0  0.00000000000E+00  0.00000000000E+00  0.14035217951E+04  0.14902742245E+04  0.50104274748E+03 0.  0.
        5    1    3    3  502    0  0.24881852386E+02  0.10861990219E+03  0.13689794417E+04  0.13735152680E+04  0.46999998093E+01 0.  1.
       -5    1    3    3    0  502 -0.24881852386E+02 -0.10861990219E+03  0.34542353397E+02  0.11675895643E+03  0.46999998093E+01 0. -1.
</event>
<event>
 5   0  0.1967813E-02  0.4999160E+03  0.7818609E-02  0.1013801E+00
       -2   -1    0    0    0  501  0.00000000000E+00  0.00000000000E+00  0.47650353299E+02  0.47650353368E+02  0.25500000920E-02 0. -1.
        2   -1    0    0  501    0  0.00000000000E+00  0.00000000000E+00 -0.13111972790E+04  0.13111972790E+04  0.25500000920E-02 0.  1.
    10030    2    1    2    0    0  0.00000000000E+00  0.00000000000E+00 -0.12635469257E+04  0.13588476324E+04  0.49991604751E+03 0.  0.
        5    1    3    3  502    0 -0.19824883658E+03  0.56868222236E+02 -0.24813519309E+03  0.32269143149E+03  0.46999998093E+01 0. -1.
       -5    1    3    3    0  502  0.19824883658E+03 -0.56868222236E+02 -0.10154117326E+04  0.10361562009E+04  0.46999998093E+01 0.  1.
</event>
<event>
 5   0  0.1225989E-02  0.4984363E+03  0.7818609E-02  0.1014188E+00
       -1   -1    0    0    0  501  0.00000000000E+00  0.00000000000E+00  0.37506121727E+03  0.37506121730E+03  0.50400001928E-02 0.  1.
        1   -1    0    0  501    0  0.00000000000E+00  0.00000000000E+00 -0.16559881352E+03  0.16559881360E+03  0.50400001928E-02 0. -1.
    10030    2    1    2    0    0  0.00000000000E+00  0.00000000000E+00  0.20946240374E+03  0.54066003090E+03  0.49843632535E+03 0.  0.
        3    1    3    3  502    0 -0.23220668949E+03  0.87566732676E+02  0.79953107460E+02  0.26073049095E+03  0.10100000352E+00 0. -1.
       -3    1    3    3    0  502  0.23220668949E+03 -0.87566732676E+02  0.12950929628E+03  0.27992953996E+03  0.10100000352E+00 0.  1.
</event>
<event>
 5   0  0.1982847E-02  0.4998287E+03  0.7818609E-02  0.1013824E+00
        2   -1    0    0  501    0  0.00000000000E+00  0.00000000000E+00  0.85081871426E+03  0.85081871426E+03  0.25500000920E-02 0.  1.
       -2   -1    0    0    0  501  0.00000000000E+00  0.00000000000E+00 -0.73408335852E+02  0.73408335896E+02  0.25500000920E-02 0. -1.
    10030    2    1    2    0    0  0.00000000000E+00  0.00000000000E+00  0.77741037840E+03  0.92422705016E+03  0.49982871445E+03 0.  0.
        2    1    3    3  502    0  0.14526750533E+03 -0.18795744879E+03  0.53225126513E+03  0.58285680909E+03  0.25500000920E-02 0.  1.
       -2    1    3    3    0  502 -0.14526750533E+03  0.18795744879E+03  0.24515911327E+03  0.34137024107E+03  0.25500000920E-02 0. -1.
</event>
<event>
 5   0  0.1209831E-02  0.5003702E+03  0.7818609E-02  0.1013682E+00
        1   -1    0    0  501    0  0.00000000000E+00  0.00000000000E+00  0.14142864699E+04  0.14142864699E+04  0.50400001928E-02 0.  1.
       -1   -1    0    0    0  501  0.00000000000E+00  0.00000000000E+00 -0.44257360080E+02  0.44257360367E+02  0.50400001928E-02 0. -1.
    10030    2    1    2    0    0  0.00000000000E+00  0.00000000000E+00  0.13700291098E+04  0.14585438303E+04  0.50037020603E+03 0.  0.
        4    1    3    3  502    0 -0.89510657169E+02 -0.22671760826E+03  0.52069056446E+03  0.57492026270E+03  0.12699999809E+01 0.  1.
       -4    1    3    3    0  502  0.89510657169E+02  0.22671760826E+03  0.84933854535E+03  0.88362356757E+03  0.12699999809E+01 0. -1.
</event>
<event>
 5   0  0.1923706E-02  0.5006685E+03  0.7818609E-02  0.1013605E+00
        2   -1    0    0  501    0  0.00000000000E+00  0.00000000000E+00  0.36160338058E+03  0.36160338059E+03  0.25500000920E-02 0.  1.
       -2   -1    0    0    0  501  0.00000000000E+00  0.00000000000E+00 -0.17330380536E+03  0.17330380538E+03  0.25500000920E-02 0. -1.
    10030    2    1    2    0    0  0.00000000000E+00  0.00000000000E+00  0.18829957523E+03  0.53490718597E+03  0.50066852065E+03 0.  0.
        3    1    3    3  502    0  0.15861442176E+03 -0.24796345500E+02  0.29936288017E+03  0.33969329956E+03  0.10100000352E+00 0.  1.
       -3    1    3    3    0  502 -0.15861442176E+03  0.24796345500E+02 -0.11106330495E+03  0.19521388641E+03  0.10100000352E+00 0. -1.
</event>
<event>
 5   0  0.1967813E-02  0.5003032E+03  0.7818609E-02  0.1013700E+00
        2   -1    0    0  501    0  0.00000000000E+00  0.00000000000E+00  0.21698616383E+04  0.21698616384E+04  0.25500000920E-02 0.  1.
       -2   -1    0    0    0  501  0.00000000000E+00  0.00000000000E+00 -0.28838623526E+02  0.28838623638E+02  0.25500000920E-02 0. -1.
    10030    2    1    2    0    0  0.00000000000E+00  0.00000000000E+00  0.21410230148E+04  0.21987002620E+04  0.50030320014E+03 0.  0.
        5    1    3    3  502    0 -0.23081324053E+02 -0.16086327629E+03  0.23500313711E+03  0.28575917418E+03  0.46999998093E+01 0. -1.
       -5    1    3    3    0  502  0.23081324053E+02  0.16086327629E+03  0.19060198777E+04  0.19129410878E+04  0.46999998093E+01 0.  1.
</event>
<event>
 5   0  0.8012875E-03  0.5004162E+03  0.7818609E-02  0.1013670E+00
        3   -1    0    0  501    0  0.00000000000E+00  0.00000000000E+00  0.68001198567E+03  0.68001199317E+03  0.10100000352E+00 0.  1.
       -3   -1    0    0    0  501  0.00000000000E+00  0.00000000000E+00 -0.92063175206E+02  0.92063230608E+02  0.10100000352E+00 0. -1.
    10030    2    1    2    0    0  0.00000000000E+00  0.00000000000E+00  0.58794881047E+03  0.77207522378E+03  0.50041617425E+03 0.  0.
        5    1    3    3  502    0  0.92600674152E+02  0.46023701958E+02 -0.57477287090E+02  0.11840099039E+03  0.46999998093E+01 0. -1.
       -5    1    3    3    0  502 -0.92600674152E+02 -0.46023701958E+02  0.64542609756E+03  0.65367423339E+03  0.46999998093E+01 0.  1.
</event>
<event>
 5   0  0.1982847E-02  0.5003428E+03  0.7818609E-02  0.1013689E+00
       -2   -1    0    0    0  501  0.00000000000E+00  0.00000000000E+00  0.30803090386E+02  0.30803090492E+02  0.25500000920E-02 0.  1.
        2   -1    0    0  501    0  0.00000000000E+00  0.00000000000E+00 -0.20318004424E+04  0.20318004424E+04  0.25500000920E-02 0. -1.
    10030    2    1    2    0    0  0.00000000000E+00  0.00000000000E+00 -0.20009973521E+04  0.20626035329E+04  0.50034281362E+03 0.  0.
        2    1    3    3  502    0  0.18701763137E+03  0.16295908431E+03 -0.11343634383E+04  0.11611682340E+04  0.25500000920E-02 0.  1.
       -2    1    3    3    0  502 -0.18701763137E+03 -0.16295908431E+03 -0.86663391376E+03  0.90143529889E+03  0.25500000920E-02 0. -1.
</event>
<event>
 5   0  0.1180937E-02  0.5001489E+03  0.7818609E-02  0.1013740E+00
        1   -1    0    0  501    0  0.00000000000E+00  0.00000000000E+00  0.41981499601E+03  0.41981499604E+03  0.50400001928E-02 0. -1.
       -1   -1    0    0    0  501  0.00000000000E+00  0.00000000000E+00 -0.14896377204E+03  0.14896377212E+03  0.50400001928E-02 0.  1.
    10030    2    1    2    0    0  0.00000000000E+00  0.00000000000E+00  0.27085122397E+03  0.56877876816E+03  0.50014887942E+03 0.  0.
        1    1    3    3  502    0  0.10791904578E+02  0.75312524953E+02 -0.13548271562E+03  0.15538342214E+03  0.50400001928E-02 0.  1.
       -1    1    3    3    0  502 -0.10791904578E+02 -0.75312524953E+02  0.40633393959E+03  0.41339534602E+03  0.50400001928E-02 0. -1.
</event>
<event>
 5   0  0.1982847E-02  0.4993096E+03  0.7818609E-02  0.1013959E+00
        2   -1    0    0  501    0  0.00000000000E+00  0.00000000000E+00  0.15137501955E+03  0.15137501957E+03  0.25500000920E-02 0. -1.
       -2   -1    0    0    0  501  0.00000000000E+00  0.00000000000E+00 -0.41174236982E+03  0.41174236983E+03  0.25500000920E-02 0.  1.
    10030    2    1    2    0    0  0.00000000000E+00  0.00000000000E+00 -0.26036735028E+03  0.56311738940E+03  0.49930956045E+03 0.  0.
        2    1    3    3  502    0  0.66506883291E+02  0.22069954677E+03 -0.22032857014E+02  0.23155323851E+03  0.25500000920E-02 0. -1.
       -2    1    3    3    0  502 -0.66506883291E+02 -0.22069954677E+03 -0.23833449326E+03  0.33156415089E+03  0.25500000920E-02 0.  1.
</event>
<event>
 5   0  0.1225989E-02  0.5017386E+03  0.7818609E-02  0.1013326E+00
        1   -1    0    0  501    0  0.00000000000E+00  0.00000000000E+00  0.90631447638E+03  0.90631447639E+03  0.50400001928E-02 0.  1.
       -1   -1    0    0    0  501  0.00000000000E+00  0.00000000000E+00 -0.69441029819E+02  0.69441030002E+02  0.50400001928E-02 0. -1.
    10030    2    1    2    0    0  0.00000000000E+00  0.00000000000E+00  0.83687344656E+03  0.97575550639E+03  0.50173861990E+03 0.  0.
        3    1    3    3  502    0  0.78442125523E+02 -0.23053475534E+03  0.53570297083E+03  0.58845316180E+03  0.10100000352E+00 0.  1.
       -3    1    3    3    0  502 -0.78442125523E+02  0.23053475534E+03  0.30117047573E+03  0.38730234459E+03  0.10100000352E+00 0. -1.
</event>
<event>
 5   0  0.1209831E-02  0.5022256E+03  0.7818609E-02  0.1013200E+00
        1   -1    0    0  501    0  0.00000000000E+00  0.00000000000E+00  0.38855079824E+03  0.38855079827E+03  0.50400001928E-02 0.  1.
       -1   -1    0    0    0  501  0.00000000000E+00  0.00000000000E+00 -0.16228932464E+03  0.16228932471E+03  0.50400001928E-02 0. -1.
    10030    2    1    2    0    0  0.00000000000E+00  0.00000000000E+00  0.22626147360E+03  0.55084012298E+03  0.50222563321E+03 0.  0.
        4    1    3    3  502    0 -0.17133413785E+02  0.12432641809E+03 -0.12542076256E+03  0.17743334716E+03  0.12699999809E+01 0. -1.
       -4    1    3    3    0  502  0.17133413785E+02 -0.12432641809E+03  0.35168223616E+03  0.37340677583E+03  0.12699999809E+01 0.  1.
</event>
<event>
 5   0  0.1923706E-02  0.4996998E+03  0.7818609E-02  0.1013857E+00
        2   -1    0    0  501    0  0.00000000000E+00  0.00000000000E+00  0.24069748351E+04  0.24069748351E+04  0.25500000920E-02 0.  1.
       -2   -1    0    0    0  501  0.00000000000E+00  0.00000000000E+00 -0.25935031907E+02  0.25935032032E+02  0.25500000920E-02 0. -1.
    10030    2    1    2    0    0  0.00000000000E+00  0.00000000000E+00  0.23810398032E+04  0.24329098672E+04  0.49969978708E+03 0.  0.
        3    1    3    3  502    0 -0.16463460255E+03 -0.14045306545E+03  0.58254384885E+03  0.62144103661E+03  0.10100000352E+00 0. -1.
       -3    1    3    3    0  502  0.16463460255E+03  0.14045306545E+03  0.17984959544E+04  0.18114688306E+04  0.10100000352E+00 0.  1.
</event>
<event>
 5   0  0.1180937E-02  0.4997740E+03  0.7818609E-02  0.1013838E+00
       -1   -1    0    0    0  501  0.00000000000E+00  0.00000000000E+00  0.13437205375E+03  0.13437205384E+03  0.50400001928E-02 0.  1.
        1   -1    0    0  501    0  0.00000000000E+00  0.00000000000E+00 -0.46470605335E+03  0.46470605338E+03  0.50400001928E-02 0. -1.
    10030    2    1    2    0    0  0.00000000000E+00  0.00000000000E+00 -0.33033399961E+03  0.59907810722E+03  0.49977397617E+03 0.  0.
        1    1    3    3  502    0  0.12474457153E+03 -0.29023107194E+02  0.92036734523E+02  0.15771591361E+03  0.50400001928E-02 0.  1.
       -1    1    3    3    0  502 -0.12474457153E+03  0.29023107194E+02 -0.42237073413E+03  0.44136219361E+03  0.50400001928E-02 0. -1.
</event>
<event>
 5   0  0.1217270E-02  0.4982341E+03  0.7818609E-02  0.1014241E+00
        1   -1    0    0  501    0  0.00000000000E+00  0.00000000000E+00  0.56044886082E+02  0.56044886309E+02  0.50400001928E-02 0. -1.
       -1   -1    0    0    0  501  0.00000000000E+00  0.00000000000E+00 -0.11073143706E+04  0.11073143706E+04  0.50400001928E-02 0.  1.
    10030    2    1    2    0    0  0.00000000000E+00  0.00000000000E+00 -0.10512694845E+04  0.11633592569E+04  0.49823411323E+03 0.  0.
        2    1    3    3  502    0  0.30318476905E+02 -0.20942260999E+03 -0.21867546653E+03  0.30429590745E+03  0.25500000920E-02 0. -1.
       -2    1    3    3    0  502 -0.30318476905E+02  0.20942260999E+03 -0.83259401799E+03  0.85906334948E+03  0.25500000920E-02 0.  1.
</event>
<event>
 5   0  0.1217270E-02  0.4977562E+03  0.7818609E-02  0.1014366E+00
        1   -1    0    0  501    0  0.00000000000E+00  0.00000000000E+00  0.61948191620E+03  0.61948191622E+03  0.50400001928E-02 0. -1.
       -1   -1    0    0    0  501  0.00000000000E+00  0.00000000000E+00 -0.99987276451E+02  0.99987276578E+02  0.50400001928E-02 0.  1.
    10030    2    1    2    0    0  0.00000000000E+00  0.00000000000E+00  0.51949463975E+03  0.71946919280E+03  0.49775620404E+03 0.  0.
        2    1    3    3  502    0 -0.61571393984E+01  0.10622900612E+03 -0.65450138709E+02  0.12492490853E+03  0.25500000920E-02 0.  1.
       -2    1    3    3    0  502  0.61571393984E+01 -0.10622900612E+03  0.58494477846E+03  0.59454428427E+03  0.25500000920E-02 0. -1.
</event>
<event>
 5   0  0.1941387E-02  0.4997933E+03  0.7818609E-02  0.1013833E+00
        2   -1    0    0  501    0  0.00000000000E+00  0.00000000000E+00  0.23755038997E+03  0.23755038999E+03  0.25500000920E-02 0.  1.
       -2   -1    0    0    0  501  0.00000000000E+00  0.00000000000E+00 -0.26288455609E+03  0.26288455610E+03  0.25500000920E-02 0. -1.
    10030    2    1    2    0    0  0.00000000000E+00  0.00000000000E+00 -0.25334166118E+02  0.50043494609E+03  0.49979327256E+03 0.  0.
        4    1    3    3  502    0 -0.39666087920E+02  0.24562062534E+03 -0.36017096068E+02  0.25139955098E+03  0.12699999809E+01 0. -1.
       -4    1    3    3    0  502  0.39666087920E+02 -0.24562062534E+03  0.10682929950E+02  0.24903539511E+03  0.12699999809E+01 0.  1.
</event>
<event>
 5   0  0.1209831E-02  0.4997784E+03  0.7818609E-02  0.1013837E+00
       -1   -1    0    0    0  501  0.00000000000E+00  0.00000000000E+00  0.90883785637E+02  0.90883785777E+02  0.50400001928E-02 0.  1.
        1   -1    0    0  501    0  0.00000000000E+00  0.00000000000E+00 -0.68708201070E+03  0.68708201072E+03  0.50400001928E-02 0. -1.
    10030    2    1    2    0    0  0.00000000000E+00  0.00000000000E+00 -0.59619822507E+03  0.77796579650E+03  0.49977840785E+03 0.  0.
        4    1    3    3  502    0 -0.45960866576E+02  0.22535354724E+03 -0.14600852187E+03  0.27242746533E+03  0.12699999809E+01 0. -1.
       -4    1    3    3    0  502  0.45960866576E+02 -0.22535354724E+03 -0.45018970320E+03  0.50553833117E+03  0.12699999809E+01 0.  1.
</event>
<event>
 5   0  0.1209831E-02  0.5001474E+03  0.7818609E-02  0.1013740E+00
       -1   -1    0    0    0  501  0.00000000000E+00  0.00000000000E+00  0.24661193635E+03  0.24661193640E+03  0.50400001928E-02 0.  1.
        1   -1    0    0  501    0  0.00000000000E+00  0.00000000000E+00 -0.25358405387E+03  0.25358405392E+03  0.50400001928E-02 0. -1.
    10030    2    1    2    0    0  0.00000000000E+00  0.00000000000E+00 -0.69721175196E+01  0.50019599032E+03  0.50014739658E+03 0.  0.
        4    1    3    3  502    0 -0.10763340727E+03 -0.18160859273E+03 -0.13754612795E+03  0.25196662781E+03  0.12699999809E+01 0. -1.
       -4    1    3    3    0  502  0.10763340727E+03  0.18160859273E+03  0.13057401044E+03  0.24822936251E+03  0.12699999809E+01 0.  1.
</event>
<event>
 5   0  0.1967813E-02  0.5002534E+03  0.7818609E-02  0.1013713E+00
        2   -1    0    0  501    0  0.00000000000E+00  0.00000000000E+00  0.95891801853E+03  0.95891801853E+03  0.25500000920E-02 0.  1.
       -2   -1    0    0    0  501  0.00000000000E+00  0.00000000000E+00 -0.65243710213E+02  0.65243710263E+02  0.25500000920E-02 0. -1.
    10030    2    1    2    0    0  0.00000000000E+00  0.00000000000E+00  0.89367430832E+03  0.10241617288E+04  0.50025341317E+03 0.  0.
        5    1    3    3  502    0 -0.16810131556E+03 -0.19113597258E+02  0.82388194400E+03  0.84108675506E+03  0.46999998093E+01 0.  1.
       -5    1    3    3    0  502  0.16810131556E+03  0.19113597258E+02  0.69792364314E+02  0.18307497373E+03  0.46999998093E+01 0. -1.
</event>
<event>
 5   0  0.1855407E-02  0.4998894E+03  0.7818609E-02  0.1013808E+00
        2   -1    0    0  501    0  0.00000000000E+00  0.00000000000E+00  0.12368215789E+04  0.12368215789E+04  0.25500000920E-02 0. -1.
       -2   -1    0    0    0  501  0.00000000000E+00  0.00000000000E+00 -0.50510404903E+02  0.50510404967E+02  0.25500000920E-02 0.  1.
    10030    2    1    2    0    0  0.00000000000E+00  0.00000000000E+00  0.11863111740E+04  0.12873319839E+04  0.49988942292E+03 0.  0.
        1    1    3    3  502    0  0.10603826488E+03 -0.22170489499E+03  0.71046827558E+03  0.75177280126E+03  0.50400001928E-02 0. -1.
       -1    1    3    3    0  502 -0.10603826488E+03  0.22170489499E+03  0.47584289843E+03  0.53555918263E+03  0.50400001928E-02 0.  1.
</event>
<event>
 5   0  0.1855407E-02  0.4999231E+03  0.7818609E-02  0.1013799E+00
        2   -1    0    0  501    0  0.00000000000E+00  0.00000000000E+00  0.11808756693E+04  0.11808756693E+04  0.25500000920E-02 0.  1.
       -2   -1    0    0    0  501  0.00000000000E+00  0.00000000000E+00 -0.52910553047E+02  0.52910553108E+02  0.25500000920E-02 0. -1.
    10030    2    1    2    0    0  0.00000000000E+00  0.00000000000E+00  0.11279651162E+04  0.12337862224E+04  0.49992313321E+03 0.  0.
        1    1    3    3  502    0 -0.81880720910E+02  0.40744858992E+02  0.11380993959E+04  0.11417682913E+04  0.50400001928E-02 0.  1.
       -1    1    3    3    0  502  0.81880720910E+02 -0.40744858992E+02 -0.10134279695E+02  0.92017931086E+02  0.50400001928E-02 0. -1.
</event>
<event>
 5   0  0.8012875E-03  0.5004892E+03  0.7818609E-02  0.1013651E+00
        3   -1    0    0  501    0  0.00000000000E+00  0.00000000000E+00  0.17788924203E+03  0.17788927070E+03  0.10100000352E+00 0.  1.
       -3   -1    0    0    0  501  0.00000000000E+00  0.00000000000E+00 -0.35203005571E+03  0.35203007020E+03  0.10100000352E+00 0. -1.
    10030    2    1    2    0    0  0.00000000000E+00  0.00000000000E+00 -0.17414081368E+03  0.52991934090E+03  0.50048924551E+03 0.  0.
        4    1    3    3  502    0  0.56316903149E+02  0.35607882150E+02  0.16832114100E+03  0.18103351695E+03  0.12699999809E+01 0.  1.
       -4    1    3    3    0  502 -0.56316903149E+02 -0.35607882150E+02 -0.34246195468E+03  0.34888582395E+03  0.12699999809E+01 0. -1.
</event>
<event>
 5   0  0.1180937E-02  0.5003882E+03  0.7818609E-02  0.1013678E+00
        1   -1    0    0  501    0  0.00000000000E+00  0.00000000000E+00  0.55981793844E+03  0.55981793846E+03  0.50400001928E-02 0. -1.
       -1   -1    0    0    0  501  0.00000000000E+00  0.00000000000E+00 -0.11181684766E+03  0.11181684777E+03  0.50400001928E-02 0.  1.
    10030    2    1    2    0    0  0.00000000000E+00  0.00000000000E+00  0.44800109079E+03  0.67163478624E+03  0.50038815807E+03 0.  0.
        1    1    3    3  502    0  0.69366638750E+00 -0.23166004045E+03  0.97160240512E+02  0.25121100270E+03  0.50400001928E-02 0.  1.
       -1    1    3    3    0  502 -0.69366638750E+00  0.23166004045E+03  0.35084085027E+03  0.42042378354E+03  0.50400001928E-02 0. -1.
</event>
<event>
 5   0  0.1967813E-02  0.5000849E+03  0.7818609E-02  0.1013757E+00
        2   -1    0    0  501    0  0.00000000000E+00  0.00000000000E+00  0.80189716893E+03  0.80189716893E+03  0.25500000920E-02 0.  1.
       -2   -1    0    0    0  501  0.00000000000E+00  0.00000000000E+00 -0.77966644323E+02  0.77966644365E+02  0.25500000920E-02 0. -1.
    10030    2    1    2    0    0  0.00000000000E+00  0.00000000000E+00  0.72393052460E+03  0.87986381330E+03  0.50008491828E+03 0.  0.
        5    1    3    3  502    0  0.37094029583E+02 -0.24624420967E+03  0.40079101872E+03  0.47187679378E+03  0.46999998093E+01 0.  1.
       -5    1    3    3    0  502 -0.37094029583E+02  0.24624420967E+03  0.32313950589E+03  0.40798701951E+03  0.46999998093E+01 0. -1.
</event>
<event>
 5   0  0.1982847E-02  0.5003131E+03  0.7818609E-02  0.1013697E+00
        2   -1    0    0  501    0  0.00000000000E+00  0.00000000000E+00  0.80080877249E+03  0.80080877250E+03  0.25500000920E-02 0.  1.
       -2   -1    0    0    0  501  0.00000000000E+00  0.00000000000E+00 -0.78143869940E+02  0.78143869982E+02  0.25500000920E-02 0. -1.
    10030    2    1    2    0    0  0.00000000000E+00  0.00000000000E+00  0.72266490255E+03  0.87895264248E+03  0.50031308832E+03 0.  0.
        2    1    3    3  502    0 -0.27995007159E+02  0.48140988495E+02  0.78978054736E+03  0.79174149076E+03  0.25500000920E-02 0.  1.
       -2    1    3    3    0  502  0.27995007159E+02 -0.48140988495E+02 -0.67115644808E+02  0.87211151716E+02  0.25500000920E-02 0. -1.
</event>
<event>
 5   0  0.1227864E-02  0.4999734E+03  0.7818609E-02  0.1013786E+00
        1   -1    0    0  501    0  0.00000000000E+00  0.00000000000E+00  0.70910276025E+03  0.70910276026E+03  0.50400001928E-02 0.  1.
       -1   -1    0    0    0  501  0.00000000000E+00  0.00000000000E+00 -0.88130160130E+02  0.88130160274E+02  0.50400001928E-02 0. -1.
    10030    2    1    2    0    0  0.00000000000E+00  0.00000000000E+00  0.62097260012E+03  0.79723292054E+03  0.49997335878E+03 0.  0.
        5    1    3    3  502    0  0.91664362558E+02 -0.15107299508E+03  0.59234697997E+03  0.61816052922E+03  0.46999998093E+01 0.  1.
       -5    1    3    3    0  502 -0.91664362558E+02  0.15107299508E+03  0.28625620143E+02  0.17907239132E+03  0.46999998093E+01 0. -1.
</event>
<event>
 5   0  0.1855407E-02  0.4994882E+03  0.7818609E-02  0.1013913E+00
       -2   -1    0    0    0  501  0.00000000000E+00  0.00000000000E+00  0.24637658576E+03  0.24637658577E+03  0.25500000920E-02 0. -1.
        2   -1    0    0  501    0  0.00000000000E+00  0.00000000000E+00 -0.25315764501E+03  0.25315764502E+03  0.25500000920E-02 0.  1.
    10030    2    1    2    0    0  0.00000000000E+00  0.00000000000E+00 -0.67810592522E+01  0.49953423080E+03  0.49948820304E+03 0.  0.
        1    1    3    3  502    0 -0.18096495486E+03  0.97774709145E+02  0.13826964659E+03  0.24784411195E+03  0.50400001928E-02 0. -1.
       -1    1    3    3    0  502  0.18096495486E+03 -0.97774709145E+02 -0.14505070584E+03  0.25169011885E+03  0.50400001928E-02 0.  1.
</event>
<event>
 5   0  0.1941387E-02  0.4997578E+03  0.7818609E-02  0.1013842E+00
        2   -1    0    0  501    0  0.00000000000E+00  0.00000000000E+00  0.13375642966E+03  0.13375642969E+03  0.25500000920E-02 0.  1.
       -2   -1    0    0    0  501  0.00000000000E+00  0.00000000000E+00 -0.46681472163E+03  0.46681472164E+03  0.25500000920E-02 0. -1.
    10030    2    1    2    0    0  0.00000000000E+00  0.00000000000E+00 -0.33305829197E+03  0.60057115133E+03  0.49975782331E+03 0.  0.
        4    1    3    3  502    0  0.59328068972E+02  0.16096220706E+03  0.51805372467E+02  0.17920396588E+03  0.12699999809E+01 0.  1.
       -4    1    3    3    0  502 -0.59328068972E+02 -0.16096220706E+03 -0.38486366444E+03  0.42136718545E+03  0.12699999809E+01 0. -1.
</event>
<event>
 5   0  0.1855407E-02  0.4909745E+03  0.7818609E-02  0.1016162E+00
        2   -1    0    0  501    0  0.00000000000E+00  0.00000000000E+00  0.10963508722E+04  0.10963508722E+04  0.25500000920E-02 0. -1.
       -2   -1    0    0    0  501  0.00000000000E+00  0.00000000000E+00 -0.54967783805E+02  0.54967783865E+02  0.25500000920E-02 0.  1.
    10030    2    1    2    0    0  0.00000000000E+00  0.00000000000E+00  0.10413830884E+04  0.11513186561E+04  0.49097445047E+03 0.  0.
        1    1    3    3  502    0 -0.15021880608E+03 -0.39848426232E+02  0.96629930352E+03  0.97871749283E+03  0.50400001928E-02 0. -1.
       -1    1    3    3    0  502  0.15021880608E+03  0.39848426232E+02  0.75083784882E+02  0.17260116324E+03  0.50400001928E-02 0.  1.
</event>
<event>
 5   0  0.1982847E-02  0.5000488E+03  0.7818609E-02  0.1013766E+00
       -2   -1    0    0    0  501  0.00000000000E+00  0.00000000000E+00  0.93754081136E+03  0.93754081136E+03  0.25500000920E-02 0.  1.
        2   -1    0    0  501    0  0.00000000000E+00  0.00000000000E+00 -0.66676771955E+02  0.66676772004E+02  0.25500000920E-02 0. -1.
    10030    2    1    2    0    0  0.00000000000E+00  0.00000000000E+00  0.87086403940E+03  0.10042175834E+04  0.50004877724E+03 0.  0.
        2    1    3    3  502    0  0.12603523574E+03 -0.11237798058E+03  0.80572489318E+03  0.82322918720E+03  0.25500000920E-02 0.  1.
       -2    1    3    3    0  502 -0.12603523574E+03  0.11237798058E+03  0.65139146219E+02  0.18098839616E+03  0.25500000920E-02 0. -1.
</event>
<event>
 5   0  0.1217270E-02  0.5011400E+03  0.7818609E-02  0.1013482E+00
       -1   -1    0    0    0  501  0.00000000000E+00  0.00000000000E+00  0.11111329353E+03  0.11111329364E+03  0.50400001928E-02 0. -1.
        1   -1    0    0  501    0  0.00000000000E+00  0.00000000000E+00 -0.56505678591E+03  0.56505678593E+03  0.50400001928E-02 0.  1.
    10030    2    1    2    0    0  0.00000000000E+00  0.00000000000E+00 -0.45394349238E+03  0.67617007957E+03  0.50113998267E+03 0.  0.
        2    1    3    3  502    0  0.21421358413E+02 -0.10117784722E+03 -0.53491588684E+03  0.54482184002E+03  0.25500000920E-02 0.  1.
       -2    1    3    3    0  502 -0.21421358413E+02  0.10117784722E+03  0.80972394457E+02  0.13134823955E+03  0.25500000920E-02 0. -1.
</event>
<event>
 5   0  0.1217270E-02  0.5001682E+03  0.7818609E-02  0.1013735E+00
       -1   -1    0    0    0  501  0.00000000000E+00  0.00000000000E+00  0.74443928479E+03  0.74443928481E+03  0.50400001928E-02 0. -1.
        1   -1    0    0  501    0  0.00000000000E+00  0.00000000000E+00 -0.84012301852E+02  0.84012302003E+02  0.50400001928E-02 0.  1.
    10030    2    1    2    0    0  0.00000000000E+00  0.00000000000E+00  0.66042698294E+03  0.82845158681E+03  0.50016820360E+03 0.  0.
        2    1    3    3  502    0 -0.12737085696E+02 -0.15999506168E+03  0.64787545135E+03  0.66746030113E+03  0.25500000920E-02 0. -1.
       -2    1    3    3    0  502  0.12737085696E+02  0.15999506168E+03  0.12551531590E+02  0.16099128568E+03  0.25500000920E-02 0.  1.
</event>
<event>
 5   0  0.1855407E-02  0.4999252E+03  0.7818609E-02  0.1013798E+00
        2   -1    0    0  501    0  0.00000000000E+00  0.00000000000E+00  0.89173329678E+03  0.89173329679E+03  0.25500000920E-02 0. -1.
       -2   -1    0    0    0  501  0.00000000000E+00  0.00000000000E+00 -0.70067251170E+02  0.70067251216E+02  0.25500000920E-02 0.  1.
    10030    2    1    2    0    0  0.00000000000E+00  0.00000000000E+00  0.82166604562E+03  0.96180054800E+03  0.49992519803E+03 0.  0.
        1    1    3    3  502    0  0.14803668497E+03 -0.14000625221E+03  0.13226951884E+03  0.24292351964E+03  0.50400001928E-02 0.  1.
       -1    1    3    3    0  502 -0.14803668497E+03  0.14000625221E+03  0.68939652678E+03  0.71887702837E+03  0.50400001928E-02 0. -1.
</event>
<event>
 5   0  0.1180937E-02  0.4998785E+03  0.7818609E-02  0.1013811E+00
        1   -1    0    0  501    0  0.00000000000E+00  0.00000000000E+00  0.22985406014E+03  0.22985406020E+03  0.50400001928E-02 0. -1.
       -1   -1    0    0    0  501  0.00000000000E+00  0.00000000000E+00 -0.27177957600E+03  0.27177957605E+03  0.50400001928E-02 0.  1.
    10030    2    1    2    0    0  0.00000000000E+00  0.00000000000E+00 -0.41925515860E+02  0.50163363625E+03  0.49987854138E+03 0.  0.
        1    1    3    3  502    0  0.69492840343E+01 -0.16832653448E+03 -0.20623906500E+03  0.26630183386E+03  0.50400001928E-02 0.  1.
       -1    1    3    3    0  502 -0.69492840343E+01  0.16832653448E+03  0.16431354914E+03  0.23533180239E+03  0.50400001928E-02 0. -1.
</event>
<event>
 5   0  0.1227864E-02  0.5022307E+03  0.7818609E-02  0.1013198E+00
       -1   -1    0    0    0  501  0.00000000000E+00  0.00000000000E+00  0.30257641138E+03  0.30257641142E+03  0.50400001928E-02 0. -1.
        1   -1    0    0  501    0  0.00000000000E+00  0.00000000000E+00 -0.20840662389E+03  0.20840662395E+03  0.50400001928E-02 0.  1.
    10030    2    1    2    0    0  0.00000000000E+00  0.00000000000E+00  0.94169787491E+02  0.51098303537E+03  0.50223073737E+03 0.  0.
        5    1    3    3  502    0 -0.17291281641E+03 -0.72859766091E+02 -0.12264389462E+03  0.22421195882E+03  0.46999998093E+01 0.  1.
       -5    1    3    3    0  502  0.17291281641E+03  0.72859766091E+02  0.21681368211E+03  0.28677107654E+03  0.46999998093E+01 0. -1.
</event>
<event>
 5   0  0.1855407E-02  0.5010563E+03  0.7818609E-02  0.1013504E+00
        2   -1    0    0  501    0  0.00000000000E+00  0.00000000000E+00  0.97153262672E+03  0.97153262672E+03  0.25500000920E-02 0.  1.
       -2   -1    0    0    0  501  0.00000000000E+00  0.00000000000E+00 -0.64603446569E+02  0.64603446620E+02  0.25500000920E-02 0. -1.
    10030    2    1    2    0    0  0.00000000000E+00  0.00000000000E+00  0.90692918015E+03  0.10361360733E+04  0.50105630889E+03 0.  0.
        1    1    3    3  502    0 -0.14397560746E+03 -0.45798051917E+02  0.86672421329E+03  0.87979389576E+03  0.50400001928E-02 0.  1.
       -1    1    3    3    0  502  0.14397560746E+03  0.45798051917E+02  0.40204966866E+02  0.15634217758E+03  0.50400001928E-02 0. -1.
</event>
<event>
 5   0  0.1217270E-02  0.5001633E+03  0.7818609E-02  0.1013736E+00
        1   -1    0    0  501    0  0.00000000000E+00  0.00000000000E+00  0.16801523706E+04  0.16801523706E+04  0.50400001928E-02 0.  1.
       -1   -1    0    0    0  501  0.00000000000E+00  0.00000000000E+00 -0.37223316643E+02  0.37223316984E+02  0.50400001928E-02 0. -1.
    10030    2    1    2    0    0  0.00000000000E+00  0.00000000000E+00  0.16429290539E+04  0.17173756875E+04  0.50016334931E+03 0.  0.
        2    1    3    3  502    0  0.16326333866E+03 -0.17288524532E+03  0.10873573682E+04  0.11130544784E+04  0.25500000920E-02 0.  1.
       -2    1    3    3    0  502 -0.16326333866E+03  0.17288524532E+03  0.55557168572E+03  0.60432120911E+03  0.25500000920E-02 0. -1.
</event>
<event>
 5   0  0.1982847E-02  0.4989686E+03  0.7818609E-02  0.1014048E+00
       -2   -1    0    0    0  501  0.00000000000E+00  0.00000000000E+00  0.43666867366E+02  0.43666867440E+02  0.25500000920E-02 0.  1.
        2   -1    0    0  501    0  0.00000000000E+00  0.00000000000E+00 -0.14253924070E+04  0.14253924070E+04  0.25500000920E-02 0. -1.
    10030    2    1    2    0    0  0.00000000000E+00  0.00000000000E+00 -0.13817255396E+04  0.14690592744E+04  0.49896862120E+03 0.  0.
        2    1    3    3  502    0 -0.13174033705E+03 -0.21029363273E+03 -0.76670030506E+03  0.80585872593E+03  0.25500000920E-02 0. -1.
       -2    1    3    3    0  502  0.13174033705E+03  0.21029363273E+03 -0.61502523453E+03  0.66320054847E+03  0.25500000920E-02 0.  1.
</event>
<event>
 5   0  0.1209831E-02  0.4999940E+03  0.7818609E-02  0.1013780E+00
       -1   -1    0    0    0  501  0.00000000000E+00  0.00000000000E+00  0.58834883340E+02  0.58834883556E+02  0.50400001928E-02 0. -1.
        1   -1    0    0  501    0  0.00000000000E+00  0.00000000000E+00 -0.10622696462E+04  0.10622696462E+04  0.50400001928E-02 0.  1.
    10030    2    1    2    0    0  0.00000000000E+00  0.00000000000E+00 -0.10034347629E+04  0.11211045298E+04  0.49999404332E+03 0.  0.
        4    1    3    3  502    0 -0.71159638838E+02  0.73150693936E+02  0.99949145780E+01  0.10254866864E+03  0.12699999809E+01 0. -1.
       -4    1    3    3    0  502  0.71159638838E+02 -0.73150693936E+02 -0.10134296775E+04  0.10185558611E+04  0.12699999809E+01 0.  1.
</event>
<event>
 5   0  0.1180937E-02  0.5007419E+03  0.7818609E-02  0.1013585E+00
        1   -1    0    0  501    0  0.00000000000E+00  0.00000000000E+00  0.48141452294E+03  0.48141452297E+03  0.50400001928E-02 0.  1.
       -1   -1    0    0    0  501  0.00000000000E+00  0.00000000000E+00 -0.13021128374E+03  0.13021128384E+03  0.50400001928E-02 0. -1.
    10030    2    1    2    0    0  0.00000000000E+00  0.00000000000E+00  0.35120323920E+03  0.61162580680E+03  0.50074186196E+03 0.  0.
        1    1    3    3  502    0 -0.40699991103E+02 -0.77497186738E+02 -0.11091196475E+03  0.14129319580E+03  0.50400001928E-02 0. -1.
       -1    1    3    3    0  502  0.40699991103E+02  0.77497186738E+02  0.46211520395E+03  0.47033261101E+03  0.50400001928E-02 0.  1.
</event>
<event>
 5   0  0.1967813E-02  0.5004154E+03  0.7818609E-02  0.1013671E+00
        2   -1    0    0  501    0  0.00000000000E+00  0.00000000000E+00  0.16771864112E+03  0.16771864114E+03  0.25500000920E-02 0.  1.
       -2   -1    0    0    0  501  0.00000000000E+00  0.00000000000E+00 -0.37326729656E+03  0.37326729657E+03  0.25500000920E-02 0. -1.
    10030    2    1    2    0    0  0.00000000000E+00  0.00000000000E+00 -0.20554865544E+03  0.54098593770E+03  0.50041536252E+03 0.  0.
        5    1    3    3  502    0 -0.20079018523E+03  0.53814463563E+02  0.47681858659E+02  0.21332684926E+03  0.46999998093E+01 0. -1.
       -5    1    3    3    0  502  0.20079018523E+03 -0.53814463563E+02 -0.25323051409E+03  0.32765908844E+03  0.46999998093E+01 0.  1.
</event>
<event>
 5   0  0.1180937E-02  0.5009804E+03  0.7818609E-02  0.1013523E+00
       -1   -1    0    0    0  501  0.00000000000E+00  0.00000000000E+00  0.20817450385E+03  0.20817450391E+03  0.50400001928E-02 0. -1.
        1   -1    0    0  501    0  0.00000000000E+00  0.00000000000E+00 -0.30140739195E+03  0.30140739199E+03  0.50400001928E-02 0.  1.
    10030    2    1    2    0    0  0.00000000000E+00  0.00000000000E+00 -0.93232888097E+02  0.50958189590E+03  0.50098037607E+03 0.  0.
        1    1    3    3  502    0 -0.21501889800E+03 -0.10518290254E+03  0.28466675163E+02  0.24105377222E+03  0.50400001928E-02 0. -1.
       -1    1    3    3    0  502  0.21501889800E+03  0.10518290254E+03 -0.12169956326E+03  0.26852812368E+03  0.50400001928E-02 0.  1.
</event>
<event>
 5   0  0.8012875E-03  0.5015152E+03  0.7818609E-02  0.1013384E+00
        3   -1    0    0  501    0  0.00000000000E+00  0.00000000000E+00  0.42636779121E+03  0.42636780318E+03  0.10100000352E+00 0. -1.
       -3   -1    0    0    0  501  0.00000000000E+00  0.00000000000E+00 -0.14747680689E+03  0.14747684148E+03  0.10100000352E+00 0.  1.
    10030    2    1    2    0    0  0.00000000000E+00  0.00000000000E+00  0.27889098432E+03  0.57384464466E+03  0.50151519923E+03 0.  0.
        1    1    3    3  502    0 -0.13712727517E+03 -0.35869676992E+02 -0.97242127914E+02  0.17189111318E+03  0.50400001928E-02 0.  1.
       -1    1    3    3    0  502  0.13712727517E+03  0.35869676992E+02  0.37613311224E+03  0.40195353148E+03  0.50400001928E-02 0. -1.
</event>
<event>
 5   0  0.1225989E-02  0.4974982E+03  0.7818609E-02  0.1014434E+00
       -1   -1    0    0    0  501  0.00000000000E+00  0.00000000000E+00  0.27726975986E+03  0.27726975990E+03  0.50400001928E-02 0. -1.
        1   -1    0    0  501    0  0.00000000000E+00  0.00000000000E+00 -0.22316210838E+03  0.22316210844E+03  0.50400001928E-02 0.  1.
    10030    2    1    2    0    0  0.00000000000E+00  0.00000000000E+00  0.54107651478E+02  0.50043186834E+03  0.49749815769E+03 0.  0.
        3    1    3    3  502    0 -0.19391155760E+03 -0.14963753090E+03 -0.16595740574E+02  0.24549645951E+03  0.10100000352E+00 0.  1.
       -3    1    3    3    0  502  0.19391155760E+03  0.14963753090E+03  0.70703392052E+02  0.25493540883E+03  0.10100000352E+00 0. -1.
</event>
<event>
 5   0  0.1982847E-02  0.5002464E+03  0.7818609E-02  0.1013715E+00
       -2   -1    0    0    0  501  0.00000000000E+00  0.00000000000E+00  0.12657837458E+03  0.12657837461E+03  0.25500000920E-02 0.  1.
        2   -1    0    0  501    0  0.00000000000E+00  0.00000000000E+00 -0.49425201900E+03  0.49425201900E+03  0.25500000920E-02 0. -1.
    10030    2    1    2    0    0  0.00000000000E+00  0.00000000000E+00 -0.36767364441E+03  0.62083039361E+03  0.50024640812E+03 0.  0.
        2    1    3    3  502    0  0.26973037265E+02  0.56448632243E+02 -0.48438507236E+03  0.48840852895E+03  0.25500000920E-02 0. -1.
       -2    1    3    3    0  502 -0.26973037265E+02 -0.56448632243E+02  0.11671142794E+03  0.13242186466E+03  0.25500000920E-02 0.  1.
</event>
<event>
 5   0  0.1941387E-02  0.5007763E+03  0.7818609E-02  0.1013576E+00
       -2   -1    0    0    0  501  0.00000000000E+00  0.00000000000E+00  0.12253827230E+03  0.12253827233E+03  0.25500000920E-02 0. -1.
        2   -1    0    0  501    0  0.00000000000E+00  0.00000000000E+00 -0.51162979343E+03  0.51162979343E+03  0.25500000920E-02 0.  1.
    10030    2    1    2    0    0  0.00000000000E+00  0.00000000000E+00 -0.38909152112E+03  0.63416806576E+03  0.50077632115E+03 0.  0.
        4    1    3    3  502    0 -0.10542137250E+03  0.91215531271E+02  0.68842983074E+02  0.15548282266E+03  0.12699999809E+01 0. -1.
       -4    1    3    3    0  502  0.10542137250E+03 -0.91215531271E+02 -0.45793450420E+03  0.47868524310E+03  0.12699999809E+01 0.  1.
</event>
<event>
 5   0  0.1225989E-02  0.5012868E+03  0.7818609E-02  0.1013444E+00
        1   -1    0    0  501    0  0.00000000000E+00  0.00000000000E+00  0.40815201150E+03  0.40815201153E+03  0.50400001928E-02 0.  1.
       -1   -1    0    0    0  501  0.00000000000E+00  0.00000000000E+00 -0.15391843408E+03  0.15391843416E+03  0.50400001928E-02 0. -1.
    10030    2    1    2    0    0  0.00000000000E+00  0.00000000000E+00  0.25423357742E+03  0.56207044569E+03  0.50128681813E+03 0.  0.
        3    1    3    3  502    0 -0.10457218493E+02  0.23163884129E+02 -0.15246991668E+03  0.15457362207E+03  0.10100000352E+00 0. -1.
       -3    1    3    3    0  502  0.10457218493E+02 -0.23163884129E+02  0.40670349410E+03  0.40749682362E+03  0.10100000352E+00 0.  1.
</event>
<event>
 5   0  0.1982847E-02  0.5005410E+03  0.7818609E-02  0.1013638E+00
        2   -1    0    0  501    0  0.00000000000E+00  0.00000000000E+00  0.35125700633E+03  0.35125700633E+03  0.25500000920E-02 0. -1.
       -2   -1    0    0    0  501  0.00000000000E+00  0.00000000000E+00 -0.17831768251E+03  0.17831768253E+03  0.25500000920E-02 0.  1.
    10030    2    1    2    0    0  0.00000000000E+00  0.00000000000E+00  0.17293932381E+03  0.52957468886E+03  0.50054104863E+03 0.  0.
        2    1    3    3  502    0 -0.11278704482E+03  0.22064131482E+03  0.49336445837E+02  0.25266102228E+03  0.25500000920E-02 0.  1.
       -2    1    3    3    0  502  0.11278704482E+03 -0.22064131482E+03  0.12360287798E+03  0.27691366658E+03  0.25500000920E-02 0. -1.
</event>
<event>
 5   0  0.1941387E-02  0.5002639E+03  0.7818609E-02  0.1013710E+00
        2   -1    0    0  501    0  0.00000000000E+00  0.00000000000E+00  0.14903446928E+04  0.14903446928E+04  0.25500000920E-02 0.  1.
       -2   -1    0    0    0  501  0.00000000000E+00  0.00000000000E+00 -0.41980887373E+02  0.41980887451E+02  0.25500000920E-02 0. -1.
    10030    2    1    2    0    0  0.00000000000E+00  0.00000000000E+00  0.14483638055E+04  0.15323255803E+04  0.50026390139E+03 0.  0.
        4    1    3    3  502    0 -0.21579980934E+03  0.86900627858E+02  0.10056329897E+04  0.10321921331E+04  0.12699999809E+01 0.  1.
       -4    1    3    3    0  502  0.21579980934E+03 -0.86900627858E+02  0.44273081575E+03  0.50013344714E+03  0.12699999809E+01 0. -1.
</event>
<event>
 5   0  0.1923706E-02  0.5001708E+03  0.7818609E-02  0.1013734E+00
        2   -1    0    0  501    0  0.00000000000E+00  0.00000000000E+00  0.35904828385E+03  0.35904828386E+03  0.25500000920E-02 0.  1.
       -2   -1    0    0    0  501  0.00000000000E+00  0.00000000000E+00 -0.17419025605E+03  0.17419025607E+03  0.25500000920E-02 0. -1.
    10030    2    1    2    0    0  0.00000000000E+00  0.00000000000E+00  0.18485802780E+03  0.53323853993E+03  0.50017082084E+03 0.  0.
        3    1    3    3  502    0 -0.12679342118E+03  0.44095776491E+02 -0.13252254883E+03  0.18863521757E+03  0.10100000352E+00 0. -1.
       -3    1    3    3    0  502  0.12679342118E+03 -0.44095776491E+02  0.31738057663E+03  0.34460332236E+03  0.10100000352E+00 0.  1.
</event>
<event>
 5   0  0.1225989E-02  0.4988136E+03  0.7818609E-02  0.1014089E+00
        1   -1    0    0  501    0  0.00000000000E+00  0.00000000000E+00  0.30526850198E+03  0.30526850202E+03  0.50400001928E-02 0. -1.
       -1   -1    0    0    0  501  0.00000000000E+00  0.00000000000E+00 -0.20376734936E+03  0.20376734942E+03  0.50400001928E-02 0.  1.
    10030    2    1    2    0    0  0.00000000000E+00  0.00000000000E+00  0.10150115262E+03  0.50903585145E+03  0.49881360655E+03 0.  0.
        3    1    3    3  502    0  0.14784095526E+03 -0.55671513590E+02 -0.14620057072E+03  0.21524609766E+03  0.10100000352E+00 0.  1.
       -3    1    3    3    0  502 -0.14784095526E+03  0.55671513590E+02  0.24770172335E+03  0.29378975378E+03  0.10100000352E+00 0. -1.
</event>
<event>
 5   0  0.1982847E-02  0.5044351E+03  0.7818609E-02  0.1012628E+00
       -2   -1    0    0    0  501  0.00000000000E+00  0.00000000000E+00  0.35766790262E+03  0.35766790263E+03  0.25500000920E-02 0.  1.
        2   -1    0    0  501    0  0.00000000000E+00  0.00000000000E+00 -0.17785686213E+03  0.17785686215E+03  0.25500000920E-02 0. -1.
    10030    2    1    2    0    0  0.00000000000E+00  0.00000000000E+00  0.17981104049E+03  0.53552476478E+03  0.50443509335E+03 0.  0.
        2    1    3    3  502    0 -0.11489824657E+03 -0.20115904263E+03 -0.15976694814E+02  0.23221072818E+03  0.25500000920E-02 0. -1.
       -2    1    3    3    0  502  0.11489824657E+03  0.20115904263E+03  0.19578773530E+03  0.30331403660E+03  0.25500000920E-02 0.  1.
</event>
<event>
 5   0  0.1227864E-02  0.4980567E+03  0.7818609E-02  0.1014287E+00
       -1   -1    0    0    0  501  0.00000000000E+00  0.00000000000E+00  0.92684925229E+02  0.92684925366E+02  0.50400001928E-02 0.  1.
        1   -1    0    0  501    0  0.00000000000E+00  0.00000000000E+00 -0.66909616549E+03  0.66909616551E+03  0.50400001928E-02 0. -1.
    10030    2    1    2    0    0  0.00000000000E+00  0.00000000000E+00 -0.57641124026E+03  0.76178109088E+03  0.49805673624E+03 0.  0.
        5    1    3    3  502    0 -0.19704768831E+03 -0.71950560845E+02 -0.83067110039E+02  0.22566991258E+03  0.46999998093E+01 0.  1.
       -5    1    3    3    0  502  0.19704768831E+03  0.71950560845E+02 -0.49334413022E+03  0.53611117830E+03  0.46999998093E+01 0. -1.
</event>
<event>
 5   0  0.1217270E-02  0.5015722E+03  0.7818609E-02  0.1013369E+00
        1   -1    0    0  501    0  0.00000000000E+00  0.00000000000E+00  0.60306526608E+03  0.60306526610E+03  0.50400001928E-02 0.  1.
       -1   -1    0    0    0  501  0.00000000000E+00  0.00000000000E+00 -0.10429000426E+03  0.10429000438E+03  0.50400001928E-02 0. -1.
    10030    2    1    2    0    0  0.00000000000E+00  0.00000000000E+00  0.49877526183E+03  0.70735527048E+03  0.50157224491E+03 0.  0.
        2    1    3    3  502    0 -0.40754182996E+02  0.24002849401E+03  0.16454692770E+03  0.29385416926E+03  0.25500000920E-02 0. -1.
       -2    1    3    3    0  502  0.40754182996E+02 -0.24002849401E+03  0.33422833413E+03  0.41350110122E+03  0.25500000920E-02 0.  1.
</event>
<event>
 5   0  0.1982847E-02  0.4998465E+03  0.7818609E-02  0.1013819E+00
        2   -1    0    0  501    0  0.00000000000E+00  0.00000000000E+00  0.24899897778E+03  0.24899897779E+03  0.25500000920E-02 0.  1.
       -2   -1    0    0    0  501  0.00000000000E+00  0.00000000000E+00 -0.25085090395E+03  0.25085090396E+03  0.25500000920E-02 0. -1.
    10030    2    1    2    0    0  0.00000000000E+00  0.00000000000E+00 -0.18519261714E+01  0.49984988176E+03  0.49984645109E+03 0.  0.
        2    1    3    3  502    0 -0.21868285784E+03  0.36881470672E+02 -0.11616209349E+03  0.25035188668E+03  0.25500000920E-02 0. -1.
       -2    1    3    3    0  502  0.21868285784E+03 -0.36881470672E+02  0.11431016732E+03  0.24949799508E+03  0.25500000920E-02 0.  1.
</event>
<event>
 5   0  0.1225989E-02  0.4997583E+03  0.7818609E-02  0.1013842E+00
        1   -1    0    0  501    0  0.00000000000E+00  0.00000000000E+00  0.11369094256E+03  0.11369094267E+03  0.50400001928E-02 0.  1.
       -1   -1    0    0    0  501  0.00000000000E+00  0.00000000000E+00 -0.54920462185E+03  0.54920462187E+03  0.50400001928E-02 0. -1.
    10030    2    1    2    0    0  0.00000000000E+00  0.00000000000E+00 -0.43551367929E+03  0.66289556454E+03  0.49975830622E+03 0.  0.
        3    1    3    3  502    0  0.20515047240E+03  0.58610336936E+02 -0.45230399062E+02  0.21810017681E+03  0.10100000352E+00 0.  1.
       -3    1    3    3    0  502 -0.20515047240E+03 -0.58610336936E+02 -0.39028328023E+03  0.44479538773E+03  0.10100000352E+00 0. -1.
</event>
<event>
 5   0  0.1225989E-02  0.4998431E+03  0.7818609E-02  0.1013820E+00
        1   -1    0    0  501    0  0.00000000000E+00  0.00000000000E+00  0.13153760279E+03  0.13153760289E+03  0.50400001928E-02 0. -1.
       -1   -1    0    0    0  501  0.00000000000E+00  0.00000000000E+00 -0.47485120445E+03  0.47485120447E+03  0.50400001928E-02 0.  1.
    10030    2    1    2    0    0  0.00000000000E+00  0.00000000000E+00 -0.34331360166E+03  0.60638880736E+03  0.49984313200E+03 0.  0.
        3    1    3    3  502    0 -0.14651318243E+03  0.19454629706E+03 -0.10360733299E+03  0.26466745923E+03  0.10100000352E+00 0. -1.
       -3    1    3    3    0  502  0.14651318243E+03 -0.19454629706E+03 -0.23970626867E+03  0.34172134813E+03  0.10100000352E+00 0.  1.
</event>
<event>
 5   0  0.1225989E-02  0.5000145E+03  0.7818609E-02  0.1013775E+00
       -1   -1    0    0    0  501  0.00000000000E+00  0.00000000000E+00  0.14493965573E+03  0.14493965581E+03  0.50400001928E-02 0.  1.
        1   -1    0    0  501    0  0.00000000000E+00  0.00000000000E+00 -0.43123892060E+03  0.43123892063E+03  0.50400001928E-02 0. -1.
    10030    2    1    2    0    0  0.00000000000E+00  0.00000000000E+00 -0.28629926487E+03  0.57617857644E+03  0.50001448267E+03 0.  0.
        3    1    3    3  502    0  0.16145077867E+03 -0.27874497999E+02 -0.36075361011E+03  0.39621524324E+03  0.10100000352E+00 0. -1.
       -3    1    3    3    0  502 -0.16145077867E+03  0.27874497999E+02  0.74454345234E+02  0.17996333320E+03  0.10100000352E+00 0.  1.
</event>
<event>
 5   0  0.8012875E-03  0.5006780E+03  0.7818609E-02  0.1013602E+00
        4   -1    0    0  501    0  0.00000000000E+00  0.00000000000E+00  0.41421751804E+02  0.41441216469E+02  0.12699999809E+01 0. -1.
       -4   -1    0    0    0  501  0.00000000000E+00  0.00000000000E+00 -0.15125884682E+04  0.15125890014E+04  0.12699999809E+01 0.  1.
    10030    2    1    2    0    0  0.00000000000E+00  0.00000000000E+00 -0.14711667164E+04  0.15540302178E+04  0.50067795088E+03 0.  0.
        1    1    3    3  502    0  0.58205318962E+02  0.24199759328E+03 -0.81880527961E+03  0.85579949769E+03  0.50400001928E-02 0.  1.
       -1    1    3    3    0  502 -0.58205318962E+02 -0.24199759328E+03 -0.65236143679E+03  0.69823072014E+03  0.50400001928E-02 0. -1.
</event>
<event>
 5   0  0.1967813E-02  0.5088497E+03  0.7818609E-02  0.1011494E+00
        2   -1    0    0  501    0  0.00000000000E+00  0.00000000000E+00  0.28291491513E+03  0.28291491514E+03  0.25500000920E-02 0. -1.
       -2   -1    0    0    0  501  0.00000000000E+00  0.00000000000E+00 -0.22880378252E+03  0.22880378253E+03  0.25500000920E-02 0.  1.
    10030    2    1    2    0    0  0.00000000000E+00  0.00000000000E+00  0.54111132607E+02  0.51171869767E+03  0.50884969379E+03 0.  0.
        5    1    3    3  502    0 -0.21886694636E+03 -0.12684300538E+03  0.54002626879E+02  0.25870883621E+03  0.46999998093E+01 0. -1.
       -5    1    3    3    0  502  0.21886694636E+03  0.12684300538E+03  0.10850572746E+00  0.25300986146E+03  0.46999998093E+01 0.  1.
</event>
<event>
 5   0  0.1209831E-02  0.5000466E+03  0.7818609E-02  0.1013767E+00
        1   -1    0    0  501    0  0.00000000000E+00  0.00000000000E+00  0.52383436271E+03  0.52383436274E+03  0.50400001928E-02 0.  1.
       -1   -1    0    0    0  501  0.00000000000E+00  0.00000000000E+00 -0.11933476207E+03  0.11933476218E+03  0.50400001928E-02 0. -1.
    10030    2    1    2    0    0  0.00000000000E+00  0.00000000000E+00  0.40449960064E+03  0.64316912492E+03  0.50004659415E+03 0.  0.
        4    1    3    3  502    0 -0.16758316055E+03  0.13601230718E+03  0.36457123767E+03  0.42367117396E+03  0.12699999809E+01 0.  1.
       -4    1    3    3    0  502  0.16758316055E+03 -0.13601230718E+03  0.39928362968E+02  0.21949795096E+03  0.12699999809E+01 0. -1.
</event>
<event>
 5   0  0.1225989E-02  0.4991802E+03  0.7818609E-02  0.1013993E+00
       -1   -1    0    0    0  501  0.00000000000E+00  0.00000000000E+00  0.72276499738E+02  0.72276499913E+02  0.50400001928E-02 0. -1.
        1   -1    0    0  501    0  0.00000000000E+00  0.00000000000E+00 -0.86190158821E+03  0.86190158823E+03  0.50400001928E-02 0.  1.
    10030    2    1    2    0    0  0.00000000000E+00  0.00000000000E+00 -0.78962508847E+03  0.93417808814E+03  0.49918024802E+03 0.  0.
        3    1    3    3  502    0  0.11146956425E+03 -0.41857675754E+02 -0.80532342565E+03  0.81407822651E+03  0.10100000352E+00 0.  1.
       -3    1    3    3    0  502 -0.11146956425E+03  0.41857675754E+02  0.15698337177E+02  0.12009986163E+03  0.10100000352E+00 0. -1.
</event>
<event>
 5   0  0.8012875E-03  0.5021493E+03  0.7818609E-02  0.1013219E+00
       -3   -1    0    0    0  501  0.00000000000E+00  0.00000000000E+00  0.50755324049E+03  0.50755325054E+03  0.10100000352E+00 0. -1.
        3   -1    0    0  501    0  0.00000000000E+00  0.00000000000E+00 -0.12420068472E+03  0.12420072579E+03  0.10100000352E+00 0.  1.
    10030    2    1    2    0    0  0.00000000000E+00  0.00000000000E+00  0.38335255577E+03  0.63175397632E+03  0.50214928516E+03 0.  0.
        1    1    3    3  502    0  0.84388249865E+02 -0.30148687921E+02  0.48674873879E+03  0.49492893918E+03  0.50400001928E-02 0. -1.
       -1    1    3    3    0  502 -0.84388249865E+02  0.30148687921E+02 -0.10339618303E+03  0.13682503714E+03  0.50400001928E-02 0.  1.
</event>
<event>
 5   0  0.1982847E-02  0.5002750E+03  0.7818609E-02  0.1013707E+00
       -2   -1    0    0    0  501  0.00000000000E+00  0.00000000000E+00  0.65759804821E+02  0.65759804870E+02  0.25500000920E-02 0.  1.
        2   -1    0    0  501    0  0.00000000000E+00  0.00000000000E+00 -0.95147440843E+03  0.95147440843E+03  0.25500000920E-02 0. -1.
    10030    2    1    2    0    0  0.00000000000E+00  0.00000000000E+00 -0.88571460361E+03  0.10172342133E+04  0.50027501004E+03 0.  0.
        2    1    3    3  502    0  0.27190644734E+02 -0.22039879682E+03 -0.20876748082E+03  0.30479308040E+03  0.25500000920E-02 0. -1.
       -2    1    3    3    0  502 -0.27190644734E+02  0.22039879682E+03 -0.67694712279E+03  0.71244113291E+03  0.25500000920E-02 0.  1.
</event>
<event>
 5   0  0.8012875E-03  0.4999859E+03  0.7818609E-02  0.1013783E+00
       -3   -1    0    0    0  501  0.00000000000E+00  0.00000000000E+00  0.53324998667E+03  0.53324999623E+03  0.10100000352E+00 0.  1.
        3   -1    0    0  501    0  0.00000000000E+00  0.00000000000E+00 -0.11719917886E+03  0.11719922238E+03  0.10100000352E+00 0. -1.
    10030    2    1    2    0    0  0.00000000000E+00  0.00000000000E+00  0.41605080780E+03  0.65044921861E+03  0.49998591112E+03 0.  0.
        5    1    3    3  502    0  0.19980052888E+03  0.26004105355E+02  0.40044915402E+03  0.44830578826E+03  0.46999998093E+01 0.  1.
       -5    1    3    3    0  502 -0.19980052888E+03 -0.26004105355E+02  0.15601653786E+02  0.20214343035E+03  0.46999998093E+01 0. -1.
</event>
<event>
 5   0  0.8012875E-03  0.4999750E+03  0.7818609E-02  0.1013785E+00
        4   -1    0    0  501    0  0.00000000000E+00  0.00000000000E+00  0.41433135570E+03  0.41433330208E+03  0.12699999809E+01 0. -1.
       -4   -1    0    0    0  501  0.00000000000E+00  0.00000000000E+00 -0.15082536246E+03  0.15083070928E+03  0.12699999809E+01 0.  1.
    10030    2    1    2    0    0  0.00000000000E+00  0.00000000000E+00  0.26350599324E+03  0.56516401136E+03  0.49997495063E+03 0.  0.
        2    1    3    3  502    0  0.80023522916E+02  0.13006535112E+03 -0.91974594829E+02  0.17826969984E+03  0.25500000920E-02 0.  1.
       -2    1    3    3    0  502 -0.80023522916E+02 -0.13006535112E+03  0.35548058807E+03  0.38689431152E+03  0.25500000920E-02 0. -1.
</event>
<event>
 5   0  0.1967813E-02  0.4995119E+03  0.7818609E-02  0.1013906E+00
        2   -1    0    0  501    0  0.00000000000E+00  0.00000000000E+00  0.19266889242E+04  0.19266889242E+04  0.25500000920E-02 0.  1.
       -2   -1    0    0    0  501  0.00000000000E+00  0.00000000000E+00 -0.32375769772E+02  0.32375769873E+02  0.25500000920E-02 0. -1.
    10030    2    1    2    0    0  0.00000000000E+00  0.00000000000E+00  0.18943131545E+04  0.19590646941E+04  0.49951191030E+03 0.  0.
        5    1    3    3  502    0 -0.17195210415E+02 -0.21299422231E+03  0.44042302241E+03  0.48954748765E+03  0.46999998093E+01 0. -1.
       -5    1    3    3    0  502  0.17195210415E+02  0.21299422231E+03  0.14538901321E+04  0.14695172065E+04  0.46999998093E+01 0.  1.
</event>
<event>
 5   0  0.1209831E-02  0.4995975E+03  0.7818609E-02  0.1013884E+00
       -1   -1    0    0    0  501  0.00000000000E+00  0.00000000000E+00  0.11013440945E+03  0.11013440956E+03  0.50400001928E-02 0. -1.
        1   -1    0    0  501    0  0.00000000000E+00  0.00000000000E+00 -0.56657515401E+03  0.56657515403E+03  0.50400001928E-02 0.  1.
    10030    2    1    2    0    0  0.00000000000E+00  0.00000000000E+00 -0.45644074456E+03  0.67670956360E+03  0.49959751817E+03 0.  0.
        4    1    3    3  502    0 -0.12781578757E+03  0.15914757207E+03 -0.42325553910E+03  0.46990604329E+03  0.12699999809E+01 0.  1.
       -4    1    3    3    0  502  0.12781578757E+03 -0.15914757207E+03 -0.33185205469E+02  0.20680352030E+03  0.12699999809E+01 0. -1.
</event>
<event>
 5   0  0.1923706E-02  0.5002463E+03  0.7818609E-02  0.1013715E+00
        2   -1    0    0  501    0  0.00000000000E+00  0.00000000000E+00  0.74635081575E+03  0.74635081576E+03  0.25500000920E-02 0. -1.
       -2   -1    0    0    0  501  0.00000000000E+00  0.00000000000E+00 -0.83823299871E+02  0.83823299910E+02  0.25500000920E-02 0.  1.
    10030    2    1    2    0    0  0.00000000000E+00  0.00000000000E+00  0.66252751588E+03  0.83017411567E+03  0.50024629237E+03 0.  0.
        3    1    3    3  502    0 -0.21176264935E+03  0.54279286296E+02  0.53296275844E+03  0.57605466117E+03  0.10100000352E+00 0. -1.
       -3    1    3    3    0  502  0.21176264935E+03 -0.54279286296E+02  0.12956475745E+03  0.25411945450E+03  0.10100000352E+00 0.  1.
</event>
<event>
 5   0  0.1967813E-02  0.5008396E+03  0.7818609E-02  0.1013560E+00
       -2   -1    0    0    0  501  0.00000000000E+00  0.00000000000E+00  0.64166634801E+02  0.64166634852E+02  0.25500000920E-02 0. -1.
        2   -1    0    0  501    0  0.00000000000E+00  0.00000000000E+00 -0.97730055433E+03  0.97730055433E+03  0.25500000920E-02 0.  1.
    10030    2    1    2    0    0  0.00000000000E+00  0.00000000000E+00 -0.91313391952E+03  0.10414671892E+04  0.50083964615E+03 0.  0.
        5    1    3    3  502    0 -0.10037957850E+03  0.13804808348E+03 -0.75656109519E+02  0.18675992621E+03  0.46999998093E+01 0. -1.
       -5    1    3    3    0  502  0.10037957850E+03 -0.13804808348E+03 -0.83747781000E+03  0.85470726297E+03  0.46999998093E+01 0.  1.
</event>
<event>
 5   0  0.1180937E-02  0.4996363E+03  0.7818609E-02  0.1013874E+00
        1   -1    0    0  501    0  0.00000000000E+00  0.00000000000E+00  0.48987058029E+03  0.48987058032E+03  0.50400001928E-02 0. -1.
       -1   -1    0    0    0  501  0.00000000000E+00  0.00000000000E+00 -0.12739916475E+03  0.12739916485E+03  0.50400001928E-02 0.  1.
    10030    2    1    2    0    0  0.00000000000E+00  0.00000000000E+00  0.36247141554E+03  0.61726974517E+03  0.49963627893E+03 0.  0.
        1    1    3    3  502    0  0.30604630771E+02  0.55267645839E+02 -0.11736729433E+03  0.13329005178E+03  0.50400001928E-02 0.  1.
       -1    1    3    3    0  502 -0.30604630771E+02 -0.55267645839E+02  0.47983870986E+03  0.48397969339E+03  0.50400001928E-02 0. -1.
</event>
<event>
 5   0  0.1982847E-02  0.5001244E+03  0.7818609E-02  0.1013746E+00
       -2   -1    0    0    0  501  0.00000000000E+00  0.00000000000E+00  0.57362397687E+02  0.57362397744E+02  0.25500000920E-02 0.  1.
        2   -1    0    0  501    0  0.00000000000E+00  0.00000000000E+00 -0.10901063247E+04  0.10901063247E+04  0.25500000920E-02 0. -1.
    10030    2    1    2    0    0  0.00000000000E+00  0.00000000000E+00 -0.10327439270E+04  0.11474687224E+04  0.50012443473E+03 0.  0.
        2    1    3    3  502    0 -0.14077346664E+03  0.17950598018E+03 -0.28136401991E+03  0.36222269053E+03  0.25500000920E-02 0.  1.
       -2    1    3    3    0  502  0.14077346664E+03 -0.17950598018E+03 -0.75137990711E+03  0.78524603192E+03  0.25500000920E-02 0. -1.
</event>
<event>
 5   0  0.1967813E-02  0.5004076E+03  0.7818609E-02  0.1013673E+00
       -2   -1    0    0    0  501  0.00000000000E+00  0.00000000000E+00  0.41865982591E+02  0.41865982669E+02  0.25500000920E-02 0.  1.
        2   -1    0    0  501    0  0.00000000000E+00  0.00000000000E+00 -0.14952938703E+04  0.14952938703E+04  0.25500000920E-02 0. -1.
    10030    2    1    2    0    0  0.00000000000E+00  0.00000000000E+00 -0.14534278877E+04  0.15371598530E+04  0.50040762267E+03 0.  0.
        5    1    3    3  502    0  0.21602793769E+03  0.11249447653E+03 -0.90201693810E+03  0.93433383955E+03  0.46999998093E+01 0. -1.
       -5    1    3    3    0  502 -0.21602793769E+03 -0.11249447653E+03 -0.55141094964E+03  0.60282601345E+03  0.46999998093E+01 0.  1.
</event>
<event>
 5   0  0.1217270E-02  0.5006072E+03  0.7818609E-02  0.1013621E+00
       -1   -1    0    0    0  501  0.00000000000E+00  0.00000000000E+00  0.16522981402E+03  0.16522981410E+03  0.50400001928E-02 0. -1.
        1   -1    0    0  501    0  0.00000000000E+00  0.00000000000E+00 -0.37918030515E+03  0.37918030518E+03  0.50400001928E-02 0.  1.
    10030    2    1    2    0    0  0.00000000000E+00  0.00000000000E+00 -0.21395049113E+03  0.54441011928E+03  0.50060719664E+03 0.  0.
        2    1    3    3  502    0 -0.77778557306E+02 -0.21458175659E+03 -0.21871315339E+03  0.31611750618E+03  0.25500000920E-02 0. -1.
       -2    1    3    3    0  502  0.77778557306E+02  0.21458175659E+03  0.47626622663E+01  0.22829261310E+03  0.25500000920E-02 0.  1.
</event>
<event>
 5   0  0.1923706E-02  0.4998109E+03  0.7818609E-02  0.1013828E+00
        2   -1    0    0  501    0  0.00000000000E+00  0.00000000000E+00  0.78221359286E+03  0.78221359287E+03  0.25500000920E-02 0.  1.
       -2   -1    0    0    0  501  0.00000000000E+00  0.00000000000E+00 -0.79841035329E+02  0.79841035369E+02  0.25500000920E-02 0. -1.
    10030    2    1    2    0    0  0.00000000000E+00  0.00000000000E+00  0.70237255753E+03  0.86205462824E+03  0.49981093674E+03 0.  0.
        3    1    3    3  502    0 -0.15361889301E+03 -0.14569389493E+03  0.58017885791E+03  0.61760261712E+03  0.10100000352E+00 0.  1.
       -3    1    3    3    0  502  0.15361889301E+03  0.14569389493E+03  0.12219369963E+03  0.24445201112E+03  0.10100000352E+00 0. -1.
</event>
<event>
 5   0  0.1209831E-02  0.4973619E+03  0.7818609E-02  0.1014470E+00
       -1   -1    0    0    0  501  0.00000000000E+00  0.00000000000E+00  0.12636197312E+03  0.12636197322E+03  0.50400001928E-02 0.  1.
        1   -1    0    0  501    0  0.00000000000E+00  0.00000000000E+00 -0.48940528726E+03  0.48940528728E+03  0.50400001928E-02 0. -1.
    10030    2    1    2    0    0  0.00000000000E+00  0.00000000000E+00 -0.36304331413E+03  0.61576726051E+03  0.49736191166E+03 0.  0.
        4    1    3    3  502    0  0.70600705549E+01 -0.37198974382E+02  0.12276835150E+03  0.12848069630E+03  0.12699999809E+01 0.  1.
       -4    1    3    3    0  502 -0.70600705549E+01  0.37198974382E+02 -0.48581166563E+03  0.48728656421E+03  0.12699999809E+01 0. -1.
</event>
<event>
 5   0  0.1227864E-02  0.5012106E+03  0.7818609E-02  0.1013463E+00
        1   -1    0    0  501    0  0.00000000000E+00  0.00000000000E+00  0.12038220138E+03  0.12038220148E+03  0.50400001928E-02 0.  1.
       -1   -1    0    0    0  501  0.00000000000E+00  0.00000000000E+00 -0.52169675771E+03  0.52169675773E+03  0.50400001928E-02 0. -1.
    10030    2    1    2    0    0  0.00000000000E+00  0.00000000000E+00 -0.40131455634E+03  0.64207895922E+03  0.50121055131E+03 0.  0.
        5    1    3    3  502    0 -0.22325186512E+03  0.32580946631E+02 -0.34027479478E+03  0.40830373416E+03  0.46999998093E+01 0. -1.
       -5    1    3    3    0  502  0.22325186512E+03 -0.32580946631E+02 -0.61039761551E+02  0.23377522506E+03  0.46999998093E+01 0.  1.
</event>
<event>
 5   0  0.1225989E-02  0.5000413E+03  0.7818609E-02  0.1013768E+00
       -1   -1    0    0    0  501  0.00000000000E+00  0.00000000000E+00  0.68234819554E+02  0.68234819741E+02  0.50400001928E-02 0.  1.
        1   -1    0    0  501    0  0.00000000000E+00  0.00000000000E+00 -0.91610584366E+03  0.91610584367E+03  0.50400001928E-02 0. -1.
    10030    2    1    2    0    0  0.00000000000E+00  0.00000000000E+00 -0.84787102410E+03  0.98434066341E+03  0.50004126643E+03 0.  0.
        3    1    3    3  502    0  0.13958300572E+03 -0.19489631755E+03 -0.28415242035E+03  0.37176686010E+03  0.10100000352E+00 0.  1.
       -3    1    3    3    0  502 -0.13958300572E+03  0.19489631755E+03 -0.56371860376E+03  0.61257380331E+03  0.10100000352E+00 0. -1.
</event>
<event>
 5   0  0.1227864E-02  0.4998317E+03  0.7818609E-02  0.1013823E+00
       -1   -1    0    0    0  501  0.00000000000E+00  0.00000000000E+00  0.51043211571E+03  0.51043211574E+03  0.50400001928E-02 0. -1.
        1   -1    0    0  501    0  0.00000000000E+00  0.00000000000E+00 -0.12236285446E+03  0.12236285457E+03  0.50400001928E-02 0.  1.
    10030    2    1    2    0    0  0.00000000000E+00  0.00000000000E+00  0.38806926125E+03  0.63279497030E+03  0.49983169459E+03 0.  0.
        5    1    3    3  502    0  0.12614542552E+03  0.33391536129E+02 -0.75743203437E+02  0.15095292621E+03  0.46999998093E+01 0.  1.
       -5    1    3    3    0  502 -0.12614542552E+03 -0.33391536129E+02  0.46381246468E+03  0.48184204410E+03  0.46999998093E+01 0. -1.
</event>
<event>
 5   0  0.1923706E-02  0.4994801E+03  0.7818609E-02  0.1013915E+00
        2   -1    0    0  501    0  0.00000000000E+00  0.00000000000E+00  0.79207371217E+03  0.79207371217E+03  0.25500000920E-02 0.  1.
       -2   -1    0    0    0  501  0.00000000000E+00  0.00000000000E+00 -0.78742796166E+02  0.78742796208E+02  0.25500000920E-02 0. -1.
    10030    2    1    2    0    0  0.00000000000E+00  0.00000000000E+00  0.71333091600E+03  0.87081650838E+03  0.49948012527E+03 0.  0.
        3    1    3    3  502    0 -0.12866637747E+02 -0.61651961129E+02 -0.64670140279E+02  0.90270437701E+02  0.10100000352E+00 0. -1.
       -3    1    3    3    0  502  0.12866637747E+02  0.61651961129E+02  0.77800105628E+03  0.78054607068E+03  0.10100000352E+00 0.  1.
</event>
<event>
 5   0  0.1225989E-02  0.4999147E+03  0.7818609E-02  0.1013801E+00
       -1   -1    0    0    0  501  0.00000000000E+00  0.00000000000E+00  0.57994761840E+02  0.57994762059E+02  0.50400001928E-02 0.  1.
        1   -1    0    0  501    0  0.00000000000E+00  0.00000000000E+00 -0.10773159754E+04  0.10773159755E+04  0.50400001928E-02 0. -1.
    10030    2    1    2    0    0  0.00000000000E+00  0.00000000000E+00 -0.10193212136E+04  0.11353107375E+04  0.49991472694E+03 0.  0.
        3    1    3    3  502    0 -0.19696093832E+03  0.98155655746E+00 -0.85916065941E+03  0.88144859383E+03  0.10100000352E+00 0. -1.
       -3    1    3    3    0  502  0.19696093832E+03 -0.98155655746E+00 -0.16016055419E+03  0.25386214369E+03  0.10100000352E+00 0.  1.
</event>
<event>
 5   0  0.1227864E-02  0.4986442E+03  0.7818609E-02  0.1014133E+00
       -1   -1    0    0    0  501  0.00000000000E+00  0.00000000000E+00  0.63085053823E+02  0.63085054024E+02  0.50400001928E-02 0.  1.
        1   -1    0    0  501    0  0.00000000000E+00  0.00000000000E+00 -0.98536036187E+03  0.98536036188E+03  0.50400001928E-02 0. -1.
    10030    2    1    2    0    0  0.00000000000E+00  0.00000000000E+00 -0.92227530805E+03  0.10484454159E+04  0.49864420813E+03 0.  0.
        5    1    3    3  502    0  0.17522677474E+03  0.17412475908E+03 -0.39091084631E+03  0.46244700677E+03  0.46999998093E+01 0.  1.
       -5    1    3    3    0  502 -0.17522677474E+03 -0.17412475908E+03 -0.53136446174E+03  0.58599840913E+03  0.46999998093E+01 0. -1.
</event>
<event>
 5   0  0.1923706E-02  0.5003036E+03  0.7818609E-02  0.1013700E+00
        2   -1    0    0  501    0  0.00000000000E+00  0.00000000000E+00  0.11655747942E+04  0.11655747942E+04  0.25500000920E-02 0.  1.
       -2   -1    0    0    0  501  0.00000000000E+00  0.00000000000E+00 -0.53686758086E+02  0.53686758147E+02  0.25500000920E-02 0. -1.
    10030    2    1    2    0    0  0.00000000000E+00  0.00000000000E+00  0.11118880361E+04  0.12192615523E+04  0.50030363599E+03 0.  0.
        3    1    3    3  502    0 -0.49280762009E+01  0.18975745556E+03  0.95299320392E+03  0.97171407049E+03  0.10100000352E+00 0.  1.
       -3    1    3    3    0  502  0.49280762009E+01 -0.18975745556E+03  0.15889483220E+03  0.24754748186E+03  0.10100000352E+00 0. -1.
</event>
<event>
 5   0  0.8012875E-03  0.4997417E+03  0.7818609E-02  0.1013846E+00
       -3   -1    0    0    0  501  0.00000000000E+00  0.00000000000E+00  0.11675655879E+03  0.11675660247E+03  0.10100000352E+00 0. -1.
        3   -1    0    0  501    0  0.00000000000E+00  0.00000000000E+00 -0.53474866140E+03  0.53474867093E+03  0.10100000352E+00 0.  1.
    10030    2    1    2    0    0  0.00000000000E+00  0.00000000000E+00 -0.41799210261E+03  0.65150527341E+03  0.49974165669E+03 0.  0.
        3    1    3    3  502    0  0.98290698840E+02 -0.19215711657E+03 -0.44866402539E+02  0.22045050058E+03  0.10100000352E+00 0. -1.
       -3    1    3    3    0  502 -0.98290698840E+02  0.19215711657E+03 -0.37312570007E+03  0.43105477283E+03  0.10100000352E+00 0.  1.
</event>
<event>
 5   0  0.1855407E-02  0.4997041E+03  0.7818609E-02  0.1013856E+00
        2   -1    0    0  501    0  0.00000000000E+00  0.00000000000E+00  0.91155159096E+02  0.91155159132E+02  0.25500000920E-02 0. -1.
       -2   -1    0    0    0  501  0.00000000000E+00  0.00000000000E+00 -0.68483274725E+03  0.68483274726E+03  0.25500000920E-02 0.  1.
    10030    2    1    2    0    0  0.00000000000E+00  0.00000000000E+00 -0.59367758816E+03  0.77598790639E+03  0.49970406461E+03 0.  0.
        1    1    3    3  502    0  0.81203239542E+02 -0.23038974641E+03 -0.37831232070E+03  0.45032611892E+03  0.50400001928E-02 0. -1.
       -1    1    3    3    0  502 -0.81203239542E+02  0.23038974641E+03 -0.21536526746E+03  0.32566178747E+03  0.50400001928E-02 0.  1.
</event>
<event>
 5   0  0.1941387E-02  0.4995789E+03  0.7818609E-02  0.1013889E+00
       -2   -1    0    0    0  501  0.00000000000E+00  0.00000000000E+00  0.22831604835E+03  0.22831604837E+03  0.25500000920E-02 0. -1.
        2   -1    0    0  501    0  0.00000000000E+00  0.00000000000E+00 -0.27328247991E+03  0.27328247992E+03  0.25500000920E-02 0.  1.
    10030    2    1    2    0    0  0.00000000000E+00  0.00000000000E+00 -0.44966431555E+02  0.50159852829E+03  0.49957892631E+03 0.  0.
        4    1    3    3  502    0  0.23532037891E+03 -0.69471625643E+02  0.24516012352E+02  0.24658595917E+03  0.12699999809E+01 0. -1.
       -4    1    3    3    0  502 -0.23532037891E+03  0.69471625643E+02 -0.69482443907E+02  0.25501256912E+03  0.12699999809E+01 0.  1.
</event>
<event>
 5   0  0.8012875E-03  0.5005019E+03  0.7818609E-02  0.1013648E+00
       -3   -1    0    0    0  501  0.00000000000E+00  0.00000000000E+00  0.17266274081E+03  0.17266277035E+03  0.10100000352E+00 0.  1.
        3   -1    0    0  501    0  0.00000000000E+00  0.00000000000E+00 -0.36270434797E+03  0.36270436204E+03  0.10100000352E+00 0. -1.
    10030    2    1    2    0    0  0.00000000000E+00  0.00000000000E+00 -0.19004160716E+03  0.53536713239E+03  0.50050190208E+03 0.  0.
        1    1    3    3  502    0  0.68018016365E+02 -0.13704400073E+03  0.11680987571E+03  0.19248910560E+03  0.50400001928E-02 0.  1.
       -1    1    3    3    0  502 -0.68018016365E+02  0.13704400073E+03 -0.30685148287E+03  0.34287802679E+03  0.50400001928E-02 0. -1.
</event>
<event>
 5   0  0.1217270E-02  0.4986640E+03  0.7818609E-02  0.1014128E+00
       -1   -1    0    0    0  501  0.00000000000E+00  0.00000000000E+00  0.15679662371E+03  0.15679662379E+03  0.50400001928E-02 0.  1.
        1   -1    0    0  501    0  0.00000000000E+00  0.00000000000E+00 -0.39647825928E+03  0.39647825932E+03  0.50400001928E-02 0. -1.
    10030    2    1    2    0    0  0.00000000000E+00  0.00000000000E+00 -0.23968163558E+03  0.55327488310E+03  0.49866402501E+03 0.  0.
        2    1    3    3  502    0  0.15003113616E+03 -0.43878575937E+02 -0.33536031772E+03  0.37000164047E+03  0.25500000920E-02 0. -1.
       -2    1    3    3    0  502 -0.15003113616E+03  0.43878575937E+02  0.95678682141E+02  0.18327324263E+03  0.25500000920E-02 0.  1.
</event>
<event>
 5   0  0.8012875E-03  0.5056303E+03  0.7818609E-02  0.1012320E+00
       -3   -1    0    0    0  501  0.00000000000E+00  0.00000000000E+00  0.57089798372E+03  0.57089799266E+03  0.10100000352E+00 0. -1.
        3   -1    0    0  501    0  0.00000000000E+00  0.00000000000E+00 -0.11195606170E+03  0.11195610726E+03  0.10100000352E+00 0.  1.
    10030    2    1    2    0    0  0.00000000000E+00  0.00000000000E+00  0.45894192202E+03  0.68285409991E+03  0.50563033332E+03 0.  0.
        5    1    3    3  502    0  0.13801231673E+03 -0.10224342565E+03  0.47992348742E+03  0.50975460904E+03  0.46999998093E+01 0. -1.
       -5    1    3    3    0  502 -0.13801231673E+03  0.10224342565E+03 -0.20981565396E+02  0.17309949088E+03  0.46999998093E+01 0.  1.
</event>
<event>
 5   0  0.1967813E-02  0.5034808E+03  0.7818609E-02  0.1012874E+00
        2   -1    0    0  501    0  0.00000000000E+00  0.00000000000E+00  0.33234292455E+03  0.33234292456E+03  0.25500000920E-02 0.  1.
       -2   -1    0    0    0  501  0.00000000000E+00  0.00000000000E+00 -0.19068627285E+03  0.19068627287E+03  0.25500000920E-02 0. -1.
    10030    2    1    2    0    0  0.00000000000E+00  0.00000000000E+00  0.14165665170E+03  0.52302919743E+03  0.50348081830E+03 0.  0.
        5    1    3    3  502    0  0.19430011578E+02  0.14765031442E+03  0.28161797236E+03  0.31860463438E+03  0.46999998093E+01 0.  1.
       -5    1    3    3    0  502 -0.19430011578E+02 -0.14765031442E+03 -0.13996132065E+03  0.20442456305E+03  0.46999998093E+01 0. -1.
</event>
<event>
 5   0  0.1209831E-02  0.5007787E+03  0.7818609E-02  0.1013576E+00
        1   -1    0    0  501    0  0.00000000000E+00  0.00000000000E+00  0.33120927369E+03  0.33120927373E+03  0.50400001928E-02 0. -1.
       -1   -1    0    0    0  501  0.00000000000E+00  0.00000000000E+00 -0.18929066898E+03  0.18929066905E+03  0.50400001928E-02 0.  1.
    10030    2    1    2    0    0  0.00000000000E+00  0.00000000000E+00  0.14191860470E+03  0.52049994278E+03  0.50077869371E+03 0.  0.
        4    1    3    3  502    0 -0.20810244931E+03 -0.12992085161E+03  0.18915929186E+02  0.24605991622E+03  0.12699999809E+01 0.  1.
       -4    1    3    3    0  502  0.20810244931E+03  0.12992085161E+03  0.12300267552E+03  0.27444002656E+03  0.12699999809E+01 0. -1.
</event>
<event>
 5   0  0.1855407E-02  0.5000506E+03  0.7818609E-02  0.1013766E+00
       -2   -1    0    0    0  501  0.00000000000E+00  0.00000000000E+00  0.37537792810E+02  0.37537792897E+02  0.25500000920E-02 0. -1.
        2   -1    0    0  501    0  0.00000000000E+00  0.00000000000E+00 -0.16653260093E+04  0.16653260093E+04  0.25500000920E-02 0.  1.
    10030    2    1    2    0    0  0.00000000000E+00  0.00000000000E+00 -0.16277882165E+04  0.17028638022E+04  0.50005064853E+03 0.  0.
        1    1    3    3  502    0  0.15394616213E+03 -0.27693728832E+01 -0.14306335137E+03  0.21017662285E+03  0.50400001928E-02 0. -1.
       -1    1    3    3    0  502 -0.15394616213E+03  0.27693728832E+01 -0.14847248651E+04  0.14926871793E+04  0.50400001928E-02 0.  1.
</event>
<event>
 5   0  0.1967813E-02  0.5001228E+03  0.7818609E-02  0.1013747E+00
        2   -1    0    0  501    0  0.00000000000E+00  0.00000000000E+00  0.25706970135E+03  0.25706970136E+03  0.25500000920E-02 0. -1.
       -2   -1    0    0    0  501  0.00000000000E+00  0.00000000000E+00 -0.24324415512E+03  0.24324415513E+03  0.25500000920E-02 0.  1.
    10030    2    1    2    0    0  0.00000000000E+00  0.00000000000E+00  0.13825546230E+02  0.50031385650E+03  0.50012279420E+03 0.  0.
        5    1    3    3  502    0  0.79471220251E+00  0.12412020508E+03 -0.21020044911E+03  0.24415727653E+03  0.46999998093E+01 0.  1.
       -5    1    3    3    0  502 -0.79471220251E+00 -0.12412020508E+03  0.22402599534E+03  0.25615657997E+03  0.46999998093E+01 0. -1.
</event>
<event>
 5   0  0.1982847E-02  0.5005826E+03  0.7818609E-02  0.1013627E+00
        2   -1    0    0  501    0  0.00000000000E+00  0.00000000000E+00  0.73876304397E+03  0.73876304397E+03  0.25500000920E-02 0. -1.
       -2   -1    0    0    0  501  0.00000000000E+00  0.00000000000E+00 -0.84798132964E+02  0.84798133002E+02  0.25500000920E-02 0.  1.
    10030    2    1    2    0    0  0.00000000000E+00  0.00000000000E+00  0.65396491101E+03  0.82356117698E+03  0.50058256801E+03 0.  0.
        2    1    3    3  502    0 -0.10774131656E+01 -0.21145095883E+03  0.10666580485E+03  0.23683382938E+03  0.25500000920E-02 0.  1.
       -2    1    3    3    0  502  0.10774131656E+01  0.21145095883E+03  0.54729910616E+03  0.58672734759E+03  0.25500000920E-02 0. -1.
</event>
<event>
 5   0  0.1180937E-02  0.5005021E+03  0.7818609E-02  0.1013648E+00
        1   -1    0    0  501    0  0.00000000000E+00  0.00000000000E+00  0.35086542932E+03  0.35086542936E+03  0.50400001928E-02 0. -1.
       -1   -1    0    0    0  501  0.00000000000E+00  0.00000000000E+00 -0.17848893734E+03  0.17848893741E+03  0.50400001928E-02 0.  1.
    10030    2    1    2    0    0  0.00000000000E+00  0.00000000000E+00  0.17237649198E+03  0.52935436677E+03  0.50050213848E+03 0.  0.
        1    1    3    3  502    0 -0.98923831557E+02  0.36218266760E+01 -0.15690153915E+03  0.18551855727E+03  0.50400001928E-02 0.  1.
       -1    1    3    3    0  502  0.98923831557E+02 -0.36218266760E+01  0.32927803113E+03  0.34383580950E+03  0.50400001928E-02 0. -1.
</event>
<event>
 5   0  0.1217270E-02  0.5010950E+03  0.7818609E-02  0.1013493E+00
        1   -1    0    0  501    0  0.00000000000E+00  0.00000000000E+00  0.21370023301E+03  0.21370023307E+03  0.50400001928E-02 0. -1.
       -1   -1    0    0    0  501  0.00000000000E+00  0.00000000000E+00 -0.29374818982E+03  0.29374818986E+03  0.50400001928E-02 0.  1.
    10030    2    1    2    0    0  0.00000000000E+00  0.00000000000E+00 -0.80047956805E+02  0.50744842294E+03  0.50109502747E+03 0.  0.
        2    1    3    3  502    0 -0.17780982351E+03 -0.10354163124E+03  0.10474610816E+03  0.23088731000E+03  0.25500000920E-02 0. -1.
       -2    1    3    3    0  502  0.17780982351E+03  0.10354163124E+03 -0.18479406496E+03  0.27656111294E+03  0.25500000920E-02 0.  1.
</event>
<event>
 5   0  0.1982847E-02  0.4969329E+03  0.7818609E-02  0.1014583E+00
        2   -1    0    0  501    0  0.00000000000E+00  0.00000000000E+00  0.27932205657E+04  0.27932205657E+04  0.25500000920E-02 0.  1.
       -2   -1    0    0    0  501  0.00000000000E+00  0.00000000000E+00 -0.22101930164E+02  0.22101930311E+02  0.25500000920E-02 0. -1.
    10030    2    1    2    0    0  0.00000000000E+00  0.00000000000E+00  0.27711186356E+04  0.28153224961E+04  0.49693285697E+03 0.  0.
        2    1    3    3  502    0  0.18470244952E+03 -0.76085138138E+02  0.54846682165E+03  0.58371208447E+03  0.25500000920E-02 0.  1.
       -2    1    3    3    0  502 -0.18470244952E+03  0.76085138138E+02  0.22226518139E+04  0.22316104116E+04  0.25500000920E-02 0. -1.
</event>
<event>
 5   0  0.1967813E-02  0.5000394E+03  0.7818609E-02  0.1013769E+00
        2   -1    0    0  501    0  0.00000000000E+00  0.00000000000E+00  0.27410949905E+03  0.27410949906E+03  0.25500000920E-02 0. -1.
       -2   -1    0    0    0  501  0.00000000000E+00  0.00000000000E+00 -0.22804698199E+03  0.22804698200E+03  0.25500000920E-02 0.  1.
    10030    2    1    2    0    0  0.00000000000E+00  0.00000000000E+00  0.46062517062E+02  0.50215648106E+03  0.50003937444E+03 0.  0.
        5    1    3    3  502    0  0.19097247223E+03 -0.16128820205E+03  0.21183706227E+02  0.25090876565E+03  0.46999998093E+01 0. -1.
       -5    1    3    3    0  502 -0.19097247223E+03  0.16128820205E+03  0.24878810835E+02  0.25124771541E+03  0.46999998093E+01 0.  1.
</event>
<event>
 5   0  0.1209831E-02  0.4997292E+03  0.7818609E-02  0.1013850E+00
       -1   -1    0    0    0  501  0.00000000000E+00  0.00000000000E+00  0.67724164923E+02  0.67724165111E+02  0.50400001928E-02 0.  1.
        1   -1    0    0  501    0  0.00000000000E+00  0.00000000000E+00 -0.92186159854E+03  0.92186159855E+03  0.50400001928E-02 0. -1.
    10030    2    1    2    0    0  0.00000000000E+00  0.00000000000E+00 -0.85413743361E+03  0.98958576366E+03  0.49972915479E+03 0.  0.
        4    1    3    3  502    0 -0.93635296174E+02  0.27125771856E+02  0.28505035995E+02  0.10157522417E+03  0.12699999809E+01 0.  1.
       -4    1    3    3    0  502  0.93635296174E+02 -0.27125771856E+02 -0.88264246961E+03  0.88801053949E+03  0.12699999809E+01 0. -1.
</event>
<event>
 5   0  0.1217270E-02  0.5002557E+03  0.7818609E-02  0.1013712E+00
        1   -1    0    0  501    0  0.00000000000E+00  0.00000000000E+00  0.65440304878E+03  0.65440304879E+03  0.50400001928E-02 0. -1.
       -1   -1    0    0    0  501  0.00000000000E+00  0.00000000000E+00 -0.95604608549E+02  0.95604608682E+02  0.50400001928E-02 0.  1.
    10030    2    1    2    0    0  0.00000000000E+00  0.00000000000E+00  0.55879844023E+03  0.75000765748E+03  0.50025572408E+03 0.  0.
        2    1    3    3  502    0 -0.33181335703E+02 -0.74113698006E+02 -0.75293027124E+02  0.11073789420E+03  0.25500000920E-02 0.  1.
       -2    1    3    3    0  502  0.33181335703E+02  0.74113698006E+02  0.63409146735E+03  0.63926976328E+03  0.25500000920E-02 0. -1.
</event>
<event>
 5   0  0.8012875E-03  0.4985038E+03  0.7818609E-02  0.1014170E+00
        3   -1    0    0  501    0  0.00000000000E+00  0.00000000000E+00  0.11555690138E+03  0.11555694551E+03  0.10100000352E+00 0.  1.
       -3   -1    0    0    0  501  0.00000000000E+00  0.00000000000E+00 -0.53762682029E+03  0.53762682978E+03  0.10100000352E+00 0. -1.
    10030    2    1    2    0    0  0.00000000000E+00  0.00000000000E+00 -0.42206991891E+03  0.65318377529E+03  0.49850378921E+03 0.  0.
        5    1    3    3  502    0  0.12226734080E+03 -0.21527042698E+03 -0.24841282135E+03  0.35074446420E+03  0.46999998093E+01 0. -1.
       -5    1    3    3    0  502 -0.12226734080E+03  0.21527042698E+03 -0.17365709756E+03  0.30243931109E+03  0.46999998093E+01 0.  1.
</event>
<event>
 5   0  0.8012875E-03  0.5002396E+03  0.7818609E-02  0.1013716E+00
       -3   -1    0    0    0  501  0.00000000000E+00  0.00000000000E+00  0.10195255897E+03  0.10195260900E+03  0.10100000352E+00 0. -1.
        3   -1    0    0  501    0  0.00000000000E+00  0.00000000000E+00 -0.61361759521E+03  0.61361760352E+03  0.10100000352E+00 0.  1.
    10030    2    1    2    0    0  0.00000000000E+00  0.00000000000E+00 -0.51166503623E+03  0.71557021252E+03  0.50023956235E+03 0.  0.
        2    1    3    3  502    0  0.56070785357E+02 -0.11701588851E+03  0.50041636553E+02  0.13907126421E+03  0.25500000920E-02 0. -1.
       -2    1    3    3    0  502 -0.56070785357E+02  0.11701588851E+03 -0.56170667279E+03  0.57649894830E+03  0.25500000920E-02 0.  1.
</event>
<event>
 5   0  0.1941387E-02  0.5001964E+03  0.7818609E-02  0.1013728E+00
       -2   -1    0    0    0  501  0.00000000000E+00  0.00000000000E+00  0.10591182031E+03  0.10591182034E+03  0.25500000920E-02 0. -1.
        2   -1    0    0  501    0  0.00000000000E+00  0.00000000000E+00 -0.59057725597E+03  0.59057725598E+03  0.25500000920E-02 0.  1.
    10030    2    1    2    0    0  0.00000000000E+00  0.00000000000E+00 -0.48466543566E+03  0.69648907632E+03  0.50019641034E+03 0.  0.
        4    1    3    3  502    0  0.18280334352E+03 -0.16384404291E+03 -0.17576392636E+03  0.30192135318E+03  0.12699999809E+01 0.  1.
       -4    1    3    3    0  502 -0.18280334352E+03  0.16384404291E+03 -0.30890150930E+03  0.39456772314E+03  0.12699999809E+01 0. -1.
</event>
<event>
 5   0  0.1227864E-02  0.4996721E+03  0.7818609E-02  0.1013865E+00
       -1   -1    0    0    0  501  0.00000000000E+00  0.00000000000E+00  0.48381725820E+02  0.48381726083E+02  0.50400001928E-02 0. -1.
        1   -1    0    0  501    0  0.00000000000E+00  0.00000000000E+00 -0.12901162902E+04  0.12901162903E+04  0.50400001928E-02 0.  1.
    10030    2    1    2    0    0  0.00000000000E+00  0.00000000000E+00 -0.12417345644E+04  0.13384980163E+04  0.49967210374E+03 0.  0.
        5    1    3    3  502    0  0.23660134913E+03  0.72810973418E+02 -0.71028814751E+03  0.75220540994E+03  0.46999998093E+01 0.  1.
       -5    1    3    3    0  502 -0.23660134913E+03 -0.72810973418E+02 -0.53144641692E+03  0.58629260639E+03  0.46999998093E+01 0. -1.
</event>
<event>
 5   0  0.1941387E-02  0.4998931E+03  0.7818609E-02  0.1013807E+00
        2   -1    0    0  501    0  0.00000000000E+00  0.00000000000E+00  0.61366490696E+03  0.61366490697E+03  0.25500000920E-02 0.  1.
       -2   -1    0    0    0  501  0.00000000000E+00  0.00000000000E+00 -0.10180357699E+03  0.10180357703E+03  0.25500000920E-02 0. -1.
    10030    2    1    2    0    0  0.00000000000E+00  0.00000000000E+00  0.51186132997E+03  0.71546848399E+03  0.49989311905E+03 0.  0.
        4    1    3    3  502    0  0.10785640095E+03  0.12338174655E+03  0.52603624087E+03  0.55097350047E+03  0.12699999809E+01 0.  1.
       -4    1    3    3    0  502 -0.10785640095E+03 -0.12338174655E+03 -0.14174910902E+02  0.16449498353E+03  0.12699999809E+01 0. -1.
</event>
<event>
 5   0  0.1941387E-02  0.4995208E+03  0.7818609E-02  0.1013904E+00
        2   -1    0    0  501    0  0.00000000000E+00  0.00000000000E+00  0.51414719754E+03  0.51414719754E+03  0.25500000920E-02 0. -1.
       -2   -1    0    0    0  501  0.00000000000E+00  0.00000000000E+00 -0.12132764669E+03  0.12132764672E+03  0.25500000920E-02 0.  1.
    10030    2    1    2    0    0  0.00000000000E+00  0.00000000000E+00  0.39281955084E+03  0.63547484426E+03  0.49952084858E+03 0.  0.
        4    1    3    3  502    0  0.14880126261E+02 -0.11848744872E+03 -0.82650720097E+02  0.14523583612E+03  0.12699999809E+01 0.  1.
       -4    1    3    3    0  502 -0.14880126261E+02  0.11848744872E+03  0.47547027094E+03  0.49023900815E+03  0.12699999809E+01 0. -1.
</event>
<event>
 5   0  0.1923706E-02  0.4999135E+03  0.7818609E-02  0.1013801E+00
        2   -1    0    0  501    0  0.00000000000E+00  0.00000000000E+00  0.14344539879E+04  0.14344539879E+04  0.25500000920E-02 0. -1.
       -2   -1    0    0    0  501  0.00000000000E+00  0.00000000000E+00 -0.43555519019E+02  0.43555519094E+02  0.25500000920E-02 0.  1.
    10030    2    1    2    0    0  0.00000000000E+00  0.00000000000E+00  0.13908984689E+04  0.14780095070E+04  0.49991354457E+03 0.  0.
        3    1    3    3  502    0  0.16195765818E+03 -0.10858332974E+03  0.11578202709E+04  0.11741245302E+04  0.10100000352E+00 0. -1.
       -3    1    3    3    0  502 -0.16195765818E+03  0.10858332974E+03  0.23307819799E+03  0.30388497679E+03  0.10100000352E+00 0.  1.
</event>
<event>
 5   0  0.1217270E-02  0.4918324E+03  0.7818609E-02  0.1015933E+00
       -1   -1    0    0    0  501  0.00000000000E+00  0.00000000000E+00  0.21485108460E+03  0.21485108466E+03  0.50400001928E-02 0. -1.
        1   -1    0    0  501    0  0.00000000000E+00  0.00000000000E+00 -0.28147296642E+03  0.28147296647E+03  0.50400001928E-02 0.  1.
    10030    2    1    2    0    0  0.00000000000E+00  0.00000000000E+00 -0.66621881826E+02  0.49632405112E+03  0.49183237855E+03 0.  0.
        2    1    3    3  502    0  0.67061241711E+01 -0.13180144735E+03  0.17608874789E+03  0.22005417689E+03  0.25500000920E-02 0. -1.
       -2    1    3    3    0  502 -0.67061241711E+01  0.13180144735E+03 -0.24271062972E+03  0.27626987424E+03  0.25500000920E-02 0.  1.
</event>
<event>
 5   0  0.1209831E-02  0.4976765E+03  0.7818609E-02  0.1014387E+00
       -1   -1    0    0    0  501  0.00000000000E+00  0.00000000000E+00  0.71947287676E+02  0.71947287853E+02  0.50400001928E-02 0.  1.
        1   -1    0    0  501    0  0.00000000000E+00  0.00000000000E+00 -0.86063671530E+03  0.86063671531E+03  0.50400001928E-02 0. -1.
    10030    2    1    2    0    0  0.00000000000E+00  0.00000000000E+00 -0.78868942762E+03  0.93258400317E+03  0.49767651112E+03 0.  0.
        4    1    3    3  502    0 -0.22799221826E+03 -0.64477209458E+02 -0.25186725878E+03  0.34579833873E+03  0.12699999809E+01 0.  1.
       -4    1    3    3    0  502  0.22799221826E+03  0.64477209458E+02 -0.53682216884E+03  0.58678566443E+03  0.12699999809E+01 0. -1.
</event>
<event>
 5   0  0.1227864E-02  0.5008520E+03  0.7818609E-02  0.1013557E+00
       -1   -1    0    0    0  501  0.00000000000E+00  0.00000000000E+00  0.10397055111E+03  0.10397055123E+03  0.50400001928E-02 0.  1.
        1   -1    0    0  501    0  0.00000000000E+00  0.00000000000E+00 -0.60318206980E+03  0.60318206982E+03  0.50400001928E-02 0. -1.
    10030    2    1    2    0    0  0.00000000000E+00  0.00000000000E+00 -0.49921151869E+03  0.70715262105E+03  0.50085196323E+03 0.  0.
        5    1    3    3  502    0  0.15037479862E+03 -0.11599597688E+03 -0.47998101150E+03  0.51620878345E+03  0.46999998093E+01 0. -1.
       -5    1    3    3    0  502 -0.15037479862E+03  0.11599597688E+03 -0.19230507193E+02  0.19094383760E+03  0.46999998093E+01 0.  1.
</event>
<event>
 5   0  0.1855407E-02  0.5005025E+03  0.7818609E-02  0.1013648E+00
        2   -1    0    0  501    0  0.00000000000E+00  0.00000000000E+00  0.89164006080E+02  0.89164006116E+02  0.25500000920E-02 0. -1.
       -2   -1    0    0    0  501  0.00000000000E+00  0.00000000000E+00 -0.70236510166E+03  0.70236510166E+03  0.25500000920E-02 0.  1.
    10030    2    1    2    0    0  0.00000000000E+00  0.00000000000E+00 -0.61320109558E+03  0.79152910778E+03  0.50050249234E+03 0.  0.
        1    1    3    3  502    0 -0.51564303000E+02 -0.51876057958E+02 -0.68508303228E+03  0.68897660619E+03  0.50400001928E-02 0.  1.
       -1    1    3    3    0  502  0.51564303000E+02  0.51876057958E+02  0.71881936701E+02  0.10255250159E+03  0.50400001928E-02 0. -1.
</event>
<event>
 5   0  0.1967813E-02  0.4990408E+03  0.7818609E-02  0.1014030E+00
        2   -1    0    0  501    0  0.00000000000E+00  0.00000000000E+00  0.52722994218E+02  0.52722994280E+02  0.25500000920E-02 0.  1.
       -2   -1    0    0    0  501  0.00000000000E+00  0.00000000000E+00 -0.11808968750E+04  0.11808968750E+04  0.25500000920E-02 0. -1.
    10030    2    1    2    0    0  0.00000000000E+00  0.00000000000E+00 -0.11281738807E+04  0.12336198692E+04  0.49904075645E+03 0.  0.
        5    1    3    3  502    0 -0.22054702380E+03 -0.40588306983E+02 -0.29386040162E+03  0.36968151970E+03  0.46999998093E+01 0.  1.
       -5    1    3    3    0  502  0.22054702380E+03  0.40588306983E+02 -0.83431347912E+03  0.86393834954E+03  0.46999998093E+01 0. -1.
</event>
<event>
 5   0  0.1941387E-02  0.5002131E+03  0.7818609E-02  0.1013723E+00
        2   -1    0    0  501    0  0.00000000000E+00  0.00000000000E+00  0.10090339168E+04  0.10090339168E+04  0.25500000920E-02 0. -1.
       -2   -1    0    0    0  501  0.00000000000E+00  0.00000000000E+00 -0.61993254690E+02  0.61993254743E+02  0.25500000920E-02 0.  1.
    10030    2    1    2    0    0  0.00000000000E+00  0.00000000000E+00  0.94704066207E+03  0.10710271715E+04  0.50021314106E+03 0.  0.
        4    1    3    3  502    0 -0.62593480345E+02 -0.15374533250E+03  0.72971660086E+02  0.18133407601E+03  0.12699999809E+01 0.  1.
       -4    1    3    3    0  502  0.62593480345E+02  0.15374533250E+03  0.87406900199E+03  0.88969309550E+03  0.12699999809E+01 0. -1.
</event>
<event>
 5   0  0.1227864E-02  0.5000405E+03  0.7818609E-02  0.1013768E+00
        1   -1    0    0  501    0  0.00000000000E+00  0.00000000000E+00  0.10481442300E+04  0.10481442300E+04  0.50400001928E-02 0. -1.
       -1   -1    0    0    0  501  0.00000000000E+00  0.00000000000E+00 -0.59638858243E+02  0.59638858456E+02  0.50400001928E-02 0.  1.
    10030    2    1    2    0    0  0.00000000000E+00  0.00000000000E+00  0.98850537175E+03  0.11077830885E+04  0.50004049946E+03 0.  0.
        5    1    3    3  502    0  0.43086630265E+02  0.21819751963E+03  0.24145172282E+03  0.32831027966E+03  0.46999998093E+01 0.  1.
       -5    1    3    3    0  502 -0.43086630265E+02 -0.21819751963E+03  0.74705364893E+03  0.77947280880E+03  0.46999998093E+01 0. -1.
</event>
<event>
 5   0  0.1180937E-02  0.4948888E+03  0.7818609E-02  0.1015122E+00
        1   -1    0    0  501    0  0.00000000000E+00  0.00000000000E+00  0.99716676212E+02  0.99716676339E+02  0.50400001928E-02 0.  1.
       -1   -1    0    0    0  501  0.00000000000E+00  0.00000000000E+00 -0.61402698778E+03  0.61402698780E+03  0.50400001928E-02 0. -1.
    10030    2    1    2    0    0  0.00000000000E+00  0.00000000000E+00 -0.51431031157E+03  0.71374366414E+03  0.49488879712E+03 0.  0.
        1    1    3    3  502    0  0.88251808606E+02  0.19046228961E+03 -0.68203902268E+02  0.22071709901E+03  0.50400001928E-02 0.  1.
       -1    1    3    3    0  502 -0.88251808606E+02 -0.19046228961E+03 -0.44610640930E+03  0.49302656514E+03  0.50400001928E-02 0. -1.
</event>
<event>
 5   0  0.8012875E-03  0.5009112E+03  0.7818609E-02  0.1013541E+00
        4   -1    0    0  501    0  0.00000000000E+00  0.00000000000E+00  0.22919054306E+03  0.22919406172E+03  0.12699999809E+01 0. -1.
       -4   -1    0    0    0  501  0.00000000000E+00  0.00000000000E+00 -0.27368662807E+03  0.27368957467E+03  0.12699999809E+01 0.  1.
    10030    2    1    2    0    0  0.00000000000E+00  0.00000000000E+00 -0.44496085008E+02  0.50288363639E+03  0.50091121985E+03 0.  0.
        4    1    3    3  502    0 -0.20167832878E+03  0.31686850945E+02 -0.16789927771E+03  0.26432931199E+03  0.12699999809E+01 0. -1.
       -4    1    3    3    0  502  0.20167832878E+03 -0.31686850945E+02  0.12340319270E+03  0.23855432440E+03  0.12699999809E+01 0.  1.
</event>
<event>
 5   0  0.8012875E-03  0.4995687E+03  0.7818609E-02  0.1013892E+00
       -3   -1    0    0    0  501  0.00000000000E+00  0.00000000000E+00  0.40480904461E+03  0.40480905721E+03  0.10100000352E+00 0. -1.
        3   -1    0    0  501    0  0.00000000000E+00  0.00000000000E+00 -0.15412753307E+03  0.15412756616E+03  0.10100000352E+00 0.  1.
    10030    2    1    2    0    0  0.00000000000E+00  0.00000000000E+00  0.25068151154E+03  0.55893662337E+03  0.49956874274E+03 0.  0.
        5    1    3    3  502    0  0.81022189172E+02  0.19029816976E+03 -0.31265244697E+02  0.20923095870E+03  0.46999998093E+01 0.  1.
       -5    1    3    3    0  502 -0.81022189172E+02 -0.19029816976E+03  0.28194675624E+03  0.34970566467E+03  0.46999998093E+01 0. -1.
</event>
<event>
 5   0  0.1217270E-02  0.4996253E+03  0.7818609E-02  0.1013877E+00
        1   -1    0    0  501    0  0.00000000000E+00  0.00000000000E+00  0.78305536751E+03  0.78305536753E+03  0.50400001928E-02 0.  1.
       -1   -1    0    0    0  501  0.00000000000E+00  0.00000000000E+00 -0.79695963644E+02  0.79695963804E+02  0.50400001928E-02 0. -1.
    10030    2    1    2    0    0  0.00000000000E+00  0.00000000000E+00  0.70335940387E+03  0.86275133133E+03  0.49962526828E+03 0.  0.
        2    1    3    3  502    0  0.33097577238E+02 -0.24370585008E+03  0.42731184965E+03  0.49303489515E+03  0.25500000920E-02 0.  1.
       -2    1    3    3    0  502 -0.33097577238E+02  0.24370585008E+03  0.27604755422E+03  0.36971643618E+03  0.25500000920E-02 0. -1.
</event>
<event>
 5   0  0.1225989E-02  0.4998919E+03  0.7818609E-02  0.1013807E+00
        1   -1    0    0  501    0  0.00000000000E+00  0.00000000000E+00  0.15366313535E+04  0.15366313535E+04  0.50400001928E-02 0.  1.
       -1   -1    0    0    0  501  0.00000000000E+00  0.00000000000E+00 -0.40655805508E+02  0.40655805820E+02  0.50400001928E-02 0. -1.
    10030    2    1    2    0    0  0.00000000000E+00  0.00000000000E+00  0.14959755480E+04  0.15772871593E+04  0.49989193112E+03 0.  0.
        3    1    3    3  502    0  0.87740967006E+02  0.11960176889E+02  0.10497980639E+02  0.89172534566E+02  0.10100000352E+00 0. -1.
       -3    1    3    3    0  502 -0.87740967006E+02 -0.11960176889E+02  0.14854775674E+04  0.14881146248E+04  0.10100000352E+00 0.  1.
</event>
<event>
 5   0  0.1855407E-02  0.4989405E+03  0.7818609E-02  0.1014056E+00
        2   -1    0    0  501    0  0.00000000000E+00  0.00000000000E+00  0.18466618319E+03  0.18466618321E+03  0.25500000920E-02 0.  1.
       -2   -1    0    0    0  501  0.00000000000E+00  0.00000000000E+00 -0.33701567322E+03  0.33701567323E+03  0.25500000920E-02 0. -1.
    10030    2    1    2    0    0  0.00000000000E+00  0.00000000000E+00 -0.15234949003E+03  0.52168185644E+03  0.49894046962E+03 0.  0.
        1    1    3    3  502    0  0.18807625862E+03  0.11952972268E+03  0.41076453315E+02  0.22659944550E+03  0.50400001928E-02 0.  1.
       -1    1    3    3    0  502 -0.18807625862E+03 -0.11952972268E+03 -0.19342594334E+03  0.29508241094E+03  0.50400001928E-02 0. -1.
</event>
<event>
 5   0  0.1217270E-02  0.5003496E+03  0.7818609E-02  0.1013688E+00
        1   -1    0    0  501    0  0.00000000000E+00  0.00000000000E+00  0.12021441011E+03  0.12021441022E+03  0.50400001928E-02 0. -1.
       -1   -1    0    0    0  501  0.00000000000E+00  0.00000000000E+00 -0.52063175559E+03  0.52063175561E+03  0.50400001928E-02 0.  1.
    10030    2    1    2    0    0  0.00000000000E+00  0.00000000000E+00 -0.40041734548E+03  0.64084616583E+03  0.50034963545E+03 0.  0.
        2    1    3    3  502    0  0.20147817382E+03  0.99969812833E+02 -0.59904297874E+02  0.23275726179E+03  0.25500000920E-02 0. -1.
       -2    1    3    3    0  502 -0.20147817382E+03 -0.99969812833E+02 -0.34051304760E+03  0.40808890404E+03  0.25500000920E-02 0.  1.
</event>
<event>
 5   0  0.1209831E-02  0.4983594E+03  0.7818609E-02  0.1014208E+00
       -1   -1    0    0    0  501  0.00000000000E+00  0.00000000000E+00  0.94238402506E+02  0.94238402641E+02  0.50400001928E-02 0.  1.
        1   -1    0    0  501    0  0.00000000000E+00  0.00000000000E+00 -0.65886635276E+03  0.65886635278E+03  0.50400001928E-02 0. -1.
    10030    2    1    2    0    0  0.00000000000E+00  0.00000000000E+00 -0.56462795026E+03  0.75310475542E+03  0.49835935873E+03 0.  0.
        4    1    3    3  502    0  0.12607795863E+03 -0.14826222743E+03 -0.51745269949E+03  0.55284378339E+03  0.12699999809E+01 0. -1.
       -4    1    3    3    0  502 -0.12607795863E+03  0.14826222743E+03 -0.47175250773E+02  0.20026097203E+03  0.12699999809E+01 0.  1.
</event>
<event>
 5   0  0.1941387E-02  0.4999932E+03  0.7818609E-02  0.1013781E+00
        2   -1    0    0  501    0  0.00000000000E+00  0.00000000000E+00  0.15827475267E+04  0.15827475267E+04  0.25500000920E-02 0.  1.
       -2   -1    0    0    0  501  0.00000000000E+00  0.00000000000E+00 -0.39487220965E+02  0.39487221047E+02  0.25500000920E-02 0. -1.
    10030    2    1    2    0    0  0.00000000000E+00  0.00000000000E+00  0.15432603057E+04  0.16222347477E+04  0.49999320550E+03 0.  0.
        4    1    3    3  502    0 -0.44413290130E+02  0.63102229019E+02  0.12973352769E+00  0.77175523179E+02  0.12699999809E+01 0. -1.
       -4    1    3    3    0  502  0.44413290130E+02 -0.63102229019E+02  0.15431305722E+04  0.15450592246E+04  0.12699999809E+01 0.  1.
</event>
<event>
 5   0  0.1227864E-02  0.5003251E+03  0.7818609E-02  0.1013694E+00
       -1   -1    0    0    0  501  0.00000000000E+00  0.00000000000E+00  0.75741876859E+03  0.75741876861E+03  0.50400001928E-02 0.  1.
        1   -1    0    0  501    0  0.00000000000E+00  0.00000000000E+00 -0.82624439331E+02  0.82624439485E+02  0.50400001928E-02 0. -1.
    10030    2    1    2    0    0  0.00000000000E+00  0.00000000000E+00  0.67479432926E+03  0.84004320809E+03  0.50032509897E+03 0.  0.
        5    1    3    3  502    0  0.32055533756E+02  0.10227885992E+03  0.71683024557E+03  0.72481460622E+03  0.46999998093E+01 0.  1.
       -5    1    3    3    0  502 -0.32055533756E+02 -0.10227885992E+03 -0.42035916307E+02  0.11522860187E+03  0.46999998093E+01 0. -1.
</event>
<event>
 5   0  0.1227864E-02  0.5004971E+03  0.7818609E-02  0.1013649E+00
        1   -1    0    0  501    0  0.00000000000E+00  0.00000000000E+00  0.88297407390E+03  0.88297407392E+03  0.50400001928E-02 0.  1.
       -1   -1    0    0    0  501  0.00000000000E+00  0.00000000000E+00 -0.70924309821E+02  0.70924310000E+02  0.50400001928E-02 0. -1.
    10030    2    1    2    0    0  0.00000000000E+00  0.00000000000E+00  0.81204976408E+03  0.95389838392E+03  0.50049706042E+03 0.  0.
        5    1    3    3  502    0 -0.84079110179E+02  0.53742946596E+02 -0.31273272636E+02  0.10467907459E+03  0.46999998093E+01 0. -1.
       -5    1    3    3    0  502  0.84079110179E+02 -0.53742946596E+02  0.84332303672E+03  0.84921930933E+03  0.46999998093E+01 0.  1.
</event>
<event>
 5   0  0.8012875E-03  0.4993418E+03  0.7818609E-02  0.1013951E+00
        3   -1    0    0  501    0  0.00000000000E+00  0.00000000000E+00  0.10409743644E+03  0.10409748544E+03  0.10100000352E+00 0. -1.
       -3   -1    0    0    0  501  0.00000000000E+00  0.00000000000E+00 -0.59881916503E+03  0.59881917354E+03  0.10100000352E+00 0.  1.
    10030    2    1    2    0    0  0.00000000000E+00  0.00000000000E+00 -0.49472172858E+03  0.70291665898E+03  0.49934180753E+03 0.  0.
        4    1    3    3  502    0 -0.18639090800E+02  0.21646957856E+03 -0.74224291989E+02  0.22960259704E+03  0.12699999809E+01 0. -1.
       -4    1    3    3    0  502  0.18639090800E+02 -0.21646957856E+03 -0.42049743659E+03  0.47331406194E+03  0.12699999809E+01 0.  1.
</event>
<event>
 5   0  0.1217270E-02  0.5000265E+03  0.7818609E-02  0.1013772E+00
        1   -1    0    0  501    0  0.00000000000E+00  0.00000000000E+00  0.43072672490E+03  0.43072672493E+03  0.50400001928E-02 0. -1.
       -1   -1    0    0    0  501  0.00000000000E+00  0.00000000000E+00 -0.14511899405E+03  0.14511899414E+03  0.50400001928E-02 0.  1.
    10030    2    1    2    0    0  0.00000000000E+00  0.00000000000E+00  0.28560773085E+03  0.57584571907E+03  0.50002651555E+03 0.  0.
        2    1    3    3  502    0 -0.17719794672E+03 -0.10002055796E+03  0.31010133481E+03  0.37089899190E+03  0.25500000920E-02 0.  1.
       -2    1    3    3    0  502  0.17719794672E+03  0.10002055796E+03 -0.24493603964E+02  0.20494672717E+03  0.25500000920E-02 0. -1.
</event>
<event>
 5   0  0.1855407E-02  0.4993630E+03  0.7818609E-02  0.1013945E+00
        2   -1    0    0  501    0  0.00000000000E+00  0.00000000000E+00  0.14382744650E+03  0.14382744652E+03  0.25500000920E-02 0.  1.
       -2   -1    0    0    0  501  0.00000000000E+00  0.00000000000E+00 -0.43344191845E+03  0.43344191846E+03  0.25500000920E-02 0. -1.
    10030    2    1    2    0    0  0.00000000000E+00  0.00000000000E+00 -0.28961447195E+03  0.57726936499E+03  0.49936297158E+03 0.  0.
        1    1    3    3  502    0  0.99715889540E+02  0.50783452310E+02  0.11321554429E+03  0.15918535469E+03  0.50400001928E-02 0.  1.
       -1    1    3    3    0  502 -0.99715889540E+02 -0.50783452310E+02 -0.40283001624E+03  0.41808401029E+03  0.50400001928E-02 0. -1.
</event>
<event>
 5   0  0.1217270E-02  0.4999435E+03  0.7818609E-02  0.1013794E+00
       -1   -1    0    0    0  501  0.00000000000E+00  0.00000000000E+00  0.16706742096E+03  0.16706742103E+03  0.50400001928E-02 0. -1.
        1   -1    0    0  501    0  0.00000000000E+00  0.00000000000E+00 -0.37401598135E+03  0.37401598139E+03  0.50400001928E-02 0.  1.
    10030    2    1    2    0    0  0.00000000000E+00  0.00000000000E+00 -0.20694856040E+03  0.54108340242E+03  0.49994353854E+03 0.  0.
        2    1    3    3  502    0  0.11547733258E+03  0.19390663545E+03 -0.21979436102E+03  0.31503072668E+03  0.25500000920E-02 0.  1.
       -2    1    3    3    0  502 -0.11547733258E+03 -0.19390663545E+03  0.12845800621E+02  0.22605267574E+03  0.25500000920E-02 0. -1.
</event>
<event>
 5   0  0.1855407E-02  0.5000465E+03  0.7818609E-02  0.1013767E+00
       -2   -1    0    0    0  501  0.00000000000E+00  0.00000000000E+00  0.41577644742E+02  0.41577644820E+02  0.25500000920E-02 0. -1.
        2   -1    0    0  501    0  0.00000000000E+00  0.00000000000E+00 -0.15034915073E+04  0.15034915073E+04  0.25500000920E-02 0.  1.
    10030    2    1    2    0    0  0.00000000000E+00  0.00000000000E+00 -0.14619138625E+04  0.15450691521E+04  0.50004654113E+03 0.  0.
        1    1    3    3  502    0 -0.20139835305E+03  0.65552694435E+02 -0.11414908183E+04  0.11609736176E+04  0.50400001928E-02 0.  1.
       -1    1    3    3    0  502  0.20139835305E+03 -0.65552694435E+02 -0.32042304422E+03  0.38409553454E+03  0.50400001928E-02 0. -1.
</event>
<event>
 5   0  0.1923706E-02  0.5005176E+03  0.7818609E-02  0.1013644E+00
        2   -1    0    0  501    0  0.00000000000E+00  0.00000000000E+00  0.34305292080E+03  0.34305292081E+03  0.25500000920E-02 0. -1.
       -2   -1    0    0    0  501  0.00000000000E+00  0.00000000000E+00 -0.18256504347E+03  0.18256504349E+03  0.25500000920E-02 0.  1.
    10030    2    1    2    0    0  0.00000000000E+00  0.00000000000E+00  0.16048787733E+03  0.52561796430E+03  0.50051761770E+03 0.  0.
        3    1    3    3  502    0  0.13736127070E+03 -0.18150406675E+03 -0.28979694096E+02  0.22945953413E+03  0.10100000352E+00 0.  1.
       -3    1    3    3    0  502 -0.13736127070E+03  0.18150406675E+03  0.18946757143E+03  0.29615843016E+03  0.10100000352E+00 0. -1.
</event>
<event>
 5   0  0.1923706E-02  0.4974725E+03  0.7818609E-02  0.1014441E+00
        2   -1    0    0  501    0  0.00000000000E+00  0.00000000000E+00  0.87487551799E+03  0.87487551799E+03  0.25500000920E-02 0.  1.
       -2   -1    0    0    0  501  0.00000000000E+00  0.00000000000E+00 -0.70718326749E+02  0.70718326795E+02  0.25500000920E-02 0. -1.
    10030    2    1    2    0    0  0.00000000000E+00  0.00000000000E+00  0.80415719124E+03  0.94559384478E+03  0.49747254304E+03 0.  0.
        3    1    3    3  502    0 -0.20458939582E+03 -0.82881249748E+02  0.18416080366E+03  0.28747405839E+03  0.10100000352E+00 0. -1.
       -3    1    3    3    0  502  0.20458939582E+03  0.82881249748E+02  0.61999638757E+03  0.65811978639E+03  0.10100000352E+00 0.  1.
</event>
<event>
 5   0  0.1209831E-02  0.5021486E+03  0.7818609E-02  0.1013220E+00
        1   -1    0    0  501    0  0.00000000000E+00  0.00000000000E+00  0.83375516638E+02  0.83375516791E+02  0.50400001928E-02 0. -1.
       -1   -1    0    0    0  501  0.00000000000E+00  0.00000000000E+00 -0.75607703764E+03  0.75607703765E+03  0.50400001928E-02 0.  1.
    10030    2    1    2    0    0  0.00000000000E+00  0.00000000000E+00 -0.67270152100E+03  0.83945255444E+03  0.50214863816E+03 0.  0.
        4    1    3    3  502    0  0.14378631604E+03 -0.94648740373E+02 -0.30815117220E+02  0.17488302686E+03  0.12699999809E+01 0. -1.
       -4    1    3    3    0  502 -0.14378631604E+03  0.94648740373E+02 -0.64188640378E+03  0.66456952758E+03  0.12699999809E+01 0.  1.
</event>
<event>
 5   0  0.1225989E-02  0.5009237E+03  0.7818609E-02  0.1013538E+00
       -1   -1    0    0    0  501  0.00000000000E+00  0.00000000000E+00  0.36907640352E+02  0.36907640696E+02  0.50400001928E-02 0. -1.
        1   -1    0    0  501    0  0.00000000000E+00  0.00000000000E+00 -0.16996786958E+04  0.16996786958E+04  0.50400001928E-02 0.  1.
    10030    2    1    2    0    0  0.00000000000E+00  0.00000000000E+00 -0.16627710555E+04  0.17365863365E+04  0.50092366813E+03 0.  0.
        3    1    3    3  502    0  0.45981082901E+02  0.22493664425E+03 -0.11784152114E+04  0.12005720198E+04  0.10100000352E+00 0.  1.
       -3    1    3    3    0  502 -0.45981082901E+02 -0.22493664425E+03 -0.48435584403E+03  0.53601431675E+03  0.10100000352E+00 0. -1.
</event>
<event>
 5   0  0.1923706E-02  0.5007464E+03  0.7818609E-02  0.1013584E+00
       -2   -1    0    0    0  501  0.00000000000E+00  0.00000000000E+00  0.72648341573E+02  0.72648341618E+02  0.25500000920E-02 0. -1.
        2   -1    0    0  501    0  0.00000000000E+00  0.00000000000E+00 -0.86287927862E+03  0.86287927862E+03  0.25500000920E-02 0.  1.
    10030    2    1    2    0    0  0.00000000000E+00  0.00000000000E+00 -0.79023093705E+03  0.93552762024E+03  0.50074643720E+03 0.  0.
        3    1    3    3  502    0  0.17814585147E+03  0.49686395926E+02 -0.71041579064E+03  0.73409487679E+03  0.10100000352E+00 0.  1.
       -3    1    3    3    0  502 -0.17814585147E+03 -0.49686395926E+02 -0.79815146406E+02  0.20143274345E+03  0.10100000352E+00 0. -1.
</event>
<event>
 5   0  0.8012875E-03  0.4996348E+03  0.7818609E-02  0.1013874E+00
        3   -1    0    0  501    0  0.00000000000E+00  0.00000000000E+00  0.71374128097E+03  0.71374128811E+03  0.10100000352E+00 0.  1.
       -3   -1    0    0    0  501  0.00000000000E+00  0.00000000000E+00 -0.87438821721E+02  0.87438880053E+02  0.10100000352E+00 0. -1.
    10030    2    1    2    0    0  0.00000000000E+00  0.00000000000E+00  0.62630245925E+03  0.80118016817E+03  0.49963475800E+03 0.  0.
        1    1    3    3  502    0  0.62185250878E+01  0.12707637663E+03 -0.31595580828E+02  0.13109293003E+03  0.50400001928E-02 0. -1.
       -1    1    3    3    0  502 -0.62185250878E+01 -0.12707637663E+03  0.65789804008E+03  0.67008723814E+03  0.50400001928E-02 0.  1.
</event>
<event>
 5   0  0.1225989E-02  0.5013458E+03  0.7818609E-02  0.1013428E+00
        1   -1    0    0  501    0  0.00000000000E+00  0.00000000000E+00  0.18105004229E+04  0.18105004229E+04  0.50400001928E-02 0. -1.
       -1   -1    0    0    0  501  0.00000000000E+00  0.00000000000E+00 -0.34706929810E+02  0.34706930175E+02  0.50400001928E-02 0.  1.
    10030    2    1    2    0    0  0.00000000000E+00  0.00000000000E+00  0.17757934931E+04  0.18452073531E+04  0.50134583450E+03 0.  0.
        3    1    3    3  502    0  0.13384855178E+03 -0.10003456094E+02  0.16670994693E+04  0.16724939924E+04  0.10100000352E+00 0. -1.
       -3    1    3    3    0  502 -0.13384855178E+03  0.10003456094E+02  0.10869402383E+03  0.17271336070E+03  0.10100000352E+00 0.  1.
</event>
<event>
 5   0  0.1982847E-02  0.5004405E+03  0.7818609E-02  0.1013664E+00
        2   -1    0    0  501    0  0.00000000000E+00  0.00000000000E+00  0.11303676128E+04  0.11303676128E+04  0.25500000920E-02 0.  1.
       -2   -1    0    0    0  501  0.00000000000E+00  0.00000000000E+00 -0.55389219174E+02  0.55389219233E+02  0.25500000920E-02 0. -1.
    10030    2    1    2    0    0  0.00000000000E+00  0.00000000000E+00  0.10749783936E+04  0.11857568321E+04  0.50044052390E+03 0.  0.
        2    1    3    3  502    0 -0.70432713569E+02 -0.19226856236E+02  0.11045683548E+04  0.11069786311E+04  0.25500000920E-02 0.  1.
       -2    1    3    3    0  502  0.70432713569E+02  0.19226856236E+02 -0.29589961185E+02  0.78778200988E+02  0.25500000920E-02 0. -1.
</event>
<event>
 5   0  0.1180937E-02  0.5027028E+03  0.7818609E-02  0.1013076E+00
       -1   -1    0    0    0  501  0.00000000000E+00  0.00000000000E+00  0.59042324603E+02  0.59042324818E+02  0.50400001928E-02 0.  1.
        1   -1    0    0  501    0  0.00000000000E+00  0.00000000000E+00 -0.10700379022E+04  0.10700379022E+04  0.50400001928E-02 0. -1.
    10030    2    1    2    0    0  0.00000000000E+00  0.00000000000E+00 -0.10109955776E+04  0.11290802270E+04  0.50270279603E+03 0.  0.
        1    1    3    3  502    0 -0.59834699377E+02  0.21554795777E+03 -0.76292347558E+03  0.79504298184E+03  0.50400001928E-02 0. -1.
       -1    1    3    3    0  502  0.59834699377E+02 -0.21554795777E+03 -0.24807210197E+03  0.33403724515E+03  0.50400001928E-02 0.  1.
</event>
<event>
 5   0  0.1180937E-02  0.5021376E+03  0.7818609E-02  0.1013222E+00
        1   -1    0    0  501    0  0.00000000000E+00  0.00000000000E+00  0.25381544637E+03  0.25381544642E+03  0.50400001928E-02 0. -1.
       -1   -1    0    0    0  501  0.00000000000E+00  0.00000000000E+00 -0.24835185924E+03  0.24835185929E+03  0.50400001928E-02 0.  1.
    10030    2    1    2    0    0  0.00000000000E+00  0.00000000000E+00  0.54635871245E+01  0.50216730571E+03  0.50213758288E+03 0.  0.
        1    1    3    3  502    0 -0.15764955628E+03 -0.16794267710E+03 -0.97161118282E+02  0.24999681661E+03  0.50400001928E-02 0.  1.
       -1    1    3    3    0  502  0.15764955628E+03  0.16794267710E+03  0.10262470541E+03  0.25217048910E+03  0.50400001928E-02 0. -1.
</event>
<event>
 5   0  0.1217270E-02  0.4998966E+03  0.7818609E-02  0.1013806E+00
       -1   -1    0    0    0  501  0.00000000000E+00  0.00000000000E+00  0.21174425010E+03  0.21174425016E+03  0.50400001928E-02 0.  1.
        1   -1    0    0  501    0  0.00000000000E+00  0.00000000000E+00 -0.29504530072E+03  0.29504530076E+03  0.50400001928E-02 0. -1.
    10030    2    1    2    0    0  0.00000000000E+00  0.00000000000E+00 -0.83301050624E+02  0.50678955092E+03  0.49989657319E+03 0.  0.
        2    1    3    3  502    0  0.91051950000E+02  0.15448429608E+03 -0.21817293535E+03  0.28240978216E+03  0.25500000920E-02 0. -1.
       -2    1    3    3    0  502 -0.91051950000E+02 -0.15448429608E+03  0.13487188472E+03  0.22437976876E+03  0.25500000920E-02 0.  1.
</event>
<event>
 5   0  0.1941387E-02  0.4998754E+03  0.7818609E-02  0.1013811E+00
        2   -1    0    0  501    0  0.00000000000E+00  0.00000000000E+00  0.62586077270E+03  0.62586077270E+03  0.25500000920E-02 0.  1.
       -2   -1    0    0    0  501  0.00000000000E+00  0.00000000000E+00 -0.99812689463E+02  0.99812689496E+02  0.25500000920E-02 0. -1.
    10030    2    1    2    0    0  0.00000000000E+00  0.00000000000E+00  0.52604808323E+03  0.72567346220E+03  0.49987537233E+03 0.  0.
        4    1    3    3  502    0 -0.22961588653E+03  0.46066930337E+02  0.38976093317E+03  0.45470959451E+03  0.12699999809E+01 0. -1.
       -4    1    3    3    0  502  0.22961588653E+03 -0.46066930337E+02  0.13628715006E+03  0.27096386768E+03  0.12699999809E+01 0.  1.
</event>
<event>
 5   0  0.1225989E-02  0.5002999E+03  0.7818609E-02  0.1013701E+00
       -1   -1    0    0    0  501  0.00000000000E+00  0.00000000000E+00  0.26874011033E+03  0.26874011038E+03  0.50400001928E-02 0. -1.
        1   -1    0    0  501    0  0.00000000000E+00  0.00000000000E+00 -0.23284579209E+03  0.23284579215E+03  0.50400001928E-02 0.  1.
    10030    2    1    2    0    0  0.00000000000E+00  0.00000000000E+00  0.35894318236E+02  0.50158590252E+03  0.50029992557E+03 0.  0.
        3    1    3    3  502    0 -0.11969959636E+03  0.21917570720E+03  0.34528310176E+01  0.24975571313E+03  0.10100000352E+00 0.  1.
       -3    1    3    3    0  502  0.11969959636E+03 -0.21917570720E+03  0.32441487219E+02  0.25183018939E+03  0.10100000352E+00 0. -1.
</event>
<event>
 5   0  0.1227864E-02  0.4986731E+03  0.7818609E-02  0.1014126E+00
       -1   -1    0    0    0  501  0.00000000000E+00  0.00000000000E+00  0.65722710441E+03  0.65722710443E+03  0.50400001928E-02 0.  1.
        1   -1    0    0  501    0  0.00000000000E+00  0.00000000000E+00 -0.94592427750E+02  0.94592427885E+02  0.50400001928E-02 0. -1.
    10030    2    1    2    0    0  0.00000000000E+00  0.00000000000E+00  0.56263467666E+03  0.75181953232E+03  0.49867306904E+03 0.  0.
        5    1    3    3  502    0  0.11513529246E+03  0.11359335266E+03  0.56732041532E+03  0.58994417445E+03  0.46999998093E+01 0.  1.
       -5    1    3    3    0  502 -0.11513529246E+03 -0.11359335266E+03 -0.46857386534E+01  0.16187535786E+03  0.46999998093E+01 0. -1.
</event>
<event>
 5   0  0.1217270E-02  0.4998543E+03  0.7818609E-02  0.1013817E+00
       -1   -1    0    0    0  501  0.00000000000E+00  0.00000000000E+00  0.37303612002E+02  0.37303612342E+02  0.50400001928E-02 0. -1.
        1   -1    0    0  501    0  0.00000000000E+00  0.00000000000E+00 -0.16744644339E+04  0.16744644340E+04  0.50400001928E-02 0.  1.
    10030    2    1    2    0    0  0.00000000000E+00  0.00000000000E+00 -0.16371608219E+04  0.17117680463E+04  0.49985426617E+03 0.  0.
        2    1    3    3  502    0 -0.54039184713E+02 -0.83477771329E+01  0.16568307926E+02  0.57135170443E+02  0.25500000920E-02 0. -1.
       -2    1    3    3    0  502  0.54039184713E+02  0.83477771329E+01 -0.16537291299E+04  0.16546328759E+04  0.25500000920E-02 0.  1.
</event>
<event>
 5   0  0.1982847E-02  0.4996630E+03  0.7818609E-02  0.1013867E+00
        2   -1    0    0  501    0  0.00000000000E+00  0.00000000000E+00  0.63353569178E+03  0.63353569178E+03  0.25500000920E-02 0.  1.
       -2   -1    0    0    0  501  0.00000000000E+00  0.00000000000E+00 -0.98519765253E+02  0.98519765286E+02  0.25500000920E-02 0. -1.
    10030    2    1    2    0    0  0.00000000000E+00  0.00000000000E+00  0.53501592652E+03  0.73205545707E+03  0.49966303704E+03 0.  0.
        2    1    3    3  502    0 -0.16507130690E+03  0.36130461193E+02  0.53710930077E+03  0.56306336018E+03  0.25500000920E-02 0.  1.
       -2    1    3    3    0  502  0.16507130690E+03 -0.36130461193E+02 -0.20933742506E+01  0.16899209689E+03  0.25500000920E-02 0. -1.
</event>
<event>
 5   0  0.1227864E-02  0.4998398E+03  0.7818609E-02  0.1013821E+00
       -1   -1    0    0    0  501  0.00000000000E+00  0.00000000000E+00  0.26373173348E+03  0.26373173353E+03  0.50400001928E-02 0.  1.
        1   -1    0    0  501    0  0.00000000000E+00  0.00000000000E+00 -0.23683137381E+03  0.23683137387E+03  0.50400001928E-02 0. -1.
    10030    2    1    2    0    0  0.00000000000E+00  0.00000000000E+00  0.26900359671E+02  0.50056310740E+03  0.49983976946E+03 0.  0.
        5    1    3    3  502    0  0.16505103916E+03 -0.93962721870E+02 -0.14916405353E+03  0.24154263287E+03  0.46999998093E+01 0. -1.
       -5    1    3    3    0  502 -0.16505103916E+03  0.93962721870E+02  0.17606441320E+03  0.25902047453E+03  0.46999998093E+01 0.  1.
</event>
<event>
 5   0  0.1941387E-02  0.5020209E+03  0.7818609E-02  0.1013253E+00
       -2   -1    0    0    0  501  0.00000000000E+00  0.00000000000E+00  0.44824143916E+02  0.44824143988E+02  0.25500000920E-02 0.  1.
        2   -1    0    0  501    0  0.00000000000E+00  0.00000000000E+00 -0.14056317465E+04  0.14056317465E+04  0.25500000920E-02 0. -1.
    10030    2    1    2    0    0  0.00000000000E+00  0.00000000000E+00 -0.13608076026E+04  0.14504558905E+04  0.50202087508E+03 0.  0.
        4    1    3    3  502    0 -0.69000722775E+02 -0.81343477549E+02 -0.23925751941E+02  0.10932481690E+03  0.12699999809E+01 0.  1.
       -4    1    3    3    0  502  0.69000722775E+02  0.81343477549E+02 -0.13368818507E+04  0.13411310736E+04  0.12699999809E+01 0. -1.
</event>
<event>
 5   0  0.1941387E-02  0.4999527E+03  0.7818609E-02  0.1013791E+00
        2   -1    0    0  501    0  0.00000000000E+00  0.00000000000E+00  0.62495024515E+03  0.62495024516E+03  0.25500000920E-02 0. -1.
       -2   -1    0    0    0  501  0.00000000000E+00  0.00000000000E+00 -0.99989028925E+02  0.99989028957E+02  0.25500000920E-02 0.  1.
    10030    2    1    2    0    0  0.00000000000E+00  0.00000000000E+00  0.52496121623E+03  0.72493927411E+03  0.49995267037E+03 0.  0.
        4    1    3    3  502    0  0.20840457188E+03  0.13795178221E+03  0.26949416779E+03  0.36754847186E+03  0.12699999809E+01 0.  1.
       -4    1    3    3    0  502 -0.20840457188E+03 -0.13795178221E+03  0.25546704844E+03  0.35739080225E+03  0.12699999809E+01 0. -1.
</event>
<event>
 5   0  0.1209831E-02  0.4997453E+03  0.7818609E-02  0.1013845E+00
       -1   -1    0    0    0  501  0.00000000000E+00  0.00000000000E+00  0.11581465660E+03  0.11581465670E+03  0.50400001928E-02 0. -1.
        1   -1    0    0  501    0  0.00000000000E+00  0.00000000000E+00 -0.53910569970E+03  0.53910569973E+03  0.50400001928E-02 0.  1.
    10030    2    1    2    0    0  0.00000000000E+00  0.00000000000E+00 -0.42329104311E+03  0.65492035643E+03  0.49974530122E+03 0.  0.
        4    1    3    3  502    0  0.13424507306E+02  0.44816069812E+02  0.11001961367E+03  0.11956013467E+03  0.12699999809E+01 0. -1.
       -4    1    3    3    0  502 -0.13424507306E+02 -0.44816069812E+02 -0.53331065678E+03  0.53536022176E+03  0.12699999809E+01 0.  1.
</event>
<event>
 5   0  0.1982847E-02  0.5004860E+03  0.7818609E-02  0.1013652E+00
       -2   -1    0    0    0  501  0.00000000000E+00  0.00000000000E+00  0.33582200743E+02  0.33582200840E+02  0.25500000920E-02 0. -1.
        2   -1    0    0  501    0  0.00000000000E+00  0.00000000000E+00 -0.18647247692E+04  0.18647247692E+04  0.25500000920E-02 0.  1.
    10030    2    1    2    0    0  0.00000000000E+00  0.00000000000E+00 -0.18311425684E+04  0.18983069700E+04  0.50048601028E+03 0.  0.
        2    1    3    3  502    0  0.11460202543E+03  0.92019548188E+02 -0.16837709758E+04  0.16901733403E+04  0.25500000920E-02 0.  1.
       -2    1    3    3    0  502 -0.11460202543E+03 -0.92019548188E+02 -0.14737159267E+03  0.20813362971E+03  0.25500000920E-02 0. -1.
</event>
<event>
 5   0  0.8012875E-03  0.4998670E+03  0.7818609E-02  0.1013814E+00
        3   -1    0    0  501    0  0.00000000000E+00  0.00000000000E+00  0.30907024345E+02  0.30907189372E+02  0.10100000352E+00 0.  1.
       -3   -1    0    0    0  501  0.00000000000E+00  0.00000000000E+00 -0.20211125324E+04  0.20211125349E+04  0.10100000352E+00 0. -1.
    10030    2    1    2    0    0  0.00000000000E+00  0.00000000000E+00 -0.19902055081E+04  0.20520197243E+04  0.49986696691E+03 0.  0.
        2    1    3    3  502    0  0.12856008694E+03 -0.14957544334E+03 -0.36491173014E+03  0.41480245901E+03  0.25500000920E-02 0.  1.
       -2    1    3    3    0  502 -0.12856008694E+03  0.14957544334E+03 -0.16252937779E+04  0.16372172653E+04  0.25500000920E-02 0. -1.
</event>
<event>
 5   0  0.1941387E-02  0.5018194E+03  0.7818609E-02  0.1013305E+00
       -2   -1    0    0    0  501  0.00000000000E+00  0.00000000000E+00  0.91149663992E+02  0.91149664027E+02  0.25500000920E-02 0. -1.
        2   -1    0    0  501    0  0.00000000000E+00  0.00000000000E+00 -0.69068472261E+03  0.69068472261E+03  0.25500000920E-02 0.  1.
    10030    2    1    2    0    0  0.00000000000E+00  0.00000000000E+00 -0.59953505861E+03  0.78183438664E+03  0.50181941136E+03 0.  0.
        4    1    3    3  502    0 -0.17531140942E+03  0.42797876441E+02 -0.28173230364E+02  0.18265019110E+03  0.12699999809E+01 0. -1.
       -4    1    3    3    0  502  0.17531140942E+03 -0.42797876441E+02 -0.57136182825E+03  0.59918419554E+03  0.12699999809E+01 0.  1.
</event>
<event>
 5   0  0.1967813E-02  0.5009102E+03  0.7818609E-02  0.1013542E+00
        2   -1    0    0  501    0  0.00000000000E+00  0.00000000000E+00  0.10206485164E+04  0.10206485164E+04  0.25500000920E-02 0. -1.
       -2   -1    0    0    0  501  0.00000000000E+00  0.00000000000E+00 -0.61458736999E+02  0.61458737051E+02  0.25500000920E-02 0.  1.
    10030    2    1    2    0    0  0.00000000000E+00  0.00000000000E+00  0.95918977945E+03  0.10821072535E+04  0.50091024653E+03 0.  0.
        5    1    3    3  502    0 -0.90660559910E+01  0.11009094400E+03  0.96507450548E+03  0.97138720418E+03  0.46999998093E+01 0. -1.
       -5    1    3    3    0  502  0.90660559910E+01 -0.11009094400E+03 -0.58847260344E+01  0.11072004932E+03  0.46999998093E+01 0.  1.
</event>
<event>
 5   0  0.1967813E-02  0.5096922E+03  0.7818609E-02  0.1011280E+00
        2   -1    0    0  501    0  0.00000000000E+00  0.00000000000E+00  0.55843422028E+03  0.55843422029E+03  0.25500000920E-02 0. -1.
       -2   -1    0    0    0  501  0.00000000000E+00  0.00000000000E+00 -0.11630111824E+03  0.11630111827E+03  0.25500000920E-02 0.  1.
    10030    2    1    2    0    0  0.00000000000E+00  0.00000000000E+00  0.44213310204E+03  0.67473533856E+03  0.50969215923E+03 0.  0.
        5    1    3    3  502    0  0.22132318305E+03 -0.38719779230E+02  0.61981976070E+02  0.23312449038E+03  0.46999998093E+01 0.  1.
       -5    1    3    3    0  502 -0.22132318305E+03  0.38719779230E+02  0.38015112597E+03  0.44161084818E+03  0.46999998093E+01 0. -1.
</event>
<event>
 5   0  0.1923706E-02  0.5011906E+03  0.7818609E-02  0.1013469E+00
       -2   -1    0    0    0  501  0.00000000000E+00  0.00000000000E+00  0.36903112938E+03  0.36903112939E+03  0.25500000920E-02 0.  1.
        2   -1    0    0  501    0  0.00000000000E+00  0.00000000000E+00 -0.17016992206E+03  0.17016992208E+03  0.25500000920E-02 0. -1.
    10030    2    1    2    0    0  0.00000000000E+00  0.00000000000E+00  0.19886120732E+03  0.53920105146E+03  0.50119057665E+03 0.  0.
        3    1    3    3  502    0 -0.22578832724E+02 -0.24896235130E+03  0.11824804120E+03  0.27654053139E+03  0.10100000352E+00 0. -1.
       -3    1    3    3    0  502  0.22578832724E+02  0.24896235130E+03  0.80613166117E+02  0.26266052007E+03  0.10100000352E+00 0.  1.
</event>
<event>
 5   0  0.1227864E-02  0.4997826E+03  0.7818609E-02  0.1013836E+00
        1   -1    0    0  501    0  0.00000000000E+00  0.00000000000E+00  0.12093197845E+04  0.12093197845E+04  0.50400001928E-02 0. -1.
       -1   -1    0    0    0  501  0.00000000000E+00  0.00000000000E+00 -0.51637008657E+02  0.51637008903E+02  0.50400001928E-02 0.  1.
    10030    2    1    2    0    0  0.00000000000E+00  0.00000000000E+00  0.11576827759E+04  0.12609567934E+04  0.49978257811E+03 0.  0.
        5    1    3    3  502    0 -0.51860494055E+02  0.75580677679E+02 -0.75706556937E+01  0.92094269680E+02  0.46999998093E+01 0.  1.
       -5    1    3    3    0  502  0.51860494055E+02 -0.75580677679E+02  0.11652534316E+04  0.11688625238E+04  0.46999998093E+01 0. -1.
</event>
<event>
 5   0  0.8012875E-03  0.4986611E+03  0.7818609E-02  0.1014129E+00
        4   -1    0    0  501    0  0.00000000000E+00  0.00000000000E+00  0.83555941794E+03  0.83556038310E+03  0.12699999809E+01 0. -1.
       -4   -1    0    0    0  501  0.00000000000E+00  0.00000000000E+00 -0.74393705697E+02  0.74404545206E+02  0.12699999809E+01 0.  1.
    10030    2    1    2    0    0  0.00000000000E+00  0.00000000000E+00  0.76116571224E+03  0.90996492831E+03  0.49866113670E+03 0.  0.
        3    1    3    3  502    0  0.15851267212E+02  0.17314134001E+02  0.83354429421E+03  0.83387477628E+03  0.10100000352E+00 0. -1.
       -3    1    3    3    0  502 -0.15851267212E+02 -0.17314134001E+02 -0.72378581961E+02  0.76090152031E+02  0.10100000352E+00 0.  1.
</event>
<event>
 5   0  0.1855407E-02  0.5008386E+03  0.7818609E-02  0.1013560E+00
        2   -1    0    0  501    0  0.00000000000E+00  0.00000000000E+00  0.73566133925E+02  0.73566133969E+02  0.25500000920E-02 0. -1.
       -2   -1    0    0    0  501  0.00000000000E+00  0.00000000000E+00 -0.85242799903E+03  0.85242799904E+03  0.25500000920E-02 0.  1.
    10030    2    1    2    0    0  0.00000000000E+00  0.00000000000E+00 -0.77886186511E+03  0.92599413301E+03  0.50083862615E+03 0.  0.
        1    1    3    3  502    0  0.22972308823E+03  0.80331681844E+02 -0.49856158404E+03  0.55478782384E+03  0.50400001928E-02 0.  1.
       -1    1    3    3    0  502 -0.22972308823E+03 -0.80331681844E+02 -0.28030028107E+03  0.37120630917E+03  0.50400001928E-02 0. -1.
</event>
<event>
 5   0  0.1209831E-02  0.4959464E+03  0.7818609E-02  0.1014842E+00
        1   -1    0    0  501    0  0.00000000000E+00  0.00000000000E+00  0.10611196928E+04  0.10611196928E+04  0.50400001928E-02 0. -1.
       -1   -1    0    0    0  501  0.00000000000E+00  0.00000000000E+00 -0.57948894049E+02  0.57948894269E+02  0.50400001928E-02 0.  1.
    10030    2    1    2    0    0  0.00000000000E+00  0.00000000000E+00  0.10031707987E+04  0.11190685870E+04  0.49594641960E+03 0.  0.
        4    1    3    3  502    0  0.74439065006E+02 -0.11708167602E+03  0.96533431414E+03  0.97525445101E+03  0.12699999809E+01 0. -1.
       -4    1    3    3    0  502 -0.74439065006E+02  0.11708167602E+03  0.37836484573E+02  0.14381413603E+03  0.12699999809E+01 0.  1.
</event>
<event>
 5   0  0.1923706E-02  0.4999661E+03  0.7818609E-02  0.1013788E+00
        2   -1    0    0  501    0  0.00000000000E+00  0.00000000000E+00  0.49420750774E+03  0.49420750775E+03  0.25500000920E-02 0. -1.
       -2   -1    0    0    0  501  0.00000000000E+00  0.00000000000E+00 -0.12644795991E+03  0.12644795993E+03  0.25500000920E-02 0.  1.
    10030    2    1    2    0    0  0.00000000000E+00  0.00000000000E+00  0.36775954784E+03  0.62065546768E+03  0.49996612339E+03 0.  0.
        3    1    3    3  502    0  0.16933988005E+03 -0.48869619884E+02  0.40395109349E+03  0.44072750181E+03  0.10100000352E+00 0. -1.
       -3    1    3    3    0  502 -0.16933988005E+03  0.48869619884E+02 -0.36191545650E+02  0.17992796587E+03  0.10100000352E+00 0.  1.
</event>
<event>
 5   0  0.1225989E-02  0.4999236E+03  0.7818609E-02  0.1013799E+00
        1   -1    0    0  501    0  0.00000000000E+00  0.00000000000E+00  0.24349021777E+03  0.24349021782E+03  0.50400001928E-02 0.  1.
       -1   -1    0    0    0  501  0.00000000000E+00  0.00000000000E+00 -0.25660541316E+03  0.25660541321E+03  0.50400001928E-02 0. -1.
    10030    2    1    2    0    0  0.00000000000E+00  0.00000000000E+00 -0.13115195390E+02  0.50009563104E+03  0.49992362600E+03 0.  0.
        3    1    3    3  502    0 -0.12903307337E+03  0.15000565522E+02  0.20707230434E+03  0.24444529126E+03  0.10100000352E+00 0.  1.
       -3    1    3    3    0  502  0.12903307337E+03 -0.15000565522E+02 -0.22018749973E+03  0.25565033978E+03  0.10100000352E+00 0. -1.
</event>
<event>
 5   0  0.1225989E-02  0.5003188E+03  0.7818609E-02  0.1013696E+00
       -1   -1    0    0    0  501  0.00000000000E+00  0.00000000000E+00  0.95011835001E+02  0.95011835134E+02  0.50400001928E-02 0. -1.
        1   -1    0    0  501    0  0.00000000000E+00  0.00000000000E+00 -0.65865193259E+03  0.65865193261E+03  0.50400001928E-02 0.  1.
    10030    2    1    2    0    0  0.00000000000E+00  0.00000000000E+00 -0.56364009759E+03  0.75366376774E+03  0.50031881356E+03 0.  0.
        3    1    3    3  502    0 -0.74159726249E+02 -0.23510300485E+03 -0.34584739438E+03  0.42471580885E+03  0.10100000352E+00 0. -1.
       -3    1    3    3    0  502  0.74159726249E+02  0.23510300485E+03 -0.21779270320E+03  0.32894795889E+03  0.10100000352E+00 0.  1.
</event>
<event>
 5   0  0.8012875E-03  0.5021678E+03  0.7818609E-02  0.1013215E+00
       -3   -1    0    0    0  501  0.00000000000E+00  0.00000000000E+00  0.69743050612E+02  0.69743123745E+02  0.10100000352E+00 0. -1.
        3   -1    0    0  501    0  0.00000000000E+00  0.00000000000E+00 -0.90393364482E+03  0.90393365046E+03  0.10100000352E+00 0.  1.
    10030    2    1    2    0    0  0.00000000000E+00  0.00000000000E+00 -0.83419059421E+03  0.97367677421E+03  0.50216781375E+03 0.  0.
        5    1    3    3  502    0 -0.20529214049E+03 -0.13828751109E+03 -0.33591985931E+03  0.41729191287E+03  0.46999998093E+01 0.  1.
       -5    1    3    3    0  502  0.20529214049E+03  0.13828751109E+03 -0.49827073490E+03  0.55638486134E+03  0.46999998093E+01 0. -1.
</event>
<event>
 5   0  0.1227864E-02  0.5000555E+03  0.7818609E-02  0.1013764E+00
       -1   -1    0    0    0  501  0.00000000000E+00  0.00000000000E+00  0.64072966614E+02  0.64072966812E+02  0.50400001928E-02 0.  1.
        1   -1    0    0  501    0  0.00000000000E+00  0.00000000000E+00 -0.97566713570E+03  0.97566713571E+03  0.50400001928E-02 0. -1.
    10030    2    1    2    0    0  0.00000000000E+00  0.00000000000E+00 -0.91159416908E+03  0.10397401025E+04  0.50005554860E+03 0.  0.
        5    1    3    3  502    0 -0.87788148805E+02  0.63256908465E+02 -0.92436041373E+03  0.93068386685E+03  0.46999998093E+01 0. -1.
       -5    1    3    3    0  502  0.87788148805E+02 -0.63256908465E+02  0.12766244647E+02  0.10905623568E+03  0.46999998093E+01 0.  1.
</event>
<event>
 5   0  0.1982847E-02  0.4982354E+03  0.7818609E-02  0.1014241E+00
        2   -1    0    0  501    0  0.00000000000E+00  0.00000000000E+00  0.10783744634E+04  0.10783744634E+04  0.25500000920E-02 0.  1.
       -2   -1    0    0    0  501  0.00000000000E+00  0.00000000000E+00 -0.57549230093E+02  0.57549230149E+02  0.25500000920E-02 0. -1.
    10030    2    1    2    0    0  0.00000000000E+00  0.00000000000E+00  0.10208252333E+04  0.11359236935E+04  0.49823536668E+03 0.  0.
        2    1    3    3  502    0 -0.22966479660E+03 -0.58698762860E+02  0.68506135520E+03  0.72491414937E+03  0.25500000920E-02 0.  1.
       -2    1    3    3    0  502  0.22966479660E+03  0.58698762860E+02  0.33576387809E+03  0.41100954417E+03  0.25500000920E-02 0. -1.
</event>
<event>
 5   0  0.1967813E-02  0.4998681E+03  0.7818609E-02  0.1013813E+00
       -2   -1    0    0    0  501  0.00000000000E+00  0.00000000000E+00  0.15293082942E+03  0.15293082945E+03  0.25500000920E-02 0.  1.
        2   -1    0    0  501    0  0.00000000000E+00  0.00000000000E+00 -0.40846591951E+03  0.40846591952E+03  0.25500000920E-02 0. -1.
    10030    2    1    2    0    0  0.00000000000E+00  0.00000000000E+00 -0.25553509009E+03  0.56139674896E+03  0.49986811009E+03 0.  0.
        5    1    3    3  502    0  0.15118191697E+03  0.93142937203E+02 -0.32523139025E+03  0.37057944623E+03  0.46999998093E+01 0. -1.
       -5    1    3    3    0  502 -0.15118191697E+03 -0.93142937203E+02  0.69696300160E+02  0.19081730273E+03  0.46999998093E+01 0.  1.
</event>
<event>
 5   0  0.1209831E-02  0.4996202E+03  0.7818609E-02  0.1013878E+00
       -1   -1    0    0    0  501  0.00000000000E+00  0.00000000000E+00  0.18199517095E+03  0.18199517102E+03  0.50400001928E-02 0.  1.
        1   -1    0    0  501    0  0.00000000000E+00  0.00000000000E+00 -0.34289412574E+03  0.34289412577E+03  0.50400001928E-02 0. -1.
    10030    2    1    2    0    0  0.00000000000E+00  0.00000000000E+00 -0.16089895479E+03  0.52488929679E+03  0.49962015595E+03 0.  0.
        4    1    3    3  502    0  0.24415388893E+03 -0.52828868854E+02 -0.81715102674E+02  0.26283261170E+03  0.12699999809E+01 0. -1.
       -4    1    3    3    0  502 -0.24415388893E+03  0.52828868854E+02 -0.79183852116E+02  0.26205668509E+03  0.12699999809E+01 0.  1.
</event>
<event>
 5   0  0.1941387E-02  0.4996999E+03  0.7818609E-02  0.1013857E+00
       -2   -1    0    0    0  501  0.00000000000E+00  0.00000000000E+00  0.32997352561E+03  0.32997352562E+03  0.25500000920E-02 0. -1.
        2   -1    0    0  501    0  0.00000000000E+00  0.00000000000E+00 -0.18918180212E+03  0.18918180213E+03  0.25500000920E-02 0.  1.
    10030    2    1    2    0    0  0.00000000000E+00  0.00000000000E+00  0.14079172349E+03  0.51915532776E+03  0.49969985485E+03 0.  0.
        4    1    3    3  502    0  0.62519464221E+02 -0.12433081547E+03  0.28597545429E+03  0.31804152000E+03  0.12699999809E+01 0. -1.
       -4    1    3    3    0  502 -0.62519464221E+02  0.12433081547E+03 -0.14518373080E+03  0.20111380776E+03  0.12699999809E+01 0.  1.
</event>
<event>
 5   0  0.1227864E-02  0.4996686E+03  0.7818609E-02  0.1013865E+00
        1   -1    0    0  501    0  0.00000000000E+00  0.00000000000E+00  0.68779623530E+03  0.68779623532E+03  0.50400001928E-02 0.  1.
       -1   -1    0    0    0  501  0.00000000000E+00  0.00000000000E+00 -0.90749503155E+02  0.90749503295E+02  0.50400001928E-02 0. -1.
    10030    2    1    2    0    0  0.00000000000E+00  0.00000000000E+00  0.59704673215E+03  0.77854573861E+03  0.49966855689E+03 0.  0.
        5    1    3    3  502    0 -0.96243690837E+01 -0.17316314609E+03  0.57862616522E+03  0.60407651230E+03  0.46999998093E+01 0.  1.
       -5    1    3    3    0  502  0.96243690837E+01  0.17316314609E+03  0.18420566930E+02  0.17446922631E+03  0.46999998093E+01 0. -1.
</event>
<event>
 5   0  0.1982847E-02  0.5004855E+03  0.7818609E-02  0.1013652E+00
       -2   -1    0    0    0  501  0.00000000000E+00  0.00000000000E+00  0.14971876772E+03  0.14971876774E+03  0.25500000920E-02 0. -1.
        2   -1    0    0  501    0  0.00000000000E+00  0.00000000000E+00 -0.41826042740E+03  0.41826042741E+03  0.25500000920E-02 0.  1.
    10030    2    1    2    0    0  0.00000000000E+00  0.00000000000E+00 -0.26854165968E+03  0.56797919515E+03  0.50048550742E+03 0.  0.
        2    1    3    3  502    0  0.15797938493E+03 -0.12291140000E+03  0.36172128790E+02  0.20340383777E+03  0.25500000920E-02 0. -1.
       -2    1    3    3    0  502 -0.15797938493E+03  0.12291140000E+03 -0.30471378847E+03  0.36457535737E+03  0.25500000920E-02 0.  1.
</event>
<event>
 5   0  0.1923706E-02  0.5000032E+03  0.7818609E-02  0.1013778E+00
       -2   -1    0    0    0  501  0.00000000000E+00  0.00000000000E+00  0.14901341889E+03  0.14901341891E+03  0.25500000920E-02 0.  1.
        2   -1    0    0  501    0  0.00000000000E+00  0.00000000000E+00 -0.41943063381E+03  0.41943063382E+03  0.25500000920E-02 0. -1.
    10030    2    1    2    0    0  0.00000000000E+00  0.00000000000E+00 -0.27041721492E+03  0.56844405273E+03  0.50000317095E+03 0.  0.
        3    1    3    3  502    0 -0.21704279410E+03  0.80356621404E+02 -0.24267856322E+03  0.33534706846E+03  0.10100000352E+00 0.  1.
       -3    1    3    3    0  502  0.21704279410E+03 -0.80356621404E+02 -0.27738651698E+02  0.23309698427E+03  0.10100000352E+00 0. -1.
</event>
<event>
 5   0  0.1217270E-02  0.5026968E+03  0.7818609E-02  0.1013077E+00
       -1   -1    0    0    0  501  0.00000000000E+00  0.00000000000E+00  0.41253688442E+02  0.41253688750E+02  0.50400001928E-02 0. -1.
        1   -1    0    0  501    0  0.00000000000E+00  0.00000000000E+00 -0.15314031349E+04  0.15314031349E+04  0.50400001928E-02 0.  1.
    10030    2    1    2    0    0  0.00000000000E+00  0.00000000000E+00 -0.14901494464E+04  0.15726568236E+04  0.50269683927E+03 0.  0.
        2    1    3    3  502    0 -0.71447097120E+02 -0.15652233394E+03 -0.17186036702E+03  0.24318699486E+03  0.25500000920E-02 0. -1.
       -2    1    3    3    0  502  0.71447097120E+02  0.15652233394E+03 -0.13182890794E+04  0.13294698288E+04  0.25500000920E-02 0.  1.
</event>
<event>
 5   0  0.1227864E-02  0.5017669E+03  0.7818609E-02  0.1013319E+00
       -1   -1    0    0    0  501  0.00000000000E+00  0.00000000000E+00  0.35032532405E+03  0.35032532409E+03  0.50400001928E-02 0. -1.
        1   -1    0    0  501    0  0.00000000000E+00  0.00000000000E+00 -0.17966869248E+03  0.17966869255E+03  0.50400001928E-02 0.  1.
    10030    2    1    2    0    0  0.00000000000E+00  0.00000000000E+00  0.17065663157E+03  0.52999401664E+03  0.50176685002E+03 0.  0.
        5    1    3    3  502    0  0.17837387912E+03 -0.12317166245E+03  0.21865062836E+03  0.30792643028E+03  0.46999998093E+01 0. -1.
       -5    1    3    3    0  502 -0.17837387912E+03  0.12317166245E+03 -0.47993996797E+02  0.22206758636E+03  0.46999998093E+01 0.  1.
</event>
<event>
 5   0  0.1923706E-02  0.4999403E+03  0.7818609E-02  0.1013795E+00
        2   -1    0    0  501    0  0.00000000000E+00  0.00000000000E+00  0.75500033607E+03  0.75500033607E+03  0.25500000920E-02 0. -1.
       -2   -1    0    0    0  501  0.00000000000E+00  0.00000000000E+00 -0.82761639089E+02  0.82761639128E+02  0.25500000920E-02 0.  1.
    10030    2    1    2    0    0  0.00000000000E+00  0.00000000000E+00  0.67223869698E+03  0.83776197520E+03  0.49994025780E+03 0.  0.
        3    1    3    3  502    0  0.10691328433E+03  0.53031212739E+02 -0.31938866722E+02  0.12354295325E+03  0.10100000352E+00 0.  1.
       -3    1    3    3    0  502 -0.10691328433E+03 -0.53031212739E+02  0.70417756370E+03  0.71421902194E+03  0.10100000352E+00 0. -1.
</event>
<event>
 5   0  0.1923706E-02  0.4913942E+03  0.7818609E-02  0.1016050E+00
       -2   -1    0    0    0  501  0.00000000000E+00  0.00000000000E+00  0.23386506153E+02  0.23386506292E+02  0.25500000920E-02 0.  1.
        2   -1    0    0  501    0  0.00000000000E+00  0.00000000000E+00 -0.25812776854E+04  0.25812776854E+04  0.25500000920E-02 0. -1.
    10030    2    1    2    0    0  0.00000000000E+00  0.00000000000E+00 -0.25578911792E+04  0.26046641917E+04  0.49139420694E+03 0.  0.
        3    1    3    3  502    0  0.18103520849E+03 -0.16081754207E+03 -0.10584125105E+04  0.10857592188E+04  0.10100000352E+00 0. -1.
       -3    1    3    3    0  502 -0.18103520849E+03  0.16081754207E+03 -0.14994786687E+04  0.15189049729E+04  0.10100000352E+00 0.  1.
</event>
<event>
 5   0  0.1982847E-02  0.4970016E+03  0.7818609E-02  0.1014565E+00
       -2   -1    0    0    0  501  0.00000000000E+00  0.00000000000E+00  0.10341742599E+03  0.10341742602E+03  0.25500000920E-02 0.  1.
        2   -1    0    0  501    0  0.00000000000E+00  0.00000000000E+00 -0.59712044500E+03  0.59712044501E+03  0.25500000920E-02 0. -1.
    10030    2    1    2    0    0  0.00000000000E+00  0.00000000000E+00 -0.49370301901E+03  0.70053787103E+03  0.49700164764E+03 0.  0.
        2    1    3    3  502    0 -0.35751037372E+02  0.14796380364E+03 -0.52371255568E+03  0.54538634458E+03  0.25500000920E-02 0. -1.
       -2    1    3    3    0  502  0.35751037372E+02 -0.14796380364E+03  0.30009536669E+02  0.15515152645E+03  0.25500000920E-02 0.  1.
</event>
<event>
 5   0  0.1209831E-02  0.4996029E+03  0.7818609E-02  0.1013883E+00
        1   -1    0    0  501    0  0.00000000000E+00  0.00000000000E+00  0.84594182622E+03  0.84594182624E+03  0.50400001928E-02 0. -1.
       -1   -1    0    0    0  501  0.00000000000E+00  0.00000000000E+00 -0.73764828819E+02  0.73764828991E+02  0.50400001928E-02 0.  1.
    10030    2    1    2    0    0  0.00000000000E+00  0.00000000000E+00  0.77217699740E+03  0.91970665523E+03  0.49960285863E+03 0.  0.
        4    1    3    3  502    0 -0.14455201371E+03 -0.10768840169E+03  0.67733766854E+02  0.19256570982E+03  0.12699999809E+01 0.  1.
       -4    1    3    3    0  502  0.14455201371E+03  0.10768840169E+03  0.70444323055E+03  0.72714094541E+03  0.12699999809E+01 0. -1.
</event>
<event>
 5   0  0.1941387E-02  0.4997598E+03  0.7818609E-02  0.1013842E+00
        2   -1    0    0  501    0  0.00000000000E+00  0.00000000000E+00  0.29045431326E+03  0.29045431327E+03  0.25500000920E-02 0.  1.
       -2   -1    0    0    0  501  0.00000000000E+00  0.00000000000E+00 -0.21497340980E+03  0.21497340981E+03  0.25500000920E-02 0. -1.
    10030    2    1    2    0    0  0.00000000000E+00  0.00000000000E+00  0.75480903457E+02  0.50542772308E+03  0.49975975876E+03 0.  0.
        4    1    3    3  502    0  0.17400396685E+03 -0.11799357383E+03  0.17432201037E+03  0.27311103995E+03  0.12699999809E+01 0. -1.
       -4    1    3    3    0  502 -0.17400396685E+03  0.11799357383E+03 -0.98841106914E+02  0.23231668313E+03  0.12699999809E+01 0.  1.
</event>
<event>
 5   0  0.1923706E-02  0.4992847E+03  0.7818609E-02  0.1013966E+00
        2   -1    0    0  501    0  0.00000000000E+00  0.00000000000E+00  0.38000773873E+03  0.38000773874E+03  0.25500000920E-02 0. -1.
       -2   -1    0    0    0  501  0.00000000000E+00  0.00000000000E+00 -0.16400012152E+03  0.16400012154E+03  0.25500000920E-02 0.  1.
    10030    2    1    2    0    0  0.00000000000E+00  0.00000000000E+00  0.21600761721E+03  0.54400786028E+03  0.49928474978E+03 0.  0.
        3    1    3    3  502    0 -0.95801219325E+02  0.20970529728E+03  0.21232518955E+03  0.31342651714E+03  0.10100000352E+00 0. -1.
       -3    1    3    3    0  502  0.95801219325E+02 -0.20970529728E+03  0.36824276554E+01  0.23058134314E+03  0.10100000352E+00 0.  1.
</event>
<event>
 5   0  0.8012875E-03  0.4989720E+03  0.7818609E-02  0.1014048E+00
        4   -1    0    0  501    0  0.00000000000E+00  0.00000000000E+00  0.34243119504E+03  0.34243355010E+03  0.12699999809E+01 0. -1.
       -4   -1    0    0    0  501  0.00000000000E+00  0.00000000000E+00 -0.18176348336E+03  0.18176792012E+03  0.12699999809E+01 0.  1.
    10030    2    1    2    0    0  0.00000000000E+00  0.00000000000E+00  0.16066771168E+03  0.52420147022E+03  0.49897201105E+03 0.  0.
        4    1    3    3  502    0 -0.15609053503E+03 -0.17151055721E+03  0.17697152343E+03  0.29172017305E+03  0.12699999809E+01 0. -1.
       -4    1    3    3    0  502  0.15609053503E+03  0.17151055721E+03 -0.16303811746E+02  0.23248129718E+03  0.12699999809E+01 0.  1.
</event>
<event>
 5   0  0.1209831E-02  0.4996967E+03  0.7818609E-02  0.1013858E+00
        1   -1    0    0  501    0  0.00000000000E+00  0.00000000000E+00  0.59868538753E+03  0.59868538755E+03  0.50400001928E-02 0. -1.
       -1   -1    0    0    0  501  0.00000000000E+00  0.00000000000E+00 -0.10426879556E+03  0.10426879568E+03  0.50400001928E-02 0.  1.
    10030    2    1    2    0    0  0.00000000000E+00  0.00000000000E+00  0.49441659197E+03  0.70295418323E+03  0.49969672532E+03 0.  0.
        4    1    3    3  502    0  0.36327919093E+02  0.30310728011E+02  0.59232145763E+03  0.59420937388E+03  0.12699999809E+01 0. -1.
       -4    1    3    3    0  502 -0.36327919093E+02 -0.30310728011E+02 -0.97904865664E+02  0.10874480934E+03  0.12699999809E+01 0.  1.
</event>
<event>
 5   0  0.1855407E-02  0.4993637E+03  0.7818609E-02  0.1013945E+00
        2   -1    0    0  501    0  0.00000000000E+00  0.00000000000E+00  0.31020940663E+03  0.31020940664E+03  0.25500000920E-02 0.  1.
       -2   -1    0    0    0  501  0.00000000000E+00  0.00000000000E+00 -0.20096436830E+03  0.20096436832E+03  0.25500000920E-02 0. -1.
    10030    2    1    2    0    0  0.00000000000E+00  0.00000000000E+00  0.10924503833E+03  0.51117377495E+03  0.49936374498E+03 0.  0.
        1    1    3    3  502    0 -0.45717948102E+02  0.19479875000E+03 -0.98255968453E+02  0.22291460056E+03  0.50400001928E-02 0. -1.
       -1    1    3    3    0  502  0.45717948102E+02 -0.19479875000E+03  0.20750100678E+03  0.28825917439E+03  0.50400001928E-02 0.  1.
</event>
<event>
 5   0  0.1227864E-02  0.5004840E+03  0.7818609E-02  0.1013653E+00
        1   -1    0    0  501    0  0.00000000000E+00  0.00000000000E+00  0.17063948192E+04  0.17063948192E+04  0.50400001928E-02 0. -1.
       -1   -1    0    0    0  501  0.00000000000E+00  0.00000000000E+00 -0.36697877467E+02  0.36697877814E+02  0.50400001928E-02 0.  1.
    10030    2    1    2    0    0  0.00000000000E+00  0.00000000000E+00  0.16696969417E+04  0.17430926970E+04  0.50048403889E+03 0.  0.
        5    1    3    3  502    0 -0.13818277405E+01 -0.19688276898E+03  0.13725372127E+04  0.13865948306E+04  0.46999998093E+01 0. -1.
       -5    1    3    3    0  502  0.13818277405E+01  0.19688276898E+03  0.29715972909E+03  0.35649786642E+03  0.46999998093E+01 0.  1.
</event>
<event>
 5   0  0.1209831E-02  0.4997545E+03  0.7818609E-02  0.1013843E+00
        1   -1    0    0  501    0  0.00000000000E+00  0.00000000000E+00  0.26727324361E+03  0.26727324366E+03  0.50400001928E-02 0. -1.
       -1   -1    0    0    0  501  0.00000000000E+00  0.00000000000E+00 -0.23361352530E+03  0.23361352536E+03  0.50400001928E-02 0.  1.
    10030    2    1    2    0    0  0.00000000000E+00  0.00000000000E+00  0.33659718313E+02  0.50088676902E+03  0.49975451848E+03 0.  0.
        4    1    3    3  502    0  0.78686179611E+02  0.13527005818E+03  0.21207245677E+03  0.26356373674E+03  0.12699999809E+01 0. -1.
       -4    1    3    3    0  502 -0.78686179611E+02 -0.13527005818E+03 -0.17841273846E+03  0.23732303228E+03  0.12699999809E+01 0.  1.
</event>
<event>
 5   0  0.1923706E-02  0.5089517E+03  0.7818609E-02  0.1011468E+00
       -2   -1    0    0    0  501  0.00000000000E+00  0.00000000000E+00  0.84911837207E+02  0.84911837245E+02  0.25500000920E-02 0. -1.
        2   -1    0    0  501    0  0.00000000000E+00  0.00000000000E+00 -0.76264950421E+03  0.76264950421E+03  0.25500000920E-02 0.  1.
    10030    2    1    2    0    0  0.00000000000E+00  0.00000000000E+00 -0.67773766700E+03  0.84756134146E+03  0.50895174846E+03 0.  0.
        3    1    3    3  502    0 -0.68979341731E+01  0.22772233526E+03 -0.15007170759E+03  0.27281233676E+03  0.10100000352E+00 0. -1.
       -3    1    3    3    0  502  0.68979341731E+01 -0.22772233526E+03 -0.52766595941E+03  0.57474900469E+03  0.10100000352E+00 0.  1.
</event>
<event>
 5   0  0.1209831E-02  0.5000253E+03  0.7818609E-02  0.1013772E+00
       -1   -1    0    0    0  501  0.00000000000E+00  0.00000000000E+00  0.12189788891E+03  0.12189788901E+03  0.50400001928E-02 0.  1.
        1   -1    0    0  501    0  0.00000000000E+00  0.00000000000E+00 -0.51277606696E+03  0.51277606699E+03  0.50400001928E-02 0. -1.
    10030    2    1    2    0    0  0.00000000000E+00  0.00000000000E+00 -0.39087817805E+03  0.63467395600E+03  0.50002527971E+03 0.  0.
        4    1    3    3  502    0  0.10764086588E+03  0.96459997868E+02  0.63487389186E+02  0.15787130418E+03  0.12699999809E+01 0.  1.
       -4    1    3    3    0  502 -0.10764086588E+03 -0.96459997868E+02 -0.45436556724E+03  0.47680265183E+03  0.12699999809E+01 0. -1.
</event>
<event>
 5   0  0.1180937E-02  0.5005575E+03  0.7818609E-02  0.1013634E+00
        1   -1    0    0  501    0  0.00000000000E+00  0.00000000000E+00  0.17671302187E+04  0.17671302187E+04  0.50400001928E-02 0.  1.
       -1   -1    0    0    0  501  0.00000000000E+00  0.00000000000E+00 -0.35446987216E+02  0.35446987574E+02  0.50400001928E-02 0. -1.
    10030    2    1    2    0    0  0.00000000000E+00  0.00000000000E+00  0.17316832315E+04  0.18025772063E+04  0.50055745964E+03 0.  0.
        1    1    3    3  502    0 -0.13426231142E+03 -0.14742166558E+03  0.14105540044E+04  0.14245778726E+04  0.50400001928E-02 0.  1.
       -1    1    3    3    0  502  0.13426231142E+03  0.14742166558E+03  0.32112922710E+03  0.37799933369E+03  0.50400001928E-02 0. -1.
</event>
<event>
 5   0  0.1217270E-02  0.5009887E+03  0.7818609E-02  0.1013521E+00
       -1   -1    0    0    0  501  0.00000000000E+00  0.00000000000E+00  0.14007463023E+03  0.14007463032E+03  0.50400001928E-02 0.  1.
        1   -1    0    0  501    0  0.00000000000E+00  0.00000000000E+00 -0.44795702820E+03  0.44795702823E+03  0.50400001928E-02 0. -1.
    10030    2    1    2    0    0  0.00000000000E+00  0.00000000000E+00 -0.30788239797E+03  0.58803165854E+03  0.50098868298E+03 0.  0.
        2    1    3    3  502    0  0.19178042485E+03 -0.74925364711E+02  0.13513110249E+02  0.20633987930E+03  0.25500000920E-02 0.  1.
       -2    1    3    3    0  502 -0.19178042485E+03  0.74925364711E+02 -0.32139550822E+03  0.38169177925E+03  0.25500000920E-02 0. -1.
</event>
<event>
 5   0  0.1855407E-02  0.4995408E+03  0.7818609E-02  0.1013899E+00
        2   -1    0    0  501    0  0.00000000000E+00  0.00000000000E+00  0.97590406717E+03  0.97590406717E+03  0.25500000920E-02 0. -1.
       -2   -1    0    0    0  501  0.00000000000E+00  0.00000000000E+00 -0.63925592922E+02  0.63925592973E+02  0.25500000920E-02 0.  1.
    10030    2    1    2    0    0  0.00000000000E+00  0.00000000000E+00  0.91197847425E+03  0.10398296601E+04  0.49954077374E+03 0.  0.
        1    1    3    3  502    0 -0.16468679134E+03  0.18304192805E+03  0.36868328286E+03  0.44334348958E+03  0.50400001928E-02 0. -1.
       -1    1    3    3    0  502  0.16468679134E+03 -0.18304192805E+03  0.54329519139E+03  0.59648617056E+03  0.50400001928E-02 0.  1.
</event>
<event>
 5   0  0.1227864E-02  0.4995270E+03  0.7818609E-02  0.1013902E+00
        1   -1    0    0  501    0  0.00000000000E+00  0.00000000000E+00  0.21893884872E+03  0.21893884878E+03  0.50400001928E-02 0.  1.
       -1   -1    0    0    0  501  0.00000000000E+00  0.00000000000E+00 -0.28492798585E+03  0.28492798590E+03  0.50400001928E-02 0. -1.
    10030    2    1    2    0    0  0.00000000000E+00  0.00000000000E+00 -0.65989137131E+02  0.50386683468E+03  0.49952699714E+03 0.  0.
        5    1    3    3  502    0  0.18963837558E+03  0.56331693008E+02 -0.18671192549E+03  0.27206507723E+03  0.46999998093E+01 0. -1.
       -5    1    3    3    0  502 -0.18963837558E+03 -0.56331693008E+02  0.12072278836E+03  0.23180175745E+03  0.46999998093E+01 0.  1.
</event>
<event>
 5   0  0.1923706E-02  0.5004132E+03  0.7818609E-02  0.1013671E+00
       -2   -1    0    0    0  501  0.00000000000E+00  0.00000000000E+00  0.21264743352E+02  0.21264743505E+02  0.25500000920E-02 0. -1.
        2   -1    0    0  501    0  0.00000000000E+00  0.00000000000E+00 -0.29439976737E+04  0.29439976737E+04  0.25500000920E-02 0.  1.
    10030    2    1    2    0    0  0.00000000000E+00  0.00000000000E+00 -0.29227329303E+04  0.29652624172E+04  0.50041324998E+03 0.  0.
        3    1    3    3  502    0  0.18373544583E+02  0.15235236130E+03 -0.26324016983E+04  0.26368707857E+04  0.10100000352E+00 0.  1.
       -3    1    3    3    0  502 -0.18373544583E+02 -0.15235236130E+03 -0.29033123208E+03  0.32839163152E+03  0.10100000352E+00 0. -1.
</event>
<event>
 5   0  0.1982847E-02  0.5014572E+03  0.7818609E-02  0.1013399E+00
        2   -1    0    0  501    0  0.00000000000E+00  0.00000000000E+00  0.85607685691E+03  0.85607685691E+03  0.25500000920E-02 0. -1.
       -2   -1    0    0    0  501  0.00000000000E+00  0.00000000000E+00 -0.73433624947E+02  0.73433624991E+02  0.25500000920E-02 0.  1.
    10030    2    1    2    0    0  0.00000000000E+00  0.00000000000E+00  0.78264323196E+03  0.92951048190E+03  0.50145718405E+03 0.  0.
        2    1    3    3  502    0 -0.14782542917E+03  0.16950392683E+02  0.17252546638E+02  0.14979093328E+03  0.25500000920E-02 0.  1.
       -2    1    3    3    0  502  0.14782542917E+03 -0.16950392683E+02  0.76539068532E+03  0.77971954862E+03  0.25500000920E-02 0. -1.
</event>
<event>
 5   0  0.1941387E-02  0.4998424E+03  0.7818609E-02  0.1013820E+00
        2   -1    0    0  501    0  0.00000000000E+00  0.00000000000E+00  0.85920863073E+03  0.85920863073E+03  0.25500000920E-02 0.  1.
       -2   -1    0    0    0  501  0.00000000000E+00  0.00000000000E+00 -0.72695504478E+02  0.72695504523E+02  0.25500000920E-02 0. -1.
    10030    2    1    2    0    0  0.00000000000E+00  0.00000000000E+00  0.78651312625E+03  0.93190413525E+03  0.49984239470E+03 0.  0.
        4    1    3    3  502    0 -0.10205193579E+03 -0.70929915359E+02  0.79750533608E+03  0.80713197462E+03  0.12699999809E+01 0.  1.
       -4    1    3    3    0  502  0.10205193579E+03  0.70929915359E+02 -0.10992209828E+02  0.12477216063E+03  0.12699999809E+01 0. -1.
</event>
<event>
 5   0  0.1923706E-02  0.4992857E+03  0.7818609E-02  0.1013966E+00
       -2   -1    0    0    0  501  0.00000000000E+00  0.00000000000E+00  0.55627003855E+02  0.55627003913E+02  0.25500000920E-02 0. -1.
        2   -1    0    0  501    0  0.00000000000E+00  0.00000000000E+00 -0.11203469508E+04  0.11203469508E+04  0.25500000920E-02 0.  1.
    10030    2    1    2    0    0  0.00000000000E+00  0.00000000000E+00 -0.10647199469E+04  0.11759739547E+04  0.49928566647E+03 0.  0.
        3    1    3    3  502    0  0.22814734881E+03  0.92119343321E+02 -0.43286792797E+03  0.49790746073E+03  0.10100000352E+00 0. -1.
       -3    1    3    3    0  502 -0.22814734881E+03 -0.92119343321E+02 -0.63185201893E+03  0.67806649394E+03  0.10100000352E+00 0.  1.
</event>
<event>
 5   0  0.1180937E-02  0.4987124E+03  0.7818609E-02  0.1014116E+00
       -1   -1    0    0    0  501  0.00000000000E+00  0.00000000000E+00  0.14669240801E+04  0.14669240801E+04  0.50400001928E-02 0. -1.
        1   -1    0    0  501    0  0.00000000000E+00  0.00000000000E+00 -0.42387004577E+02  0.42387004877E+02  0.50400001928E-02 0.  1.
    10030    2    1    2    0    0  0.00000000000E+00  0.00000000000E+00  0.14245370755E+04  0.15093110850E+04  0.49871241384E+03 0.  0.
        1    1    3    3  502    0 -0.10910715909E+03  0.65305544214E+01  0.33976613858E+02  0.11446148095E+03  0.50400001928E-02 0.  1.
       -1    1    3    3    0  502  0.10910715909E+03 -0.65305544214E+01  0.13905604616E+04  0.13948496040E+04  0.50400001928E-02 0. -1.
</event>
<event>
 5   0  0.1227864E-02  0.4984247E+03  0.7818609E-02  0.1014191E+00
        1   -1    0    0  501    0  0.00000000000E+00  0.00000000000E+00  0.58396823396E+03  0.58396823398E+03  0.50400001928E-02 0.  1.
       -1   -1    0    0    0  501  0.00000000000E+00  0.00000000000E+00 -0.10635305488E+03  0.10635305499E+03  0.50400001928E-02 0. -1.
    10030    2    1    2    0    0  0.00000000000E+00  0.00000000000E+00  0.47761517908E+03  0.69032128897E+03  0.49842474128E+03 0.  0.
        5    1    3    3  502    0 -0.78953197785E+02 -0.78677811373E+02  0.54745242373E+03  0.55870390341E+03  0.46999998093E+01 0.  1.
       -5    1    3    3    0  502  0.78953197785E+02  0.78677811373E+02 -0.69837244650E+02  0.13161738556E+03  0.46999998093E+01 0. -1.
</event>
<event>
 5   0  0.1227864E-02  0.5108678E+03  0.7818609E-02  0.1010981E+00
       -1   -1    0    0    0  501  0.00000000000E+00  0.00000000000E+00  0.34882222820E+03  0.34882222823E+03  0.50400001928E-02 0. -1.
        1   -1    0    0  501    0  0.00000000000E+00  0.00000000000E+00 -0.18704794640E+03  0.18704794647E+03  0.50400001928E-02 0.  1.
    10030    2    1    2    0    0  0.00000000000E+00  0.00000000000E+00  0.16177428179E+03  0.53587017470E+03  0.51086781645E+03 0.  0.
        5    1    3    3  502    0 -0.39570651083E+02  0.15441916931E+03 -0.12841081886E+03  0.20474995648E+03  0.46999998093E+01 0.  1.
       -5    1    3    3    0  502  0.39570651083E+02 -0.15441916931E+03  0.29018510066E+03  0.33112021823E+03  0.46999998093E+01 0. -1.
</event>
<event>
 5   0  0.8012875E-03  0.4999667E+03  0.7818609E-02  0.1013788E+00
       -3   -1    0    0    0  501  0.00000000000E+00  0.00000000000E+00  0.16786343638E+04  0.16786343668E+04  0.10100000352E+00 0.  1.
        3   -1    0    0  501    0  0.00000000000E+00  0.00000000000E+00 -0.37227608688E+02  0.37227745696E+02  0.10100000352E+00 0. -1.
    10030    2    1    2    0    0  0.00000000000E+00  0.00000000000E+00  0.16414067551E+04  0.17158621125E+04  0.49996665238E+03 0.  0.
        3    1    3    3  502    0  0.14127153143E+03  0.85252171449E+02  0.17620784804E+03  0.24140172792E+03  0.10100000352E+00 0. -1.
       -3    1    3    3    0  502 -0.14127153143E+03 -0.85252171449E+02  0.14651989070E+04  0.14744603846E+04  0.10100000352E+00 0.  1.
</event>
<event>
 5   0  0.1941387E-02  0.4996249E+03  0.7818609E-02  0.1013877E+00
       -2   -1    0    0    0  501  0.00000000000E+00  0.00000000000E+00  0.24061070149E+03  0.24061070150E+03  0.25500000920E-02 0. -1.
        2   -1    0    0  501    0  0.00000000000E+00  0.00000000000E+00 -0.25936612035E+03  0.25936612036E+03  0.25500000920E-02 0.  1.
    10030    2    1    2    0    0  0.00000000000E+00  0.00000000000E+00 -0.18755418857E+02  0.49997682186E+03  0.49962491597E+03 0.  0.
        4    1    3    3  502    0  0.24282214496E+03  0.58666796394E+02 -0.98920598345E+01  0.25000770554E+03  0.12699999809E+01 0. -1.
       -4    1    3    3    0  502 -0.24282214496E+03 -0.58666796394E+02 -0.88633590227E+01  0.24996911632E+03  0.12699999809E+01 0.  1.
</event>
<event>
 5   0  0.1982847E-02  0.4996613E+03  0.7818609E-02  0.1013867E+00
        2   -1    0    0  501    0  0.00000000000E+00  0.00000000000E+00  0.54698489890E+03  0.54698489890E+03  0.25500000920E-02 0. -1.
       -2   -1    0    0    0  501  0.00000000000E+00  0.00000000000E+00 -0.11410798300E+03  0.11410798303E+03  0.25500000920E-02 0.  1.
    10030    2    1    2    0    0  0.00000000000E+00  0.00000000000E+00  0.43287691590E+03  0.66109288193E+03  0.49966125948E+03 0.  0.
        2    1    3    3  502    0 -0.12148976278E+03 -0.11246067814E+03 -0.31116455473E+02  0.16844999375E+03  0.25500000920E-02 0.  1.
       -2    1    3    3    0  502  0.12148976278E+03  0.11246067814E+03  0.46399337137E+03  0.49264288818E+03  0.25500000920E-02 0. -1.
</event>
<event>
 5   0  0.8012875E-03  0.5000602E+03  0.7818609E-02  0.1013763E+00
       -4   -1    0    0    0  501  0.00000000000E+00  0.00000000000E+00  0.19286975399E+03  0.19287393527E+03  0.12699999809E+01 0.  1.
        4   -1    0    0  501    0  0.00000000000E+00  0.00000000000E+00 -0.32412202150E+03  0.32412450960E+03  0.12699999809E+01 0. -1.
    10030    2    1    2    0    0  0.00000000000E+00  0.00000000000E+00 -0.13125226750E+03  0.51699844486E+03  0.50006023064E+03 0.  0.
        3    1    3    3  502    0 -0.18662267529E+02  0.11468790016E+03 -0.29451494983E+03  0.31660805509E+03  0.10100000352E+00 0. -1.
       -3    1    3    3    0  502  0.18662267529E+02 -0.11468790016E+03  0.16326268233E+03  0.20039038977E+03  0.10100000352E+00 0.  1.
</event>
<event>
 5   0  0.8012875E-03  0.5016953E+03  0.7818609E-02  0.1013337E+00
       -3   -1    0    0    0  501  0.00000000000E+00  0.00000000000E+00  0.12956879581E+03  0.12956883517E+03  0.10100000352E+00 0. -1.
        3   -1    0    0  501    0  0.00000000000E+00  0.00000000000E+00 -0.48564577945E+03  0.48564578995E+03  0.10100000352E+00 0.  1.
    10030    2    1    2    0    0  0.00000000000E+00  0.00000000000E+00 -0.35607698364E+03  0.61521462512E+03  0.50169534250E+03 0.  0.
        3    1    3    3  502    0 -0.27294927481E+02 -0.24922333354E+03 -0.18809548135E+03  0.31342814703E+03  0.10100000352E+00 0. -1.
       -3    1    3    3    0  502  0.27294927481E+02  0.24922333354E+03 -0.16798150229E+03  0.30178647809E+03  0.10100000352E+00 0.  1.
</event>
<event>
 5   0  0.1967813E-02  0.5000495E+03  0.7818609E-02  0.1013766E+00
        2   -1    0    0  501    0  0.00000000000E+00  0.00000000000E+00  0.61006351030E+03  0.61006351031E+03  0.25500000920E-02 0.  1.
       -2   -1    0    0    0  501  0.00000000000E+00  0.00000000000E+00 -0.10246863896E+03  0.10246863899E+03  0.25500000920E-02 0. -1.
    10030    2    1    2    0    0  0.00000000000E+00  0.00000000000E+00  0.50759487134E+03  0.71253214930E+03  0.50004950793E+03 0.  0.
        5    1    3    3  502    0 -0.80452064981E+02  0.82070084086E+02 -0.62529913610E+02  0.13092025648E+03  0.46999998093E+01 0. -1.
       -5    1    3    3    0  502  0.80452064981E+02 -0.82070084086E+02  0.57012478495E+03  0.58161189283E+03  0.46999998093E+01 0.  1.
</event>
<event>
 5   0  0.1855407E-02  0.4991311E+03  0.7818609E-02  0.1014006E+00
       -2   -1    0    0    0  501  0.00000000000E+00  0.00000000000E+00  0.44770072822E+02  0.44770072894E+02  0.25500000920E-02 0. -1.
        2   -1    0    0  501    0  0.00000000000E+00  0.00000000000E+00 -0.13911739894E+04  0.13911739894E+04  0.25500000920E-02 0.  1.
    10030    2    1    2    0    0  0.00000000000E+00  0.00000000000E+00 -0.13464039166E+04  0.14359440623E+04  0.49913108846E+03 0.  0.
        1    1    3    3  502    0  0.17097370494E+03  0.10470184899E+03 -0.24563338517E+03  0.31706504837E+03  0.50400001928E-02 0. -1.
       -1    1    3    3    0  502 -0.17097370494E+03 -0.10470184899E+03 -0.11007705314E+04  0.11188790139E+04  0.50400001928E-02 0.  1.
</event>
<event>
 5   0  0.1209831E-02  0.5026876E+03  0.7818609E-02  0.1013080E+00
       -1   -1    0    0    0  501  0.00000000000E+00  0.00000000000E+00  0.56046200283E+02  0.56046200509E+02  0.50400001928E-02 0. -1.
        1   -1    0    0  501    0  0.00000000000E+00  0.00000000000E+00 -0.11271720434E+04  0.11271720434E+04  0.50400001928E-02 0.  1.
    10030    2    1    2    0    0  0.00000000000E+00  0.00000000000E+00 -0.10711258431E+04  0.11832182439E+04  0.50268761766E+03 0.  0.
        4    1    3    3  502    0 -0.80611239281E+02 -0.92244938618E+02 -0.18990120576E+02  0.12397394153E+03  0.12699999809E+01 0. -1.
       -4    1    3    3    0  502  0.80611239281E+02  0.92244938618E+02 -0.10521357225E+04  0.10592443024E+04  0.12699999809E+01 0.  1.
</event>
<event>
 5   0  0.1227864E-02  0.5001745E+03  0.7818609E-02  0.1013733E+00
        1   -1    0    0  501    0  0.00000000000E+00  0.00000000000E+00  0.28690971458E+03  0.28690971462E+03  0.50400001928E-02 0.  1.
       -1   -1    0    0    0  501  0.00000000000E+00  0.00000000000E+00 -0.21799066196E+03  0.21799066202E+03  0.50400001928E-02 0. -1.
    10030    2    1    2    0    0  0.00000000000E+00  0.00000000000E+00  0.68919052616E+02  0.50490037664E+03  0.50017452406E+03 0.  0.
        5    1    3    3  502    0 -0.23882259880E+03  0.44496011092E+02 -0.25306468512E+02  0.24429211213E+03  0.46999998093E+01 0. -1.
       -5    1    3    3    0  502  0.23882259880E+03 -0.44496011092E+02  0.94225521128E+02  0.26060826451E+03  0.46999998093E+01 0.  1.
</event>
<event>
 5   0  0.1209831E-02  0.4998345E+03  0.7818609E-02  0.1013822E+00
       -1   -1    0    0    0  501  0.00000000000E+00  0.00000000000E+00  0.14644270768E+03  0.14644270776E+03  0.50400001928E-02 0.  1.
        1   -1    0    0  501    0  0.00000000000E+00  0.00000000000E+00 -0.42650551437E+03  0.42650551440E+03  0.50400001928E-02 0. -1.
    10030    2    1    2    0    0  0.00000000000E+00  0.00000000000E+00 -0.28006280669E+03  0.57294822216E+03  0.49983446219E+03 0.  0.
        4    1    3    3  502    0  0.10771685631E+03 -0.54354618317E+01 -0.39845128656E+03  0.41279232798E+03  0.12699999809E+01 0. -1.
       -4    1    3    3    0  502 -0.10771685631E+03  0.54354618317E+01  0.11838847986E+03  0.16015589419E+03  0.12699999809E+01 0.  1.
</event>
<event>
 5   0  0.1225989E-02  0.5000072E+03  0.7818609E-02  0.1013777E+00
        1   -1    0    0  501    0  0.00000000000E+00  0.00000000000E+00  0.49675469277E+03  0.49675469279E+03  0.50400001928E-02 0. -1.
       -1   -1    0    0    0  501  0.00000000000E+00  0.00000000000E+00 -0.12582026611E+03  0.12582026621E+03  0.50400001928E-02 0.  1.
    10030    2    1    2    0    0  0.00000000000E+00  0.00000000000E+00  0.37093442666E+03  0.62257495900E+03  0.50000723064E+03 0.  0.
        3    1    3    3  502    0  0.20478928703E+03  0.74558606696E+01  0.36377582232E+03  0.41752497057E+03  0.10100000352E+00 0. -1.
       -3    1    3    3    0  502 -0.20478928703E+03 -0.74558606696E+01  0.71586043365E+01  0.20504998843E+03  0.10100000352E+00 0.  1.
</event>
<event>
 5   0  0.8012875E-03  0.5006733E+03  0.7818609E-02  0.1013603E+00
       -3   -1    0    0    0  501  0.00000000000E+00  0.00000000000E+00  0.44510980583E+02  0.44511095173E+02  0.10100000352E+00 0. -1.
        3   -1    0    0  501    0  0.00000000000E+00  0.00000000000E+00 -0.14079302506E+04  0.14079302542E+04  0.10100000352E+00 0.  1.
    10030    2    1    2    0    0  0.00000000000E+00  0.00000000000E+00 -0.13634192700E+04  0.14524413494E+04  0.50067331423E+03 0.  0.
        3    1    3    3  502    0  0.20173636843E+03 -0.98357181513E+01 -0.25265802638E+03  0.32346621492E+03  0.10100000352E+00 0. -1.
       -3    1    3    3    0  502 -0.20173636843E+03  0.98357181513E+01 -0.11107612436E+04  0.11289751345E+04  0.10100000352E+00 0.  1.
</event>
<event>
 5   0  0.1855407E-02  0.5014604E+03  0.7818609E-02  0.1013398E+00
       -2   -1    0    0    0  501  0.00000000000E+00  0.00000000000E+00  0.38208778769E+02  0.38208778854E+02  0.25500000920E-02 0.  1.
        2   -1    0    0  501    0  0.00000000000E+00  0.00000000000E+00 -0.16453190508E+04  0.16453190508E+04  0.25500000920E-02 0. -1.
    10030    2    1    2    0    0  0.00000000000E+00  0.00000000000E+00 -0.16071102720E+04  0.16835278297E+04  0.50146039401E+03 0.  0.
        1    1    3    3  502    0  0.18174647372E+03 -0.24175077973E+02 -0.22938279729E+03  0.29365401892E+03  0.50400001928E-02 0.  1.
       -1    1    3    3    0  502 -0.18174647372E+03  0.24175077973E+02 -0.13777274747E+04  0.13898738107E+04  0.50400001928E-02 0. -1.
</event>
<event>
 5   0  0.1855407E-02  0.4994367E+03  0.7818609E-02  0.1013926E+00
       -2   -1    0    0    0  501  0.00000000000E+00  0.00000000000E+00  0.89258929428E+02  0.89258929464E+02  0.25500000920E-02 0.  1.
        2   -1    0    0  501    0  0.00000000000E+00  0.00000000000E+00 -0.69863312522E+03  0.69863312522E+03  0.25500000920E-02 0. -1.
    10030    2    1    2    0    0  0.00000000000E+00  0.00000000000E+00 -0.60937419579E+03  0.78789205469E+03  0.49943666199E+03 0.  0.
        1    1    3    3  502    0 -0.13527450276E+03 -0.20869065829E+03 -0.34025272631E+03  0.42145331858E+03  0.50400001928E-02 0.  1.
       -1    1    3    3    0  502  0.13527450276E+03  0.20869065829E+03 -0.26912146948E+03  0.36643873611E+03  0.50400001928E-02 0. -1.
</event>
<event>
 5   0  0.1227864E-02  0.4996324E+03  0.7818609E-02  0.1013875E+00
       -1   -1    0    0    0  501  0.00000000000E+00  0.00000000000E+00  0.56904231439E+03  0.56904231442E+03  0.50400001928E-02 0. -1.
        1   -1    0    0  501    0  0.00000000000E+00  0.00000000000E+00 -0.10967221888E+03  0.10967221900E+03  0.50400001928E-02 0.  1.
    10030    2    1    2    0    0  0.00000000000E+00  0.00000000000E+00  0.45937009551E+03  0.67871453342E+03  0.49963239809E+03 0.  0.
        5    1    3    3  502    0 -0.24403566765E+03 -0.37011564843E+02  0.28163989915E+03  0.37452154251E+03  0.46999998093E+01 0. -1.
       -5    1    3    3    0  502  0.24403566765E+03  0.37011564843E+02  0.17773019636E+03  0.30419299090E+03  0.46999998093E+01 0.  1.
</event>
<event>
 5   0  0.1941387E-02  0.4960403E+03  0.7818609E-02  0.1014818E+00
       -2   -1    0    0    0  501  0.00000000000E+00  0.00000000000E+00  0.54481915389E+02  0.54481915449E+02  0.25500000920E-02 0. -1.
        2   -1    0    0  501    0  0.00000000000E+00  0.00000000000E+00 -0.11290719293E+04  0.11290719293E+04  0.25500000920E-02 0.  1.
    10030    2    1    2    0    0  0.00000000000E+00  0.00000000000E+00 -0.10745900139E+04  0.11835538447E+04  0.49604032641E+03 0.  0.
        4    1    3    3  502    0 -0.44796642451E+02  0.23216699998E+03 -0.71591302585E+03  0.75395048149E+03  0.12699999809E+01 0.  1.
       -4    1    3    3    0  502  0.44796642451E+02 -0.23216699998E+03 -0.35867698802E+03  0.42960336322E+03  0.12699999809E+01 0. -1.
</event>
<event>
 5   0  0.1217270E-02  0.4997377E+03  0.7818609E-02  0.1013847E+00
       -1   -1    0    0    0  501  0.00000000000E+00  0.00000000000E+00  0.34405862503E+02  0.34405862872E+02  0.50400001928E-02 0. -1.
        1   -1    0    0  501    0  0.00000000000E+00  0.00000000000E+00 -0.18146456801E+04  0.18146456801E+04  0.50400001928E-02 0.  1.
    10030    2    1    2    0    0  0.00000000000E+00  0.00000000000E+00 -0.17802398176E+04  0.18490515430E+04  0.49973773165E+03 0.  0.
        2    1    3    3  502    0  0.17781248924E+03 -0.14393654633E+03 -0.51828041927E+03  0.56652414221E+03  0.25500000920E-02 0. -1.
       -2    1    3    3    0  502 -0.17781248924E+03  0.14393654633E+03 -0.12619593983E+04  0.12825274007E+04  0.25500000920E-02 0.  1.
</event>
<event>
 5   0  0.1967813E-02  0.4964245E+03  0.7818609E-02  0.1014716E+00
       -2   -1    0    0    0  501  0.00000000000E+00  0.00000000000E+00  0.66254763421E+02  0.66254763470E+02  0.25500000920E-02 0. -1.
        2   -1    0    0  501    0  0.00000000000E+00  0.00000000000E+00 -0.92988508984E+03  0.92988508985E+03  0.25500000920E-02 0.  1.
    10030    2    1    2    0    0  0.00000000000E+00  0.00000000000E+00 -0.86363032642E+03  0.99613985332E+03  0.49642448232E+03 0.  0.
        5    1    3    3  502    0  0.34785631462E+02  0.18994775331E+03 -0.74459862803E+03  0.76924599187E+03  0.46999998093E+01 0.  1.
       -5    1    3    3    0  502 -0.34785631462E+02 -0.18994775331E+03 -0.11903169839E+03  0.22689386145E+03  0.46999998093E+01 0. -1.
</event>
<event>
 5   0  0.1967813E-02  0.5003963E+03  0.7818609E-02  0.1013676E+00
        2   -1    0    0  501    0  0.00000000000E+00  0.00000000000E+00  0.22184282915E+03  0.22184282917E+03  0.25500000920E-02 0.  1.
       -2   -1    0    0    0  501  0.00000000000E+00  0.00000000000E+00 -0.28217779257E+03  0.28217779258E+03  0.25500000920E-02 0. -1.
    10030    2    1    2    0    0  0.00000000000E+00  0.00000000000E+00 -0.60334963416E+02  0.50402062175E+03  0.50039632226E+03 0.  0.
        5    1    3    3  502    0 -0.92018728454E+02  0.78381800445E+02 -0.25076488222E+03  0.27841743692E+03  0.46999998093E+01 0. -1.
       -5    1    3    3    0  502  0.92018728454E+02 -0.78381800445E+02  0.19042991881E+03  0.22560318482E+03  0.46999998093E+01 0.  1.
</event>
<event>
 5   0  0.1923706E-02  0.4996631E+03  0.7818609E-02  0.1013867E+00
       -2   -1    0    0    0  501  0.00000000000E+00  0.00000000000E+00  0.55445924540E+03  0.55445924541E+03  0.25500000920E-02 0.  1.
        2   -1    0    0  501    0  0.00000000000E+00  0.00000000000E+00 -0.11257058457E+03  0.11257058459E+03  0.25500000920E-02 0. -1.
    10030    2    1    2    0    0  0.00000000000E+00  0.00000000000E+00  0.44188866083E+03  0.66702983000E+03  0.49966309203E+03 0.  0.
        3    1    3    3  502    0 -0.44048793985E+02 -0.58593153198E+02  0.53977980875E+03  0.54473452799E+03  0.10100000352E+00 0.  1.
       -3    1    3    3    0  502  0.44048793985E+02  0.58593153198E+02 -0.97891147913E+02  0.12229530201E+03  0.10100000352E+00 0. -1.
</event>
<event>
 5   0  0.1967813E-02  0.4998914E+03  0.7818609E-02  0.1013807E+00
        2   -1    0    0  501    0  0.00000000000E+00  0.00000000000E+00  0.72047014473E+03  0.72047014474E+03  0.25500000920E-02 0.  1.
       -2   -1    0    0    0  501  0.00000000000E+00  0.00000000000E+00 -0.86711246858E+02  0.86711246896E+02  0.25500000920E-02 0. -1.
    10030    2    1    2    0    0  0.00000000000E+00  0.00000000000E+00  0.63375889787E+03  0.80718139163E+03  0.49989144658E+03 0.  0.
        5    1    3    3  502    0 -0.15933033212E+03 -0.84147113370E+02  0.59648086980E+03  0.62311989974E+03  0.46999998093E+01 0.  1.
       -5    1    3    3    0  502  0.15933033212E+03  0.84147113370E+02  0.37278028075E+02  0.18406149189E+03  0.46999998093E+01 0. -1.
</event>
<event>
 5   0  0.1982847E-02  0.4978810E+03  0.7818609E-02  0.1014333E+00
        2   -1    0    0  501    0  0.00000000000E+00  0.00000000000E+00  0.15130577971E+04  0.15130577971E+04  0.25500000920E-02 0.  1.
       -2   -1    0    0    0  501  0.00000000000E+00  0.00000000000E+00 -0.40957708819E+02  0.40957708899E+02  0.25500000920E-02 0. -1.
    10030    2    1    2    0    0  0.00000000000E+00  0.00000000000E+00  0.14721000882E+04  0.15540155060E+04  0.49788103295E+03 0.  0.
        2    1    3    3  502    0 -0.16311934769E+02 -0.15119143836E+03  0.12086546978E+03  0.19425084824E+03  0.25500000920E-02 0. -1.
       -2    1    3    3    0  502  0.16311934769E+02  0.15119143836E+03  0.13512346185E+04  0.13597646577E+04  0.25500000920E-02 0.  1.
</event>
<event>
 5   0  0.1967813E-02  0.5009665E+03  0.7818609E-02  0.1013527E+00
       -2   -1    0    0    0  501  0.00000000000E+00  0.00000000000E+00  0.13236214310E+03  0.13236214313E+03  0.25500000920E-02 0. -1.
        2   -1    0    0  501    0  0.00000000000E+00  0.00000000000E+00 -0.47401668245E+03  0.47401668246E+03  0.25500000920E-02 0.  1.
    10030    2    1    2    0    0  0.00000000000E+00  0.00000000000E+00 -0.34165453935E+03  0.60637882559E+03  0.50096652170E+03 0.  0.
        5    1    3    3  502    0 -0.81732480078E+02  0.18648001618E+03  0.56812865845E+01  0.20373846409E+03  0.46999998093E+01 0. -1.
       -5    1    3    3    0  502  0.81732480078E+02 -0.18648001618E+03 -0.34733582593E+03  0.40264036150E+03  0.46999998093E+01 0.  1.
</event>
<event>
 5   0  0.1982847E-02  0.5006957E+03  0.7818609E-02  0.1013597E+00
        2   -1    0    0  501    0  0.00000000000E+00  0.00000000000E+00  0.96919308986E+03  0.96919308986E+03  0.25500000920E-02 0.  1.
       -2   -1    0    0    0  501  0.00000000000E+00  0.00000000000E+00 -0.64666210453E+02  0.64666210503E+02  0.25500000920E-02 0. -1.
    10030    2    1    2    0    0  0.00000000000E+00  0.00000000000E+00  0.90452687940E+03  0.10338593004E+04  0.50069569339E+03 0.  0.
        2    1    3    3  502    0 -0.50761676330E+02  0.33191279506E+02  0.95379414252E+03  0.95572050052E+03  0.25500000920E-02 0.  1.
       -2    1    3    3    0  502  0.50761676330E+02 -0.33191279506E+02 -0.49267263112E+02  0.78138799838E+02  0.25500000920E-02 0. -1.
</event>
<event>
 5   0  0.1941387E-02  0.5008094E+03  0.7818609E-02  0.1013568E+00
       -2   -1    0    0    0  501  0.00000000000E+00  0.00000000000E+00  0.11168196185E+03  0.11168196187E+03  0.25500000920E-02 0. -1.
        2   -1    0    0  501    0  0.00000000000E+00  0.00000000000E+00 -0.56143817107E+03  0.56143817108E+03  0.25500000920E-02 0.  1.
    10030    2    1    2    0    0  0.00000000000E+00  0.00000000000E+00 -0.44975620923E+03  0.67312013295E+03  0.50080941050E+03 0.  0.
        4    1    3    3  502    0  0.18303942437E+03 -0.61606109980E+02 -0.43909583901E+03  0.47969314400E+03  0.12699999809E+01 0.  1.
       -4    1    3    3    0  502 -0.18303942437E+03  0.61606109980E+02 -0.10660370213E+02  0.19342698895E+03  0.12699999809E+01 0. -1.
</event>
<event>
 5   0  0.1855407E-02  0.4999823E+03  0.7818609E-02  0.1013784E+00
       -2   -1    0    0    0  501  0.00000000000E+00  0.00000000000E+00  0.26620459462E+02  0.26620459584E+02  0.25500000920E-02 0.  1.
        2   -1    0    0  501    0  0.00000000000E+00  0.00000000000E+00 -0.23476518669E+04  0.23476518669E+04  0.25500000920E-02 0. -1.
    10030    2    1    2    0    0  0.00000000000E+00  0.00000000000E+00 -0.23210314074E+04  0.23742723264E+04  0.49998228569E+03 0.  0.
        1    1    3    3  502    0  0.35319224799E+01  0.20083889348E+03 -0.45382113029E+03  0.49628857929E+03  0.50400001928E-02 0.  1.
       -1    1    3    3    0  502 -0.35319224799E+01 -0.20083889348E+03 -0.18672102771E+04  0.18779837472E+04  0.50400001928E-02 0. -1.
</event>
<event>
 5   0  0.1180937E-02  0.5001143E+03  0.7818609E-02  0.1013749E+00
        1   -1    0    0  501    0  0.00000000000E+00  0.00000000000E+00  0.30473521865E+03  0.30473521869E+03  0.50400001928E-02 0. -1.
       -1   -1    0    0    0  501  0.00000000000E+00  0.00000000000E+00 -0.20518987318E+03  0.20518987324E+03  0.50400001928E-02 0.  1.
    10030    2    1    2    0    0  0.00000000000E+00  0.00000000000E+00  0.99545345477E+02  0.50992509193E+03  0.50011431051E+03 0.  0.
        1    1    3    3  502    0  0.73528831866E+02  0.11820025941E+03 -0.16203002077E+03  0.21361535080E+03  0.50400001928E-02 0.  1.
       -1    1    3    3    0  502 -0.73528831866E+02 -0.11820025941E+03  0.26157536624E+03  0.29630974114E+03  0.50400001928E-02 0. -1.
</event>
<event>
 5   0  0.1225989E-02  0.5002933E+03  0.7818609E-02  0.1013702E+00
       -1   -1    0    0    0  501  0.00000000000E+00  0.00000000000E+00  0.15513229966E+03  0.15513229975E+03  0.50400001928E-02 0. -1.
        1   -1    0    0  501    0  0.00000000000E+00  0.00000000000E+00 -0.40335473259E+03  0.40335473262E+03  0.50400001928E-02 0.  1.
    10030    2    1    2    0    0  0.00000000000E+00  0.00000000000E+00 -0.24822243292E+03  0.55848703237E+03  0.50029330309E+03 0.  0.
        3    1    3    3  502    0  0.17533699317E+03 -0.11186202985E+03  0.31041744153E+02  0.21028498514E+03  0.10100000352E+00 0. -1.
       -3    1    3    3    0  502 -0.17533699317E+03  0.11186202985E+03 -0.27926417708E+03  0.34820204723E+03  0.10100000352E+00 0.  1.
</event>
<event>
 5   0  0.8012875E-03  0.5000715E+03  0.7818609E-02  0.1013760E+00
       -4   -1    0    0    0  501  0.00000000000E+00  0.00000000000E+00  0.79493255216E+02  0.79503399455E+02  0.12699999809E+01 0.  1.
        4   -1    0    0  501    0  0.00000000000E+00  0.00000000000E+00 -0.78639411313E+03  0.78639513863E+03  0.12699999809E+01 0. -1.
    10030    2    1    2    0    0  0.00000000000E+00  0.00000000000E+00 -0.70690085792E+03  0.86589853809E+03  0.50007145024E+03 0.  0.
        3    1    3    3  502    0  0.18105134994E+02  0.14476906304E+03 -0.70505298241E+03  0.71998999697E+03  0.10100000352E+00 0. -1.
       -3    1    3    3    0  502 -0.18105134994E+02 -0.14476906304E+03 -0.18478755018E+01  0.14590854112E+03  0.10100000352E+00 0.  1.
</event>
<event>
 5   0  0.1227864E-02  0.4998604E+03  0.7818609E-02  0.1013815E+00
       -1   -1    0    0    0  501  0.00000000000E+00  0.00000000000E+00  0.36742810575E+02  0.36742810921E+02  0.50400001928E-02 0. -1.
        1   -1    0    0  501    0  0.00000000000E+00  0.00000000000E+00 -0.17000634232E+04  0.17000634232E+04  0.50400001928E-02 0.  1.
    10030    2    1    2    0    0  0.00000000000E+00  0.00000000000E+00 -0.16633206126E+04  0.17368062341E+04  0.49986041504E+03 0.  0.
        5    1    3    3  502    0  0.20811301585E+02  0.21652146599E+03 -0.12590249543E+04  0.12776856347E+04  0.46999998093E+01 0.  1.
       -5    1    3    3    0  502 -0.20811301585E+02 -0.21652146599E+03 -0.40429565836E+03  0.45912059949E+03  0.46999998093E+01 0. -1.
</event>
<event>
 5   0  0.1855407E-02  0.5018011E+03  0.7818609E-02  0.1013310E+00
       -2   -1    0    0    0  501  0.00000000000E+00  0.00000000000E+00  0.50577945811E+02  0.50577945876E+02  0.25500000920E-02 0.  1.
        2   -1    0    0  501    0  0.00000000000E+00  0.00000000000E+00 -0.12446349181E+04  0.12446349181E+04  0.25500000920E-02 0. -1.
    10030    2    1    2    0    0  0.00000000000E+00  0.00000000000E+00 -0.11940569722E+04  0.12952128639E+04  0.50180106610E+03 0.  0.
        1    1    3    3  502    0  0.15566482697E+03  0.13774430923E+03 -0.23432675882E+03  0.31323164433E+03  0.50400001928E-02 0.  1.
       -1    1    3    3    0  502 -0.15566482697E+03 -0.13774430923E+03 -0.95973021342E+03  0.98198121961E+03  0.50400001928E-02 0. -1.
</event>
<event>
 5   0  0.1941387E-02  0.4998978E+03  0.7818609E-02  0.1013806E+00
        2   -1    0    0  501    0  0.00000000000E+00  0.00000000000E+00  0.17482346403E+04  0.17482346403E+04  0.25500000920E-02 0.  1.
       -2   -1    0    0    0  501  0.00000000000E+00  0.00000000000E+00 -0.35735732501E+02  0.35735732592E+02  0.25500000920E-02 0. -1.
    10030    2    1    2    0    0  0.00000000000E+00  0.00000000000E+00  0.17124989078E+04  0.17839703729E+04  0.49989777170E+03 0.  0.
        4    1    3    3  502    0 -0.14859971042E+03 -0.12402708052E+03  0.29190011796E+03  0.35024546022E+03  0.12699999809E+01 0. -1.
       -4    1    3    3    0  502  0.14859971042E+03  0.12402708052E+03  0.14205987898E+04  0.14337249127E+04  0.12699999809E+01 0.  1.
</event>
<event>
 5   0  0.1209831E-02  0.4998543E+03  0.7818609E-02  0.1013817E+00
        1   -1    0    0  501    0  0.00000000000E+00  0.00000000000E+00  0.20241050226E+04  0.20241050226E+04  0.50400001928E-02 0.  1.
       -1   -1    0    0    0  501  0.00000000000E+00  0.00000000000E+00 -0.30859854328E+02  0.30859854739E+02  0.50400001928E-02 0. -1.
    10030    2    1    2    0    0  0.00000000000E+00  0.00000000000E+00  0.19932451683E+04  0.20549648774E+04  0.49985432506E+03 0.  0.
        4    1    3    3  502    0  0.18588984370E+03 -0.15694173567E+03  0.76130833512E+03  0.79923572017E+03  0.12699999809E+01 0. -1.
       -4    1    3    3    0  502 -0.18588984370E+03  0.15694173567E+03  0.12319368332E+04  0.12557291572E+04  0.12699999809E+01 0.  1.
</event>
<event>
 5   0  0.1217270E-02  0.4993655E+03  0.7818609E-02  0.1013945E+00
        1   -1    0    0  501    0  0.00000000000E+00  0.00000000000E+00  0.85840218146E+03  0.85840218148E+03  0.50400001928E-02 0. -1.
       -1   -1    0    0    0  501  0.00000000000E+00  0.00000000000E+00 -0.72625011362E+02  0.72625011537E+02  0.50400001928E-02 0.  1.
    10030    2    1    2    0    0  0.00000000000E+00  0.00000000000E+00  0.78577717010E+03  0.93102719302E+03  0.49936547045E+03 0.  0.
        2    1    3    3  502    0 -0.14068198085E+03 -0.58411500463E+01  0.84564390561E+01  0.14105690390E+03  0.25500000920E-02 0.  1.
       -2    1    3    3    0  502  0.14068198085E+03  0.58411500463E+01  0.77732073104E+03  0.78997028912E+03  0.25500000920E-02 0. -1.
</event>
<event>
 5   0  0.1217270E-02  0.4964179E+03  0.7818609E-02  0.1014718E+00
        1   -1    0    0  501    0  0.00000000000E+00  0.00000000000E+00  0.31323198815E+03  0.31323198819E+03  0.50400001928E-02 0. -1.
       -1   -1    0    0    0  501  0.00000000000E+00  0.00000000000E+00 -0.19668386666E+03  0.19668386673E+03  0.50400001928E-02 0.  1.
    10030    2    1    2    0    0  0.00000000000E+00  0.00000000000E+00  0.11654812149E+03  0.50991585492E+03  0.49641788291E+03 0.  0.
        2    1    3    3  502    0 -0.85763641861E+02 -0.62828406026E+02 -0.17211194930E+03  0.20230010867E+03  0.25500000920E-02 0.  1.
       -2    1    3    3    0  502  0.85763641861E+02  0.62828406026E+02  0.28866007079E+03  0.30761574625E+03  0.25500000920E-02 0. -1.
</event>
<event>
 5   0  0.1982847E-02  0.5091524E+03  0.7818609E-02  0.1011417E+00
       -2   -1    0    0    0  501  0.00000000000E+00  0.00000000000E+00  0.29685005285E+02  0.29685005395E+02  0.25500000920E-02 0.  1.
        2   -1    0    0  501    0  0.00000000000E+00  0.00000000000E+00 -0.21832248549E+04  0.21832248549E+04  0.25500000920E-02 0. -1.
    10030    2    1    2    0    0  0.00000000000E+00  0.00000000000E+00 -0.21535398496E+04  0.22129098603E+04  0.50915239950E+03 0.  0.
        2    1    3    3  502    0  0.12886050387E+03 -0.16902809818E+03 -0.16857666367E+04  0.16991129100E+04  0.25500000920E-02 0.  1.
       -2    1    3    3    0  502 -0.12886050387E+03  0.16902809818E+03 -0.46777321292E+03  0.51379695032E+03  0.25500000920E-02 0. -1.
</event>
<event>
 5   0  0.1209831E-02  0.5000235E+03  0.7818609E-02  0.1013773E+00
        1   -1    0    0  501    0  0.00000000000E+00  0.00000000000E+00  0.13616248357E+03  0.13616248366E+03  0.50400001928E-02 0. -1.
       -1   -1    0    0    0  501  0.00000000000E+00  0.00000000000E+00 -0.45905359430E+03  0.45905359433E+03  0.50400001928E-02 0.  1.
    10030    2    1    2    0    0  0.00000000000E+00  0.00000000000E+00 -0.32289111073E+03  0.59521607799E+03  0.50002350956E+03 0.  0.
        4    1    3    3  502    0  0.23388996360E+03  0.12894375305E+02 -0.26544850295E+03  0.35402725969E+03  0.12699999809E+01 0.  1.
       -4    1    3    3    0  502 -0.23388996360E+03 -0.12894375305E+02 -0.57442607781E+02  0.24118881830E+03  0.12699999809E+01 0. -1.
</event>
<event>
 5   0  0.1217270E-02  0.5003538E+03  0.7818609E-02  0.1013687E+00
        1   -1    0    0  501    0  0.00000000000E+00  0.00000000000E+00  0.36482119168E+03  0.36482119172E+03  0.50400001928E-02 0. -1.
       -1   -1    0    0    0  501  0.00000000000E+00  0.00000000000E+00 -0.17155935737E+03  0.17155935744E+03  0.50400001928E-02 0.  1.
    10030    2    1    2    0    0  0.00000000000E+00  0.00000000000E+00  0.19326183431E+03  0.53638054916E+03  0.50035383172E+03 0.  0.
        2    1    3    3  502    0 -0.28614804142E+02  0.14912137973E+03 -0.11651298390E+03  0.19139296835E+03  0.25500000920E-02 0.  1.
       -2    1    3    3    0  502  0.28614804142E+02 -0.14912137973E+03  0.30977481821E+03  0.34498758081E+03  0.25500000920E-02 0. -1.
</event>
<event>
 5   0  0.1225989E-02  0.5000208E+03  0.7818609E-02  0.1013773E+00
        1   -1    0    0  501    0  0.00000000000E+00  0.00000000000E+00  0.39197954985E+03  0.39197954988E+03  0.50400001928E-02 0.  1.
       -1   -1    0    0    0  501  0.00000000000E+00  0.00000000000E+00 -0.15946033874E+03  0.15946033882E+03  0.50400001928E-02 0. -1.
    10030    2    1    2    0    0  0.00000000000E+00  0.00000000000E+00  0.23251921110E+03  0.55143988870E+03  0.50002076689E+03 0.  0.
        3    1    3    3  502    0 -0.83694958253E+02  0.13455313911E+03 -0.97006325255E+02  0.18579459255E+03  0.10100000352E+00 0. -1.
       -3    1    3    3    0  502  0.83694958253E+02 -0.13455313911E+03  0.32952553636E+03  0.36564529615E+03  0.10100000352E+00 0.  1.
</event>
<event>
 5   0  0.1209831E-02  0.5008408E+03  0.7818609E-02  0.1013560E+00
        1   -1    0    0  501    0  0.00000000000E+00  0.00000000000E+00  0.10196290668E+04  0.10196290668E+04  0.50400001928E-02 0.  1.
       -1   -1    0    0    0  501  0.00000000000E+00  0.00000000000E+00 -0.61503124562E+02  0.61503124768E+02  0.50400001928E-02 0. -1.
    10030    2    1    2    0    0  0.00000000000E+00  0.00000000000E+00  0.95812594227E+03  0.10811321916E+04  0.50084078757E+03 0.  0.
        4    1    3    3  502    0  0.50961242153E+02  0.73600272991E+02  0.98390067233E+03  0.98796568478E+03  0.12699999809E+01 0.  1.
       -4    1    3    3    0  502 -0.50961242153E+02 -0.73600272991E+02 -0.25774730061E+02  0.93166506835E+02  0.12699999809E+01 0. -1.
</event>
<event>
 5   0  0.1941387E-02  0.5006235E+03  0.7818609E-02  0.1013616E+00
        2   -1    0    0  501    0  0.00000000000E+00  0.00000000000E+00  0.60456669835E+03  0.60456669835E+03  0.25500000920E-02 0. -1.
       -2   -1    0    0    0  501  0.00000000000E+00  0.00000000000E+00 -0.10363780726E+03  0.10363780729E+03  0.25500000920E-02 0.  1.
    10030    2    1    2    0    0  0.00000000000E+00  0.00000000000E+00  0.50092889109E+03  0.70820450564E+03  0.50062347916E+03 0.  0.
        4    1    3    3  502    0 -0.50023237011E+01  0.21873844214E+03  0.42246355000E+03  0.47576106744E+03  0.12699999809E+01 0. -1.
       -4    1    3    3    0  502  0.50023237011E+01 -0.21873844214E+03  0.78465341087E+02  0.23244343821E+03  0.12699999809E+01 0.  1.
</event>
<event>
 5   0  0.1982847E-02  0.5007007E+03  0.7818609E-02  0.1013596E+00
       -2   -1    0    0    0  501  0.00000000000E+00  0.00000000000E+00  0.12051512906E+03  0.12051512909E+03  0.25500000920E-02 0. -1.
        2   -1    0    0  501    0  0.00000000000E+00  0.00000000000E+00 -0.52006159852E+03  0.52006159853E+03  0.25500000920E-02 0.  1.
    10030    2    1    2    0    0  0.00000000000E+00  0.00000000000E+00 -0.39954646946E+03  0.64057672761E+03  0.50070067176E+03 0.  0.
        2    1    3    3  502    0 -0.16425031127E+03 -0.10185150847E+03 -0.40336206958E+03  0.44727268384E+03  0.25500000920E-02 0.  1.
       -2    1    3    3    0  502  0.16425031127E+03  0.10185150847E+03  0.38156001213E+01  0.19330404377E+03  0.25500000920E-02 0. -1.
</event>
<event>
 5   0  0.1967813E-02  0.4997803E+03  0.7818609E-02  0.1013836E+00
        2   -1    0    0  501    0  0.00000000000E+00  0.00000000000E+00  0.20549688198E+04  0.20549688198E+04  0.25500000920E-02 0.  1.
       -2   -1    0    0    0  501  0.00000000000E+00  0.00000000000E+00 -0.30387359711E+02  0.30387359818E+02  0.25500000920E-02 0. -1.
    10030    2    1    2    0    0  0.00000000000E+00  0.00000000000E+00  0.20245814601E+04  0.20853561796E+04  0.49978025905E+03 0.  0.
        5    1    3    3  502    0 -0.15052737263E+02 -0.59757680544E+02  0.20051953806E+01  0.61835880279E+02  0.46999998093E+01 0. -1.
       -5    1    3    3    0  502  0.15052737263E+02  0.59757680544E+02  0.20225762647E+04  0.20235202993E+04  0.46999998093E+01 0.  1.
</event>
<event>
 5   0  0.1923706E-02  0.5001478E+03  0.7818609E-02  0.1013740E+00
       -2   -1    0    0    0  501  0.00000000000E+00  0.00000000000E+00  0.17335721454E+03  0.17335721456E+03  0.25500000920E-02 0. -1.
        2   -1    0    0  501    0  0.00000000000E+00  0.00000000000E+00 -0.36074042542E+03  0.36074042543E+03  0.25500000920E-02 0.  1.
    10030    2    1    2    0    0  0.00000000000E+00  0.00000000000E+00 -0.18738321087E+03  0.53409763999E+03  0.50014779948E+03 0.  0.
        3    1    3    3  502    0 -0.75538030073E+02 -0.77259050694E+02 -0.33452625577E+03  0.35154342677E+03  0.10100000352E+00 0.  1.
       -3    1    3    3    0  502  0.75538030073E+02  0.77259050694E+02  0.14714304490E+03  0.18255421322E+03  0.10100000352E+00 0. -1.
</event>
<event>
 5   0  0.1855407E-02  0.5007044E+03  0.7818609E-02  0.1013595E+00
       -2   -1    0    0    0  501  0.00000000000E+00  0.00000000000E+00  0.10306070541E+03  0.10306070545E+03  0.25500000920E-02 0. -1.
        2   -1    0    0  501    0  0.00000000000E+00  0.00000000000E+00 -0.60814860267E+03  0.60814860268E+03  0.25500000920E-02 0.  1.
    10030    2    1    2    0    0  0.00000000000E+00  0.00000000000E+00 -0.50508789726E+03  0.71120930812E+03  0.50070439982E+03 0.  0.
        1    1    3    3  502    0 -0.20971224434E+03  0.78195622436E+02 -0.41187429975E+03  0.46875816752E+03  0.50400001928E-02 0.  1.
       -1    1    3    3    0  502  0.20971224434E+03 -0.78195622436E+02 -0.93213597506E+02  0.24245114060E+03  0.50400001928E-02 0. -1.
</event>
<event>
 5   0  0.1225989E-02  0.4996877E+03  0.7818609E-02  0.1013860E+00
       -1   -1    0    0    0  501  0.00000000000E+00  0.00000000000E+00  0.88807759665E+02  0.88807759808E+02  0.50400001928E-02 0. -1.
        1   -1    0    0  501    0  0.00000000000E+00  0.00000000000E+00 -0.70288839153E+03  0.70288839155E+03  0.50400001928E-02 0.  1.
    10030    2    1    2    0    0  0.00000000000E+00  0.00000000000E+00 -0.61408063186E+03  0.79169615135E+03  0.49968767609E+03 0.  0.
        3    1    3    3  502    0 -0.26239567510E+02  0.14717021207E+03  0.10130429103E+02  0.14983398152E+03  0.10100000352E+00 0. -1.
       -3    1    3    3    0  502  0.26239567510E+02 -0.14717021207E+03 -0.62421106097E+03  0.64186216983E+03  0.10100000352E+00 0.  1.
</event>
<event>
 5   0  0.1180937E-02  0.5001916E+03  0.7818609E-02  0.1013729E+00
       -1   -1    0    0    0  501  0.00000000000E+00  0.00000000000E+00  0.60943597509E+02  0.60943597718E+02  0.50400001928E-02 0. -1.
        1   -1    0    0  501    0  0.00000000000E+00  0.00000000000E+00 -0.10263244127E+04  0.10263244127E+04  0.50400001928E-02 0.  1.
    10030    2    1    2    0    0  0.00000000000E+00  0.00000000000E+00 -0.96538081521E+03  0.10872680105E+04  0.50019157147E+03 0.  0.
        1    1    3    3  502    0  0.11183776879E+03  0.96395980464E+02 -0.92147720539E+03  0.93323100659E+03  0.50400001928E-02 0.  1.
       -1    1    3    3    0  502 -0.11183776879E+03 -0.96395980464E+02 -0.43903609820E+02  0.15403700386E+03  0.50400001928E-02 0. -1.
</event>
<event>
 5   0  0.1923706E-02  0.4995047E+03  0.7818609E-02  0.1013908E+00
        2   -1    0    0  501    0  0.00000000000E+00  0.00000000000E+00  0.85905460948E+03  0.85905460948E+03  0.25500000920E-02 0.  1.
       -2   -1    0    0    0  501  0.00000000000E+00  0.00000000000E+00 -0.72610334261E+02  0.72610334305E+02  0.25500000920E-02 0. -1.
    10030    2    1    2    0    0  0.00000000000E+00  0.00000000000E+00  0.78644427521E+03  0.93166494378E+03  0.49950472416E+03 0.  0.
        3    1    3    3  502    0  0.24769605896E+03 -0.28995602187E+02  0.41839509609E+03  0.48708166585E+03  0.10100000352E+00 0.  1.
       -3    1    3    3    0  502 -0.24769605896E+03  0.28995602187E+02  0.36804917912E+03  0.44458327794E+03  0.10100000352E+00 0. -1.
</event>
<event>
 5   0  0.1217270E-02  0.4998982E+03  0.7818609E-02  0.1013805E+00
        1   -1    0    0  501    0  0.00000000000E+00  0.00000000000E+00  0.36073088500E+03  0.36073088503E+03  0.50400001928E-02 0. -1.
       -1   -1    0    0    0  501  0.00000000000E+00  0.00000000000E+00 -0.17318880046E+03  0.17318880053E+03  0.50400001928E-02 0.  1.
    10030    2    1    2    0    0  0.00000000000E+00  0.00000000000E+00  0.18754208454E+03  0.53391968556E+03  0.49989818679E+03 0.  0.
        2    1    3    3  502    0 -0.14202554533E+03 -0.13109902143E+03 -0.75496056970E+02  0.20750388809E+03  0.25500000920E-02 0.  1.
       -2    1    3    3    0  502  0.14202554533E+03  0.13109902143E+03  0.26303814151E+03  0.32641579748E+03  0.25500000920E-02 0. -1.
</event>
<event>
 5   0  0.1855407E-02  0.5034952E+03  0.7818609E-02  0.1012871E+00
        2   -1    0    0  501    0  0.00000000000E+00  0.00000000000E+00  0.47960529828E+03  0.47960529829E+03  0.25500000920E-02 0. -1.
       -2   -1    0    0    0  501  0.00000000000E+00  0.00000000000E+00 -0.13214378239E+03  0.13214378241E+03  0.25500000920E-02 0.  1.
    10030    2    1    2    0    0  0.00000000000E+00  0.00000000000E+00  0.34746151590E+03  0.61174908070E+03  0.50349521617E+03 0.  0.
        1    1    3    3  502    0  0.23145129284E+03  0.98630233380E+02  0.18454595596E+03  0.31201736135E+03  0.50400001928E-02 0.  1.
       -1    1    3    3    0  502 -0.23145129284E+03 -0.98630233380E+02  0.16291555993E+03  0.29973171936E+03  0.50400001928E-02 0. -1.
</event>
<event>
 5   0  0.8012875E-03  0.4998981E+03  0.7818609E-02  0.1013806E+00
       -3   -1    0    0    0  501  0.00000000000E+00  0.00000000000E+00  0.13989314348E+03  0.13989317994E+03  0.10100000352E+00 0. -1.
        3   -1    0    0  501    0  0.00000000000E+00  0.00000000000E+00 -0.44658737155E+03  0.44658738297E+03  0.10100000352E+00 0.  1.
    10030    2    1    2    0    0  0.00000000000E+00  0.00000000000E+00 -0.30669422807E+03  0.58648056291E+03  0.49989809076E+03 0.  0.
        4    1    3    3  502    0  0.49684185299E+02  0.38741555743E+02  0.13042062349E+03  0.14484674088E+03  0.12699999809E+01 0. -1.
       -4    1    3    3    0  502 -0.49684185299E+02 -0.38741555743E+02 -0.43711485156E+03  0.44163382203E+03  0.12699999809E+01 0.  1.
</event>
<event>
 5   0  0.1923706E-02  0.5000528E+03  0.7818609E-02  0.1013765E+00
       -2   -1    0    0    0  501  0.00000000000E+00  0.00000000000E+00  0.83277849883E+02  0.83277849922E+02  0.25500000920E-02 0.  1.
        2   -1    0    0  501    0  0.00000000000E+00  0.00000000000E+00 -0.75065815465E+03  0.75065815466E+03  0.25500000920E-02 0. -1.
    10030    2    1    2    0    0  0.00000000000E+00  0.00000000000E+00 -0.66738030477E+03  0.83393600458E+03  0.50005278575E+03 0.  0.
        3    1    3    3  502    0 -0.33542294793E+02  0.22202802150E+03 -0.51707346782E+03  0.56372556195E+03  0.10100000352E+00 0. -1.
       -3    1    3    3    0  502  0.33542294793E+02 -0.22202802150E+03 -0.15030683695E+03  0.27021044263E+03  0.10100000352E+00 0.  1.
</event>
<event>
 5   0  0.8012875E-03  0.4992657E+03  0.7818609E-02  0.1013971E+00
       -3   -1    0    0    0  501  0.00000000000E+00  0.00000000000E+00  0.28641656069E+03  0.28641657850E+03  0.10100000352E+00 0. -1.
        3   -1    0    0  501    0  0.00000000000E+00  0.00000000000E+00 -0.21757315747E+03  0.21757318091E+03  0.10100000352E+00 0.  1.
    10030    2    1    2    0    0  0.00000000000E+00  0.00000000000E+00  0.68843403223E+02  0.50398975942E+03  0.49926572427E+03 0.  0.
        2    1    3    3  502    0  0.19782124715E+03 -0.15203821469E+03  0.26115767741E+02  0.25086031548E+03  0.25500000920E-02 0. -1.
       -2    1    3    3    0  502 -0.19782124715E+03  0.15203821469E+03  0.42727635482E+02  0.25312944394E+03  0.25500000920E-02 0.  1.
</event>
<event>
 5   0  0.1180937E-02  0.5015542E+03  0.7818609E-02  0.1013374E+00
       -1   -1    0    0    0  501  0.00000000000E+00  0.00000000000E+00  0.30468440980E+03  0.30468440984E+03  0.50400001928E-02 0. -1.
        1   -1    0    0  501    0  0.00000000000E+00  0.00000000000E+00 -0.20640754067E+03  0.20640754073E+03  0.50400001928E-02 0.  1.
    10030    2    1    2    0    0  0.00000000000E+00  0.00000000000E+00  0.98276869134E+02  0.51109195057E+03  0.50155422332E+03 0.  0.
        1    1    3    3  502    0 -0.15626340014E+03  0.13376791036E+02 -0.15026609061E+03  0.21720287009E+03  0.50400001928E-02 0.  1.
       -1    1    3    3    0  502  0.15626340014E+03 -0.13376791036E+02  0.24854295974E+03  0.29388908048E+03  0.50400001928E-02 0. -1.
</event>
<event>
 5   0  0.1923706E-02  0.4994419E+03  0.7818609E-02  0.1013925E+00
        2   -1    0    0  501    0  0.00000000000E+00  0.00000000000E+00  0.17335701728E+04  0.17335701728E+04  0.25500000920E-02 0.  1.
       -2   -1    0    0    0  501  0.00000000000E+00  0.00000000000E+00 -0.35972326182E+02  0.35972326273E+02  0.25500000920E-02 0. -1.
    10030    2    1    2    0    0  0.00000000000E+00  0.00000000000E+00  0.16975978466E+04  0.17695424990E+04  0.49944189571E+03 0.  0.
        3    1    3    3  502    0 -0.17590430829E+02  0.19067822145E+02  0.17287828521E+04  0.17289774912E+04  0.10100000352E+00 0.  1.
       -3    1    3    3    0  502  0.17590430829E+02 -0.19067822145E+02 -0.31185005477E+02  0.40565007897E+02  0.10100000352E+00 0. -1.
</event>
<event>
 5   0  0.1855407E-02  0.5002335E+03  0.7818609E-02  0.1013718E+00
        2   -1    0    0  501    0  0.00000000000E+00  0.00000000000E+00  0.25050892886E+03  0.25050892888E+03  0.25500000920E-02 0. -1.
       -2   -1    0    0    0  501  0.00000000000E+00  0.00000000000E+00 -0.24972518670E+03  0.24972518671E+03  0.25500000920E-02 0.  1.
    10030    2    1    2    0    0  0.00000000000E+00  0.00000000000E+00  0.78374216395E+00  0.50023411559E+03  0.50023350162E+03 0.  0.
        1    1    3    3  502    0 -0.12617166467E+03 -0.48936808425E+02  0.21073539353E+03  0.25044661366E+03  0.50400001928E-02 0. -1.
       -1    1    3    3    0  502  0.12617166467E+03  0.48936808425E+02 -0.20995165136E+03  0.24978750193E+03  0.50400001928E-02 0.  1.
</event>
<event>
 5   0  0.1217270E-02  0.5008783E+03  0.7818609E-02  0.1013550E+00
       -1   -1    0    0    0  501  0.00000000000E+00  0.00000000000E+00  0.24965647953E+03  0.24965647958E+03  0.50400001928E-02 0. -1.
        1   -1    0    0  501    0  0.00000000000E+00  0.00000000000E+00 -0.25122429852E+03  0.25122429857E+03  0.50400001928E-02 0.  1.
    10030    2    1    2    0    0  0.00000000000E+00  0.00000000000E+00 -0.15678189830E+01  0.50088077815E+03  0.50087832441E+03 0.  0.
        2    1    3    3  502    0 -0.76732922415E+02  0.84921563338E+02  0.22197301369E+03  0.24974313227E+03  0.25500000920E-02 0. -1.
       -2    1    3    3    0  502  0.76732922415E+02 -0.84921563338E+02 -0.22354083267E+03  0.25113764588E+03  0.25500000920E-02 0.  1.
</event>
<event>
 5   0  0.1941387E-02  0.4995355E+03  0.7818609E-02  0.1013900E+00
       -2   -1    0    0    0  501  0.00000000000E+00  0.00000000000E+00  0.28334226286E+02  0.28334226401E+02  0.25500000920E-02 0.  1.
        2   -1    0    0  501    0  0.00000000000E+00  0.00000000000E+00 -0.22017163825E+04  0.22017163825E+04  0.25500000920E-02 0. -1.
    10030    2    1    2    0    0  0.00000000000E+00  0.00000000000E+00 -0.21733821562E+04  0.22300506089E+04  0.49953550555E+03 0.  0.
        4    1    3    3  502    0 -0.24331111761E+03  0.54949734265E+02 -0.10297751176E+04  0.10595556516E+04  0.12699999809E+01 0.  1.
       -4    1    3    3    0  502  0.24331111761E+03 -0.54949734265E+02 -0.11436070386E+04  0.11704949572E+04  0.12699999809E+01 0. -1.
</event>
<event>
 5   0  0.1982847E-02  0.5005063E+03  0.7818609E-02  0.1013647E+00
       -2   -1    0    0    0  501  0.00000000000E+00  0.00000000000E+00  0.13801372101E+03  0.13801372103E+03  0.25500000920E-02 0.  1.
        2   -1    0    0  501    0  0.00000000000E+00  0.00000000000E+00 -0.45377108122E+03  0.45377108123E+03  0.25500000920E-02 0. -1.
    10030    2    1    2    0    0  0.00000000000E+00  0.00000000000E+00 -0.31575736021E+03  0.59178480226E+03  0.50050628533E+03 0.  0.
        2    1    3    3  502    0  0.22857278132E+03 -0.49920297017E+02 -0.26289759689E+03  0.35192712154E+03  0.25500000920E-02 0. -1.
       -2    1    3    3    0  502 -0.22857278132E+03  0.49920297017E+02 -0.52859763322E+02  0.23985768072E+03  0.25500000920E-02 0.  1.
</event>
<event>
 5   0  0.1180937E-02  0.4996259E+03  0.7818609E-02  0.1013877E+00
        1   -1    0    0  501    0  0.00000000000E+00  0.00000000000E+00  0.84109794283E+03  0.84109794285E+03  0.50400001928E-02 0.  1.
       -1   -1    0    0    0  501  0.00000000000E+00  0.00000000000E+00 -0.74196482380E+02  0.74196482551E+02  0.50400001928E-02 0. -1.
    10030    2    1    2    0    0  0.00000000000E+00  0.00000000000E+00  0.76690146045E+03  0.91529442540E+03  0.49962589517E+03 0.  0.
        1    1    3    3  502    0  0.21186114304E+03  0.10009114670E+03  0.22476530799E+03  0.32468881299E+03  0.50400001928E-02 0. -1.
       -1    1    3    3    0  502 -0.21186114304E+03 -0.10009114670E+03  0.54213615246E+03  0.59060561241E+03  0.50400001928E-02 0.  1.
</event>
<event>
 5   0  0.1217270E-02  0.4998361E+03  0.7818609E-02  0.1013822E+00
        1   -1    0    0  501    0  0.00000000000E+00  0.00000000000E+00  0.52596728381E+03  0.52596728383E+03  0.50400001928E-02 0. -1.
       -1   -1    0    0    0  501  0.00000000000E+00  0.00000000000E+00 -0.11875081101E+03  0.11875081111E+03  0.50400001928E-02 0.  1.
    10030    2    1    2    0    0  0.00000000000E+00  0.00000000000E+00  0.40721647280E+03  0.64471809494E+03  0.49983613938E+03 0.  0.
        2    1    3    3  502    0  0.85940926342E+02 -0.56942740674E+02  0.49726218136E+03  0.50783658351E+03  0.25500000920E-02 0. -1.
       -2    1    3    3    0  502 -0.85940926342E+02  0.56942740674E+02 -0.90045708557E+02  0.13688151143E+03  0.25500000920E-02 0.  1.
</event>
<event>
 5   0  0.1227864E-02  0.4992819E+03  0.7818609E-02  0.1013967E+00
       -1   -1    0    0    0  501  0.00000000000E+00  0.00000000000E+00  0.25334513327E+03  0.25334513332E+03  0.50400001928E-02 0.  1.
        1   -1    0    0  501    0  0.00000000000E+00  0.00000000000E+00 -0.24599091084E+03  0.24599091089E+03  0.50400001928E-02 0. -1.
    10030    2    1    2    0    0  0.00000000000E+00  0.00000000000E+00  0.73542224283E+01  0.49933604422E+03  0.49928188478E+03 0.  0.
        5    1    3    3  502    0 -0.45696730147E+02 -0.36238433901E+02 -0.23903645095E+03  0.24609333620E+03  0.46999998093E+01 0. -1.
       -5    1    3    3    0  502  0.45696730147E+02  0.36238433901E+02  0.24639067338E+03  0.25324270802E+03  0.46999998093E+01 0.  1.
</event>
<event>
 5   0  0.1209831E-02  0.5005507E+03  0.7818609E-02  0.1013635E+00
        1   -1    0    0  501    0  0.00000000000E+00  0.00000000000E+00  0.47146538243E+03  0.47146538245E+03  0.50400001928E-02 0. -1.
       -1   -1    0    0    0  501  0.00000000000E+00  0.00000000000E+00 -0.13285759456E+03  0.13285759465E+03  0.50400001928E-02 0.  1.
    10030    2    1    2    0    0  0.00000000000E+00  0.00000000000E+00  0.33860778787E+03  0.60432297711E+03  0.50055072335E+03 0.  0.
        4    1    3    3  502    0 -0.21177107776E+03  0.41380444424E+02  0.32238479030E+03  0.38793413935E+03  0.12699999809E+01 0. -1.
       -4    1    3    3    0  502  0.21177107776E+03 -0.41380444424E+02  0.16222997574E+02  0.21638883776E+03  0.12699999809E+01 0.  1.
</event>
<event>
 5   0  0.1180937E-02  0.4980659E+03  0.7818609E-02  0.1014285E+00
        1   -1    0    0  501    0  0.00000000000E+00  0.00000000000E+00  0.13217706949E+04  0.13217706949E+04  0.50400001928E-02 0.  1.
       -1   -1    0    0    0  501  0.00000000000E+00  0.00000000000E+00 -0.46919943373E+02  0.46919943644E+02  0.50400001928E-02 0. -1.
    10030    2    1    2    0    0  0.00000000000E+00  0.00000000000E+00  0.12748507515E+04  0.13686906386E+04  0.49806588460E+03 0.  0.
        1    1    3    3  502    0  0.19611057770E+03 -0.14956025453E+03  0.73221295906E+03  0.77263409572E+03  0.50400001928E-02 0.  1.
       -1    1    3    3    0  502 -0.19611057770E+03  0.14956025453E+03  0.54263779247E+03  0.59605654284E+03  0.50400001928E-02 0. -1.
</event>
<event>
 5   0  0.1967813E-02  0.4996751E+03  0.7818609E-02  0.1013864E+00
       -2   -1    0    0    0  501  0.00000000000E+00  0.00000000000E+00  0.18111309264E+03  0.18111309266E+03  0.25500000920E-02 0.  1.
        2   -1    0    0  501    0  0.00000000000E+00  0.00000000000E+00 -0.34463990390E+03  0.34463990391E+03  0.25500000920E-02 0. -1.
    10030    2    1    2    0    0  0.00000000000E+00  0.00000000000E+00 -0.16352681126E+03  0.52575299656E+03  0.49967508983E+03 0.  0.
        5    1    3    3  502    0 -0.44055680972E+02  0.58798166675E+02 -0.33296713404E+03  0.34100928107E+03  0.46999998093E+01 0. -1.
       -5    1    3    3    0  502  0.44055680972E+02 -0.58798166675E+02  0.16944032278E+03  0.18474371549E+03  0.46999998093E+01 0.  1.
</event>
<event>
 5   0  0.1209831E-02  0.5042300E+03  0.7818609E-02  0.1012681E+00
       -1   -1    0    0    0  501  0.00000000000E+00  0.00000000000E+00  0.95053398480E+02  0.95053398614E+02  0.50400001928E-02 0. -1.
        1   -1    0    0  501    0  0.00000000000E+00  0.00000000000E+00 -0.66869755627E+03  0.66869755629E+03  0.50400001928E-02 0.  1.
    10030    2    1    2    0    0  0.00000000000E+00  0.00000000000E+00 -0.57364415779E+03  0.76375095491E+03  0.50423000838E+03 0.  0.
        4    1    3    3  502    0 -0.20418877501E+03  0.14183231268E+03 -0.22344182752E+03  0.33427133282E+03  0.12699999809E+01 0. -1.
       -4    1    3    3    0  502  0.20418877501E+03 -0.14183231268E+03 -0.35020233028E+03  0.42947962209E+03  0.12699999809E+01 0.  1.
</event>
<event>
 5   0  0.1967813E-02  0.5007697E+03  0.7818609E-02  0.1013578E+00
       -2   -1    0    0    0  501  0.00000000000E+00  0.00000000000E+00  0.18154672397E+03  0.18154672399E+03  0.25500000920E-02 0.  1.
        2   -1    0    0  501    0  0.00000000000E+00  0.00000000000E+00 -0.34532478042E+03  0.34532478043E+03  0.25500000920E-02 0. -1.
    10030    2    1    2    0    0  0.00000000000E+00  0.00000000000E+00 -0.16377805645E+03  0.52687150442E+03  0.50076973790E+03 0.  0.
        5    1    3    3  502    0 -0.71673842469E+01 -0.19924246737E+03  0.77401049487E+02  0.21392041665E+03  0.46999998093E+01 0.  1.
       -5    1    3    3    0  502  0.71673842469E+01  0.19924246737E+03 -0.24117910594E+03  0.31295108777E+03  0.46999998093E+01 0. -1.
</event>
<event>
 5   0  0.1923706E-02  0.5005808E+03  0.7818609E-02  0.1013627E+00
       -2   -1    0    0    0  501  0.00000000000E+00  0.00000000000E+00  0.10141151452E+03  0.10141151455E+03  0.25500000920E-02 0. -1.
        2   -1    0    0  501    0  0.00000000000E+00  0.00000000000E+00 -0.61773353402E+03  0.61773353403E+03  0.25500000920E-02 0.  1.
    10030    2    1    2    0    0  0.00000000000E+00  0.00000000000E+00 -0.51632201951E+03  0.71914504858E+03  0.50058083569E+03 0.  0.
        3    1    3    3  502    0  0.17276437504E+03 -0.86966416146E+02 -0.48637404954E+03  0.52342183093E+03  0.10100000352E+00 0.  1.
       -3    1    3    3    0  502 -0.17276437504E+03  0.86966416146E+02 -0.29947969964E+02  0.19572321765E+03  0.10100000352E+00 0. -1.
</event>
<event>
 5   0  0.1923706E-02  0.5002104E+03  0.7818609E-02  0.1013724E+00
       -2   -1    0    0    0  501  0.00000000000E+00  0.00000000000E+00  0.28467847511E+03  0.28467847512E+03  0.25500000920E-02 0. -1.
        2   -1    0    0  501    0  0.00000000000E+00  0.00000000000E+00 -0.21973071960E+03  0.21973071962E+03  0.25500000920E-02 0.  1.
    10030    2    1    2    0    0  0.00000000000E+00  0.00000000000E+00  0.64947755506E+02  0.50440919474E+03  0.50021038053E+03 0.  0.
        3    1    3    3  502    0  0.21120080340E+03 -0.12425590487E+03  0.82967008211E+02  0.25870609561E+03  0.10100000352E+00 0. -1.
       -3    1    3    3    0  502 -0.21120080340E+03  0.12425590487E+03 -0.18019252705E+02  0.24570309913E+03  0.10100000352E+00 0.  1.
</event>
<event>
 5   0  0.1227864E-02  0.4997854E+03  0.7818609E-02  0.1013835E+00
        1   -1    0    0  501    0  0.00000000000E+00  0.00000000000E+00  0.10951021923E+03  0.10951021934E+03  0.50400001928E-02 0. -1.
       -1   -1    0    0    0  501  0.00000000000E+00  0.00000000000E+00 -0.57023311772E+03  0.57023311774E+03  0.50400001928E-02 0.  1.
    10030    2    1    2    0    0  0.00000000000E+00  0.00000000000E+00 -0.46072289849E+03  0.67974333709E+03  0.49978536905E+03 0.  0.
        5    1    3    3  502    0 -0.24600809586E+03  0.93343827457E+01 -0.28833858987E+03  0.37916796586E+03  0.46999998093E+01 0.  1.
       -5    1    3    3    0  502  0.24600809586E+03 -0.93343827457E+01 -0.17238430863E+03  0.30057537123E+03  0.46999998093E+01 0. -1.
</event>
<event>
 5   0  0.1967813E-02  0.5121277E+03  0.7818609E-02  0.1010661E+00
       -2   -1    0    0    0  501  0.00000000000E+00  0.00000000000E+00  0.12224937212E+03  0.12224937215E+03  0.25500000920E-02 0. -1.
        2   -1    0    0  501    0  0.00000000000E+00  0.00000000000E+00 -0.53635201366E+03  0.53635201366E+03  0.25500000920E-02 0.  1.
    10030    2    1    2    0    0  0.00000000000E+00  0.00000000000E+00 -0.41410264154E+03  0.65860138581E+03  0.51212770640E+03 0.  0.
        5    1    3    3  502    0  0.23837726001E+03  0.93257257822E+02 -0.21360526645E+03  0.33342155611E+03  0.46999998093E+01 0. -1.
       -5    1    3    3    0  502 -0.23837726001E+03 -0.93257257822E+02 -0.20049737509E+03  0.32517982970E+03  0.46999998093E+01 0.  1.
</event>
<event>
 5   0  0.1923706E-02  0.4908504E+03  0.7818609E-02  0.1016195E+00
       -2   -1    0    0    0  501  0.00000000000E+00  0.00000000000E+00  0.16742054794E+03  0.16742054795E+03  0.25500000920E-02 0. -1.
        2   -1    0    0  501    0  0.00000000000E+00  0.00000000000E+00 -0.35977374973E+03  0.35977374974E+03  0.25500000920E-02 0.  1.
    10030    2    1    2    0    0  0.00000000000E+00  0.00000000000E+00 -0.19235320179E+03  0.52719429769E+03  0.49085035732E+03 0.  0.
        3    1    3    3  502    0  0.95299400449E+01 -0.67556701934E+02 -0.34938382894E+03  0.35598286175E+03  0.10100000352E+00 0.  1.
       -3    1    3    3    0  502 -0.95299400449E+01  0.67556701934E+02  0.15703062715E+03  0.17121143594E+03  0.10100000352E+00 0. -1.
</event>
<event>
 5   0  0.1180937E-02  0.5004355E+03  0.7818609E-02  0.1013665E+00
       -1   -1    0    0    0  501  0.00000000000E+00  0.00000000000E+00  0.45435347483E+02  0.45435347763E+02  0.50400001928E-02 0. -1.
        1   -1    0    0  501    0  0.00000000000E+00  0.00000000000E+00 -0.13779783242E+04  0.13779783242E+04  0.50400001928E-02 0.  1.
    10030    2    1    2    0    0  0.00000000000E+00  0.00000000000E+00 -0.13325429767E+04  0.14234136720E+04  0.50043550709E+03 0.  0.
        1    1    3    3  502    0 -0.37184607770E+02 -0.63589788405E+02  0.13894394373E+02  0.74962727171E+02  0.50400001928E-02 0. -1.
       -1    1    3    3    0  502  0.37184607770E+02  0.63589788405E+02 -0.13464373711E+04  0.13484509448E+04  0.50400001928E-02 0.  1.
</event>
<event>
 5   0  0.1225989E-02  0.5013233E+03  0.7818609E-02  0.1013434E+00
        1   -1    0    0  501    0  0.00000000000E+00  0.00000000000E+00  0.15686474778E+03  0.15686474786E+03  0.50400001928E-02 0.  1.
       -1   -1    0    0    0  501  0.00000000000E+00  0.00000000000E+00 -0.40054415077E+03  0.40054415080E+03  0.50400001928E-02 0. -1.
    10030    2    1    2    0    0  0.00000000000E+00  0.00000000000E+00 -0.24367940299E+03  0.55740889866E+03  0.50132327781E+03 0.  0.
        3    1    3    3  502    0  0.44969438360E+02  0.72258628077E+01  0.15222519600E+03  0.15889299537E+03  0.10100000352E+00 0.  1.
       -3    1    3    3    0  502 -0.44969438360E+02 -0.72258628077E+01 -0.39590459899E+03  0.39851590330E+03  0.10100000352E+00 0. -1.
</event>
<event>
 5   0  0.1217270E-02  0.4997690E+03  0.7818609E-02  0.1013839E+00
       -1   -1    0    0    0  501  0.00000000000E+00  0.00000000000E+00  0.10280415367E+03  0.10280415380E+03  0.50400001928E-02 0.  1.
        1   -1    0    0  501    0  0.00000000000E+00  0.00000000000E+00 -0.60739057547E+03  0.60739057549E+03  0.50400001928E-02 0. -1.
    10030    2    1    2    0    0  0.00000000000E+00  0.00000000000E+00 -0.50458642180E+03  0.71019472929E+03  0.49976904310E+03 0.  0.
        2    1    3    3  502    0  0.18816853458E+03  0.85484494232E+02 -0.52701879479E+02  0.21328967220E+03  0.25500000920E-02 0.  1.
       -2    1    3    3    0  502 -0.18816853458E+03 -0.85484494232E+02 -0.45188454232E+03  0.49690505708E+03  0.25500000920E-02 0. -1.
</event>
<event>
 5   0  0.8012875E-03  0.5002830E+03  0.7818609E-02  0.1013705E+00
        3   -1    0    0  501    0  0.00000000000E+00  0.00000000000E+00  0.12261326316E+03  0.12261330475E+03  0.10100000352E+00 0.  1.
       -3   -1    0    0    0  501  0.00000000000E+00  0.00000000000E+00 -0.51030987306E+03  0.51030988306E+03  0.10100000352E+00 0. -1.
    10030    2    1    2    0    0  0.00000000000E+00  0.00000000000E+00 -0.38769660991E+03  0.63292318781E+03  0.50028302024E+03 0.  0.
        2    1    3    3  502    0  0.27008568286E+02  0.24865549135E+03 -0.18951000761E+03  0.31380417322E+03  0.25500000920E-02 0. -1.
       -2    1    3    3    0  502 -0.27008568286E+02 -0.24865549135E+03 -0.19818660230E+03  0.31911901459E+03  0.25500000920E-02 0.  1.
</event>
<event>
 5   0  0.1855407E-02  0.5004733E+03  0.7818609E-02  0.1013655E+00
       -2   -1    0    0    0  501  0.00000000000E+00  0.00000000000E+00  0.16285856491E+03  0.16285856493E+03  0.25500000920E-02 0.  1.
        2   -1    0    0  501    0  0.00000000000E+00  0.00000000000E+00 -0.38449546001E+03  0.38449546002E+03  0.25500000920E-02 0. -1.
    10030    2    1    2    0    0  0.00000000000E+00  0.00000000000E+00 -0.22163689511E+03  0.54735402495E+03  0.50047329135E+03 0.  0.
        1    1    3    3  502    0 -0.48680633582E+02 -0.82392969579E+01  0.15747865788E+03  0.16503701952E+03  0.50400001928E-02 0.  1.
       -1    1    3    3    0  502  0.48680633582E+02  0.82392969579E+01 -0.37911555298E+03  0.38231700543E+03  0.50400001928E-02 0. -1.
</event>
<event>
 5   0  0.1967813E-02  0.4995489E+03  0.7818609E-02  0.1013897E+00
        2   -1    0    0  501    0  0.00000000000E+00  0.00000000000E+00  0.28872649375E+03  0.28872649377E+03  0.25500000920E-02 0. -1.
       -2   -1    0    0    0  501  0.00000000000E+00  0.00000000000E+00 -0.21607740190E+03  0.21607740192E+03  0.25500000920E-02 0.  1.
    10030    2    1    2    0    0  0.00000000000E+00  0.00000000000E+00  0.72649091851E+02  0.50480389568E+03  0.49954887904E+03 0.  0.
        5    1    3    3  502    0 -0.21102350288E+02 -0.12458635410E+03 -0.18134359230E+03  0.22107613459E+03  0.46999998093E+01 0.  1.
       -5    1    3    3    0  502  0.21102350288E+02  0.12458635410E+03  0.25399268415E+03  0.28372776110E+03  0.46999998093E+01 0. -1.
</event>
<event>
 5   0  0.1982847E-02  0.5000957E+03  0.7818609E-02  0.1013754E+00
        2   -1    0    0  501    0  0.00000000000E+00  0.00000000000E+00  0.78735078589E+03  0.78735078589E+03  0.25500000920E-02 0.  1.
       -2   -1    0    0    0  501  0.00000000000E+00  0.00000000000E+00 -0.79410521498E+02  0.79410521539E+02  0.25500000920E-02 0. -1.
    10030    2    1    2    0    0  0.00000000000E+00  0.00000000000E+00  0.70794026439E+03  0.86676130743E+03  0.50009573695E+03 0.  0.
        2    1    3    3  502    0  0.81953309210E+02 -0.14061612600E+03  0.68297839063E+03  0.70210307068E+03  0.25500000920E-02 0.  1.
       -2    1    3    3    0  502 -0.81953309210E+02  0.14061612600E+03  0.24961873760E+02  0.16465823675E+03  0.25500000920E-02 0. -1.
</event>
<event>
 5   0  0.1923706E-02  0.4995996E+03  0.7818609E-02  0.1013883E+00
        2   -1    0    0  501    0  0.00000000000E+00  0.00000000000E+00  0.36859011714E+03  0.36859011715E+03  0.25500000920E-02 0.  1.
       -2   -1    0    0    0  501  0.00000000000E+00  0.00000000000E+00 -0.16929357514E+03  0.16929357516E+03  0.25500000920E-02 0. -1.
    10030    2    1    2    0    0  0.00000000000E+00  0.00000000000E+00  0.19929654200E+03  0.53788369231E+03  0.49959959447E+03 0.  0.
        3    1    3    3  502    0 -0.16728246630E+03  0.10270934023E+03 -0.66680704872E+02  0.20731367226E+03  0.10100000352E+00 0. -1.
       -3    1    3    3    0  502  0.16728246630E+03 -0.10270934023E+03  0.26597724687E+03  0.33057002005E+03  0.10100000352E+00 0.  1.
</event>
<event>
 5   0  0.1217270E-02  0.4999831E+03  0.7818609E-02  0.1013783E+00
       -1   -1    0    0    0  501  0.00000000000E+00  0.00000000000E+00  0.54016350697E+02  0.54016350932E+02  0.50400001928E-02 0.  1.
        1   -1    0    0  501    0  0.00000000000E+00  0.00000000000E+00 -0.11569790000E+04  0.11569790000E+04  0.50400001928E-02 0. -1.
    10030    2    1    2    0    0  0.00000000000E+00  0.00000000000E+00 -0.11029626493E+04  0.12109953509E+04  0.49998313395E+03 0.  0.
        2    1    3    3  502    0  0.79353566229E+02 -0.52334025523E+02 -0.11114985360E+04  0.11155558409E+04  0.25500000920E-02 0. -1.
       -2    1    3    3    0  502 -0.79353566229E+02  0.52334025523E+02  0.85358867084E+01  0.95439510000E+02  0.25500000920E-02 0.  1.
</event>
<event>
 5   0  0.1180937E-02  0.5021706E+03  0.7818609E-02  0.1013214E+00
        1   -1    0    0  501    0  0.00000000000E+00  0.00000000000E+00  0.11500709204E+04  0.11500709204E+04  0.50400001928E-02 0. -1.
       -1   -1    0    0    0  501  0.00000000000E+00  0.00000000000E+00 -0.54817345437E+02  0.54817345669E+02  0.50400001928E-02 0.  1.
    10030    2    1    2    0    0  0.00000000000E+00  0.00000000000E+00  0.10952535749E+04  0.12048882660E+04  0.50217062863E+03 0.  0.
        1    1    3    3  502    0 -0.87362469817E+02 -0.23528506062E+03  0.53022949648E+03  0.58662984909E+03  0.50400001928E-02 0. -1.
       -1    1    3    3    0  502  0.87362469817E+02  0.23528506062E+03  0.56502407845E+03  0.61825841696E+03  0.50400001928E-02 0.  1.
</event>
<event>
 5   0  0.1923706E-02  0.4992082E+03  0.7818609E-02  0.1013986E+00
       -2   -1    0    0    0  501  0.00000000000E+00  0.00000000000E+00  0.14995075025E+03  0.14995075027E+03  0.25500000920E-02 0.  1.
        2   -1    0    0  501    0  0.00000000000E+00  0.00000000000E+00 -0.41548448020E+03  0.41548448021E+03  0.25500000920E-02 0. -1.
    10030    2    1    2    0    0  0.00000000000E+00  0.00000000000E+00 -0.26553372995E+03  0.56543523048E+03  0.49920821119E+03 0.  0.
        3    1    3    3  502    0  0.14691482465E+03 -0.80782288920E+01  0.95607480306E+02  0.17547086361E+03  0.10100000352E+00 0.  1.
       -3    1    3    3    0  502 -0.14691482465E+03  0.80782288920E+01 -0.36114121026E+03  0.38996436687E+03  0.10100000352E+00 0. -1.
</event>
<event>
 5   0  0.1967813E-02  0.4988763E+03  0.7818609E-02  0.1014073E+00
       -2   -1    0    0    0  501  0.00000000000E+00  0.00000000000E+00  0.97974699238E+02  0.97974699272E+02  0.25500000920E-02 0. -1.
        2   -1    0    0  501    0  0.00000000000E+00  0.00000000000E+00 -0.63505580608E+03  0.63505580608E+03  0.25500000920E-02 0.  1.
    10030    2    1    2    0    0  0.00000000000E+00  0.00000000000E+00 -0.53708110684E+03  0.73303050535E+03  0.49887634385E+03 0.  0.
        5    1    3    3  502    0  0.14822689514E+03  0.15194592876E+03 -0.46090108639E+03  0.50745510062E+03  0.46999998093E+01 0.  1.
       -5    1    3    3    0  502 -0.14822689514E+03 -0.15194592876E+03 -0.76180020449E+02  0.22557540474E+03  0.46999998093E+01 0. -1.
</event>
<event>
 5   0  0.1225989E-02  0.5022230E+03  0.7818609E-02  0.1013200E+00
       -1   -1    0    0    0  501  0.00000000000E+00  0.00000000000E+00  0.23652407991E+03  0.23652407996E+03  0.50400001928E-02 0.  1.
        1   -1    0    0  501    0  0.00000000000E+00  0.00000000000E+00 -0.26659861398E+03  0.26659861402E+03  0.50400001928E-02 0. -1.
    10030    2    1    2    0    0  0.00000000000E+00  0.00000000000E+00 -0.30074534070E+02  0.50312269399E+03  0.50222302576E+03 0.  0.
        3    1    3    3  502    0  0.19254550972E+03 -0.10708241122E+03  0.10566327692E+03  0.24434638201E+03  0.10100000352E+00 0.  1.
       -3    1    3    3    0  502 -0.19254550972E+03  0.10708241122E+03 -0.13573781099E+03  0.25877631198E+03  0.10100000352E+00 0. -1.
</event>
<event>
 5   0  0.1217270E-02  0.4988761E+03  0.7818609E-02  0.1014073E+00
        1   -1    0    0  501    0  0.00000000000E+00  0.00000000000E+00  0.40345282643E+03  0.40345282646E+03  0.50400001928E-02 0.  1.
       -1   -1    0    0    0  501  0.00000000000E+00  0.00000000000E+00 -0.15421713999E+03  0.15421714007E+03  0.50400001928E-02 0. -1.
    10030    2    1    2    0    0  0.00000000000E+00  0.00000000000E+00  0.24923568644E+03  0.55766996653E+03  0.49887610102E+03 0.  0.
        2    1    3    3  502    0  0.11622000948E+03  0.21712842550E+03  0.16887545283E+03  0.29861473899E+03  0.25500000920E-02 0.  1.
       -2    1    3    3    0  502 -0.11622000948E+03 -0.21712842550E+03  0.80360233609E+02  0.25905522754E+03  0.25500000920E-02 0. -1.
</event>
<event>
 5   0  0.1217270E-02  0.4999815E+03  0.7818609E-02  0.1013784E+00
        1   -1    0    0  501    0  0.00000000000E+00  0.00000000000E+00  0.82293560425E+03  0.82293560427E+03  0.50400001928E-02 0.  1.
       -1   -1    0    0    0  501  0.00000000000E+00  0.00000000000E+00 -0.75942006088E+02  0.75942006255E+02  0.50400001928E-02 0. -1.
    10030    2    1    2    0    0  0.00000000000E+00  0.00000000000E+00  0.74699359816E+03  0.89887761052E+03  0.49998152266E+03 0.  0.
        2    1    3    3  502    0  0.10492429640E+03 -0.21444480583E+03  0.24017043673E+03  0.33864069662E+03  0.25500000920E-02 0. -1.
       -2    1    3    3    0  502 -0.10492429640E+03  0.21444480583E+03  0.50682316143E+03  0.56023691390E+03  0.25500000920E-02 0.  1.
</event>
<event>
 5   0  0.8012875E-03  0.4992314E+03  0.7818609E-02  0.1013980E+00
        3   -1    0    0  501    0  0.00000000000E+00  0.00000000000E+00  0.62053590249E+02  0.62053672444E+02  0.10100000352E+00 0.  1.
       -3   -1    0    0    0  501  0.00000000000E+00  0.00000000000E+00 -0.10040991762E+04  0.10040991813E+04  0.10100000352E+00 0. -1.
    10030    2    1    2    0    0  0.00000000000E+00  0.00000000000E+00 -0.94204558594E+03  0.10661528537E+04  0.49923143079E+03 0.  0.
        3    1    3    3  502    0 -0.25275432065E+02  0.23511663615E+03 -0.64172718980E+03  0.68390969900E+03  0.10100000352E+00 0. -1.
       -3    1    3    3    0  502  0.25275432065E+02 -0.23511663615E+03 -0.30031839614E+03  0.38224315471E+03  0.10100000352E+00 0.  1.
</event>
<event>
 5   0  0.1941387E-02  0.4996428E+03  0.7818609E-02  0.1013872E+00
       -2   -1    0    0    0  501  0.00000000000E+00  0.00000000000E+00  0.30873042757E+02  0.30873042862E+02  0.25500000920E-02 0.  1.
        2   -1    0    0  501    0  0.00000000000E+00  0.00000000000E+00 -0.20215283110E+04  0.20215283110E+04  0.25500000920E-02 0. -1.
    10030    2    1    2    0    0  0.00000000000E+00  0.00000000000E+00 -0.19906552683E+04  0.20524013539E+04  0.49964279276E+03 0.  0.
        4    1    3    3  502    0  0.11869620072E+03 -0.53536011582E+02 -0.11955818283E+03  0.17677857502E+03  0.12699999809E+01 0.  1.
       -4    1    3    3    0  502 -0.11869620072E+03  0.53536011582E+02 -0.18710970854E+04  0.18756227789E+04  0.12699999809E+01 0. -1.
</event>
<event>
 5   0  0.8012875E-03  0.5006648E+03  0.7818609E-02  0.1013606E+00
        3   -1    0    0  501    0  0.00000000000E+00  0.00000000000E+00  0.14462390019E+03  0.14462393546E+03  0.10100000352E+00 0.  1.
       -3   -1    0    0    0  501  0.00000000000E+00  0.00000000000E+00 -0.43330528804E+03  0.43330529981E+03  0.10100000352E+00 0. -1.
    10030    2    1    2    0    0  0.00000000000E+00  0.00000000000E+00 -0.28868138785E+03  0.57792923527E+03  0.50066481531E+03 0.  0.
        4    1    3    3  502    0 -0.40561988519E+02  0.10802873590E+03  0.11208865702E+03  0.16087561227E+03  0.12699999809E+01 0.  1.
       -4    1    3    3    0  502  0.40561988519E+02 -0.10802873590E+03 -0.40077004487E+03  0.41705362300E+03  0.12699999809E+01 0. -1.
</event>
<event>
 5   0  0.1225989E-02  0.5013832E+03  0.7818609E-02  0.1013419E+00
       -1   -1    0    0    0  501  0.00000000000E+00  0.00000000000E+00  0.94859430588E+02  0.94859430721E+02  0.50400001928E-02 0. -1.
        1   -1    0    0  501    0  0.00000000000E+00  0.00000000000E+00 -0.66252017514E+03  0.66252017515E+03  0.50400001928E-02 0.  1.
    10030    2    1    2    0    0  0.00000000000E+00  0.00000000000E+00 -0.56766074455E+03  0.75737960588E+03  0.50138323316E+03 0.  0.
        3    1    3    3  502    0  0.65767799361E+02 -0.13375508914E+03  0.20657228054E+02  0.15047444492E+03  0.10100000352E+00 0. -1.
       -3    1    3    3    0  502 -0.65767799361E+02  0.13375508914E+03 -0.58831797260E+03  0.60690516095E+03  0.10100000352E+00 0.  1.
</event>
<event>
 5   0  0.1967813E-02  0.5006545E+03  0.7818609E-02  0.1013608E+00
        2   -1    0    0  501    0  0.00000000000E+00  0.00000000000E+00  0.26536019528E+03  0.26536019529E+03  0.25500000920E-02 0. -1.
       -2   -1    0    0    0  501  0.00000000000E+00  0.00000000000E+00 -0.23614594517E+03  0.23614594518E+03  0.25500000920E-02 0.  1.
    10030    2    1    2    0    0  0.00000000000E+00  0.00000000000E+00  0.29214250107E+02  0.50150614047E+03  0.50065450814E+03 0.  0.
        5    1    3    3  502    0  0.20868247577E+02  0.23178044448E+03  0.10687236037E+03  0.25612779936E+03  0.46999998093E+01 0. -1.
       -5    1    3    3    0  502 -0.20868247577E+02 -0.23178044448E+03 -0.77658110258E+02  0.24537834111E+03  0.46999998093E+01 0.  1.
</event>
<event>
 5   0  0.8012875E-03  0.4998840E+03  0.7818609E-02  0.1013809E+00
       -4   -1    0    0    0  501  0.00000000000E+00  0.00000000000E+00  0.12484768873E+03  0.12485414803E+03  0.12699999809E+01 0.  1.
        4   -1    0    0  501    0  0.00000000000E+00  0.00000000000E+00 -0.50035743258E+03  0.50035904432E+03  0.12699999809E+01 0. -1.
    10030    2    1    2    0    0  0.00000000000E+00  0.00000000000E+00 -0.37550974385E+03  0.62521319235E+03  0.49988395470E+03 0.  0.
        3    1    3    3  502    0 -0.78258687258E+02 -0.22614756363E+03 -0.97531122870E+02  0.25841724555E+03  0.10100000352E+00 0.  1.
       -3    1    3    3    0  502  0.78258687258E+02  0.22614756363E+03 -0.27797862098E+03  0.36679594680E+03  0.10100000352E+00 0. -1.
</event>
<event>
 5   0  0.8012875E-03  0.4989104E+03  0.7818609E-02  0.1014064E+00
        3   -1    0    0  501    0  0.00000000000E+00  0.00000000000E+00  0.45471190166E+03  0.45471191288E+03  0.10100000352E+00 0.  1.
       -3   -1    0    0    0  501  0.00000000000E+00  0.00000000000E+00 -0.13685124383E+03  0.13685128110E+03  0.10100000352E+00 0. -1.
    10030    2    1    2    0    0  0.00000000000E+00  0.00000000000E+00  0.31786065783E+03  0.59156319398E+03  0.49891042750E+03 0.  0.
        1    1    3    3  502    0 -0.57680800185E+02  0.22724310065E+03  0.57891382591E+02  0.24149102200E+03  0.50400001928E-02 0. -1.
       -1    1    3    3    0  502  0.57680800185E+02 -0.22724310065E+03  0.25996927524E+03  0.35007217198E+03  0.50400001928E-02 0.  1.
</event>
<event>
 5   0  0.8012875E-03  0.4988119E+03  0.7818609E-02  0.1014089E+00
        3   -1    0    0  501    0  0.00000000000E+00  0.00000000000E+00  0.30190545305E+03  0.30190546994E+03  0.10100000352E+00 0. -1.
       -3   -1    0    0    0  501  0.00000000000E+00  0.00000000000E+00 -0.20603574104E+03  0.20603576580E+03  0.10100000352E+00 0.  1.
    10030    2    1    2    0    0  0.00000000000E+00  0.00000000000E+00  0.95869712007E+02  0.50794123574E+03  0.49881188567E+03 0.  0.
        4    1    3    3  502    0 -0.81005709585E+02  0.24986675618E+02  0.28678143349E+03  0.29905093619E+03  0.12699999809E+01 0. -1.
       -4    1    3    3    0  502  0.81005709585E+02 -0.24986675618E+02 -0.19091172148E+03  0.20889029954E+03  0.12699999809E+01 0.  1.
</event>
<event>
 5   0  0.1855407E-02  0.5002920E+03  0.7818609E-02  0.1013703E+00
        2   -1    0    0  501    0  0.00000000000E+00  0.00000000000E+00  0.33944698175E+03  0.33944698176E+03  0.25500000920E-02 0. -1.
       -2   -1    0    0    0  501  0.00000000000E+00  0.00000000000E+00 -0.18433811698E+03  0.18433811700E+03  0.25500000920E-02 0.  1.
    10030    2    1    2    0    0  0.00000000000E+00  0.00000000000E+00  0.15510886477E+03  0.52378509876E+03  0.50029198450E+03 0.  0.
        1    1    3    3  502    0 -0.19017837642E+03  0.10674146359E+03 -0.50720294031E+02  0.22390646073E+03  0.50400001928E-02 0.  1.
       -1    1    3    3    0  502  0.19017837642E+03 -0.10674146359E+03  0.20582915880E+03  0.29987863802E+03  0.50400001928E-02 0. -1.
</event>
<event>
 5   0  0.1225989E-02  0.5003594E+03  0.7818609E-02  0.1013685E+00
        1   -1    0    0  501    0  0.00000000000E+00  0.00000000000E+00  0.26149268159E+03  0.26149268164E+03  0.50400001928E-02 0. -1.
       -1   -1    0    0    0  501  0.00000000000E+00  0.00000000000E+00 -0.23935617148E+03  0.23935617154E+03  0.50400001928E-02 0.  1.
    10030    2    1    2    0    0  0.00000000000E+00  0.00000000000E+00  0.22136510104E+02  0.50084885317E+03  0.50035941946E+03 0.  0.
        3    1    3    3  502    0  0.21679197595E+03 -0.11837210399E+03  0.50845786266E+02  0.25218251332E+03  0.10100000352E+00 0.  1.
       -3    1    3    3    0  502 -0.21679197595E+03  0.11837210399E+03 -0.28709276162E+02  0.24866633986E+03  0.10100000352E+00 0. -1.
</event>
<event>
 5   0  0.8012875E-03  0.4998743E+03  0.7818609E-02  0.1013812E+00
       -4   -1    0    0    0  501  0.00000000000E+00  0.00000000000E+00  0.18134352345E+03  0.18134797048E+03  0.12699999809E+01 0.  1.
        4   -1    0    0  501    0  0.00000000000E+00  0.00000000000E+00 -0.34446666544E+03  0.34446900659E+03  0.12699999809E+01 0. -1.
    10030    2    1    2    0    0  0.00000000000E+00  0.00000000000E+00 -0.16312314199E+03  0.52581697707E+03  0.49987431812E+03 0.  0.
        2    1    3    3  502    0  0.17198924375E+03 -0.13553652486E+03  0.45182945407E+02  0.22358879243E+03  0.25500000920E-02 0.  1.
       -2    1    3    3    0  502 -0.17198924375E+03  0.13553652486E+03 -0.20830608740E+03  0.30222818464E+03  0.25500000920E-02 0. -1.
</event>
<event>
 5   0  0.1982847E-02  0.4998466E+03  0.7818609E-02  0.1013819E+00
       -2   -1    0    0    0  501  0.00000000000E+00  0.00000000000E+00  0.68456405582E+02  0.68456405629E+02  0.25500000920E-02 0. -1.
        2   -1    0    0  501    0  0.00000000000E+00  0.00000000000E+00 -0.91242977989E+03  0.91242977989E+03  0.25500000920E-02 0.  1.
    10030    2    1    2    0    0  0.00000000000E+00  0.00000000000E+00 -0.84397337431E+03  0.98088618552E+03  0.49984662888E+03 0.  0.
        2    1    3    3  502    0  0.19402321443E+03 -0.10539623905E+03 -0.19222719475E+03  0.29275359836E+03  0.25500000920E-02 0. -1.
       -2    1    3    3    0  502 -0.19402321443E+03  0.10539623905E+03 -0.65174617956E+03  0.68813258716E+03  0.25500000920E-02 0.  1.
</event>
<event>
 5   0  0.1982847E-02  0.5015836E+03  0.7818609E-02  0.1013366E+00
        2   -1    0    0  501    0  0.00000000000E+00  0.00000000000E+00  0.51462953433E+03  0.51462953433E+03  0.25500000920E-02 0.  1.
       -2   -1    0    0    0  501  0.00000000000E+00  0.00000000000E+00 -0.12221711609E+03  0.12221711611E+03  0.25500000920E-02 0. -1.
    10030    2    1    2    0    0  0.00000000000E+00  0.00000000000E+00  0.39241241824E+03  0.63684665045E+03  0.50158364227E+03 0.  0.
        2    1    3    3  502    0  0.13982955682E+03  0.20808969319E+03  0.18788892092E+03  0.31329837533E+03  0.25500000920E-02 0. -1.
       -2    1    3    3    0  502 -0.13982955682E+03 -0.20808969319E+03  0.20452349732E+03  0.32354827512E+03  0.25500000920E-02 0.  1.
</event>
<event>
 5   0  0.1941387E-02  0.4995658E+03  0.7818609E-02  0.1013892E+00
        2   -1    0    0  501    0  0.00000000000E+00  0.00000000000E+00  0.47491457319E+03  0.47491457320E+03  0.25500000920E-02 0.  1.
       -2   -1    0    0    0  501  0.00000000000E+00  0.00000000000E+00 -0.13137415480E+03  0.13137415483E+03  0.25500000920E-02 0. -1.
    10030    2    1    2    0    0  0.00000000000E+00  0.00000000000E+00  0.34354041839E+03  0.60628872803E+03  0.49956581415E+03 0.  0.
        4    1    3    3  502    0  0.15432149872E+03 -0.17125370050E+03  0.55066237892E+02  0.23701657823E+03  0.12699999809E+01 0. -1.
       -4    1    3    3    0  502 -0.15432149872E+03  0.17125370050E+03  0.28847418050E+03  0.36927214980E+03  0.12699999809E+01 0.  1.
</event>
<event>
 5   0  0.1982847E-02  0.4994087E+03  0.7818609E-02  0.1013933E+00
        2   -1    0    0  501    0  0.00000000000E+00  0.00000000000E+00  0.84656579418E+03  0.84656579419E+03  0.25500000920E-02 0.  1.
       -2   -1    0    0    0  501  0.00000000000E+00  0.00000000000E+00 -0.73653169380E+02  0.73653169424E+02  0.25500000920E-02 0. -1.
    10030    2    1    2    0    0  0.00000000000E+00  0.00000000000E+00  0.77291262480E+03  0.92021896361E+03  0.49940866573E+03 0.  0.
        2    1    3    3  502    0  0.25298536902E+02  0.43720498281E+02 -0.64140838862E+02  0.81642789980E+02  0.25500000920E-02 0. -1.
       -2    1    3    3    0  502 -0.25298536902E+02 -0.43720498281E+02  0.83705346367E+03  0.83857617363E+03  0.25500000920E-02 0.  1.
</event>
<event>
 5   0  0.1982847E-02  0.4983631E+03  0.7818609E-02  0.1014207E+00
       -2   -1    0    0    0  501  0.00000000000E+00  0.00000000000E+00  0.12547680105E+03  0.12547680107E+03  0.25500000920E-02 0.  1.
        2   -1    0    0  501    0  0.00000000000E+00  0.00000000000E+00 -0.49484400177E+03  0.49484400177E+03  0.25500000920E-02 0. -1.
    10030    2    1    2    0    0  0.00000000000E+00  0.00000000000E+00 -0.36936720072E+03  0.62032080285E+03  0.49836309000E+03 0.  0.
        2    1    3    3  502    0 -0.19113026068E+03 -0.50617931014E+02 -0.37344802359E+03  0.42255931870E+03  0.25500000920E-02 0. -1.
       -2    1    3    3    0  502  0.19113026068E+03  0.50617931014E+02  0.40808228696E+01  0.19776148414E+03  0.25500000920E-02 0.  1.
</event>
<event>
 5   0  0.1923706E-02  0.4995880E+03  0.7818609E-02  0.1013887E+00
        2   -1    0    0  501    0  0.00000000000E+00  0.00000000000E+00  0.11274230293E+04  0.11274230293E+04  0.25500000920E-02 0. -1.
       -2   -1    0    0    0  501  0.00000000000E+00  0.00000000000E+00 -0.55344840041E+02  0.55344840100E+02  0.25500000920E-02 0.  1.
    10030    2    1    2    0    0  0.00000000000E+00  0.00000000000E+00  0.10720781893E+04  0.11827678694E+04  0.49958801928E+03 0.  0.
        3    1    3    3  502    0  0.16860773839E+03 -0.62011057480E+02  0.12513799005E+03  0.21893713127E+03  0.10100000352E+00 0.  1.
       -3    1    3    3    0  502 -0.16860773839E+03  0.62011057480E+02  0.94694019924E+03  0.96383073816E+03  0.10100000352E+00 0. -1.
</event>
<event>
 5   0  0.1217270E-02  0.4998376E+03  0.7818609E-02  0.1013821E+00
        1   -1    0    0  501    0  0.00000000000E+00  0.00000000000E+00  0.10474465244E+03  0.10474465256E+03  0.50400001928E-02 0.  1.
       -1   -1    0    0    0  501  0.00000000000E+00  0.00000000000E+00 -0.59630168455E+03  0.59630168457E+03  0.50400001928E-02 0. -1.
    10030    2    1    2    0    0  0.00000000000E+00  0.00000000000E+00 -0.49155703212E+03  0.70104633713E+03  0.49983762462E+03 0.  0.
        2    1    3    3  502    0 -0.11804032442E+03 -0.40135144655E+00  0.63182606803E+02  0.13388697129E+03  0.25500000920E-02 0.  1.
       -2    1    3    3    0  502  0.11804032442E+03  0.40135144655E+00 -0.55473963892E+03  0.56715936585E+03  0.25500000920E-02 0. -1.
</event>
<event>
 5   0  0.1209831E-02  0.5034046E+03  0.7818609E-02  0.1012894E+00
       -1   -1    0    0    0  501  0.00000000000E+00  0.00000000000E+00  0.58726078643E+02  0.58726078859E+02  0.50400001928E-02 0.  1.
        1   -1    0    0  501    0  0.00000000000E+00  0.00000000000E+00 -0.10788059238E+04  0.10788059238E+04  0.50400001928E-02 0. -1.
    10030    2    1    2    0    0  0.00000000000E+00  0.00000000000E+00 -0.10200798451E+04  0.11375320026E+04  0.50340457546E+03 0.  0.
        4    1    3    3  502    0 -0.15634912073E+03  0.70575619099E+02 -0.93826809657E+02  0.19552761614E+03  0.12699999809E+01 0.  1.
       -4    1    3    3    0  502  0.15634912073E+03 -0.70575619099E+02 -0.92625303546E+03  0.94200438648E+03  0.12699999809E+01 0. -1.
</event>
<event>
 5   0  0.1225989E-02  0.5011842E+03  0.7818609E-02  0.1013470E+00
       -1   -1    0    0    0  501  0.00000000000E+00  0.00000000000E+00  0.29493224913E+03  0.29493224918E+03  0.50400001928E-02 0. -1.
        1   -1    0    0  501    0  0.00000000000E+00  0.00000000000E+00 -0.21291809403E+03  0.21291809409E+03  0.50400001928E-02 0.  1.
    10030    2    1    2    0    0  0.00000000000E+00  0.00000000000E+00  0.82014155104E+02  0.50785034326E+03  0.50118424707E+03 0.  0.
        3    1    3    3  502    0 -0.19232914431E+03  0.72911497387E+02 -0.10403946038E+03  0.23050120546E+03  0.10100000352E+00 0.  1.
       -3    1    3    3    0  502  0.19232914431E+03 -0.72911497387E+02  0.18605361549E+03  0.27734913780E+03  0.10100000352E+00 0. -1.
</event>
<event>
 5   0  0.8012875E-03  0.4992849E+03  0.7818609E-02  0.1013966E+00
       -3   -1    0    0    0  501  0.00000000000E+00  0.00000000000E+00  0.90330964119E+03  0.90330964684E+03  0.10100000352E+00 0.  1.
        3   -1    0    0  501    0  0.00000000000E+00  0.00000000000E+00 -0.68992197511E+02  0.68992271439E+02  0.10100000352E+00 0. -1.
    10030    2    1    2    0    0  0.00000000000E+00  0.00000000000E+00  0.83431744368E+03  0.97230191828E+03  0.49928491210E+03 0.  0.
        2    1    3    3  502    0  0.19621385434E+03 -0.94066176881E+02  0.17886774386E+03  0.28167710604E+03  0.25500000920E-02 0. -1.
       -2    1    3    3    0  502 -0.19621385434E+03  0.94066176881E+02  0.65544969982E+03  0.69062481223E+03  0.25500000920E-02 0.  1.
</event>
<event>
 5   0  0.1217270E-02  0.4996575E+03  0.7818609E-02  0.1013868E+00
       -1   -1    0    0    0  501  0.00000000000E+00  0.00000000000E+00  0.37764988628E+03  0.37764988632E+03  0.50400001928E-02 0.  1.
        1   -1    0    0  501    0  0.00000000000E+00  0.00000000000E+00 -0.16527053155E+03  0.16527053163E+03  0.50400001928E-02 0. -1.
    10030    2    1    2    0    0  0.00000000000E+00  0.00000000000E+00  0.21237935473E+03  0.54292041794E+03  0.49965747258E+03 0.  0.
        2    1    3    3  502    0 -0.33488876810E+02  0.32129986536E+02 -0.16054553831E+03  0.16711885227E+03  0.25500000920E-02 0. -1.
       -2    1    3    3    0  502  0.33488876810E+02 -0.32129986536E+02  0.37292489305E+03  0.37580156568E+03  0.25500000920E-02 0.  1.
</event>
<event>
 5   0  0.1180937E-02  0.5002666E+03  0.7818609E-02  0.1013709E+00
       -1   -1    0    0    0  501  0.00000000000E+00  0.00000000000E+00  0.39295478876E+02  0.39295479200E+02  0.50400001928E-02 0. -1.
        1   -1    0    0  501    0  0.00000000000E+00  0.00000000000E+00 -0.15922102578E+04  0.15922102579E+04  0.50400001928E-02 0.  1.
    10030    2    1    2    0    0  0.00000000000E+00  0.00000000000E+00 -0.15529147790E+04  0.16315057371E+04  0.50026658823E+03 0.  0.
        1    1    3    3  502    0  0.66161889389E+02  0.57206055231E+02 -0.15407144634E+04  0.15431950577E+04  0.50400001928E-02 0.  1.
       -1    1    3    3    0  502 -0.66161889389E+02 -0.57206055231E+02 -0.12200315574E+02  0.88310679355E+02  0.50400001928E-02 0. -1.
</event>
<event>
 5   0  0.1941387E-02  0.5000390E+03  0.7818609E-02  0.1013769E+00
        2   -1    0    0  501    0  0.00000000000E+00  0.00000000000E+00  0.62357998305E+03  0.62357998306E+03  0.25500000920E-02 0. -1.
       -2   -1    0    0    0  501  0.00000000000E+00  0.00000000000E+00 -0.10024334893E+03  0.10024334897E+03  0.25500000920E-02 0.  1.
    10030    2    1    2    0    0  0.00000000000E+00  0.00000000000E+00  0.52333663412E+03  0.72382333203E+03  0.50003898186E+03 0.  0.
        4    1    3    3  502    0 -0.47138330485E+02 -0.23578322631E+03  0.36082576640E+03  0.43360419579E+03  0.12699999809E+01 0.  1.
       -4    1    3    3    0  502  0.47138330485E+02  0.23578322631E+03  0.16251086772E+03  0.29021913624E+03  0.12699999809E+01 0. -1.
</event>
<event>
 5   0  0.1941387E-02  0.4998733E+03  0.7818609E-02  0.1013812E+00
        2   -1    0    0  501    0  0.00000000000E+00  0.00000000000E+00  0.68630930705E+02  0.68630930752E+02  0.25500000920E-02 0. -1.
       -2   -1    0    0    0  501  0.00000000000E+00  0.00000000000E+00 -0.91020667172E+03  0.91020667172E+03  0.25500000920E-02 0.  1.
    10030    2    1    2    0    0  0.00000000000E+00  0.00000000000E+00 -0.84157574101E+03  0.97883760247E+03  0.49987330810E+03 0.  0.
        4    1    3    3  502    0 -0.16582082023E+02 -0.24652666298E+03 -0.34709302978E+03  0.42605814770E+03  0.12699999809E+01 0. -1.
       -4    1    3    3    0  502  0.16582082023E+02  0.24652666298E+03 -0.49448271124E+03  0.55277945477E+03  0.12699999809E+01 0.  1.
</event>
<event>
 5   0  0.1982847E-02  0.5149109E+03  0.7818609E-02  0.1009959E+00
       -2   -1    0    0    0  501  0.00000000000E+00  0.00000000000E+00  0.72988935738E+02  0.72988935782E+02  0.25500000920E-02 0.  1.
        2   -1    0    0  501    0  0.00000000000E+00  0.00000000000E+00 -0.90812827981E+03  0.90812827982E+03  0.25500000920E-02 0. -1.
    10030    2    1    2    0    0  0.00000000000E+00  0.00000000000E+00 -0.83513934407E+03  0.98111721560E+03  0.51491093086E+03 0.  0.
        2    1    3    3  502    0  0.21315076156E+02 -0.10365751021E+02 -0.90604500254E+03  0.90635496794E+03  0.25500000920E-02 0. -1.
       -2    1    3    3    0  502 -0.21315076156E+02  0.10365751021E+02  0.70905658469E+02  0.74762247660E+02  0.25500000920E-02 0.  1.
</event>
<event>
 5   0  0.1227864E-02  0.4990242E+03  0.7818609E-02  0.1014034E+00
        1   -1    0    0  501    0  0.00000000000E+00  0.00000000000E+00  0.33633897879E+03  0.33633897882E+03  0.50400001928E-02 0. -1.
       -1   -1    0    0    0  501  0.00000000000E+00  0.00000000000E+00 -0.18509983026E+03  0.18509983033E+03  0.50400001928E-02 0.  1.
    10030    2    1    2    0    0  0.00000000000E+00  0.00000000000E+00  0.15123914853E+03  0.52143880915E+03  0.49902419946E+03 0.  0.
        5    1    3    3  502    0 -0.22884098295E+02  0.24671585543E+03  0.10593662048E+03  0.26951262091E+03  0.46999998093E+01 0. -1.
       -5    1    3    3    0  502  0.22884098295E+02 -0.24671585543E+03  0.45302528049E+02  0.25192618824E+03  0.46999998093E+01 0.  1.
</event>
<event>
 5   0  0.1209831E-02  0.5006723E+03  0.7818609E-02  0.1013604E+00
       -1   -1    0    0    0  501  0.00000000000E+00  0.00000000000E+00  0.13404222679E+03  0.13404222689E+03  0.50400001928E-02 0.  1.
        1   -1    0    0  501    0  0.00000000000E+00  0.00000000000E+00 -0.46752565933E+03  0.46752565936E+03  0.50400001928E-02 0. -1.
    10030    2    1    2    0    0  0.00000000000E+00  0.00000000000E+00 -0.33348343254E+03  0.60156788625E+03  0.50067227004E+03 0.  0.
        4    1    3    3  502    0 -0.28094681626E+02 -0.96798138866E+02  0.10858050613E+03  0.14815711267E+03  0.12699999809E+01 0.  1.
       -4    1    3    3    0  502  0.28094681626E+02  0.96798138866E+02 -0.44206393867E+03  0.45341077358E+03  0.12699999809E+01 0. -1.
</event>
<event>
 5   0  0.1225989E-02  0.4995031E+03  0.7818609E-02  0.1013909E+00
       -1   -1    0    0    0  501  0.00000000000E+00  0.00000000000E+00  0.77501566836E+02  0.77501567000E+02  0.50400001928E-02 0. -1.
        1   -1    0    0  501    0  0.00000000000E+00  0.00000000000E+00 -0.80483334888E+03  0.80483334890E+03  0.50400001928E-02 0.  1.
    10030    2    1    2    0    0  0.00000000000E+00  0.00000000000E+00 -0.72733178204E+03  0.88233491590E+03  0.49950313576E+03 0.  0.
        3    1    3    3  502    0  0.10325194191E+02  0.76211861346E+02  0.56063561578E+02  0.95173476257E+02  0.10100000352E+00 0. -1.
       -3    1    3    3    0  502 -0.10325194191E+02 -0.76211861346E+02 -0.78339534362E+03  0.78716143964E+03  0.10100000352E+00 0.  1.
</event>
<event>
 5   0  0.1227864E-02  0.5001828E+03  0.7818609E-02  0.1013731E+00
       -1   -1    0    0    0  501  0.00000000000E+00  0.00000000000E+00  0.12755597137E+03  0.12755597147E+03  0.50400001928E-02 0. -1.
        1   -1    0    0  501    0  0.00000000000E+00  0.00000000000E+00 -0.49033935887E+03  0.49033935890E+03  0.50400001928E-02 0.  1.
    10030    2    1    2    0    0  0.00000000000E+00  0.00000000000E+00 -0.36278338750E+03  0.61789533036E+03  0.50018281961E+03 0.  0.
        5    1    3    3  502    0 -0.57634860733E+02 -0.10443332235E+03 -0.45287279278E+03  0.46834170477E+03  0.46999998093E+01 0.  1.
       -5    1    3    3    0  502  0.57634860733E+02  0.10443332235E+03  0.90089405273E+02  0.14955362560E+03  0.46999998093E+01 0. -1.
</event>
<event>
 5   0  0.1209831E-02  0.4988619E+03  0.7818609E-02  0.1014076E+00
       -1   -1    0    0    0  501  0.00000000000E+00  0.00000000000E+00  0.11631229136E+03  0.11631229147E+03  0.50400001928E-02 0. -1.
        1   -1    0    0  501    0  0.00000000000E+00  0.00000000000E+00 -0.53490304233E+03  0.53490304235E+03  0.50400001928E-02 0.  1.
    10030    2    1    2    0    0  0.00000000000E+00  0.00000000000E+00 -0.41859075096E+03  0.65121533382E+03  0.49886189894E+03 0.  0.
        4    1    3    3  502    0  0.52091894992E+02  0.13338360720E+03 -0.47589616302E+03  0.49697436863E+03  0.12699999809E+01 0.  1.
       -4    1    3    3    0  502 -0.52091894992E+02 -0.13338360720E+03  0.57305412057E+02  0.15424096520E+03  0.12699999809E+01 0. -1.
</event>
<event>
 5   0  0.1217270E-02  0.5001080E+03  0.7818609E-02  0.1013751E+00
       -1   -1    0    0    0  501  0.00000000000E+00  0.00000000000E+00  0.37191338843E+02  0.37191339184E+02  0.50400001928E-02 0.  1.
        1   -1    0    0  501    0  0.00000000000E+00  0.00000000000E+00 -0.16812248572E+04  0.16812248572E+04  0.50400001928E-02 0. -1.
    10030    2    1    2    0    0  0.00000000000E+00  0.00000000000E+00 -0.16440335184E+04  0.17184161964E+04  0.50010800288E+03 0.  0.
        2    1    3    3  502    0 -0.14438478106E+03 -0.11819224850E+03 -0.25002764865E+03  0.31197788015E+03  0.25500000920E-02 0.  1.
       -2    1    3    3    0  502  0.14438478106E+03  0.11819224850E+03 -0.13940058697E+04  0.14064383163E+04  0.25500000920E-02 0. -1.
</event>
<event>
 5   0  0.1855407E-02  0.4999379E+03  0.7818609E-02  0.1013795E+00
        2   -1    0    0  501    0  0.00000000000E+00  0.00000000000E+00  0.11325400516E+04  0.11325400516E+04  0.25500000920E-02 0. -1.
       -2   -1    0    0    0  501  0.00000000000E+00  0.00000000000E+00 -0.55171974748E+02  0.55171974807E+02  0.25500000920E-02 0.  1.
    10030    2    1    2    0    0  0.00000000000E+00  0.00000000000E+00  0.10773680768E+04  0.11877120264E+04  0.49993788080E+03 0.  0.
        1    1    3    3  502    0 -0.14040826428E+03  0.77911577111E+02  0.83563096604E+02  0.18101791531E+03  0.50400001928E-02 0.  1.
       -1    1    3    3    0  502  0.14040826428E+03 -0.77911577111E+02  0.99380498023E+03  0.10066941111E+04  0.50400001928E-02 0. -1.
</event>
<event>
 5   0  0.1982847E-02  0.5002722E+03  0.7818609E-02  0.1013708E+00
       -2   -1    0    0    0  501  0.00000000000E+00  0.00000000000E+00  0.98009548121E+02  0.98009548154E+02  0.25500000920E-02 0.  1.
        2   -1    0    0  501    0  0.00000000000E+00  0.00000000000E+00 -0.63838740753E+03  0.63838740754E+03  0.25500000920E-02 0. -1.
    10030    2    1    2    0    0  0.00000000000E+00  0.00000000000E+00 -0.54037785941E+03  0.73639695569E+03  0.50027217133E+03 0.  0.
        2    1    3    3  502    0 -0.29248778648E+02  0.20203385932E+03 -0.57411438566E+02  0.21205953090E+03  0.25500000920E-02 0.  1.
       -2    1    3    3    0  502  0.29248778648E+02 -0.20203385932E+03 -0.48296642084E+03  0.52433742479E+03  0.25500000920E-02 0. -1.
</event>
<event>
 5   0  0.1923706E-02  0.4987693E+03  0.7818609E-02  0.1014101E+00
        2   -1    0    0  501    0  0.00000000000E+00  0.00000000000E+00  0.97018303210E+03  0.97018303211E+03  0.25500000920E-02 0.  1.
       -2   -1    0    0    0  501  0.00000000000E+00  0.00000000000E+00 -0.64104100273E+02  0.64104100323E+02  0.25500000920E-02 0. -1.
    10030    2    1    2    0    0  0.00000000000E+00  0.00000000000E+00  0.90607893183E+03  0.10342871324E+04  0.49876932705E+03 0.  0.
        3    1    3    3  502    0  0.55205208957E+01 -0.24930682837E+03  0.45902423861E+03  0.52238647825E+03  0.10100000352E+00 0.  1.
       -3    1    3    3    0  502 -0.55205208957E+01  0.24930682837E+03  0.44705469322E+03  0.51190065418E+03  0.10100000352E+00 0. -1.
</event>
<event>
 5   0  0.1967813E-02  0.5001961E+03  0.7818609E-02  0.1013728E+00
        2   -1    0    0  501    0  0.00000000000E+00  0.00000000000E+00  0.42806737056E+03  0.42806737057E+03  0.25500000920E-02 0.  1.
       -2   -1    0    0    0  501  0.00000000000E+00  0.00000000000E+00 -0.14611958307E+03  0.14611958309E+03  0.25500000920E-02 0. -1.
    10030    2    1    2    0    0  0.00000000000E+00  0.00000000000E+00  0.28194778749E+03  0.57418695366E+03  0.50019606444E+03 0.  0.
        5    1    3    3  502    0 -0.22344346521E+03 -0.11063242718E+03  0.11918088121E+03  0.27639227293E+03  0.46999998093E+01 0.  1.
       -5    1    3    3    0  502  0.22344346521E+03  0.11063242718E+03  0.16276690628E+03  0.29779468073E+03  0.46999998093E+01 0. -1.
</event>
<event>
 5   0  0.8012875E-03  0.4999645E+03  0.7818609E-02  0.1013788E+00
       -3   -1    0    0    0  501  0.00000000000E+00  0.00000000000E+00  0.63677804538E+02  0.63677884636E+02  0.10100000352E+00 0. -1.
        3   -1    0    0  501    0  0.00000000000E+00  0.00000000000E+00 -0.98136350877E+03  0.98136351397E+03  0.10100000352E+00 0.  1.
    10030    2    1    2    0    0  0.00000000000E+00  0.00000000000E+00 -0.91768570423E+03  0.10450413986E+04  0.49996447178E+03 0.  0.
        4    1    3    3  502    0  0.21446232005E+02 -0.38939292446E+02 -0.97302826932E+03  0.97404406222E+03  0.12699999809E+01 0.  1.
       -4    1    3    3    0  502 -0.21446232005E+02  0.38939292446E+02  0.55342565083E+02  0.70997336382E+02  0.12699999809E+01 0. -1.
</event>
<event>
 5   0  0.1225989E-02  0.4994074E+03  0.7818609E-02  0.1013934E+00
        1   -1    0    0  501    0  0.00000000000E+00  0.00000000000E+00  0.88498205617E+02  0.88498205760E+02  0.50400001928E-02 0. -1.
       -1   -1    0    0    0  501  0.00000000000E+00  0.00000000000E+00 -0.70455592200E+03  0.70455592202E+03  0.50400001928E-02 0.  1.
    10030    2    1    2    0    0  0.00000000000E+00  0.00000000000E+00 -0.61605771638E+03  0.79305412778E+03  0.49940738848E+03 0.  0.
        3    1    3    3  502    0  0.78145997982E+02 -0.17066973710E+03 -0.56952689662E+03  0.59966311571E+03  0.10100000352E+00 0.  1.
       -3    1    3    3    0  502 -0.78145997982E+02  0.17066973710E+03 -0.46530819762E+02  0.19339101207E+03  0.10100000352E+00 0. -1.
</event>
<event>
 5   0  0.8012875E-03  0.4988805E+03  0.7818609E-02  0.1014072E+00
        3   -1    0    0  501    0  0.00000000000E+00  0.00000000000E+00  0.22362022221E+03  0.22362024502E+03  0.10100000352E+00 0. -1.
       -3   -1    0    0    0  501  0.00000000000E+00  0.00000000000E+00 -0.27824149975E+03  0.27824151808E+03  0.10100000352E+00 0.  1.
    10030    2    1    2    0    0  0.00000000000E+00  0.00000000000E+00 -0.54621277536E+02  0.50186176310E+03  0.49888049200E+03 0.  0.
        1    1    3    3  502    0  0.15213241914E+03 -0.17116694829E+03 -0.12678552984E+03  0.26175745977E+03  0.50400001928E-02 0.  1.
       -1    1    3    3    0  502 -0.15213241914E+03  0.17116694829E+03  0.72164252300E+02  0.24010430333E+03  0.50400001928E-02 0. -1.
</event>
<event>
 5   0  0.1217270E-02  0.4961282E+03  0.7818609E-02  0.1014794E+00
        1   -1    0    0  501    0  0.00000000000E+00  0.00000000000E+00  0.46136906068E+03  0.46136906070E+03  0.50400001928E-02 0.  1.
       -1   -1    0    0    0  501  0.00000000000E+00  0.00000000000E+00 -0.13337650992E+03  0.13337651001E+03  0.50400001928E-02 0. -1.
    10030    2    1    2    0    0  0.00000000000E+00  0.00000000000E+00  0.32799255076E+03  0.59474557071E+03  0.49612818961E+03 0.  0.
        2    1    3    3  502    0  0.20718392181E+03  0.13201861029E+03  0.12278731080E+03  0.27464670874E+03  0.25500000920E-02 0. -1.
       -2    1    3    3    0  502 -0.20718392181E+03 -0.13201861029E+03  0.20520523996E+03  0.32009886198E+03  0.25500000920E-02 0.  1.
</event>
<event>
 5   0  0.1225989E-02  0.5001470E+03  0.7818609E-02  0.1013741E+00
       -1   -1    0    0    0  501  0.00000000000E+00  0.00000000000E+00  0.14226419131E+03  0.14226419140E+03  0.50400001928E-02 0.  1.
        1   -1    0    0  501    0  0.00000000000E+00  0.00000000000E+00 -0.43958190501E+03  0.43958190503E+03  0.50400001928E-02 0. -1.
    10030    2    1    2    0    0  0.00000000000E+00  0.00000000000E+00 -0.29731771370E+03  0.58184609643E+03  0.50014703543E+03 0.  0.
        3    1    3    3  502    0  0.18648114333E+03  0.79097624725E+02  0.21941992755E+02  0.20374766821E+03  0.10100000352E+00 0. -1.
       -3    1    3    3    0  502 -0.18648114333E+03 -0.79097624725E+02 -0.31925970645E+03  0.37809842822E+03  0.10100000352E+00 0.  1.
</event>
<event>
 5   0  0.1982847E-02  0.5001531E+03  0.7818609E-02  0.1013739E+00
       -2   -1    0    0    0  501  0.00000000000E+00  0.00000000000E+00  0.35101794580E+03  0.35101794581E+03  0.25500000920E-02 0. -1.
        2   -1    0    0  501    0  0.00000000000E+00  0.00000000000E+00 -0.17816260307E+03  0.17816260309E+03  0.25500000920E-02 0.  1.
    10030    2    1    2    0    0  0.00000000000E+00  0.00000000000E+00  0.17285534273E+03  0.52918054889E+03  0.50015306039E+03 0.  0.
        2    1    3    3  502    0  0.19461684928E+03 -0.11071531393E+03 -0.31412560334E+02  0.22609809313E+03  0.25500000920E-02 0.  1.
       -2    1    3    3    0  502 -0.19461684928E+03  0.11071531393E+03  0.20426790307E+03  0.30308245577E+03  0.25500000920E-02 0. -1.
</event>
<event>
 5   0  0.1855407E-02  0.5000738E+03  0.7818609E-02  0.1013760E+00
        2   -1    0    0  501    0  0.00000000000E+00  0.00000000000E+00  0.12271657093E+04  0.12271657093E+04  0.25500000920E-02 0.  1.
       -2   -1    0    0    0  501  0.00000000000E+00  0.00000000000E+00 -0.50945394895E+02  0.50945394959E+02  0.25500000920E-02 0. -1.
    10030    2    1    2    0    0  0.00000000000E+00  0.00000000000E+00  0.11762203144E+04  0.12781111042E+04  0.50007376137E+03 0.  0.
        1    1    3    3  502    0  0.13890581466E+03  0.20765800747E+03  0.61389358948E+03  0.66278353377E+03  0.50400001928E-02 0. -1.
       -1    1    3    3    0  502 -0.13890581466E+03 -0.20765800747E+03  0.56232672489E+03  0.61532757045E+03  0.50400001928E-02 0.  1.
</event>
<event>
 5   0  0.1855407E-02  0.4998814E+03  0.7818609E-02  0.1013810E+00
        2   -1    0    0  501    0  0.00000000000E+00  0.00000000000E+00  0.12462504850E+04  0.12462504851E+04  0.25500000920E-02 0. -1.
       -2   -1    0    0    0  501  0.00000000000E+00  0.00000000000E+00 -0.50126639936E+02  0.50126640001E+02  0.25500000920E-02 0.  1.
    10030    2    1    2    0    0  0.00000000000E+00  0.00000000000E+00  0.11961238451E+04  0.12963771251E+04  0.49988138344E+03 0.  0.
        1    1    3    3  502    0 -0.33382644053E+02  0.33803616200E+02 -0.38309224872E+02  0.61030173914E+02  0.50400001928E-02 0.  1.
       -1    1    3    3    0  502  0.33382644053E+02 -0.33803616200E+02  0.12344330700E+04  0.12353469511E+04  0.50400001928E-02 0. -1.
</event>
<event>
 5   0  0.1923706E-02  0.4995878E+03  0.7818609E-02  0.1013887E+00
        2   -1    0    0  501    0  0.00000000000E+00  0.00000000000E+00  0.98938985941E+03  0.98938985942E+03  0.25500000920E-02 0.  1.
       -2   -1    0    0    0  501  0.00000000000E+00  0.00000000000E+00 -0.63066136863E+02  0.63066136914E+02  0.25500000920E-02 0. -1.
    10030    2    1    2    0    0  0.00000000000E+00  0.00000000000E+00  0.92632372255E+03  0.10524559963E+04  0.49958781536E+03 0.  0.
        3    1    3    3  502    0 -0.23540817171E+03  0.82910407988E+02  0.48483507363E+03  0.54530377028E+03  0.10100000352E+00 0. -1.
       -3    1    3    3    0  502  0.23540817171E+03 -0.82910407988E+02  0.44148864892E+03  0.50715222605E+03  0.10100000352E+00 0.  1.
</event>
<event>
 5   0  0.1217270E-02  0.5048391E+03  0.7818609E-02  0.1012523E+00
       -1   -1    0    0    0  501  0.00000000000E+00  0.00000000000E+00  0.11153445063E+03  0.11153445074E+03  0.50400001928E-02 0. -1.
        1   -1    0    0  501    0  0.00000000000E+00  0.00000000000E+00 -0.57126419435E+03  0.57126419437E+03  0.50400001928E-02 0.  1.
    10030    2    1    2    0    0  0.00000000000E+00  0.00000000000E+00 -0.45972974372E+03  0.68279864511E+03  0.50483913528E+03 0.  0.
        2    1    3    3  502    0  0.70641733092E+02  0.47896632144E+02 -0.55115667791E+03  0.55772576185E+03  0.25500000920E-02 0.  1.
       -2    1    3    3    0  502 -0.70641733092E+02 -0.47896632144E+02  0.91426934189E+02  0.12507288326E+03  0.25500000920E-02 0. -1.
</event>
<event>
 5   0  0.1855407E-02  0.5003363E+03  0.7818609E-02  0.1013691E+00
       -2   -1    0    0    0  501  0.00000000000E+00  0.00000000000E+00  0.15307385849E+03  0.15307385852E+03  0.25500000920E-02 0.  1.
        2   -1    0    0  501    0  0.00000000000E+00  0.00000000000E+00 -0.40884907979E+03  0.40884907980E+03  0.25500000920E-02 0. -1.
    10030    2    1    2    0    0  0.00000000000E+00  0.00000000000E+00 -0.25577522129E+03  0.56192293831E+03  0.50033631167E+03 0.  0.
        1    1    3    3  502    0 -0.10545854656E+03 -0.22571884697E+03 -0.15334000353E+03  0.29254685031E+03  0.50400001928E-02 0. -1.
       -1    1    3    3    0  502  0.10545854656E+03  0.22571884697E+03 -0.10243521776E+03  0.26937608800E+03  0.50400001928E-02 0.  1.
</event>
<event>
 5   0  0.1217270E-02  0.5006099E+03  0.7818609E-02  0.1013620E+00
       -1   -1    0    0    0  501  0.00000000000E+00  0.00000000000E+00  0.70893003145E+02  0.70893003324E+02  0.50400001928E-02 0. -1.
        1   -1    0    0  501    0  0.00000000000E+00  0.00000000000E+00 -0.88376237405E+03  0.88376237407E+03  0.50400001928E-02 0.  1.
    10030    2    1    2    0    0  0.00000000000E+00  0.00000000000E+00 -0.81286937091E+03  0.95465537739E+03  0.50060990344E+03 0.  0.
        2    1    3    3  502    0  0.13877789801E+03 -0.11813085877E+03 -0.79241671434E+02  0.19872958327E+03  0.25500000920E-02 0.  1.
       -2    1    3    3    0  502 -0.13877789801E+03  0.11813085877E+03 -0.73362769947E+03  0.75592579412E+03  0.25500000920E-02 0. -1.
</event>
<event>
 5   0  0.1967813E-02  0.4990638E+03  0.7818609E-02  0.1014024E+00
       -2   -1    0    0    0  501  0.00000000000E+00  0.00000000000E+00  0.83819140941E+02  0.83819140980E+02  0.25500000920E-02 0.  1.
        2   -1    0    0  501    0  0.00000000000E+00  0.00000000000E+00 -0.74286336792E+03  0.74286336792E+03  0.25500000920E-02 0. -1.
    10030    2    1    2    0    0  0.00000000000E+00  0.00000000000E+00 -0.65904422698E+03  0.82668250890E+03  0.49906380094E+03 0.  0.
        5    1    3    3  502    0  0.76404706550E+02 -0.16675909851E+03 -0.60964527278E+03  0.63665981869E+03  0.46999998093E+01 0. -1.
       -5    1    3    3    0  502 -0.76404706550E+02  0.16675909851E+03 -0.49398954196E+02  0.19002269021E+03  0.46999998093E+01 0.  1.
</event>
<event>
 5   0  0.1923706E-02  0.4996974E+03  0.7818609E-02  0.1013858E+00
       -2   -1    0    0    0  501  0.00000000000E+00  0.00000000000E+00  0.14280397784E+03  0.14280397786E+03  0.25500000920E-02 0.  1.
        2   -1    0    0  501    0  0.00000000000E+00  0.00000000000E+00 -0.43713323620E+03  0.43713323620E+03  0.25500000920E-02 0. -1.
    10030    2    1    2    0    0  0.00000000000E+00  0.00000000000E+00 -0.29432925836E+03  0.57993721407E+03  0.49969736835E+03 0.  0.
        3    1    3    3  502    0 -0.10741040884E+03 -0.38535250895E+02 -0.40512198115E+03  0.42088691035E+03  0.10100000352E+00 0. -1.
       -3    1    3    3    0  502  0.10741040884E+03  0.38535250895E+02  0.11079272279E+03  0.15905030372E+03  0.10100000352E+00 0.  1.
</event>
<event>
 5   0  0.1217270E-02  0.4934448E+03  0.7818609E-02  0.1015504E+00
       -1   -1    0    0    0  501  0.00000000000E+00  0.00000000000E+00  0.30314987201E+03  0.30314987205E+03  0.50400001928E-02 0.  1.
        1   -1    0    0  501    0  0.00000000000E+00  0.00000000000E+00 -0.20079819634E+03  0.20079819641E+03  0.50400001928E-02 0. -1.
    10030    2    1    2    0    0  0.00000000000E+00  0.00000000000E+00  0.10235167566E+03  0.50394806846E+03  0.49344481980E+03 0.  0.
        2    1    3    3  502    0 -0.17844828990E+03  0.97369334084E+02 -0.91612039387E+02  0.22297386653E+03  0.25500000920E-02 0. -1.
       -2    1    3    3    0  502  0.17844828990E+03 -0.97369334084E+02  0.19396371505E+03  0.28097420193E+03  0.25500000920E-02 0.  1.
</event>
<event>
 5   0  0.8012875E-03  0.4992908E+03  0.7818609E-02  0.1013964E+00
        4   -1    0    0  501    0  0.00000000000E+00  0.00000000000E+00  0.39550050279E+03  0.39550254185E+03  0.12699999809E+01 0.  1.
       -4   -1    0    0    0  501  0.00000000000E+00  0.00000000000E+00 -0.15757460540E+03  0.15757972321E+03  0.12699999809E+01 0. -1.
    10030    2    1    2    0    0  0.00000000000E+00  0.00000000000E+00  0.23792589739E+03  0.55308226506E+03  0.49929075625E+03 0.  0.
        3    1    3    3  502    0  0.21090272020E+03 -0.74456373406E+02 -0.38863827234E+01  0.22369359200E+03  0.10100000352E+00 0.  1.
       -3    1    3    3    0  502 -0.21090272020E+03  0.74456373406E+02  0.24181228011E+03  0.32938867306E+03  0.10100000352E+00 0. -1.
</event>
<event>
 5   0  0.8012875E-03  0.5008324E+03  0.7818609E-02  0.1013562E+00
       -3   -1    0    0    0  501  0.00000000000E+00  0.00000000000E+00  0.21692359923E+03  0.21692362275E+03  0.10100000352E+00 0. -1.
        3   -1    0    0  501    0  0.00000000000E+00  0.00000000000E+00 -0.28907997319E+03  0.28907999083E+03  0.10100000352E+00 0.  1.
    10030    2    1    2    0    0  0.00000000000E+00  0.00000000000E+00 -0.72156373953E+02  0.50600361358E+03  0.50083242173E+03 0.  0.
        2    1    3    3  502    0 -0.72146462061E+02 -0.29722517925E+02  0.20432770805E+03  0.21871980327E+03  0.25500000920E-02 0. -1.
       -2    1    3    3    0  502  0.72146462061E+02  0.29722517925E+02 -0.27648408200E+03  0.28728381031E+03  0.25500000920E-02 0.  1.
</event>
<event>
 5   0  0.1227864E-02  0.5037938E+03  0.7818609E-02  0.1012793E+00
        1   -1    0    0  501    0  0.00000000000E+00  0.00000000000E+00  0.15222853343E+03  0.15222853352E+03  0.50400001928E-02 0. -1.
       -1   -1    0    0    0  501  0.00000000000E+00  0.00000000000E+00 -0.41682093877E+03  0.41682093880E+03  0.50400001928E-02 0.  1.
    10030    2    1    2    0    0  0.00000000000E+00  0.00000000000E+00 -0.26459240533E+03  0.56904947232E+03  0.50379376831E+03 0.  0.
        5    1    3    3  502    0  0.89785483437E+02  0.13607497418E+03  0.84538337805E+02  0.18370261890E+03  0.46999998093E+01 0. -1.
       -5    1    3    3    0  502 -0.89785483437E+02 -0.13607497418E+03 -0.34913074314E+03  0.38534685342E+03  0.46999998093E+01 0.  1.
</event>
<event>
 5   0  0.1982847E-02  0.4999839E+03  0.7818609E-02  0.1013783E+00
       -2   -1    0    0    0  501  0.00000000000E+00  0.00000000000E+00  0.12942493628E+03  0.12942493630E+03  0.25500000920E-02 0. -1.
        2   -1    0    0  501    0  0.00000000000E+00  0.00000000000E+00 -0.48287427685E+03  0.48287427686E+03  0.25500000920E-02 0.  1.
    10030    2    1    2    0    0  0.00000000000E+00  0.00000000000E+00 -0.35344934057E+03  0.61229921316E+03  0.49998388983E+03 0.  0.
        2    1    3    3  502    0  0.22324715165E+03 -0.16046583339E+01 -0.31448476709E+03  0.38567153691E+03  0.25500000920E-02 0.  1.
       -2    1    3    3    0  502 -0.22324715165E+03  0.16046583339E+01 -0.38964573483E+02  0.22662767625E+03  0.25500000920E-02 0. -1.
</event>
<event>
 5   0  0.1982847E-02  0.5002263E+03  0.7818609E-02  0.1013720E+00
        2   -1    0    0  501    0  0.00000000000E+00  0.00000000000E+00  0.36479084641E+03  0.36479084642E+03  0.25500000920E-02 0.  1.
       -2   -1    0    0    0  501  0.00000000000E+00  0.00000000000E+00 -0.17148619514E+03  0.17148619516E+03  0.25500000920E-02 0. -1.
    10030    2    1    2    0    0  0.00000000000E+00  0.00000000000E+00  0.19330465126E+03  0.53627704158E+03  0.50022632590E+03 0.  0.
        2    1    3    3  502    0  0.22699571916E+03 -0.91820529645E+02  0.15130184779E+03  0.28783730706E+03  0.25500000920E-02 0.  1.
       -2    1    3    3    0  502 -0.22699571916E+03  0.91820529645E+02  0.42002803477E+02  0.24843973452E+03  0.25500000920E-02 0. -1.
</event>
<event>
 5   0  0.1225989E-02  0.4997815E+03  0.7818609E-02  0.1013836E+00
        1   -1    0    0  501    0  0.00000000000E+00  0.00000000000E+00  0.11388964738E+03  0.11388964750E+03  0.50400001928E-02 0. -1.
       -1   -1    0    0    0  501  0.00000000000E+00  0.00000000000E+00 -0.54829723621E+03  0.54829723623E+03  0.50400001928E-02 0.  1.
    10030    2    1    2    0    0  0.00000000000E+00  0.00000000000E+00 -0.43440758882E+03  0.66218688372E+03  0.49978146799E+03 0.  0.
        3    1    3    3  502    0 -0.14886164766E+03  0.16084415898E+03 -0.58128125199E+02  0.22673668156E+03  0.10100000352E+00 0. -1.
       -3    1    3    3    0  502  0.14886164766E+03 -0.16084415898E+03 -0.37627946362E+03  0.43545020217E+03  0.10100000352E+00 0.  1.
</event>
<event>
 5   0  0.1941387E-02  0.4941709E+03  0.7818609E-02  0.1015312E+00
        2   -1    0    0  501    0  0.00000000000E+00  0.00000000000E+00  0.47200096444E+03  0.47200096445E+03  0.25500000920E-02 0.  1.
       -2   -1    0    0    0  501  0.00000000000E+00  0.00000000000E+00 -0.12934554648E+03  0.12934554651E+03  0.25500000920E-02 0. -1.
    10030    2    1    2    0    0  0.00000000000E+00  0.00000000000E+00  0.34265541796E+03  0.60134651096E+03  0.49417091252E+03 0.  0.
        4    1    3    3  502    0  0.42818249774E+01  0.62053420083E+02  0.46231375030E+03  0.46648105812E+03  0.12699999809E+01 0.  1.
       -4    1    3    3    0  502 -0.42818249774E+01 -0.62053420083E+02 -0.11965833234E+03  0.13486545283E+03  0.12699999809E+01 0. -1.
</event>
<event>
 5   0  0.1209831E-02  0.4993708E+03  0.7818609E-02  0.1013943E+00
        1   -1    0    0  501    0  0.00000000000E+00  0.00000000000E+00  0.49586952903E+03  0.49586952905E+03  0.50400001928E-02 0. -1.
       -1   -1    0    0    0  501  0.00000000000E+00  0.00000000000E+00 -0.12572421088E+03  0.12572421098E+03  0.50400001928E-02 0.  1.
    10030    2    1    2    0    0  0.00000000000E+00  0.00000000000E+00  0.37014531815E+03  0.62159374003E+03  0.49937082523E+03 0.  0.
        4    1    3    3  502    0 -0.51148151344E+02 -0.24375189490E+03  0.16315393624E+03  0.29774475556E+03  0.12699999809E+01 0.  1.
       -4    1    3    3    0  502  0.51148151344E+02  0.24375189490E+03  0.20699138191E+03  0.32384898447E+03  0.12699999809E+01 0. -1.
</event>
<event>
 5   0  0.1982847E-02  0.5002944E+03  0.7818609E-02  0.1013702E+00
       -2   -1    0    0    0  501  0.00000000000E+00  0.00000000000E+00  0.69785840175E+02  0.69785840222E+02  0.25500000920E-02 0. -1.
        2   -1    0    0  501    0  0.00000000000E+00  0.00000000000E+00 -0.89665216015E+03  0.89665216016E+03  0.25500000920E-02 0.  1.
    10030    2    1    2    0    0  0.00000000000E+00  0.00000000000E+00 -0.82686631998E+03  0.96643800038E+03  0.50029441078E+03 0.  0.
        2    1    3    3  502    0  0.17589081481E+03  0.37670885157E+02 -0.77638596779E+02  0.19591943763E+03  0.25500000920E-02 0. -1.
       -2    1    3    3    0  502 -0.17589081481E+03 -0.37670885157E+02 -0.74922772320E+03  0.77051856275E+03  0.25500000920E-02 0.  1.
</event>
<event>
 5   0  0.1225989E-02  0.5005790E+03  0.7818609E-02  0.1013628E+00
        1   -1    0    0  501    0  0.00000000000E+00  0.00000000000E+00  0.43489981710E+03  0.43489981713E+03  0.50400001928E-02 0.  1.
       -1   -1    0    0    0  501  0.00000000000E+00  0.00000000000E+00 -0.14404429967E+03  0.14404429975E+03  0.50400001928E-02 0. -1.
    10030    2    1    2    0    0  0.00000000000E+00  0.00000000000E+00  0.29085551743E+03  0.57894411688E+03  0.50057902318E+03 0.  0.
        3    1    3    3  502    0  0.15789704842E+03  0.16662663838E+02 -0.78344898594E+02  0.17705099718E+03  0.10100000352E+00 0. -1.
       -3    1    3    3    0  502 -0.15789704842E+03 -0.16662663838E+02  0.36920041603E+03  0.40189311970E+03  0.10100000352E+00 0.  1.
</event>
<event>
 5   0  0.8012875E-03  0.4988046E+03  0.7818609E-02  0.1014091E+00
        3   -1    0    0  501    0  0.00000000000E+00  0.00000000000E+00  0.38544475785E+02  0.38544608112E+02  0.10100000352E+00 0.  1.
       -3   -1    0    0    0  501  0.00000000000E+00  0.00000000000E+00 -0.16137566871E+04  0.16137566902E+04  0.10100000352E+00 0. -1.
    10030    2    1    2    0    0  0.00000000000E+00  0.00000000000E+00 -0.15752122113E+04  0.16523012983E+04  0.49880464104E+03 0.  0.
        4    1    3    3  502    0 -0.15610153420E+03  0.15542437161E+03 -0.11749797351E+04  0.11954511346E+04  0.12699999809E+01 0. -1.
       -4    1    3    3    0  502  0.15610153420E+03 -0.15542437161E+03 -0.40023247614E+03  0.45685016376E+03  0.12699999809E+01 0.  1.
</event>
<event>
 5   0  0.1855407E-02  0.5007416E+03  0.7818609E-02  0.1013586E+00
       -2   -1    0    0    0  501  0.00000000000E+00  0.00000000000E+00  0.45303416192E+02  0.45303416264E+02  0.25500000920E-02 0. -1.
        2   -1    0    0  501    0  0.00000000000E+00  0.00000000000E+00 -0.13836825440E+04  0.13836825440E+04  0.25500000920E-02 0.  1.
    10030    2    1    2    0    0  0.00000000000E+00  0.00000000000E+00 -0.13383791278E+04  0.14289859603E+04  0.50074163487E+03 0.  0.
        1    1    3    3  502    0 -0.14348944606E+03 -0.19911788739E+03 -0.52798304923E+03  0.58223985994E+03  0.50400001928E-02 0. -1.
       -1    1    3    3    0  502  0.14348944606E+03  0.19911788739E+03 -0.81039607859E+03  0.84674610033E+03  0.50400001928E-02 0.  1.
</event>
<event>
 5   0  0.1967813E-02  0.4989857E+03  0.7818609E-02  0.1014044E+00
       -2   -1    0    0    0  501  0.00000000000E+00  0.00000000000E+00  0.14846358120E+03  0.14846358123E+03  0.25500000920E-02 0. -1.
        2   -1    0    0  501    0  0.00000000000E+00  0.00000000000E+00 -0.41927244689E+03  0.41927244690E+03  0.25500000920E-02 0.  1.
    10030    2    1    2    0    0  0.00000000000E+00  0.00000000000E+00 -0.27080886569E+03  0.56773602813E+03  0.49898572715E+03 0.  0.
        5    1    3    3  502    0  0.16705734239E+02 -0.46733629958E+02 -0.41354800183E+03  0.41654189890E+03  0.46999998093E+01 0.  1.
       -5    1    3    3    0  502 -0.16705734239E+02  0.46733629958E+02  0.14273913614E+03  0.15119412922E+03  0.46999998093E+01 0. -1.
</event>
<event>
 5   0  0.1180937E-02  0.4990311E+03  0.7818609E-02  0.1014032E+00
        1   -1    0    0  501    0  0.00000000000E+00  0.00000000000E+00  0.43865386247E+03  0.43865386250E+03  0.50400001928E-02 0.  1.
       -1   -1    0    0    0  501  0.00000000000E+00  0.00000000000E+00 -0.14192972482E+03  0.14192972491E+03  0.50400001928E-02 0. -1.
    10030    2    1    2    0    0  0.00000000000E+00  0.00000000000E+00  0.29672413765E+03  0.58058358741E+03  0.49903114943E+03 0.  0.
        1    1    3    3  502    0  0.18561007449E+03 -0.10131169573E+03 -0.57324992754E+01  0.21153728044E+03  0.50400001928E-02 0. -1.
       -1    1    3    3    0  502 -0.18561007449E+03  0.10131169573E+03  0.30245663693E+03  0.36904630697E+03  0.50400001928E-02 0.  1.
</event>
<event>
 5   0  0.1217270E-02  0.5001011E+03  0.7818609E-02  0.1013753E+00
        1   -1    0    0  501    0  0.00000000000E+00  0.00000000000E+00  0.21006584165E+04  0.21006584166E+04  0.50400001928E-02 0.  1.
       -1   -1    0    0    0  501  0.00000000000E+00  0.00000000000E+00 -0.29764611329E+02  0.29764611756E+02  0.50400001928E-02 0. -1.
    10030    2    1    2    0    0  0.00000000000E+00  0.00000000000E+00  0.20708938052E+04  0.21304230283E+04  0.50010111684E+03 0.  0.
        2    1    3    3  502    0  0.10507165450E+02 -0.88339608391E+02  0.39931308391E+02  0.97513057243E+02  0.25500000920E-02 0. -1.
       -2    1    3    3    0  502 -0.10507165450E+02  0.88339608391E+02  0.20309624968E+04  0.20329099711E+04  0.25500000920E-02 0.  1.
</event>
<event>
 5   0  0.1209831E-02  0.4979577E+03  0.7818609E-02  0.1014313E+00
        1   -1    0    0  501    0  0.00000000000E+00  0.00000000000E+00  0.23484276054E+03  0.23484276060E+03  0.50400001928E-02 0.  1.
       -1   -1    0    0    0  501  0.00000000000E+00  0.00000000000E+00 -0.26396585368E+03  0.26396585373E+03  0.50400001928E-02 0. -1.
    10030    2    1    2    0    0  0.00000000000E+00  0.00000000000E+00 -0.29123093140E+02  0.49880861433E+03  0.49795770822E+03 0.  0.
        4    1    3    3  502    0 -0.16878891878E+03  0.72544466127E+02  0.15376266778E+03  0.23957664655E+03  0.12699999809E+01 0.  1.
       -4    1    3    3    0  502  0.16878891878E+03 -0.72544466127E+02 -0.18288576092E+03  0.25923196778E+03  0.12699999809E+01 0. -1.
</event>
<event>
 5   0  0.1982847E-02  0.4993399E+03  0.7818609E-02  0.1013951E+00
        2   -1    0    0  501    0  0.00000000000E+00  0.00000000000E+00  0.80523388766E+03  0.80523388766E+03  0.25500000920E-02 0. -1.
       -2   -1    0    0    0  501  0.00000000000E+00  0.00000000000E+00 -0.77412384305E+02  0.77412384347E+02  0.25500000920E-02 0.  1.
    10030    2    1    2    0    0  0.00000000000E+00  0.00000000000E+00  0.72782150335E+03  0.88264627201E+03  0.49933986497E+03 0.  0.
        2    1    3    3  502    0  0.59793954121E+02  0.20849259968E+03  0.14533467226E+03  0.26108743371E+03  0.25500000920E-02 0.  1.
       -2    1    3    3    0  502 -0.59793954121E+02 -0.20849259968E+03  0.58248683109E+03  0.62155883830E+03  0.25500000920E-02 0. -1.
</event>
<event>
 5   0  0.1982847E-02  0.5001727E+03  0.7818609E-02  0.1013734E+00
        2   -1    0    0  501    0  0.00000000000E+00  0.00000000000E+00  0.30066955153E+03  0.30066955154E+03  0.25500000920E-02 0. -1.
       -2   -1    0    0    0  501  0.00000000000E+00  0.00000000000E+00 -0.20801301191E+03  0.20801301192E+03  0.25500000920E-02 0.  1.
    10030    2    1    2    0    0  0.00000000000E+00  0.00000000000E+00  0.92656539622E+02  0.50868256347E+03  0.50017268622E+03 0.  0.
        2    1    3    3  502    0  0.18530075431E+03  0.10819685486E+03 -0.84310518103E+02  0.23054542377E+03  0.25500000920E-02 0.  1.
       -2    1    3    3    0  502 -0.18530075431E+03 -0.10819685486E+03  0.17696705772E+03  0.27813713970E+03  0.25500000920E-02 0. -1.
</event>
<event>
 5   0  0.1941387E-02  0.5013668E+03  0.7818609E-02  0.1013423E+00
       -2   -1    0    0    0  501  0.00000000000E+00  0.00000000000E+00  0.13814868982E+03  0.13814868984E+03  0.25500000920E-02 0.  1.
        2   -1    0    0  501    0  0.00000000000E+00  0.00000000000E+00 -0.45488790705E+03  0.45488790706E+03  0.25500000920E-02 0. -1.
    10030    2    1    2    0    0  0.00000000000E+00  0.00000000000E+00 -0.31673921723E+03  0.59303659690E+03  0.50136680537E+03 0.  0.
        4    1    3    3  502    0 -0.23311719811E+03  0.90572645181E+02 -0.13810457812E+03  0.28569480133E+03  0.12699999809E+01 0.  1.
       -4    1    3    3    0  502  0.23311719811E+03 -0.90572645181E+02 -0.17863463911E+03  0.30734179557E+03  0.12699999809E+01 0. -1.
</event>
<event>
 5   0  0.8012875E-03  0.5003024E+03  0.7818609E-02  0.1013700E+00
       -3   -1    0    0    0  501  0.00000000000E+00  0.00000000000E+00  0.66874372620E+02  0.66874448890E+02  0.10100000352E+00 0.  1.
        3   -1    0    0  501    0  0.00000000000E+00  0.00000000000E+00 -0.93571854034E+03  0.93571854579E+03  0.10100000352E+00 0. -1.
    10030    2    1    2    0    0  0.00000000000E+00  0.00000000000E+00 -0.86884416772E+03  0.10025929947E+04  0.50030243374E+03 0.  0.
        4    1    3    3  502    0 -0.55274435235E+02  0.17541303599E+03 -0.77420660284E+03  0.79575277139E+03  0.12699999809E+01 0. -1.
       -4    1    3    3    0  502  0.55274435235E+02 -0.17541303599E+03 -0.94637564882E+02  0.20684022330E+03  0.12699999809E+01 0.  1.
</event>
<event>
 5   0  0.1967813E-02  0.4995591E+03  0.7818609E-02  0.1013894E+00
       -2   -1    0    0    0  501  0.00000000000E+00  0.00000000000E+00  0.65062045605E+02  0.65062045655E+02  0.25500000920E-02 0. -1.
        2   -1    0    0  501    0  0.00000000000E+00  0.00000000000E+00 -0.95892809713E+03  0.95892809713E+03  0.25500000920E-02 0.  1.
    10030    2    1    2    0    0  0.00000000000E+00  0.00000000000E+00 -0.89386605153E+03  0.10239901428E+04  0.49955910007E+03 0.  0.
        5    1    3    3  502    0 -0.16920854735E+03  0.20067872814E+02 -0.72693856898E+02  0.18531254368E+03  0.46999998093E+01 0. -1.
       -5    1    3    3    0  502  0.16920854735E+03 -0.20067872814E+02 -0.82117219463E+03  0.83867759911E+03  0.46999998093E+01 0.  1.
</event>
<event>
 5   0  0.1982847E-02  0.4993921E+03  0.7818609E-02  0.1013938E+00
        2   -1    0    0  501    0  0.00000000000E+00  0.00000000000E+00  0.69795167177E+03  0.69795167178E+03  0.25500000920E-02 0. -1.
       -2   -1    0    0    0  501  0.00000000000E+00  0.00000000000E+00 -0.89330128148E+02  0.89330128185E+02  0.25500000920E-02 0.  1.
    10030    2    1    2    0    0  0.00000000000E+00  0.00000000000E+00  0.60862154362E+03  0.78728179996E+03  0.49939207962E+03 0.  0.
        2    1    3    3  502    0  0.14296233929E+03 -0.28724053282E+02 -0.15232153124E+02  0.14661282409E+03  0.25500000920E-02 0.  1.
       -2    1    3    3    0  502 -0.14296233929E+03  0.28724053282E+02  0.62385369675E+03  0.64066897587E+03  0.25500000920E-02 0. -1.
</event>
<event>
 5   0  0.1855407E-02  0.5010943E+03  0.7818609E-02  0.1013494E+00
        2   -1    0    0  501    0  0.00000000000E+00  0.00000000000E+00  0.62912904921E+03  0.62912904922E+03  0.25500000920E-02 0.  1.
       -2   -1    0    0    0  501  0.00000000000E+00  0.00000000000E+00 -0.99779009674E+02  0.99779009707E+02  0.25500000920E-02 0. -1.
    10030    2    1    2    0    0  0.00000000000E+00  0.00000000000E+00  0.52935003954E+03  0.72890805892E+03  0.50109429652E+03 0.  0.
        1    1    3    3  502    0  0.64151849708E+02  0.16127726817E+03  0.52750927028E+03  0.55533039473E+03  0.50400001928E-02 0.  1.
       -1    1    3    3    0  502 -0.64151849708E+02 -0.16127726817E+03  0.18407692541E+01  0.17357766419E+03  0.50400001928E-02 0. -1.
</event>
<event>
 5   0  0.1941387E-02  0.4999284E+03  0.7818609E-02  0.1013798E+00
       -2   -1    0    0    0  501  0.00000000000E+00  0.00000000000E+00  0.17942785107E+03  0.17942785108E+03  0.25500000920E-02 0. -1.
        2   -1    0    0  501    0  0.00000000000E+00  0.00000000000E+00 -0.34822961172E+03  0.34822961173E+03  0.25500000920E-02 0.  1.
    10030    2    1    2    0    0  0.00000000000E+00  0.00000000000E+00 -0.16880176066E+03  0.52765746282E+03  0.49992835853E+03 0.  0.
        4    1    3    3  502    0 -0.21312305086E+03 -0.12427262980E+03 -0.41980112073E+02  0.25025799495E+03  0.12699999809E+01 0.  1.
       -4    1    3    3    0  502  0.21312305086E+03  0.12427262980E+03 -0.12682164858E+03  0.27739946787E+03  0.12699999809E+01 0. -1.
</event>
<event>
 5   0  0.1941387E-02  0.4991131E+03  0.7818609E-02  0.1014011E+00
       -2   -1    0    0    0  501  0.00000000000E+00  0.00000000000E+00  0.46687738469E+02  0.46687738539E+02  0.25500000920E-02 0. -1.
        2   -1    0    0  501    0  0.00000000000E+00  0.00000000000E+00 -0.13339364749E+04  0.13339364749E+04  0.25500000920E-02 0.  1.
    10030    2    1    2    0    0  0.00000000000E+00  0.00000000000E+00 -0.12872487365E+04  0.13806242135E+04  0.49911312275E+03 0.  0.
        4    1    3    3  502    0 -0.94157304444E+02 -0.65630291035E+02 -0.12565878890E+04  0.12618191902E+04  0.12699999809E+01 0.  1.
       -4    1    3    3    0  502  0.94157304444E+02  0.65630291035E+02 -0.30660847429E+02  0.11880502324E+03  0.12699999809E+01 0. -1.
</event>
<event>
 5   0  0.1967813E-02  0.5004330E+03  0.7818609E-02  0.1013666E+00
       -2   -1    0    0    0  501  0.00000000000E+00  0.00000000000E+00  0.31669588338E+02  0.31669588441E+02  0.25500000920E-02 0. -1.
        2   -1    0    0  501    0  0.00000000000E+00  0.00000000000E+00 -0.19769220707E+04  0.19769220708E+04  0.25500000920E-02 0.  1.
    10030    2    1    2    0    0  0.00000000000E+00  0.00000000000E+00 -0.19452524824E+04  0.20085916592E+04  0.50043304552E+03 0.  0.
        5    1    3    3  502    0  0.12985920615E+03 -0.16219021141E+03 -0.15319178553E+04  0.15459506730E+04  0.46999998093E+01 0.  1.
       -5    1    3    3    0  502 -0.12985920615E+03  0.16219021141E+03 -0.41333462713E+03  0.46264098616E+03  0.46999998093E+01 0. -1.
</event>
<event>
 5   0  0.1217270E-02  0.5005317E+03  0.7818609E-02  0.1013640E+00
        1   -1    0    0  501    0  0.00000000000E+00  0.00000000000E+00  0.71258333804E+03  0.71258333805E+03  0.50400001928E-02 0.  1.
       -1   -1    0    0    0  501  0.00000000000E+00  0.00000000000E+00 -0.87895680272E+02  0.87895680417E+02  0.50400001928E-02 0. -1.
    10030    2    1    2    0    0  0.00000000000E+00  0.00000000000E+00  0.62468765776E+03  0.80047901847E+03  0.50053170654E+03 0.  0.
        2    1    3    3  502    0 -0.30207070695E+02  0.18428082737E+03  0.57880672786E+03  0.60818510232E+03  0.25500000920E-02 0.  1.
       -2    1    3    3    0  502  0.30207070695E+02 -0.18428082737E+03  0.45880929901E+02  0.19229391615E+03  0.25500000920E-02 0. -1.
</event>
<event>
 5   0  0.1967813E-02  0.4997101E+03  0.7818609E-02  0.1013855E+00
        2   -1    0    0  501    0  0.00000000000E+00  0.00000000000E+00  0.42125703369E+03  0.42125703370E+03  0.25500000920E-02 0. -1.
       -2   -1    0    0    0  501  0.00000000000E+00  0.00000000000E+00 -0.14819345334E+03  0.14819345337E+03  0.25500000920E-02 0.  1.
    10030    2    1    2    0    0  0.00000000000E+00  0.00000000000E+00  0.27306358035E+03  0.56945048707E+03  0.49971005424E+03 0.  0.
        5    1    3    3  502    0  0.71078607629E+02 -0.13299551459E+03 -0.90425521822E+02  0.17589440116E+03  0.46999998093E+01 0.  1.
       -5    1    3    3    0  502 -0.71078607629E+02  0.13299551459E+03  0.36348910217E+03  0.39355608591E+03  0.46999998093E+01 0. -1.
</event>
<event>
 5   0  0.1923706E-02  0.5012509E+03  0.7818609E-02  0.1013453E+00
       -2   -1    0    0    0  501  0.00000000000E+00  0.00000000000E+00  0.58739932937E+02  0.58739932992E+02  0.25500000920E-02 0. -1.
        2   -1    0    0  501    0  0.00000000000E+00  0.00000000000E+00 -0.10693426236E+04  0.10693426236E+04  0.25500000920E-02 0.  1.
    10030    2    1    2    0    0  0.00000000000E+00  0.00000000000E+00 -0.10106026907E+04  0.11280825566E+04  0.50125089140E+03 0.  0.
        3    1    3    3  502    0  0.20658551289E+03 -0.11194636271E+03 -0.30905856501E+03  0.38823545571E+03  0.10100000352E+00 0. -1.
       -3    1    3    3    0  502 -0.20658551289E+03  0.11194636271E+03 -0.70154412570E+03  0.73984710093E+03  0.10100000352E+00 0.  1.
</event>
<event>
 5   0  0.1967813E-02  0.4998470E+03  0.7818609E-02  0.1013819E+00
        2   -1    0    0  501    0  0.00000000000E+00  0.00000000000E+00  0.44302084496E+03  0.44302084497E+03  0.25500000920E-02 0. -1.
       -2   -1    0    0    0  501  0.00000000000E+00  0.00000000000E+00 -0.14099056776E+03  0.14099056779E+03  0.25500000920E-02 0.  1.
    10030    2    1    2    0    0  0.00000000000E+00  0.00000000000E+00  0.30203027720E+03  0.58401141276E+03  0.49984701848E+03 0.  0.
        5    1    3    3  502    0  0.17130502839E+03  0.18087349938E+03  0.17376212417E+03  0.30376965176E+03  0.46999998093E+01 0. -1.
       -5    1    3    3    0  502 -0.17130502839E+03 -0.18087349938E+03  0.12826815303E+03  0.28024176100E+03  0.46999998093E+01 0.  1.
</event>
<event>
 5   0  0.1209831E-02  0.4998660E+03  0.7818609E-02  0.1013814E+00
        1   -1    0    0  501    0  0.00000000000E+00  0.00000000000E+00  0.14225022495E+04  0.14225022495E+04  0.50400001928E-02 0.  1.
       -1   -1    0    0    0  501  0.00000000000E+00  0.00000000000E+00 -0.43913115838E+02  0.43913116127E+02  0.50400001928E-02 0. -1.
    10030    2    1    2    0    0  0.00000000000E+00  0.00000000000E+00  0.13785891336E+04  0.14664153656E+04  0.49986600716E+03 0.  0.
        4    1    3    3  502    0  0.67640060736E+02 -0.20827284758E+03  0.10426966265E+04  0.10654438628E+04  0.12699999809E+01 0.  1.
       -4    1    3    3    0  502 -0.67640060736E+02  0.20827284758E+03  0.33589250711E+03  0.40097150283E+03  0.12699999809E+01 0. -1.
</event>
<event>
 5   0  0.1227864E-02  0.5003765E+03  0.7818609E-02  0.1013681E+00
        1   -1    0    0  501    0  0.00000000000E+00  0.00000000000E+00  0.73830840079E+03  0.73830840081E+03  0.50400001928E-02 0.  1.
       -1   -1    0    0    0  501  0.00000000000E+00  0.00000000000E+00 -0.84780492193E+02  0.84780492343E+02  0.50400001928E-02 0. -1.
    10030    2    1    2    0    0  0.00000000000E+00  0.00000000000E+00  0.65352790860E+03  0.82308889316E+03  0.50037645699E+03 0.  0.
        5    1    3    3  502    0 -0.95761238209E+02 -0.16275949600E+03  0.59661017262E+03  0.62580081204E+03  0.46999998093E+01 0.  1.
       -5    1    3    3    0  502  0.95761238209E+02  0.16275949600E+03  0.56917735984E+02  0.19728808111E+03  0.46999998093E+01 0. -1.
</event>
<event>
 5   0  0.1225989E-02  0.4973175E+03  0.7818609E-02  0.1014481E+00
        1   -1    0    0  501    0  0.00000000000E+00  0.00000000000E+00  0.32179840019E+02  0.32179840413E+02  0.50400001928E-02 0. -1.
       -1   -1    0    0    0  501  0.00000000000E+00  0.00000000000E+00 -0.19214254639E+04  0.19214254639E+04  0.50400001928E-02 0.  1.
    10030    2    1    2    0    0  0.00000000000E+00  0.00000000000E+00 -0.18892456239E+04  0.19536053043E+04  0.49731746170E+03 0.  0.
        3    1    3    3  502    0 -0.14839833955E+03 -0.17502004338E+03 -0.13209409699E+04  0.13407233640E+04  0.10100000352E+00 0. -1.
       -3    1    3    3    0  502  0.14839833955E+03  0.17502004338E+03 -0.56830465404E+03  0.61288194032E+03  0.10100000352E+00 0.  1.
</event>
<event>
 5   0  0.8012875E-03  0.5005820E+03  0.7818609E-02  0.1013627E+00
        3   -1    0    0  501    0  0.00000000000E+00  0.00000000000E+00  0.67394447589E+02  0.67394523270E+02  0.10100000352E+00 0.  1.
       -3   -1    0    0    0  501  0.00000000000E+00  0.00000000000E+00 -0.92953581599E+03  0.92953582148E+03  0.10100000352E+00 0. -1.
    10030    2    1    2    0    0  0.00000000000E+00  0.00000000000E+00 -0.86214136841E+03  0.99693034475E+03  0.50058203441E+03 0.  0.
        1    1    3    3  502    0  0.13288249521E+03 -0.18820439327E+03 -0.62586493231E+03  0.66692245779E+03  0.50400001928E-02 0.  1.
       -1    1    3    3    0  502 -0.13288249521E+03  0.18820439327E+03 -0.23627643610E+03  0.33000788697E+03  0.50400001928E-02 0. -1.
</event>
<event>
 5   0  0.8012875E-03  0.4922379E+03  0.7818609E-02  0.1015825E+00
        3   -1    0    0  501    0  0.00000000000E+00  0.00000000000E+00  0.64860791568E+02  0.64860870206E+02  0.10100000352E+00 0. -1.
       -3   -1    0    0    0  501  0.00000000000E+00  0.00000000000E+00 -0.93391539321E+03  0.93391539867E+03  0.10100000352E+00 0.  1.
    10030    2    1    2    0    0  0.00000000000E+00  0.00000000000E+00 -0.86905460164E+03  0.99877626888E+03  0.49223788420E+03 0.  0.
        2    1    3    3  502    0  0.22860973827E+03  0.45172174466E+02 -0.59521484466E+03  0.63920548268E+03  0.25500000920E-02 0.  1.
       -2    1    3    3    0  502 -0.22860973827E+03 -0.45172174466E+02 -0.27383975698E+03  0.35957078620E+03  0.25500000920E-02 0. -1.
</event>
<event>
 5   0  0.1855407E-02  0.4993717E+03  0.7818609E-02  0.1013943E+00
       -2   -1    0    0    0  501  0.00000000000E+00  0.00000000000E+00  0.34288710646E+02  0.34288710741E+02  0.25500000920E-02 0. -1.
        2   -1    0    0  501    0  0.00000000000E+00  0.00000000000E+00 -0.18181794677E+04  0.18181794677E+04  0.25500000920E-02 0.  1.
    10030    2    1    2    0    0  0.00000000000E+00  0.00000000000E+00 -0.17838907571E+04  0.18524681785E+04  0.49937172431E+03 0.  0.
        1    1    3    3  502    0 -0.20853285412E+03  0.13709653321E+03 -0.92106490997E+03  0.95427563056E+03  0.50400001928E-02 0. -1.
       -1    1    3    3    0  502  0.20853285412E+03 -0.13709653321E+03 -0.86282584710E+03  0.89819254791E+03  0.50400001928E-02 0.  1.
</event>
<event>
 5   0  0.1855407E-02  0.4997128E+03  0.7818609E-02  0.1013854E+00
       -2   -1    0    0    0  501  0.00000000000E+00  0.00000000000E+00  0.11223965499E+03  0.11223965502E+03  0.25500000920E-02 0. -1.
        2   -1    0    0  501    0  0.00000000000E+00  0.00000000000E+00 -0.55620473701E+03  0.55620473701E+03  0.25500000920E-02 0.  1.
    10030    2    1    2    0    0  0.00000000000E+00  0.00000000000E+00 -0.44396508201E+03  0.66844439204E+03  0.49971282873E+03 0.  0.
        1    1    3    3  502    0  0.12931922593E+03 -0.16503631916E+03 -0.40200021318E+02  0.21348651146E+03  0.50400001928E-02 0. -1.
       -1    1    3    3    0  502 -0.12931922593E+03  0.16503631916E+03 -0.40376506070E+03  0.45495788058E+03  0.50400001928E-02 0.  1.
</event>
<event>
 5   0  0.1209831E-02  0.4934329E+03  0.7818609E-02  0.1015507E+00
       -1   -1    0    0    0  501  0.00000000000E+00  0.00000000000E+00  0.71725114563E+02  0.71725114740E+02  0.50400001928E-02 0.  1.
        1   -1    0    0  501    0  0.00000000000E+00  0.00000000000E+00 -0.84864302588E+03  0.84864302590E+03  0.50400001928E-02 0. -1.
    10030    2    1    2    0    0  0.00000000000E+00  0.00000000000E+00 -0.77691791132E+03  0.92036814064E+03  0.49343294719E+03 0.  0.
        4    1    3    3  502    0 -0.11375770270E+03  0.19695542957E+02  0.18224938749E+02  0.11688665718E+03  0.12699999809E+01 0.  1.
       -4    1    3    3    0  502  0.11375770270E+03 -0.19695542957E+02 -0.79514285007E+03  0.80348148345E+03  0.12699999809E+01 0. -1.
</event>
<event>
 5   0  0.1982847E-02  0.5004220E+03  0.7818609E-02  0.1013669E+00
       -2   -1    0    0    0  501  0.00000000000E+00  0.00000000000E+00  0.85210053350E+02  0.85210053388E+02  0.25500000920E-02 0.  1.
        2   -1    0    0  501    0  0.00000000000E+00  0.00000000000E+00 -0.73472009959E+03  0.73472009960E+03  0.25500000920E-02 0. -1.
    10030    2    1    2    0    0  0.00000000000E+00  0.00000000000E+00 -0.64951004624E+03  0.81993015298E+03  0.50042197754E+03 0.  0.
        2    1    3    3  502    0  0.66513906870E+02  0.10755235818E+03  0.28996517448E+02  0.12973976872E+03  0.25500000920E-02 0.  1.
       -2    1    3    3    0  502 -0.66513906870E+02 -0.10755235818E+03 -0.67850656369E+03  0.69019038427E+03  0.25500000920E-02 0. -1.
</event>
<event>
 5   0  0.1227864E-02  0.5009681E+03  0.7818609E-02  0.1013527E+00
       -1   -1    0    0    0  501  0.00000000000E+00  0.00000000000E+00  0.10262855043E+03  0.10262855056E+03  0.50400001928E-02 0.  1.
        1   -1    0    0  501    0  0.00000000000E+00  0.00000000000E+00 -0.61135286897E+03  0.61135286899E+03  0.50400001928E-02 0. -1.
    10030    2    1    2    0    0  0.00000000000E+00  0.00000000000E+00 -0.50872431854E+03  0.71398141955E+03  0.50096809798E+03 0.  0.
        5    1    3    3  502    0  0.22935643999E+03  0.64563490327E+02 -0.36427248965E+03  0.43530375321E+03  0.46999998093E+01 0.  1.
       -5    1    3    3    0  502 -0.22935643999E+03 -0.64563490327E+02 -0.14445182889E+03  0.27867766634E+03  0.46999998093E+01 0. -1.
</event>
<event>
 5   0  0.1967813E-02  0.4993581E+03  0.7818609E-02  0.1013947E+00
       -2   -1    0    0    0  501  0.00000000000E+00  0.00000000000E+00  0.45363719929E+02  0.45363720000E+02  0.25500000920E-02 0. -1.
        2   -1    0    0  501    0  0.00000000000E+00  0.00000000000E+00 -0.13742175952E+04  0.13742175952E+04  0.25500000920E-02 0.  1.
    10030    2    1    2    0    0  0.00000000000E+00  0.00000000000E+00 -0.13288538753E+04  0.14195813152E+04  0.49935807659E+03 0.  0.
        5    1    3    3  502    0 -0.23488967786E+03 -0.84311308349E+02 -0.68147781389E+03  0.72575178836E+03  0.46999998093E+01 0.  1.
       -5    1    3    3    0  502  0.23488967786E+03  0.84311308349E+02 -0.64737606141E+03  0.69382952688E+03  0.46999998093E+01 0. -1.
</event>
<event>
 5   0  0.1967813E-02  0.4996255E+03  0.7818609E-02  0.1013877E+00
       -2   -1    0    0    0  501  0.00000000000E+00  0.00000000000E+00  0.62159098226E+02  0.62159098278E+02  0.25500000920E-02 0. -1.
        2   -1    0    0  501    0  0.00000000000E+00  0.00000000000E+00 -0.10039787799E+04  0.10039787799E+04  0.25500000920E-02 0.  1.
    10030    2    1    2    0    0  0.00000000000E+00  0.00000000000E+00 -0.94181968168E+03  0.10661378782E+04  0.49962552227E+03 0.  0.
        5    1    3    3  502    0 -0.21415014702E+03 -0.12766915677E+03 -0.50289137703E+03  0.56132123258E+03  0.46999998093E+01 0.  1.
       -5    1    3    3    0  502  0.21415014702E+03  0.12766915677E+03 -0.43892830465E+03  0.50481664560E+03  0.46999998093E+01 0. -1.
</event>
<event>
 5   0  0.1180937E-02  0.5037682E+03  0.7818609E-02  0.1012800E+00
       -1   -1    0    0    0  501  0.00000000000E+00  0.00000000000E+00  0.21883121666E+03  0.21883121672E+03  0.50400001928E-02 0.  1.
        1   -1    0    0  501    0  0.00000000000E+00  0.00000000000E+00 -0.28992939912E+03  0.28992939916E+03  0.50400001928E-02 0. -1.
    10030    2    1    2    0    0  0.00000000000E+00  0.00000000000E+00 -0.71098182460E+02  0.50876061588E+03  0.50376821329E+03 0.  0.
        1    1    3    3  502    0 -0.64677433468E+02 -0.13385059860E+03  0.16980428002E+03  0.22568262380E+03  0.50400001928E-02 0.  1.
       -1    1    3    3    0  502  0.64677433468E+02  0.13385059860E+03 -0.24090246248E+03  0.28307799208E+03  0.50400001928E-02 0. -1.
</event>
<event>
 5   0  0.1217270E-02  0.5009105E+03  0.7818609E-02  0.1013542E+00
        1   -1    0    0  501    0  0.00000000000E+00  0.00000000000E+00  0.56395870727E+03  0.56395870730E+03  0.50400001928E-02 0. -1.
       -1   -1    0    0    0  501  0.00000000000E+00  0.00000000000E+00 -0.11122772094E+03  0.11122772105E+03  0.50400001928E-02 0.  1.
    10030    2    1    2    0    0  0.00000000000E+00  0.00000000000E+00  0.45273098633E+03  0.67518642835E+03  0.50091053796E+03 0.  0.
        2    1    3    3  502    0 -0.14365146414E+03 -0.81779396471E+02  0.47998993595E+03  0.50765534712E+03  0.25500000920E-02 0. -1.
       -2    1    3    3    0  502  0.14365146414E+03  0.81779396471E+02 -0.27258949621E+02  0.16753108123E+03  0.25500000920E-02 0.  1.
</event>
<event>
 5   0  0.1923706E-02  0.4992755E+03  0.7818609E-02  0.1013968E+00
       -2   -1    0    0    0  501  0.00000000000E+00  0.00000000000E+00  0.97204899404E+03  0.97204899405E+03  0.25500000920E-02 0.  1.
        2   -1    0    0  501    0  0.00000000000E+00  0.00000000000E+00 -0.64110968819E+02  0.64110968869E+02  0.25500000920E-02 0. -1.
    10030    2    1    2    0    0  0.00000000000E+00  0.00000000000E+00  0.90793802522E+03  0.10361599629E+04  0.49927548618E+03 0.  0.
        3    1    3    3  502    0  0.71422473515E+02 -0.11319560313E+03  0.89129011972E+03  0.90128380769E+03  0.10100000352E+00 0.  1.
       -3    1    3    3    0  502 -0.71422473515E+02  0.11319560313E+03  0.16647905505E+02  0.13487615523E+03  0.10100000352E+00 0. -1.
</event>
<event>
 5   0  0.1855407E-02  0.5002821E+03  0.7818609E-02  0.1013705E+00
       -2   -1    0    0    0  501  0.00000000000E+00  0.00000000000E+00  0.17019883877E+03  0.17019883879E+03  0.25500000920E-02 0.  1.
        2   -1    0    0  501    0  0.00000000000E+00  0.00000000000E+00 -0.36763206119E+03  0.36763206120E+03  0.25500000920E-02 0. -1.
    10030    2    1    2    0    0  0.00000000000E+00  0.00000000000E+00 -0.19743322242E+03  0.53783089999E+03  0.50028212008E+03 0.  0.
        1    1    3    3  502    0 -0.42525895595E+02  0.18693573356E+03  0.74020139529E+02  0.20550523439E+03  0.50400001928E-02 0.  1.
       -1    1    3    3    0  502  0.42525895595E+02 -0.18693573356E+03 -0.27145336195E+03  0.33232566560E+03  0.50400001928E-02 0. -1.
</event>
<event>
 5   0  0.1967813E-02  0.4996809E+03  0.7818609E-02  0.1013862E+00
        2   -1    0    0  501    0  0.00000000000E+00  0.00000000000E+00  0.40622065035E+03  0.40622065036E+03  0.25500000920E-02 0.  1.
       -2   -1    0    0    0  501  0.00000000000E+00  0.00000000000E+00 -0.15366093762E+03  0.15366093764E+03  0.25500000920E-02 0. -1.
    10030    2    1    2    0    0  0.00000000000E+00  0.00000000000E+00  0.25255971273E+03  0.55988158800E+03  0.49968088225E+03 0.  0.
        5    1    3    3  502    0 -0.11124672369E+03 -0.12373964556E+03 -0.82474671993E+02  0.18577269695E+03  0.46999998093E+01 0. -1.
       -5    1    3    3    0  502  0.11124672369E+03  0.12373964556E+03  0.33503438472E+03  0.37410889104E+03  0.46999998093E+01 0.  1.
</event>
<event>
 5   0  0.1967813E-02  0.4996462E+03  0.7818609E-02  0.1013871E+00
        2   -1    0    0  501    0  0.00000000000E+00  0.00000000000E+00  0.80176324538E+03  0.80176324538E+03  0.25500000920E-02 0.  1.
       -2   -1    0    0    0  501  0.00000000000E+00  0.00000000000E+00 -0.77842907071E+02  0.77842907113E+02  0.25500000920E-02 0. -1.
    10030    2    1    2    0    0  0.00000000000E+00  0.00000000000E+00  0.72392033831E+03  0.87960615250E+03  0.49964620212E+03 0.  0.
        5    1    3    3  502    0  0.51433337628E+02 -0.60138460877E+02  0.77903443848E+03  0.78305732168E+03  0.46999998093E+01 0.  1.
       -5    1    3    3    0  502 -0.51433337628E+02  0.60138460877E+02 -0.55114100173E+02  0.96548830818E+02  0.46999998093E+01 0. -1.
</event>
<event>
 5   0  0.1923706E-02  0.4999426E+03  0.7818609E-02  0.1013794E+00
        2   -1    0    0  501    0  0.00000000000E+00  0.00000000000E+00  0.97347288198E+03  0.97347288198E+03  0.25500000920E-02 0.  1.
       -2   -1    0    0    0  501  0.00000000000E+00  0.00000000000E+00 -0.64188371369E+02  0.64188371420E+02  0.25500000920E-02 0. -1.
    10030    2    1    2    0    0  0.00000000000E+00  0.00000000000E+00  0.90928451061E+03  0.10376612534E+04  0.49994255228E+03 0.  0.
        3    1    3    3  502    0 -0.22201367366E+03 -0.11152637723E+03  0.51176449074E+03  0.56888584821E+03  0.10100000352E+00 0. -1.
       -3    1    3    3    0  502  0.22201367366E+03  0.11152637723E+03  0.39752001987E+03  0.46877540519E+03  0.10100000352E+00 0.  1.
</event>
<event>
 5   0  0.1941387E-02  0.4994447E+03  0.7818609E-02  0.1013924E+00
        2   -1    0    0  501    0  0.00000000000E+00  0.00000000000E+00  0.10664659469E+04  0.10664659469E+04  0.25500000920E-02 0. -1.
       -2   -1    0    0    0  501  0.00000000000E+00  0.00000000000E+00 -0.58474666721E+02  0.58474666777E+02  0.25500000920E-02 0.  1.
    10030    2    1    2    0    0  0.00000000000E+00  0.00000000000E+00  0.10079912802E+04  0.11249406137E+04  0.49944465499E+03 0.  0.
        4    1    3    3  502    0  0.45962248661E+02 -0.20535594987E+02 -0.46919860916E+02  0.68828229759E+02  0.12699999809E+01 0.  1.
       -4    1    3    3    0  502 -0.45962248661E+02  0.20535594987E+02  0.10549111411E+04  0.10561123840E+04  0.12699999809E+01 0. -1.
</event>
<event>
 5   0  0.1227864E-02  0.5009756E+03  0.7818609E-02  0.1013525E+00
       -1   -1    0    0    0  501  0.00000000000E+00  0.00000000000E+00  0.11031627063E+03  0.11031627074E+03  0.50400001928E-02 0. -1.
        1   -1    0    0  501    0  0.00000000000E+00  0.00000000000E+00 -0.56876602913E+03  0.56876602915E+03  0.50400001928E-02 0.  1.
    10030    2    1    2    0    0  0.00000000000E+00  0.00000000000E+00 -0.45844975851E+03  0.67908229990E+03  0.50097563709E+03 0.  0.
        5    1    3    3  502    0  0.80845921566E+02  0.19352508691E+03 -0.43691750838E+02  0.21428738037E+03  0.46999998093E+01 0. -1.
       -5    1    3    3    0  502 -0.80845921566E+02 -0.19352508691E+03 -0.41475800767E+03  0.46479491953E+03  0.46999998093E+01 0.  1.
</event>
<event>
 5   0  0.1923706E-02  0.5036524E+03  0.7818609E-02  0.1012830E+00
       -2   -1    0    0    0  501  0.00000000000E+00  0.00000000000E+00  0.16492836484E+03  0.16492836486E+03  0.25500000920E-02 0. -1.
        2   -1    0    0  501    0  0.00000000000E+00  0.00000000000E+00 -0.38450898411E+03  0.38450898412E+03  0.25500000920E-02 0.  1.
    10030    2    1    2    0    0  0.00000000000E+00  0.00000000000E+00 -0.21958061927E+03  0.54943734898E+03  0.50365241198E+03 0.  0.
        3    1    3    3  502    0  0.12594129740E+03  0.13683017981E+03 -0.29502830058E+03  0.34874835747E+03  0.10100000352E+00 0.  1.
       -3    1    3    3    0  502 -0.12594129740E+03 -0.13683017981E+03  0.75447681303E+02  0.20068899151E+03  0.10100000352E+00 0. -1.
</event>
<event>
 5   0  0.1941387E-02  0.5004466E+03  0.7818609E-02  0.1013662E+00
       -2   -1    0    0    0  501  0.00000000000E+00  0.00000000000E+00  0.90895754277E+02  0.90895754313E+02  0.25500000920E-02 0. -1.
        2   -1    0    0  501    0  0.00000000000E+00  0.00000000000E+00 -0.68882986578E+03  0.68882986579E+03  0.25500000920E-02 0.  1.
    10030    2    1    2    0    0  0.00000000000E+00  0.00000000000E+00 -0.59793411151E+03  0.77972562010E+03  0.50044664145E+03 0.  0.
        4    1    3    3  502    0 -0.11973868705E+03 -0.11323030395E+02  0.42900207460E+02  0.12770123294E+03  0.12699999809E+01 0. -1.
       -4    1    3    3    0  502  0.11973868705E+03  0.11323030395E+02 -0.64083431897E+03  0.65202438716E+03  0.12699999809E+01 0.  1.
</event>
<event>
 5   0  0.1855407E-02  0.5000706E+03  0.7818609E-02  0.1013760E+00
       -2   -1    0    0    0  501  0.00000000000E+00  0.00000000000E+00  0.23284914694E+03  0.23284914695E+03  0.25500000920E-02 0.  1.
        2   -1    0    0  501    0  0.00000000000E+00  0.00000000000E+00 -0.26848993443E+03  0.26848993444E+03  0.25500000920E-02 0. -1.
    10030    2    1    2    0    0  0.00000000000E+00  0.00000000000E+00 -0.35640787489E+02  0.50133908139E+03  0.50007060381E+03 0.  0.
        1    1    3    3  502    0  0.50841990179E+02  0.22021884989E+03 -0.12503277658E+03  0.25829139563E+03  0.50400001928E-02 0.  1.
       -1    1    3    3    0  502 -0.50841990179E+02 -0.22021884989E+03  0.89391989090E+02  0.24304768576E+03  0.50400001928E-02 0. -1.
</event>
<event>
 5   0  0.1209831E-02  0.4996944E+03  0.7818609E-02  0.1013859E+00
       -1   -1    0    0    0  501  0.00000000000E+00  0.00000000000E+00  0.10242540623E+03  0.10242540635E+03  0.50400001928E-02 0.  1.
        1   -1    0    0  501    0  0.00000000000E+00  0.00000000000E+00 -0.60945444071E+03  0.60945444073E+03  0.50400001928E-02 0. -1.
    10030    2    1    2    0    0  0.00000000000E+00  0.00000000000E+00 -0.50702903448E+03  0.71187984709E+03  0.49969438147E+03 0.  0.
        4    1    3    3  502    0 -0.95039627814E+02  0.16168622746E+03 -0.48867367030E+03  0.52342959025E+03  0.12699999809E+01 0. -1.
       -4    1    3    3    0  502  0.95039627814E+02 -0.16168622746E+03 -0.18355364184E+02  0.18845025683E+03  0.12699999809E+01 0.  1.
</event>
<event>
 5   0  0.1923706E-02  0.5000745E+03  0.7818609E-02  0.1013759E+00
        2   -1    0    0  501    0  0.00000000000E+00  0.00000000000E+00  0.11550305960E+04  0.11550305960E+04  0.25500000920E-02 0. -1.
       -2   -1    0    0    0  501  0.00000000000E+00  0.00000000000E+00 -0.54127256293E+02  0.54127256353E+02  0.25500000920E-02 0.  1.
    10030    2    1    2    0    0  0.00000000000E+00  0.00000000000E+00  0.11009033397E+04  0.12091578523E+04  0.50007454298E+03 0.  0.
        3    1    3    3  502    0 -0.86318834602E+00 -0.15359310627E+03  0.73390639340E+02  0.17022862137E+03  0.10100000352E+00 0.  1.
       -3    1    3    3    0  502  0.86318834602E+00  0.15359310627E+03  0.10275127004E+04  0.10389292310E+04  0.10100000352E+00 0. -1.
</event>
<event>
 5   0  0.1967813E-02  0.5001912E+03  0.7818609E-02  0.1013729E+00
       -2   -1    0    0    0  501  0.00000000000E+00  0.00000000000E+00  0.38680829464E+03  0.38680829465E+03  0.25500000920E-02 0. -1.
        2   -1    0    0  501    0  0.00000000000E+00  0.00000000000E+00 -0.16170233102E+03  0.16170233104E+03  0.25500000920E-02 0.  1.
    10030    2    1    2    0    0  0.00000000000E+00  0.00000000000E+00  0.22510596362E+03  0.54851062569E+03  0.50019117509E+03 0.  0.
        5    1    3    3  502    0 -0.53295256391E+02  0.25904778734E+02 -0.15384292234E+03  0.16492779228E+03  0.46999998093E+01 0.  1.
       -5    1    3    3    0  502  0.53295256391E+02 -0.25904778734E+02  0.37894888596E+03  0.38358283341E+03  0.46999998093E+01 0. -1.
</event>
<event>
 5   0  0.1180937E-02  0.4991831E+03  0.7818609E-02  0.1013992E+00
        1   -1    0    0  501    0  0.00000000000E+00  0.00000000000E+00  0.20941962205E+03  0.20941962211E+03  0.50400001928E-02 0.  1.
       -1   -1    0    0    0  501  0.00000000000E+00  0.00000000000E+00 -0.29746951266E+03  0.29746951270E+03  0.50400001928E-02 0. -1.
    10030    2    1    2    0    0  0.00000000000E+00  0.00000000000E+00 -0.88049890610E+02  0.50688913481E+03  0.49918314450E+03 0.  0.
        1    1    3    3  502    0 -0.86184343000E+02  0.21643746705E+03  0.46929181205E+02  0.23764525284E+03  0.50400001928E-02 0. -1.
       -1    1    3    3    0  502  0.86184343000E+02 -0.21643746705E+03 -0.13497907181E+03  0.26924388197E+03  0.50400001928E-02 0.  1.
</event>
<event>
 5   0  0.1227864E-02  0.5010567E+03  0.7818609E-02  0.1013503E+00
        1   -1    0    0  501    0  0.00000000000E+00  0.00000000000E+00  0.17018371392E+03  0.17018371399E+03  0.50400001928E-02 0.  1.
       -1   -1    0    0    0  501  0.00000000000E+00  0.00000000000E+00 -0.36880416431E+03  0.36880416435E+03  0.50400001928E-02 0. -1.
    10030    2    1    2    0    0  0.00000000000E+00  0.00000000000E+00 -0.19862045040E+03  0.53898787834E+03  0.50105673300E+03 0.  0.
        5    1    3    3  502    0 -0.95106433311E+02 -0.15322577467E+03  0.87685701055E+02  0.20058475478E+03  0.46999998093E+01 0.  1.
       -5    1    3    3    0  502  0.95106433311E+02  0.15322577467E+03 -0.28630615145E+03  0.33840312356E+03  0.46999998093E+01 0. -1.
</event>
<event>
 5   0  0.1217270E-02  0.5006516E+03  0.7818609E-02  0.1013609E+00
        1   -1    0    0  501    0  0.00000000000E+00  0.00000000000E+00  0.72980382778E+03  0.72980382780E+03  0.50400001928E-02 0. -1.
       -1   -1    0    0    0  501  0.00000000000E+00  0.00000000000E+00 -0.85862821056E+02  0.85862821204E+02  0.50400001928E-02 0.  1.
    10030    2    1    2    0    0  0.00000000000E+00  0.00000000000E+00  0.64394100673E+03  0.81566664900E+03  0.50065163752E+03 0.  0.
        2    1    3    3  502    0  0.18560310747E+03 -0.15357630649E+03  0.43281451010E+03  0.49534088825E+03  0.25500000920E-02 0. -1.
       -2    1    3    3    0  502 -0.18560310747E+03  0.15357630649E+03  0.21112649663E+03  0.32032576075E+03  0.25500000920E-02 0.  1.
</event>
<event>
 5   0  0.1941387E-02  0.5005542E+03  0.7818609E-02  0.1013634E+00
       -2   -1    0    0    0  501  0.00000000000E+00  0.00000000000E+00  0.15564848164E+03  0.15564848166E+03  0.25500000920E-02 0. -1.
        2   -1    0    0  501    0  0.00000000000E+00  0.00000000000E+00 -0.40243652314E+03  0.40243652314E+03  0.25500000920E-02 0.  1.
    10030    2    1    2    0    0  0.00000000000E+00  0.00000000000E+00 -0.24678804150E+03  0.55808500480E+03  0.50055422799E+03 0.  0.
        4    1    3    3  502    0 -0.14481298818E+02 -0.11506973065E+03  0.12387582853E+03  0.16969851125E+03  0.12699999809E+01 0. -1.
       -4    1    3    3    0  502  0.14481298818E+02  0.11506973065E+03 -0.37066387003E+03  0.38838649355E+03  0.12699999809E+01 0.  1.
</event>
<event>
 5   0  0.1180937E-02  0.4996553E+03  0.7818609E-02  0.1013869E+00
        1   -1    0    0  501    0  0.00000000000E+00  0.00000000000E+00  0.18577679915E+04  0.18577679915E+04  0.50400001928E-02 0.  1.
       -1   -1    0    0    0  501  0.00000000000E+00  0.00000000000E+00 -0.33596150515E+02  0.33596150893E+02  0.50400001928E-02 0. -1.
    10030    2    1    2    0    0  0.00000000000E+00  0.00000000000E+00  0.18241718409E+04  0.18913641424E+04  0.49965529489E+03 0.  0.
        1    1    3    3  502    0  0.63141968014E+02 -0.36908044039E+01 -0.27866661060E+01  0.63311102464E+02  0.50400001928E-02 0. -1.
       -1    1    3    3    0  502 -0.63141968014E+02  0.36908044039E+01  0.18269585071E+04  0.18280530399E+04  0.50400001928E-02 0.  1.
</event>
<event>
 5   0  0.1967813E-02  0.4987190E+03  0.7818609E-02  0.1014114E+00
       -2   -1    0    0    0  501  0.00000000000E+00  0.00000000000E+00  0.16130926843E+03  0.16130926845E+03  0.25500000920E-02 0.  1.
        2   -1    0    0  501    0  0.00000000000E+00  0.00000000000E+00 -0.38547165065E+03  0.38547165065E+03  0.25500000920E-02 0. -1.
    10030    2    1    2    0    0  0.00000000000E+00  0.00000000000E+00 -0.22416238221E+03  0.54678091911E+03  0.49871895883E+03 0.  0.
        5    1    3    3  502    0  0.12586001892E+03 -0.13796820047E+03  0.69009572990E+02  0.19914913975E+03  0.46999998093E+01 0.  1.
       -5    1    3    3    0  502 -0.12586001892E+03  0.13796820047E+03 -0.29317195520E+03  0.34763177935E+03  0.46999998093E+01 0. -1.
</event>
<event>
 5   0  0.1982847E-02  0.4999004E+03  0.7818609E-02  0.1013805E+00
        2   -1    0    0  501    0  0.00000000000E+00  0.00000000000E+00  0.11466264298E+03  0.11466264301E+03  0.25500000920E-02 0.  1.
       -2   -1    0    0    0  501  0.00000000000E+00  0.00000000000E+00 -0.54486016718E+03  0.54486016719E+03  0.25500000920E-02 0. -1.
    10030    2    1    2    0    0  0.00000000000E+00  0.00000000000E+00 -0.43019752420E+03  0.65952281020E+03  0.49990041743E+03 0.  0.
        2    1    3    3  502    0  0.87683479591E+02  0.19566873897E+03 -0.45628175941E+02  0.21921810703E+03  0.25500000920E-02 0.  1.
       -2    1    3    3    0  502 -0.87683479591E+02 -0.19566873897E+03 -0.38456934826E+03  0.44030470317E+03  0.25500000920E-02 0. -1.
</event>
<event>
 5   0  0.1967813E-02  0.4990287E+03  0.7818609E-02  0.1014033E+00
        2   -1    0    0  501    0  0.00000000000E+00  0.00000000000E+00  0.65761708164E+03  0.65761708164E+03  0.25500000920E-02 0. -1.
       -2   -1    0    0    0  501  0.00000000000E+00  0.00000000000E+00 -0.94671221000E+02  0.94671221035E+02  0.25500000920E-02 0.  1.
    10030    2    1    2    0    0  0.00000000000E+00  0.00000000000E+00  0.56294586064E+03  0.75228830268E+03  0.49902870492E+03 0.  0.
        5    1    3    3  502    0  0.16997327241E+03 -0.18205312309E+03  0.30284917811E+03  0.39214023977E+03  0.46999998093E+01 0.  1.
       -5    1    3    3    0  502 -0.16997327241E+03  0.18205312309E+03  0.26009668252E+03  0.36014806291E+03  0.46999998093E+01 0. -1.
</event>
<event>
 5   0  0.1225989E-02  0.4974086E+03  0.7818609E-02  0.1014458E+00
       -1   -1    0    0    0  501  0.00000000000E+00  0.00000000000E+00  0.22677885845E+03  0.22677885850E+03  0.50400001928E-02 0.  1.
        1   -1    0    0  501    0  0.00000000000E+00  0.00000000000E+00 -0.27274952806E+03  0.27274952810E+03  0.50400001928E-02 0. -1.
    10030    2    1    2    0    0  0.00000000000E+00  0.00000000000E+00 -0.45970669608E+02  0.49952838661E+03  0.49740859116E+03 0.  0.
        3    1    3    3  502    0  0.35285748730E+02  0.24612955668E+03 -0.28390996900E+02  0.25026166635E+03  0.10100000352E+00 0. -1.
       -3    1    3    3    0  502 -0.35285748730E+02 -0.24612955668E+03 -0.17579672708E+02  0.24926672026E+03  0.10100000352E+00 0.  1.
</event>
<event>
 5   0  0.1217270E-02  0.5002155E+03  0.7818609E-02  0.1013723E+00
        1   -1    0    0  501    0  0.00000000000E+00  0.00000000000E+00  0.15695352782E+03  0.15695352790E+03  0.50400001928E-02 0. -1.
       -1   -1    0    0    0  501  0.00000000000E+00  0.00000000000E+00 -0.39855029207E+03  0.39855029210E+03  0.50400001928E-02 0.  1.
    10030    2    1    2    0    0  0.00000000000E+00  0.00000000000E+00 -0.24159676425E+03  0.55550382000E+03  0.50021545113E+03 0.  0.
        2    1    3    3  502    0  0.50866138551E+01 -0.10719090513E+03  0.13008808824E+03  0.16863770187E+03  0.25500000920E-02 0. -1.
       -2    1    3    3    0  502 -0.50866138551E+01  0.10719090513E+03 -0.37168485249E+03  0.38686611813E+03  0.25500000920E-02 0.  1.
</event>
<event>
 5   0  0.1923706E-02  0.4996799E+03  0.7818609E-02  0.1013863E+00
       -2   -1    0    0    0  501  0.00000000000E+00  0.00000000000E+00  0.98975697723E+02  0.98975697756E+02  0.25500000920E-02 0.  1.
        2   -1    0    0  501    0  0.00000000000E+00  0.00000000000E+00 -0.63065977093E+03  0.63065977093E+03  0.25500000920E-02 0. -1.
    10030    2    1    2    0    0  0.00000000000E+00  0.00000000000E+00 -0.53168407320E+03  0.72963546869E+03  0.49967986098E+03 0.  0.
        3    1    3    3  502    0  0.24405466171E+03 -0.48451641110E+02 -0.23287431190E+03  0.34079421177E+03  0.10100000352E+00 0. -1.
       -3    1    3    3    0  502 -0.24405466171E+03  0.48451641110E+02 -0.29880976130E+03  0.38884125692E+03  0.10100000352E+00 0.  1.
</event>
<event>
 5   0  0.8012875E-03  0.4993843E+03  0.7818609E-02  0.1013940E+00
        4   -1    0    0  501    0  0.00000000000E+00  0.00000000000E+00  0.52813563780E+03  0.52813716477E+03  0.12699999809E+01 0.  1.
       -4   -1    0    0    0  501  0.00000000000E+00  0.00000000000E+00 -0.11804443865E+03  0.11805127020E+03  0.12699999809E+01 0. -1.
    10030    2    1    2    0    0  0.00000000000E+00  0.00000000000E+00  0.41009119915E+03  0.64618843497E+03  0.49938432281E+03 0.  0.
        5    1    3    3  502    0  0.95414626631E+02  0.14243632459E+03 -0.29773551790E+02  0.17407070955E+03  0.46999998093E+01 0. -1.
       -5    1    3    3    0  502 -0.95414626631E+02 -0.14243632459E+03  0.43986475094E+03  0.47211772542E+03  0.46999998093E+01 0.  1.
</event>
<event>
 5   0  0.1941387E-02  0.4954054E+03  0.7818609E-02  0.1014985E+00
       -2   -1    0    0    0  501  0.00000000000E+00  0.00000000000E+00  0.82401205981E+02  0.82401206020E+02  0.25500000920E-02 0.  1.
        2   -1    0    0  501    0  0.00000000000E+00  0.00000000000E+00 -0.74460825876E+03  0.74460825876E+03  0.25500000920E-02 0. -1.
    10030    2    1    2    0    0  0.00000000000E+00  0.00000000000E+00 -0.66220705278E+03  0.82700946478E+03  0.49540536341E+03 0.  0.
        4    1    3    3  502    0  0.37020436242E+02 -0.67894592964E+02 -0.72393468555E+03  0.72805441438E+03  0.12699999809E+01 0. -1.
       -4    1    3    3    0  502 -0.37020436242E+02  0.67894592964E+02  0.61727632771E+02  0.98955050406E+02  0.12699999809E+01 0.  1.
</event>
<event>
 5   0  0.8012875E-03  0.4995347E+03  0.7818609E-02  0.1013900E+00
        3   -1    0    0  501    0  0.00000000000E+00  0.00000000000E+00  0.13609561787E+03  0.13609565535E+03  0.10100000352E+00 0. -1.
       -3   -1    0    0    0  501  0.00000000000E+00  0.00000000000E+00 -0.45838144786E+03  0.45838145899E+03  0.10100000352E+00 0.  1.
    10030    2    1    2    0    0  0.00000000000E+00  0.00000000000E+00 -0.32228582999E+03  0.59447711434E+03  0.49953466672E+03 0.  0.
        3    1    3    3  502    0 -0.10371455610E+03  0.15772731898E+00  0.10925781117E+03  0.15064532362E+03  0.10100000352E+00 0. -1.
       -3    1    3    3    0  502  0.10371455610E+03 -0.15772731898E+00 -0.43154364116E+03  0.44383179072E+03  0.10100000352E+00 0.  1.
</event>
<event>
 5   0  0.1209831E-02  0.5001978E+03  0.7818609E-02  0.1013727E+00
       -1   -1    0    0    0  501  0.00000000000E+00  0.00000000000E+00  0.11953686022E+03  0.11953686033E+03  0.50400001928E-02 0. -1.
        1   -1    0    0  501    0  0.00000000000E+00  0.00000000000E+00 -0.52326505482E+03  0.52326505485E+03  0.50400001928E-02 0.  1.
    10030    2    1    2    0    0  0.00000000000E+00  0.00000000000E+00 -0.40372819460E+03  0.64280191517E+03  0.50019780790E+03 0.  0.
        4    1    3    3  502    0  0.80981397596E+01  0.16706722117E+03  0.37076624819E+02  0.17132812164E+03  0.12699999809E+01 0. -1.
       -4    1    3    3    0  502 -0.80981397596E+01 -0.16706722117E+03 -0.44080481942E+03  0.47147379353E+03  0.12699999809E+01 0.  1.
</event>
<event>
 5   0  0.1209831E-02  0.4985433E+03  0.7818609E-02  0.1014160E+00
       -1   -1    0    0    0  501  0.00000000000E+00  0.00000000000E+00  0.18871319077E+03  0.18871319084E+03  0.50400001928E-02 0. -1.
        1   -1    0    0  501    0  0.00000000000E+00  0.00000000000E+00 -0.32926341215E+03  0.32926341219E+03  0.50400001928E-02 0.  1.
    10030    2    1    2    0    0  0.00000000000E+00  0.00000000000E+00 -0.14055022138E+03  0.51797660303E+03  0.49854327451E+03 0.  0.
        4    1    3    3  502    0  0.22859818405E+03 -0.28853536179E+02 -0.16908797444E+03  0.28580065133E+03  0.12699999809E+01 0.  1.
       -4    1    3    3    0  502 -0.22859818405E+03  0.28853536179E+02  0.28537753063E+02  0.23217595170E+03  0.12699999809E+01 0. -1.
</event>
<event>
 5   0  0.1225989E-02  0.4992157E+03  0.7818609E-02  0.1013984E+00
        1   -1    0    0  501    0  0.00000000000E+00  0.00000000000E+00  0.12187149093E+04  0.12187149093E+04  0.50400001928E-02 0.  1.
       -1   -1    0    0    0  501  0.00000000000E+00  0.00000000000E+00 -0.51122764079E+02  0.51122764327E+02  0.50400001928E-02 0. -1.
    10030    2    1    2    0    0  0.00000000000E+00  0.00000000000E+00  0.11675921452E+04  0.12698376736E+04  0.49921568466E+03 0.  0.
        3    1    3    3  502    0  0.14026433563E+03  0.20410576071E+03  0.50454061158E+03  0.56204491310E+03  0.10100000352E+00 0.  1.
       -3    1    3    3    0  502 -0.14026433563E+03 -0.20410576071E+03  0.66305153365E+03  0.70779276055E+03  0.10100000352E+00 0. -1.
</event>
<event>
 5   0  0.1180937E-02  0.5013788E+03  0.7818609E-02  0.1013420E+00
        1   -1    0    0  501    0  0.00000000000E+00  0.00000000000E+00  0.16959747087E+04  0.16959747087E+04  0.50400001928E-02 0. -1.
       -1   -1    0    0    0  501  0.00000000000E+00  0.00000000000E+00 -0.37055491277E+02  0.37055491620E+02  0.50400001928E-02 0.  1.
    10030    2    1    2    0    0  0.00000000000E+00  0.00000000000E+00  0.16589192174E+04  0.17330302003E+04  0.50137880421E+03 0.  0.
        1    1    3    3  502    0  0.38567315705E+02 -0.84774347898E+02  0.24963808746E+02  0.96422609769E+02  0.50400001928E-02 0.  1.
       -1    1    3    3    0  502 -0.38567315705E+02  0.84774347898E+02  0.16339554087E+04  0.16366075906E+04  0.50400001928E-02 0. -1.
</event>
<event>
 5   0  0.1982847E-02  0.5003678E+03  0.7818609E-02  0.1013683E+00
       -2   -1    0    0    0  501  0.00000000000E+00  0.00000000000E+00  0.50791142524E+03  0.50791142524E+03  0.25500000920E-02 0. -1.
        2   -1    0    0  501    0  0.00000000000E+00  0.00000000000E+00 -0.12323405559E+03  0.12323405561E+03  0.25500000920E-02 0.  1.
    10030    2    1    2    0    0  0.00000000000E+00  0.00000000000E+00  0.38467736965E+03  0.63114548086E+03  0.50036780401E+03 0.  0.
        2    1    3    3  502    0  0.15203143498E+03  0.13266388778E+03  0.57647033811E+01  0.20185761356E+03  0.25500000920E-02 0. -1.
       -2    1    3    3    0  502 -0.15203143498E+03 -0.13266388778E+03  0.37891266627E+03  0.42928786729E+03  0.25500000920E-02 0.  1.
</event>
<event>
 5   0  0.1209831E-02  0.5005975E+03  0.7818609E-02  0.1013623E+00
        1   -1    0    0  501    0  0.00000000000E+00  0.00000000000E+00  0.41579459657E+03  0.41579459660E+03  0.50400001928E-02 0.  1.
       -1   -1    0    0    0  501  0.00000000000E+00  0.00000000000E+00 -0.15067404017E+03  0.15067404025E+03  0.50400001928E-02 0. -1.
    10030    2    1    2    0    0  0.00000000000E+00  0.00000000000E+00  0.26512055641E+03  0.56646863685E+03  0.50059745016E+03 0.  0.
        4    1    3    3  502    0  0.40179327137E+02 -0.97971077206E+02 -0.12407546996E+03  0.16312279253E+03  0.12699999809E+01 0. -1.
       -4    1    3    3    0  502 -0.40179327137E+02  0.97971077206E+02  0.38919602636E+03  0.40334584432E+03  0.12699999809E+01 0.  1.
</event>
<event>
 5   0  0.1923706E-02  0.5000090E+03  0.7818609E-02  0.1013777E+00
        2   -1    0    0  501    0  0.00000000000E+00  0.00000000000E+00  0.53227433047E+03  0.53227433047E+03  0.25500000920E-02 0. -1.
       -2   -1    0    0    0  501  0.00000000000E+00  0.00000000000E+00 -0.11742489033E+03  0.11742489035E+03  0.25500000920E-02 0.  1.
    10030    2    1    2    0    0  0.00000000000E+00  0.00000000000E+00  0.41484944014E+03  0.64969922083E+03  0.50000901947E+03 0.  0.
        3    1    3    3  502    0 -0.94540369497E+02  0.48224303521E+02  0.50155104518E+03  0.51265673314E+03  0.10100000352E+00 0. -1.
       -3    1    3    3    0  502  0.94540369497E+02 -0.48224303521E+02 -0.86701605034E+02  0.13704248769E+03  0.10100000352E+00 0.  1.
</event>
<event>
 5   0  0.1227864E-02  0.5000134E+03  0.7818609E-02  0.1013775E+00
        1   -1    0    0  501    0  0.00000000000E+00  0.00000000000E+00  0.39279170952E+03  0.39279170956E+03  0.50400001928E-02 0. -1.
       -1   -1    0    0    0  501  0.00000000000E+00  0.00000000000E+00 -0.15912595427E+03  0.15912595435E+03  0.50400001928E-02 0.  1.
    10030    2    1    2    0    0  0.00000000000E+00  0.00000000000E+00  0.23366575525E+03  0.55191766391E+03  0.50001342237E+03 0.  0.
        5    1    3    3  502    0 -0.57597427256E+02 -0.24540779266E+02  0.38394827360E+03  0.38904765810E+03  0.46999998093E+01 0. -1.
       -5    1    3    3    0  502  0.57597427256E+02  0.24540779266E+02 -0.15028251835E+03  0.16287000581E+03  0.46999998093E+01 0.  1.
</event>
<event>
 5   0  0.1941387E-02  0.5026447E+03  0.7818609E-02  0.1013091E+00
        2   -1    0    0  501    0  0.00000000000E+00  0.00000000000E+00  0.87731961035E+03  0.87731961035E+03  0.25500000920E-02 0. -1.
       -2   -1    0    0    0  501  0.00000000000E+00  0.00000000000E+00 -0.71995328531E+02  0.71995328576E+02  0.25500000920E-02 0.  1.
    10030    2    1    2    0    0  0.00000000000E+00  0.00000000000E+00  0.80532428182E+03  0.94931493893E+03  0.50264466016E+03 0.  0.
        4    1    3    3  502    0 -0.14892601923E+03 -0.15792466439E+03  0.16345154199E+03  0.27172997314E+03  0.12699999809E+01 0.  1.
       -4    1    3    3    0  502  0.14892601923E+03  0.15792466439E+03  0.64187273983E+03  0.67758496579E+03  0.12699999809E+01 0. -1.
</event>
<event>
 5   0  0.1180937E-02  0.5027773E+03  0.7818609E-02  0.1013057E+00
        1   -1    0    0  501    0  0.00000000000E+00  0.00000000000E+00  0.72449302748E+03  0.72449302749E+03  0.50400001928E-02 0. -1.
       -1   -1    0    0    0  501  0.00000000000E+00  0.00000000000E+00 -0.87228239848E+02  0.87228239994E+02  0.50400001928E-02 0.  1.
    10030    2    1    2    0    0  0.00000000000E+00  0.00000000000E+00  0.63726478763E+03  0.81172126749E+03  0.50277729318E+03 0.  0.
        1    1    3    3  502    0  0.74247584505E+02  0.14095669875E+03  0.46813541269E+01  0.15938447173E+03  0.50400001928E-02 0.  1.
       -1    1    3    3    0  502 -0.74247584505E+02 -0.14095669875E+03  0.63258343350E+03  0.65233679575E+03  0.50400001928E-02 0. -1.
</event>
<event>
 5   0  0.1967813E-02  0.4987887E+03  0.7818609E-02  0.1014096E+00
       -2   -1    0    0    0  501  0.00000000000E+00  0.00000000000E+00  0.57856982146E+03  0.57856982146E+03  0.25500000920E-02 0.  1.
        2   -1    0    0  501    0  0.00000000000E+00  0.00000000000E+00 -0.10750222434E+03  0.10750222437E+03  0.25500000920E-02 0. -1.
    10030    2    1    2    0    0  0.00000000000E+00  0.00000000000E+00  0.47106759712E+03  0.68607204583E+03  0.49878870377E+03 0.  0.
        5    1    3    3  502    0 -0.17915917552E+03  0.94952305029E+02  0.43515091991E+03  0.48009620233E+03  0.46999998093E+01 0. -1.
       -5    1    3    3    0  502  0.17915917552E+03 -0.94952305029E+02  0.35916677215E+02  0.20597584349E+03  0.46999998093E+01 0.  1.
</event>
<event>
 5   0  0.1227864E-02  0.5000455E+03  0.7818609E-02  0.1013767E+00
       -1   -1    0    0    0  501  0.00000000000E+00  0.00000000000E+00  0.17549637029E+03  0.17549637036E+03  0.50400001928E-02 0.  1.
        1   -1    0    0  501    0  0.00000000000E+00  0.00000000000E+00 -0.35619751046E+03  0.35619751049E+03  0.50400001928E-02 0. -1.
    10030    2    1    2    0    0  0.00000000000E+00  0.00000000000E+00 -0.18070114017E+03  0.53169388086E+03  0.50004547881E+03 0.  0.
        5    1    3    3  502    0 -0.34916272225E+02  0.17041125247E+03  0.10053946058E+03  0.20097117745E+03  0.46999998093E+01 0.  1.
       -5    1    3    3    0  502  0.34916272225E+02 -0.17041125247E+03 -0.28124060075E+03  0.33072270340E+03  0.46999998093E+01 0. -1.
</event>
<event>
 5   0  0.1855407E-02  0.4977317E+03  0.7818609E-02  0.1014373E+00
        2   -1    0    0  501    0  0.00000000000E+00  0.00000000000E+00  0.53229091625E+03  0.53229091625E+03  0.25500000920E-02 0. -1.
       -2   -1    0    0    0  501  0.00000000000E+00  0.00000000000E+00 -0.11635407405E+03  0.11635407408E+03  0.25500000920E-02 0.  1.
    10030    2    1    2    0    0  0.00000000000E+00  0.00000000000E+00  0.41593684219E+03  0.64864499034E+03  0.49773172171E+03 0.  0.
        1    1    3    3  502    0  0.28898780047E+02 -0.56334600983E+02 -0.10568252779E+03  0.12319709194E+03  0.50400001928E-02 0.  1.
       -1    1    3    3    0  502 -0.28898780047E+02  0.56334600983E+02  0.52161936999E+03  0.52544789840E+03  0.50400001928E-02 0. -1.
</event>
<event>
 5   0  0.1923706E-02  0.5002530E+03  0.7818609E-02  0.1013713E+00
        2   -1    0    0  501    0  0.00000000000E+00  0.00000000000E+00  0.31368398056E+03  0.31368398057E+03  0.25500000920E-02 0. -1.
       -2   -1    0    0    0  501  0.00000000000E+00  0.00000000000E+00 -0.19944678994E+03  0.19944678996E+03  0.25500000920E-02 0.  1.
    10030    2    1    2    0    0  0.00000000000E+00  0.00000000000E+00  0.11423719062E+03  0.51313077053E+03  0.50025298794E+03 0.  0.
        3    1    3    3  502    0 -0.12956468175E+03 -0.10174683135E+03 -0.13593865419E+03  0.21358546849E+03  0.10100000352E+00 0.  1.
       -3    1    3    3    0  502  0.12956468175E+03  0.10174683135E+03  0.25017584481E+03  0.29954530204E+03  0.10100000352E+00 0. -1.
</event>
<event>
 5   0  0.1209831E-02  0.4998920E+03  0.7818609E-02  0.1013807E+00
        1   -1    0    0  501    0  0.00000000000E+00  0.00000000000E+00  0.39962573480E+03  0.39962573483E+03  0.50400001928E-02 0.  1.
       -1   -1    0    0    0  501  0.00000000000E+00  0.00000000000E+00 -0.15632878019E+03  0.15632878027E+03  0.50400001928E-02 0. -1.
    10030    2    1    2    0    0  0.00000000000E+00  0.00000000000E+00  0.24329695461E+03  0.55595451510E+03  0.49989200308E+03 0.  0.
        4    1    3    3  502    0 -0.16748395574E+03 -0.12169552411E+03  0.27739192480E+03  0.34613374418E+03  0.12699999809E+01 0.  1.
       -4    1    3    3    0  502  0.16748395574E+03  0.12169552411E+03 -0.34094970185E+02  0.20982077092E+03  0.12699999809E+01 0. -1.
</event>
<event>
 5   0  0.8012875E-03  0.5000110E+03  0.7818609E-02  0.1013776E+00
        4   -1    0    0  501    0  0.00000000000E+00  0.00000000000E+00  0.11206069395E+04  0.11206076592E+04  0.12699999809E+01 0. -1.
       -4   -1    0    0    0  501  0.00000000000E+00  0.00000000000E+00 -0.55767838156E+02  0.55782297125E+02  0.12699999809E+01 0.  1.
    10030    2    1    2    0    0  0.00000000000E+00  0.00000000000E+00  0.10648391014E+04  0.11763899563E+04  0.50001101737E+03 0.  0.
        4    1    3    3  502    0 -0.65034491107E+02  0.20498772815E+03  0.83235028366E+03  0.85968486164E+03  0.12699999809E+01 0. -1.
       -4    1    3    3    0  502  0.65034491107E+02 -0.20498772815E+03  0.23248881770E+03  0.31670509465E+03  0.12699999809E+01 0.  1.
</event>
<event>
 5   0  0.1855407E-02  0.5022280E+03  0.7818609E-02  0.1013199E+00
        2   -1    0    0  501    0  0.00000000000E+00  0.00000000000E+00  0.92730883346E+03  0.92730883347E+03  0.25500000920E-02 0. -1.
       -2   -1    0    0    0  501  0.00000000000E+00  0.00000000000E+00 -0.68001329591E+02  0.68001329639E+02  0.25500000920E-02 0.  1.
    10030    2    1    2    0    0  0.00000000000E+00  0.00000000000E+00  0.85930750387E+03  0.99531016311E+03  0.50222797072E+03 0.  0.
        1    1    3    3  502    0  0.21207315831E+03  0.13408134919E+03  0.44999978693E+03  0.51522096322E+03  0.50400001928E-02 0.  1.
       -1    1    3    3    0  502 -0.21207315831E+03 -0.13408134919E+03  0.40930771695E+03  0.48008919989E+03  0.50400001928E-02 0. -1.
</event>
<event>
 5   0  0.1923706E-02  0.4999793E+03  0.7818609E-02  0.1013784E+00
        2   -1    0    0  501    0  0.00000000000E+00  0.00000000000E+00  0.45086436088E+03  0.45086436089E+03  0.25500000920E-02 0.  1.
       -2   -1    0    0    0  501  0.00000000000E+00  0.00000000000E+00 -0.13861114412E+03  0.13861114414E+03  0.25500000920E-02 0. -1.
    10030    2    1    2    0    0  0.00000000000E+00  0.00000000000E+00  0.31225321676E+03  0.58947550503E+03  0.49997929922E+03 0.  0.
        3    1    3    3  502    0  0.10479423304E+03 -0.22683632500E+03  0.14712711691E+03  0.28997059911E+03  0.10100000352E+00 0. -1.
       -3    1    3    3    0  502 -0.10479423304E+03  0.22683632500E+03  0.16512609985E+03  0.29950490592E+03  0.10100000352E+00 0.  1.
</event>
<event>
 5   0  0.1227864E-02  0.4919010E+03  0.7818609E-02  0.1015915E+00
        1   -1    0    0  501    0  0.00000000000E+00  0.00000000000E+00  0.27070998491E+03  0.27070998496E+03  0.50400001928E-02 0. -1.
       -1   -1    0    0    0  501  0.00000000000E+00  0.00000000000E+00 -0.22345550823E+03  0.22345550829E+03  0.50400001928E-02 0.  1.
    10030    2    1    2    0    0  0.00000000000E+00  0.00000000000E+00  0.47254476675E+02  0.49416549325E+03  0.49190095461E+03 0.  0.
        5    1    3    3  502    0  0.37274475071E+02 -0.24281230988E+03  0.12515442410E+02  0.24602018335E+03  0.46999998093E+01 0. -1.
       -5    1    3    3    0  502 -0.37274475071E+02  0.24281230988E+03  0.34739034265E+02  0.24814530989E+03  0.46999998093E+01 0.  1.
</event>
<event>
 5   0  0.1923706E-02  0.4999213E+03  0.7818609E-02  0.1013799E+00
       -2   -1    0    0    0  501  0.00000000000E+00  0.00000000000E+00  0.13634498848E+03  0.13634498850E+03  0.25500000920E-02 0. -1.
        2   -1    0    0  501    0  0.00000000000E+00  0.00000000000E+00 -0.45825164893E+03  0.45825164893E+03  0.25500000920E-02 0.  1.
    10030    2    1    2    0    0  0.00000000000E+00  0.00000000000E+00 -0.32190666045E+03  0.59459663744E+03  0.49992125701E+03 0.  0.
        3    1    3    3  502    0  0.22144065059E+03 -0.26965204331E+02 -0.29508056315E+03  0.36991300724E+03  0.10100000352E+00 0.  1.
       -3    1    3    3    0  502 -0.22144065059E+03  0.26965204331E+02 -0.26826097301E+02  0.22468363019E+03  0.10100000352E+00 0. -1.
</event>
<event>
 5   0  0.1217270E-02  0.4989470E+03  0.7818609E-02  0.1014054E+00
        1   -1    0    0  501    0  0.00000000000E+00  0.00000000000E+00  0.61913724886E+03  0.61913724888E+03  0.50400001928E-02 0.  1.
       -1   -1    0    0    0  501  0.00000000000E+00  0.00000000000E+00 -0.10052218619E+03  0.10052218632E+03  0.50400001928E-02 0. -1.
    10030    2    1    2    0    0  0.00000000000E+00  0.00000000000E+00  0.51861506267E+03  0.71965943519E+03  0.49894701065E+03 0.  0.
        2    1    3    3  502    0  0.18945394643E+03 -0.15618700342E+03  0.32299785009E+03  0.40572748123E+03  0.25500000920E-02 0. -1.
       -2    1    3    3    0  502 -0.18945394643E+03  0.15618700342E+03  0.19561721258E+03  0.31393195396E+03  0.25500000920E-02 0.  1.
</event>
<event>
 5   0  0.1209831E-02  0.5002529E+03  0.7818609E-02  0.1013713E+00
        1   -1    0    0  501    0  0.00000000000E+00  0.00000000000E+00  0.47887995308E+03  0.47887995311E+03  0.50400001928E-02 0. -1.
       -1   -1    0    0    0  501  0.00000000000E+00  0.00000000000E+00 -0.13064493477E+03  0.13064493486E+03  0.50400001928E-02 0.  1.
    10030    2    1    2    0    0  0.00000000000E+00  0.00000000000E+00  0.34823501832E+03  0.60952488797E+03  0.50025289712E+03 0.  0.
        4    1    3    3  502    0 -0.18291513523E+03 -0.12878955222E+03  0.37800271862E+02  0.22688139833E+03  0.12699999809E+01 0.  1.
       -4    1    3    3    0  502  0.18291513523E+03  0.12878955222E+03  0.31043474645E+03  0.38264348964E+03  0.12699999809E+01 0. -1.
</event>
<event>
 5   0  0.1923706E-02  0.5000964E+03  0.7818609E-02  0.1013754E+00
        2   -1    0    0  501    0  0.00000000000E+00  0.00000000000E+00  0.11712098418E+04  0.11712098418E+04  0.25500000920E-02 0.  1.
       -2   -1    0    0    0  501  0.00000000000E+00  0.00000000000E+00 -0.53384194263E+02  0.53384194323E+02  0.25500000920E-02 0. -1.
    10030    2    1    2    0    0  0.00000000000E+00  0.00000000000E+00  0.11178256476E+04  0.12245940361E+04  0.50009636574E+03 0.  0.
        3    1    3    3  502    0 -0.20715560332E+03 -0.96413372016E+02  0.31021316495E+03  0.38528067717E+03  0.10100000352E+00 0. -1.
       -3    1    3    3    0  502  0.20715560332E+03  0.96413372016E+02  0.80761248261E+03  0.83931335898E+03  0.10100000352E+00 0.  1.
</event>
<event>
 5   0  0.1225989E-02  0.4995561E+03  0.7818609E-02  0.1013895E+00
        1   -1    0    0  501    0  0.00000000000E+00  0.00000000000E+00  0.34147309874E+03  0.34147309878E+03  0.50400001928E-02 0. -1.
       -1   -1    0    0    0  501  0.00000000000E+00  0.00000000000E+00 -0.18270564293E+03  0.18270564300E+03  0.50400001928E-02 0.  1.
    10030    2    1    2    0    0  0.00000000000E+00  0.00000000000E+00  0.15876745581E+03  0.52417874178E+03  0.49955605122E+03 0.  0.
        3    1    3    3  502    0  0.85652722533E+02  0.14269459418E+03  0.27481905156E+03  0.32128438709E+03  0.10100000352E+00 0. -1.
       -3    1    3    3    0  502 -0.85652722533E+02 -0.14269459418E+03 -0.11605159575E+03  0.20289435469E+03  0.10100000352E+00 0.  1.
</event>
<event>
 5   0  0.1209831E-02  0.5011156E+03  0.7818609E-02  0.1013488E+00
       -1   -1    0    0    0  501  0.00000000000E+00  0.00000000000E+00  0.11977409668E+03  0.11977409678E+03  0.50400001928E-02 0. -1.
        1   -1    0    0  501    0  0.00000000000E+00  0.00000000000E+00 -0.52414681910E+03  0.52414681912E+03  0.50400001928E-02 0.  1.
    10030    2    1    2    0    0  0.00000000000E+00  0.00000000000E+00 -0.40437272242E+03  0.64392091590E+03  0.50111560273E+03 0.  0.
        4    1    3    3  502    0 -0.20420101279E+03 -0.64324035059E+01 -0.15806672630E+02  0.20491679589E+03  0.12699999809E+01 0. -1.
       -4    1    3    3    0  502  0.20420101279E+03  0.64324035059E+01 -0.38856604979E+03  0.43900412001E+03  0.12699999809E+01 0.  1.
</event>
<event>
 5   0  0.1217270E-02  0.5004752E+03  0.7818609E-02  0.1013655E+00
       -1   -1    0    0    0  501  0.00000000000E+00  0.00000000000E+00  0.73068237007E+02  0.73068237181E+02  0.50400001928E-02 0.  1.
        1   -1    0    0  501    0  0.00000000000E+00  0.00000000000E+00 -0.85699148341E+03  0.85699148343E+03  0.50400001928E-02 0. -1.
    10030    2    1    2    0    0  0.00000000000E+00  0.00000000000E+00 -0.78392324640E+03  0.93005972061E+03  0.50047520183E+03 0.  0.
        2    1    3    3  502    0  0.43495870541E+02  0.23793662592E+03 -0.51114464585E+03  0.56548614280E+03  0.25500000920E-02 0. -1.
       -2    1    3    3    0  502 -0.43495870541E+02 -0.23793662592E+03 -0.27277860055E+03  0.36457357781E+03  0.25500000920E-02 0.  1.
</event>
<event>
 5   0  0.1982847E-02  0.5004601E+03  0.7818609E-02  0.1013659E+00
       -2   -1    0    0    0  501  0.00000000000E+00  0.00000000000E+00  0.37091756449E+02  0.37091756537E+02  0.25500000920E-02 0. -1.
        2   -1    0    0  501    0  0.00000000000E+00  0.00000000000E+00 -0.16881131833E+04  0.16881131833E+04  0.25500000920E-02 0.  1.
    10030    2    1    2    0    0  0.00000000000E+00  0.00000000000E+00 -0.16510214268E+04  0.17252049398E+04  0.50046012081E+03 0.  0.
        2    1    3    3  502    0  0.97115117092E+02 -0.29964782971E+02 -0.16137594775E+04  0.16169566740E+04  0.25500000920E-02 0.  1.
       -2    1    3    3    0  502 -0.97115117092E+02  0.29964782971E+02 -0.37261949303E+02  0.10824826585E+03  0.25500000920E-02 0. -1.
</event>
<event>
 5   0  0.1982847E-02  0.5000824E+03  0.7818609E-02  0.1013757E+00
       -2   -1    0    0    0  501  0.00000000000E+00  0.00000000000E+00  0.86814075742E+02  0.86814075780E+02  0.25500000920E-02 0. -1.
        2   -1    0    0  501    0  0.00000000000E+00  0.00000000000E+00 -0.72016657063E+03  0.72016657064E+03  0.25500000920E-02 0.  1.
    10030    2    1    2    0    0  0.00000000000E+00  0.00000000000E+00 -0.63335249489E+03  0.80698064642E+03  0.50008237412E+03 0.  0.
        2    1    3    3  502    0 -0.13105504342E+03  0.10503175766E+03 -0.17756858823E+02  0.16888576188E+03  0.25500000920E-02 0. -1.
       -2    1    3    3    0  502  0.13105504342E+03 -0.10503175766E+03 -0.61559563607E+03  0.63809488454E+03  0.25500000920E-02 0.  1.
</event>
<event>
 5   0  0.1982847E-02  0.5023347E+03  0.7818609E-02  0.1013171E+00
       -2   -1    0    0    0  501  0.00000000000E+00  0.00000000000E+00  0.38898103097E+02  0.38898103181E+02  0.25500000920E-02 0.  1.
        2   -1    0    0  501    0  0.00000000000E+00  0.00000000000E+00 -0.16218026260E+04  0.16218026260E+04  0.25500000920E-02 0. -1.
    10030    2    1    2    0    0  0.00000000000E+00  0.00000000000E+00 -0.15829045229E+04  0.16607007291E+04  0.50233473230E+03 0.  0.
        2    1    3    3  502    0  0.54551100717E+02 -0.15311630050E+03 -0.15842593240E+03  0.22697841336E+03  0.25500000920E-02 0.  1.
       -2    1    3    3    0  502 -0.54551100717E+02  0.15311630050E+03 -0.14244785905E+04  0.14337223158E+04  0.25500000920E-02 0. -1.
</event>
<event>
 5   0  0.8012875E-03  0.5004413E+03  0.7818609E-02  0.1013664E+00
        4   -1    0    0  501    0  0.00000000000E+00  0.00000000000E+00  0.52353349055E+02  0.52368750770E+02  0.12699999809E+01 0. -1.
       -4   -1    0    0    0  501  0.00000000000E+00  0.00000000000E+00 -0.11957274146E+04  0.11957280890E+04  0.12699999809E+01 0.  1.
    10030    2    1    2    0    0  0.00000000000E+00  0.00000000000E+00 -0.11433740655E+04  0.12480968398E+04  0.50044127306E+03 0.  0.
        4    1    3    3  502    0  0.20532050523E+03 -0.14201418528E+03 -0.52964158984E+03  0.58553084059E+03  0.12699999809E+01 0.  1.
       -4    1    3    3    0  502 -0.20532050523E+03  0.14201418528E+03 -0.61373247566E+03  0.66256599919E+03  0.12699999809E+01 0. -1.
</event>
<event>
 5   0  0.1209831E-02  0.5013094E+03  0.7818609E-02  0.1013438E+00
        1   -1    0    0  501    0  0.00000000000E+00  0.00000000000E+00  0.42300894797E+03  0.42300894800E+03  0.50400001928E-02 0. -1.
       -1   -1    0    0    0  501  0.00000000000E+00  0.00000000000E+00 -0.14852587560E+03  0.14852587568E+03  0.50400001928E-02 0.  1.
    10030    2    1    2    0    0  0.00000000000E+00  0.00000000000E+00  0.27448307238E+03  0.57153482369E+03  0.50130938318E+03 0.  0.
        4    1    3    3  502    0  0.12476079468E+03 -0.62343772455E+02 -0.10019765298E+03  0.17173579829E+03  0.12699999809E+01 0.  1.
       -4    1    3    3    0  502 -0.12476079468E+03  0.62343772455E+02  0.37468072536E+03  0.39979902539E+03  0.12699999809E+01 0. -1.
</event>
<event>
 5   0  0.1225989E-02  0.5008985E+03  0.7818609E-02  0.1013545E+00
       -1   -1    0    0    0  501  0.00000000000E+00  0.00000000000E+00  0.30731218720E+02  0.30731219133E+02  0.50400001928E-02 0.  1.
        1   -1    0    0  501    0  0.00000000000E+00  0.00000000000E+00 -0.20410783974E+04  0.20410783974E+04  0.50400001928E-02 0. -1.
    10030    2    1    2    0    0  0.00000000000E+00  0.00000000000E+00 -0.20103471787E+04  0.20718096165E+04  0.50089850105E+03 0.  0.
        3    1    3    3  502    0 -0.20580048654E+03  0.41668186791E+02 -0.44054642568E+03  0.48802791050E+03  0.10100000352E+00 0.  1.
       -3    1    3    3    0  502  0.20580048654E+03 -0.41668186791E+02 -0.15698007530E+04  0.15837817060E+04  0.10100000352E+00 0. -1.
</event>
<event>
 5   0  0.1967813E-02  0.5000335E+03  0.7818609E-02  0.1013770E+00
       -2   -1    0    0    0  501  0.00000000000E+00  0.00000000000E+00  0.16134407068E+03  0.16134407070E+03  0.25500000920E-02 0.  1.
        2   -1    0    0  501    0  0.00000000000E+00  0.00000000000E+00 -0.38742277930E+03  0.38742277931E+03  0.25500000920E-02 0. -1.
    10030    2    1    2    0    0  0.00000000000E+00  0.00000000000E+00 -0.22607870863E+03  0.54876685001E+03  0.50003347206E+03 0.  0.
        5    1    3    3  502    0  0.24229341961E+03  0.43123435740E+02 -0.16113449439E+03  0.29419746290E+03  0.46999998093E+01 0. -1.
       -5    1    3    3    0  502 -0.24229341961E+03 -0.43123435740E+02 -0.64944214236E+02  0.25456938711E+03  0.46999998093E+01 0.  1.
</event>
<event>
 5   0  0.1217270E-02  0.5003363E+03  0.7818609E-02  0.1013691E+00
       -1   -1    0    0    0  501  0.00000000000E+00  0.00000000000E+00  0.58142402569E+03  0.58142402571E+03  0.50400001928E-02 0.  1.
        1   -1    0    0  501    0  0.00000000000E+00  0.00000000000E+00 -0.10763936405E+03  0.10763936417E+03  0.50400001928E-02 0. -1.
    10030    2    1    2    0    0  0.00000000000E+00  0.00000000000E+00  0.47378466164E+03  0.68906338987E+03  0.50033633654E+03 0.  0.
        2    1    3    3  502    0 -0.11091645889E+03 -0.21373942379E+03  0.33026926114E+03  0.40873559546E+03  0.25500000920E-02 0.  1.
       -2    1    3    3    0  502  0.11091645889E+03  0.21373942379E+03  0.14351540050E+03  0.28032779441E+03  0.25500000920E-02 0. -1.
</event>
<event>
 5   0  0.1923706E-02  0.5003562E+03  0.7818609E-02  0.1013686E+00
       -2   -1    0    0    0  501  0.00000000000E+00  0.00000000000E+00  0.62253548716E+02  0.62253548768E+02  0.25500000920E-02 0.  1.
        2   -1    0    0  501    0  0.00000000000E+00  0.00000000000E+00 -0.10053896768E+04  0.10053896768E+04  0.25500000920E-02 0. -1.
    10030    2    1    2    0    0  0.00000000000E+00  0.00000000000E+00 -0.94313612811E+03  0.10676432256E+04  0.50035617416E+03 0.  0.
        3    1    3    3  502    0  0.38945867413E+02  0.23974716917E+03 -0.59947983285E+03  0.64681648550E+03  0.10100000352E+00 0. -1.
       -3    1    3    3    0  502 -0.38945867413E+02 -0.23974716917E+03 -0.34365629526E+03  0.42082674010E+03  0.10100000352E+00 0.  1.
</event>
<event>
 5   0  0.1209831E-02  0.4994284E+03  0.7818609E-02  0.1013928E+00
       -1   -1    0    0    0  501  0.00000000000E+00  0.00000000000E+00  0.18070746708E+03  0.18070746715E+03  0.50400001928E-02 0. -1.
        1   -1    0    0  501    0  0.00000000000E+00  0.00000000000E+00 -0.34507254923E+03  0.34507254927E+03  0.50400001928E-02 0.  1.
    10030    2    1    2    0    0  0.00000000000E+00  0.00000000000E+00 -0.16436508215E+03  0.52578001642E+03  0.49942841873E+03 0.  0.
        4    1    3    3  502    0  0.19201439671E+03  0.15019600147E+03 -0.13914090053E+03  0.28069586834E+03  0.12699999809E+01 0.  1.
       -4    1    3    3    0  502 -0.19201439671E+03 -0.15019600147E+03 -0.25224181626E+02  0.24508414808E+03  0.12699999809E+01 0. -1.
</event>
<event>
 5   0  0.1227864E-02  0.4982400E+03  0.7818609E-02  0.1014239E+00
        1   -1    0    0  501    0  0.00000000000E+00  0.00000000000E+00  0.84424745761E+03  0.84424745763E+03  0.50400001928E-02 0.  1.
       -1   -1    0    0    0  501  0.00000000000E+00  0.00000000000E+00 -0.73510182629E+02  0.73510182802E+02  0.50400001928E-02 0. -1.
    10030    2    1    2    0    0  0.00000000000E+00  0.00000000000E+00  0.77073727498E+03  0.91775764043E+03  0.49824004207E+03 0.  0.
        5    1    3    3  502    0 -0.15481664916E+00  0.23819265727E+03  0.25123204031E+03  0.34623026156E+03  0.46999998093E+01 0. -1.
       -5    1    3    3    0  502  0.15481664916E+00 -0.23819265727E+03  0.51950523467E+03  0.57152737887E+03  0.46999998093E+01 0.  1.
</event>
<event>
 5   0  0.1225989E-02  0.4994700E+03  0.7818609E-02  0.1013917E+00
       -1   -1    0    0    0  501  0.00000000000E+00  0.00000000000E+00  0.83473943251E+03  0.83473943253E+03  0.50400001928E-02 0.  1.
        1   -1    0    0  501    0  0.00000000000E+00  0.00000000000E+00 -0.74715029516E+02  0.74715029686E+02  0.50400001928E-02 0. -1.
    10030    2    1    2    0    0  0.00000000000E+00  0.00000000000E+00  0.76002440299E+03  0.90945446221E+03  0.49947004484E+03 0.  0.
        3    1    3    3  502    0 -0.92475623943E+02  0.22817884483E+03  0.30383571631E+03  0.39106710289E+03  0.10100000352E+00 0.  1.
       -3    1    3    3    0  502  0.92475623943E+02 -0.22817884483E+03  0.45618868668E+03  0.51838735932E+03  0.10100000352E+00 0. -1.
</event>
<event>
 5   0  0.1180937E-02  0.4995019E+03  0.7818609E-02  0.1013909E+00
        1   -1    0    0  501    0  0.00000000000E+00  0.00000000000E+00  0.29052972117E+03  0.29052972122E+03  0.50400001928E-02 0. -1.
       -1   -1    0    0    0  501  0.00000000000E+00  0.00000000000E+00 -0.21469592223E+03  0.21469592229E+03  0.50400001928E-02 0.  1.
    10030    2    1    2    0    0  0.00000000000E+00  0.00000000000E+00  0.75833798944E+02  0.50522564351E+03  0.49950193773E+03 0.  0.
        1    1    3    3  502    0  0.14967929224E+02  0.27482846083E+02  0.28853876416E+03  0.29023088082E+03  0.50400001928E-02 0. -1.
       -1    1    3    3    0  502 -0.14967929224E+02 -0.27482846083E+02 -0.21270496521E+03  0.21499476269E+03  0.50400001928E-02 0.  1.
</event>
<event>
 5   0  0.1941387E-02  0.5001807E+03  0.7818609E-02  0.1013732E+00
       -2   -1    0    0    0  501  0.00000000000E+00  0.00000000000E+00  0.12145660583E+03  0.12145660586E+03  0.25500000920E-02 0. -1.
        2   -1    0    0  501    0  0.00000000000E+00  0.00000000000E+00 -0.51495906555E+03  0.51495906556E+03  0.25500000920E-02 0.  1.
    10030    2    1    2    0    0  0.00000000000E+00  0.00000000000E+00 -0.39350245973E+03  0.63641567142E+03  0.50018068837E+03 0.  0.
        4    1    3    3  502    0  0.15425940711E+03  0.55818115242E+01  0.53606893692E+02  0.16340879185E+03  0.12699999809E+01 0. -1.
       -4    1    3    3    0  502 -0.15425940711E+03 -0.55818115242E+01 -0.44710935342E+03  0.47300687957E+03  0.12699999809E+01 0.  1.
</event>
<event>
 5   0  0.1982847E-02  0.5023740E+03  0.7818609E-02  0.1013161E+00
        2   -1    0    0  501    0  0.00000000000E+00  0.00000000000E+00  0.21448623993E+04  0.21448623993E+04  0.25500000920E-02 0. -1.
       -2   -1    0    0    0  501  0.00000000000E+00  0.00000000000E+00 -0.29416762732E+02  0.29416762842E+02  0.25500000920E-02 0.  1.
    10030    2    1    2    0    0  0.00000000000E+00  0.00000000000E+00  0.21154456366E+04  0.21742791621E+04  0.50237399779E+03 0.  0.
        2    1    3    3  502    0  0.20167194804E+03 -0.13438581740E+03  0.77181905857E+03  0.80897205249E+03  0.25500000920E-02 0.  1.
       -2    1    3    3    0  502 -0.20167194804E+03  0.13438581740E+03  0.13436265780E+04  0.13653071097E+04  0.25500000920E-02 0. -1.
</event>
<event>
 5   0  0.1225989E-02  0.5000093E+03  0.7818609E-02  0.1013776E+00
       -1   -1    0    0    0  501  0.00000000000E+00  0.00000000000E+00  0.77701006134E+02  0.77701006297E+02  0.50400001928E-02 0. -1.
        1   -1    0    0  501    0  0.00000000000E+00  0.00000000000E+00 -0.80439542849E+03  0.80439542851E+03  0.50400001928E-02 0.  1.
    10030    2    1    2    0    0  0.00000000000E+00  0.00000000000E+00 -0.72669442236E+03  0.88209643480E+03  0.50000933672E+03 0.  0.
        3    1    3    3  502    0 -0.53297898724E+02 -0.12475676782E+03  0.71154811491E+01  0.13585123260E+03  0.10100000352E+00 0. -1.
       -3    1    3    3    0  502  0.53297898724E+02  0.12475676782E+03 -0.73380990351E+03  0.74624520220E+03  0.10100000352E+00 0.  1.
</event>
<event>
 5   0  0.1923706E-02  0.4997028E+03  0.7818609E-02  0.1013857E+00
        2   -1    0    0  501    0  0.00000000000E+00  0.00000000000E+00  0.10640904136E+04  0.10640904137E+04  0.25500000920E-02 0. -1.
       -2   -1    0    0    0  501  0.00000000000E+00  0.00000000000E+00 -0.58665802268E+02  0.58665802324E+02  0.25500000920E-02 0.  1.
    10030    2    1    2    0    0  0.00000000000E+00  0.00000000000E+00  0.10054246114E+04  0.11227562160E+04  0.49970278300E+03 0.  0.
        3    1    3    3  502    0  0.40815366960E+02 -0.17927783088E+03  0.12260781790E+03  0.22099575117E+03  0.10100000352E+00 0.  1.
       -3    1    3    3    0  502 -0.40815366960E+02  0.17927783088E+03  0.88281679348E+03  0.90176046480E+03  0.10100000352E+00 0. -1.
</event>
<event>
 5   0  0.1209831E-02  0.4990344E+03  0.7818609E-02  0.1014031E+00
       -1   -1    0    0    0  501  0.00000000000E+00  0.00000000000E+00  0.18083887191E+03  0.18083887198E+03  0.50400001928E-02 0. -1.
        1   -1    0    0  501    0  0.00000000000E+00  0.00000000000E+00 -0.34427790978E+03  0.34427790982E+03  0.50400001928E-02 0.  1.
    10030    2    1    2    0    0  0.00000000000E+00  0.00000000000E+00 -0.16343903787E+03  0.52511678179E+03  0.49903438300E+03 0.  0.
        4    1    3    3  502    0  0.37530201181E+01  0.20985612262E+03 -0.22369172740E+03  0.30674627816E+03  0.12699999809E+01 0.  1.
       -4    1    3    3    0  502 -0.37530201181E+01 -0.20985612262E+03  0.60252689522E+02  0.21837050363E+03  0.12699999809E+01 0. -1.
</event>
<event>
 5   0  0.1209831E-02  0.4986953E+03  0.7818609E-02  0.1014120E+00
       -1   -1    0    0    0  501  0.00000000000E+00  0.00000000000E+00  0.88249297220E+02  0.88249297364E+02  0.50400001928E-02 0. -1.
        1   -1    0    0  501    0  0.00000000000E+00  0.00000000000E+00 -0.70452959704E+03  0.70452959705E+03  0.50400001928E-02 0.  1.
    10030    2    1    2    0    0  0.00000000000E+00  0.00000000000E+00 -0.61628029981E+03  0.79277889442E+03  0.49869526516E+03 0.  0.
        4    1    3    3  502    0 -0.95007860057E+02 -0.19086864540E+03 -0.51366950846E+03  0.55616122671E+03  0.12699999809E+01 0. -1.
       -4    1    3    3    0  502  0.95007860057E+02  0.19086864540E+03 -0.10261079136E+03  0.23661766771E+03  0.12699999809E+01 0.  1.
</event>
<event>
 5   0  0.1227864E-02  0.4996606E+03  0.7818609E-02  0.1013868E+00
        1   -1    0    0  501    0  0.00000000000E+00  0.00000000000E+00  0.21762010261E+03  0.21762010267E+03  0.50400001928E-02 0.  1.
       -1   -1    0    0    0  501  0.00000000000E+00  0.00000000000E+00 -0.28680794441E+03  0.28680794446E+03  0.50400001928E-02 0. -1.
    10030    2    1    2    0    0  0.00000000000E+00  0.00000000000E+00 -0.69187841798E+02  0.50442804713E+03  0.49966058207E+03 0.  0.
        5    1    3    3  502    0 -0.45416315321E+02  0.24358741571E+03 -0.66448328399E+02  0.25658320509E+03  0.46999998093E+01 0. -1.
       -5    1    3    3    0  502  0.45416315321E+02 -0.24358741571E+03 -0.27395133990E+01  0.24784484203E+03  0.46999998093E+01 0.  1.
</event>
<event>
 5   0  0.1923706E-02  0.4981841E+03  0.7818609E-02  0.1014254E+00
        2   -1    0    0  501    0  0.00000000000E+00  0.00000000000E+00  0.72844892825E+03  0.72844892826E+03  0.25500000920E-02 0.  1.
       -2   -1    0    0    0  501  0.00000000000E+00  0.00000000000E+00 -0.85176675011E+02  0.85176675050E+02  0.25500000920E-02 0. -1.
    10030    2    1    2    0    0  0.00000000000E+00  0.00000000000E+00  0.64327225324E+03  0.81362560331E+03  0.49818413319E+03 0.  0.
        3    1    3    3  502    0 -0.24848193577E+03  0.10764219688E+02  0.34401171696E+03  0.42450348931E+03  0.10100000352E+00 0. -1.
       -3    1    3    3    0  502  0.24848193577E+03 -0.10764219688E+02  0.29926053628E+03  0.38912211400E+03  0.10100000352E+00 0.  1.
</event>
<event>
 5   0  0.1209831E-02  0.5006224E+03  0.7818609E-02  0.1013617E+00
       -1   -1    0    0    0  501  0.00000000000E+00  0.00000000000E+00  0.39806699977E+02  0.39806700296E+02  0.50400001928E-02 0. -1.
        1   -1    0    0  501    0  0.00000000000E+00  0.00000000000E+00 -0.15739988698E+04  0.15739988698E+04  0.50400001928E-02 0.  1.
    10030    2    1    2    0    0  0.00000000000E+00  0.00000000000E+00 -0.15341921698E+04  0.16138055701E+04  0.50062241675E+03 0.  0.
        4    1    3    3  502    0 -0.10374542075E+03  0.12621783146E+02 -0.33901663662E+02  0.10987883069E+03  0.12699999809E+01 0. -1.
       -4    1    3    3    0  502  0.10374542075E+03 -0.12621783146E+02 -0.15002905062E+04  0.15039267394E+04  0.12699999809E+01 0.  1.
</event>
<event>
 5   0  0.1855407E-02  0.5005367E+03  0.7818609E-02  0.1013639E+00
        2   -1    0    0  501    0  0.00000000000E+00  0.00000000000E+00  0.55834803384E+03  0.55834803385E+03  0.25500000920E-02 0. -1.
       -2   -1    0    0    0  501  0.00000000000E+00  0.00000000000E+00 -0.11217777954E+03  0.11217777957E+03  0.25500000920E-02 0.  1.
    10030    2    1    2    0    0  0.00000000000E+00  0.00000000000E+00  0.44617025430E+03  0.67052581341E+03  0.50053668260E+03 0.  0.
        1    1    3    3  502    0  0.12198726373E+02 -0.16866327317E+02  0.55718640523E+03  0.55757508205E+03  0.50400001928E-02 0. -1.
       -1    1    3    3    0  502 -0.12198726373E+02  0.16866327317E+02 -0.11101615093E+03  0.11295073136E+03  0.50400001928E-02 0.  1.
</event>
<event>
 5   0  0.1209831E-02  0.4997055E+03  0.7818609E-02  0.1013856E+00
       -1   -1    0    0    0  501  0.00000000000E+00  0.00000000000E+00  0.10317119280E+03  0.10317119292E+03  0.50400001928E-02 0.  1.
        1   -1    0    0  501    0  0.00000000000E+00  0.00000000000E+00 -0.60507583272E+03  0.60507583274E+03  0.50400001928E-02 0. -1.
    10030    2    1    2    0    0  0.00000000000E+00  0.00000000000E+00 -0.50190463992E+03  0.70824702566E+03  0.49970549506E+03 0.  0.
        4    1    3    3  502    0  0.22486171056E+03  0.90534543624E+02 -0.16514256563E+03  0.29331377797E+03  0.12699999809E+01 0.  1.
       -4    1    3    3    0  502 -0.22486171056E+03 -0.90534543624E+02 -0.33676207429E+03  0.41493324769E+03  0.12699999809E+01 0. -1.
</event>
<event>
 5   0  0.1227864E-02  0.4973672E+03  0.7818609E-02  0.1014468E+00
       -1   -1    0    0    0  501  0.00000000000E+00  0.00000000000E+00  0.82210399557E+02  0.82210399712E+02  0.50400001928E-02 0.  1.
        1   -1    0    0  501    0  0.00000000000E+00  0.00000000000E+00 -0.75225913413E+03  0.75225913415E+03  0.50400001928E-02 0. -1.
    10030    2    1    2    0    0  0.00000000000E+00  0.00000000000E+00 -0.67004873457E+03  0.83446953386E+03  0.49736716441E+03 0.  0.
        5    1    3    3  502    0  0.11849095397E+02  0.20611384967E+03 -0.10255664633E+03  0.23057162833E+03  0.46999998093E+01 0.  1.
       -5    1    3    3    0  502 -0.11849095397E+02 -0.20611384967E+03 -0.56749208824E+03  0.60389790553E+03  0.46999998093E+01 0. -1.
</event>
<event>
 5   0  0.8012875E-03  0.5003433E+03  0.7818609E-02  0.1013689E+00
        3   -1    0    0  501    0  0.00000000000E+00  0.00000000000E+00  0.17416904211E+03  0.17416907139E+03  0.10100000352E+00 0. -1.
       -3   -1    0    0    0  501  0.00000000000E+00  0.00000000000E+00 -0.35933959238E+03  0.35933960657E+03  0.10100000352E+00 0.  1.
    10030    2    1    2    0    0  0.00000000000E+00  0.00000000000E+00 -0.18517055027E+03  0.53350867797E+03  0.50034325895E+03 0.  0.
        2    1    3    3  502    0  0.15136031149E+03  0.28958697156E+02 -0.30272004427E+03  0.33968805579E+03  0.25500000920E-02 0.  1.
       -2    1    3    3    0  502 -0.15136031149E+03 -0.28958697156E+02  0.11754949400E+03  0.19382062218E+03  0.25500000920E-02 0. -1.
</event>
<event>
 5   0  0.8012875E-03  0.4990995E+03  0.7818609E-02  0.1014014E+00
       -3   -1    0    0    0  501  0.00000000000E+00  0.00000000000E+00  0.15612839546E+04  0.15612839579E+04  0.10100000352E+00 0. -1.
        3   -1    0    0  501    0  0.00000000000E+00  0.00000000000E+00 -0.39887019204E+02  0.39887147078E+02  0.10100000352E+00 0.  1.
    10030    2    1    2    0    0  0.00000000000E+00  0.00000000000E+00  0.15213969354E+04  0.16011711049E+04  0.49909946131E+03 0.  0.
        1    1    3    3  502    0 -0.97522886839E+02 -0.22724797510E+03  0.65320429975E+03  0.69844700076E+03  0.50400001928E-02 0.  1.
       -1    1    3    3    0  502  0.97522886839E+02  0.22724797510E+03  0.86819263564E+03  0.90272410417E+03  0.50400001928E-02 0. -1.
</event>
<event>
 5   0  0.8012875E-03  0.4883465E+03  0.7818609E-02  0.1016866E+00
       -4   -1    0    0    0  501  0.00000000000E+00  0.00000000000E+00  0.83342017371E+03  0.83342114134E+03  0.12699999809E+01 0. -1.
        4   -1    0    0  501    0  0.00000000000E+00  0.00000000000E+00 -0.71530587987E+02  0.71541861296E+02  0.12699999809E+01 0.  1.
    10030    2    1    2    0    0  0.00000000000E+00  0.00000000000E+00  0.76188958572E+03  0.90496300264E+03  0.48834649105E+03 0.  0.
        1    1    3    3  502    0  0.20901152303E+03 -0.31580239592E+02  0.60743056248E+03  0.64316017955E+03  0.50400001928E-02 0. -1.
       -1    1    3    3    0  502 -0.20901152303E+03  0.31580239592E+02  0.15445902323E+03  0.26180282309E+03  0.50400001928E-02 0.  1.
</event>
<event>
 5   0  0.8012875E-03  0.5001392E+03  0.7818609E-02  0.1013743E+00
        3   -1    0    0  501    0  0.00000000000E+00  0.00000000000E+00  0.19243087648E+03  0.19243090299E+03  0.10100000352E+00 0.  1.
       -3   -1    0    0    0  501  0.00000000000E+00  0.00000000000E+00 -0.32497282748E+03  0.32497284318E+03  0.10100000352E+00 0. -1.
    10030    2    1    2    0    0  0.00000000000E+00  0.00000000000E+00 -0.13254195100E+03  0.51740374617E+03  0.50013924838E+03 0.  0.
        4    1    3    3  502    0 -0.71976540542E+02  0.11627871988E+03  0.15031657393E+03  0.20321921263E+03  0.12699999809E+01 0.  1.
       -4    1    3    3    0  502  0.71976540542E+02 -0.11627871988E+03 -0.28285852493E+03  0.31418453353E+03  0.12699999809E+01 0. -1.
</event>
<event>
 5   0  0.1217270E-02  0.4976050E+03  0.7818609E-02  0.1014406E+00
        1   -1    0    0  501    0  0.00000000000E+00  0.00000000000E+00  0.30530904623E+03  0.30530904627E+03  0.50400001928E-02 0.  1.
       -1   -1    0    0    0  501  0.00000000000E+00  0.00000000000E+00 -0.20275419765E+03  0.20275419771E+03  0.50400001928E-02 0. -1.
    10030    2    1    2    0    0  0.00000000000E+00  0.00000000000E+00  0.10255484858E+03  0.50806324399E+03  0.49760502703E+03 0.  0.
        2    1    3    3  502    0  0.12390959660E+03 -0.15962175330E+03  0.19948324809E+03  0.28394763343E+03  0.25500000920E-02 0.  1.
       -2    1    3    3    0  502 -0.12390959660E+03  0.15962175330E+03 -0.96928399510E+02  0.22411561056E+03  0.25500000920E-02 0. -1.
</event>
<event>
 5   0  0.8012875E-03  0.4972379E+03  0.7818609E-02  0.1014502E+00
        3   -1    0    0  501    0  0.00000000000E+00  0.00000000000E+00  0.30781384465E+02  0.30781550166E+02  0.10100000352E+00 0. -1.
       -3   -1    0    0    0  501  0.00000000000E+00  0.00000000000E+00 -0.20080713935E+04  0.20080713961E+04  0.10100000352E+00 0.  1.
    10030    2    1    2    0    0  0.00000000000E+00  0.00000000000E+00 -0.19772900091E+04  0.20388529462E+04  0.49723792738E+03 0.  0.
        4    1    3    3  502    0 -0.18011690374E+03  0.11375857058E+03 -0.15141736013E+04  0.15290867926E+04  0.12699999809E+01 0. -1.
       -4    1    3    3    0  502  0.18011690374E+03 -0.11375857058E+03 -0.46311640775E+03  0.50976615367E+03  0.12699999809E+01 0.  1.
</event>
<event>
 5   0  0.1225989E-02  0.5018374E+03  0.7818609E-02  0.1013300E+00
       -1   -1    0    0    0  501  0.00000000000E+00  0.00000000000E+00  0.10582701430E+03  0.10582701442E+03  0.50400001928E-02 0.  1.
        1   -1    0    0  501    0  0.00000000000E+00  0.00000000000E+00 -0.59493495782E+03  0.59493495784E+03  0.50400001928E-02 0. -1.
    10030    2    1    2    0    0  0.00000000000E+00  0.00000000000E+00 -0.48910794352E+03  0.70076197226E+03  0.50183738536E+03 0.  0.
        3    1    3    3  502    0  0.12979335043E+03  0.76496771800E+01  0.55118984484E+02  0.14121948884E+03  0.10100000352E+00 0.  1.
       -3    1    3    3    0  502 -0.12979335043E+03 -0.76496771800E+01 -0.54422692801E+03  0.55954248341E+03  0.10100000352E+00 0. -1.
</event>
<event>
 5   0  0.8012875E-03  0.5011988E+03  0.7818609E-02  0.1013466E+00
        3   -1    0    0  501    0  0.00000000000E+00  0.00000000000E+00  0.58223204414E+03  0.58223205290E+03  0.10100000352E+00 0. -1.
       -3   -1    0    0    0  501  0.00000000000E+00  0.00000000000E+00 -0.10786086391E+03  0.10786091120E+03  0.10100000352E+00 0.  1.
    10030    2    1    2    0    0  0.00000000000E+00  0.00000000000E+00  0.47437118023E+03  0.69009296410E+03  0.50119884524E+03 0.  0.
        3    1    3    3  502    0  0.22787213020E+03 -0.10295797969E+03  0.21439379892E+03  0.32937936262E+03  0.10100000352E+00 0. -1.
       -3    1    3    3    0  502 -0.22787213020E+03  0.10295797969E+03  0.25997738131E+03  0.36071360148E+03  0.10100000352E+00 0.  1.
</event>
<event>
 5   0  0.1982847E-02  0.5002697E+03  0.7818609E-02  0.1013709E+00
       -2   -1    0    0    0  501  0.00000000000E+00  0.00000000000E+00  0.78740083407E+02  0.78740083448E+02  0.25500000920E-02 0.  1.
        2   -1    0    0  501    0  0.00000000000E+00  0.00000000000E+00 -0.79460742813E+03  0.79460742813E+03  0.25500000920E-02 0. -1.
    10030    2    1    2    0    0  0.00000000000E+00  0.00000000000E+00 -0.71586734472E+03  0.87334751158E+03  0.50026974798E+03 0.  0.
        2    1    3    3  502    0  0.14570235730E+03  0.18908386646E+03 -0.48840545124E+03  0.54361914084E+03  0.25500000920E-02 0. -1.
       -2    1    3    3    0  502 -0.14570235730E+03 -0.18908386646E+03 -0.22746189349E+03  0.32972837075E+03  0.25500000920E-02 0.  1.
</event>
<event>
 5   0  0.1209831E-02  0.5004237E+03  0.7818609E-02  0.1013668E+00
        1   -1    0    0  501    0  0.00000000000E+00  0.00000000000E+00  0.55215876219E+03  0.55215876221E+03  0.50400001928E-02 0.  1.
       -1   -1    0    0    0  501  0.00000000000E+00  0.00000000000E+00 -0.11338398370E+03  0.11338398381E+03  0.50400001928E-02 0. -1.
    10030    2    1    2    0    0  0.00000000000E+00  0.00000000000E+00  0.43877477849E+03  0.66554274602E+03  0.50042366106E+03 0.  0.
        4    1    3    3  502    0  0.16813251444E+03 -0.13301725149E+03  0.47816464980E+02  0.21965918790E+03  0.12699999809E+01 0. -1.
       -4    1    3    3    0  502 -0.16813251444E+03  0.13301725149E+03  0.39095831351E+03  0.44588355812E+03  0.12699999809E+01 0.  1.
</event>
<event>
 5   0  0.1209831E-02  0.4996575E+03  0.7818609E-02  0.1013868E+00
        1   -1    0    0  501    0  0.00000000000E+00  0.00000000000E+00  0.14660808987E+03  0.14660808996E+03  0.50400001928E-02 0.  1.
       -1   -1    0    0    0  501  0.00000000000E+00  0.00000000000E+00 -0.42572279521E+03  0.42572279524E+03  0.50400001928E-02 0. -1.
    10030    2    1    2    0    0  0.00000000000E+00  0.00000000000E+00 -0.27911470534E+03  0.57233088519E+03  0.49965750611E+03 0.  0.
        4    1    3    3  502    0 -0.12675774315E+03 -0.20570684089E+03 -0.21227256932E+03  0.32162724764E+03  0.12699999809E+01 0.  1.
       -4    1    3    3    0  502  0.12675774315E+03  0.20570684089E+03 -0.66842136014E+02  0.25070363756E+03  0.12699999809E+01 0. -1.
</event>
<event>
 5   0  0.1180937E-02  0.4996791E+03  0.7818609E-02  0.1013863E+00
        1   -1    0    0  501    0  0.00000000000E+00  0.00000000000E+00  0.73674197051E+03  0.73674197053E+03  0.50400001928E-02 0.  1.
       -1   -1    0    0    0  501  0.00000000000E+00  0.00000000000E+00 -0.84724104175E+02  0.84724104325E+02  0.50400001928E-02 0. -1.
    10030    2    1    2    0    0  0.00000000000E+00  0.00000000000E+00  0.65201786634E+03  0.82146607485E+03  0.49967911114E+03 0.  0.
        1    1    3    3  502    0 -0.20664020974E+03  0.12514425812E+03  0.22127595480E+03  0.32760389164E+03  0.50400001928E-02 0.  1.
       -1    1    3    3    0  502  0.20664020974E+03 -0.12514425812E+03  0.43074191154E+03  0.49386218321E+03  0.50400001928E-02 0. -1.
</event>
<event>
 5   0  0.1227864E-02  0.5007251E+03  0.7818609E-02  0.1013590E+00
       -1   -1    0    0    0  501  0.00000000000E+00  0.00000000000E+00  0.38292537200E+03  0.38292537204E+03  0.50400001928E-02 0.  1.
        1   -1    0    0  501    0  0.00000000000E+00  0.00000000000E+00 -0.16369090800E+03  0.16369090808E+03  0.50400001928E-02 0. -1.
    10030    2    1    2    0    0  0.00000000000E+00  0.00000000000E+00  0.21923446400E+03  0.54661628012E+03  0.50072508174E+03 0.  0.
        5    1    3    3  502    0 -0.13188763995E+03 -0.18868427628E+03  0.21692813254E+03  0.31634792613E+03  0.46999998093E+01 0.  1.
       -5    1    3    3    0  502  0.13188763995E+03  0.18868427628E+03  0.23063314589E+01  0.23026835399E+03  0.46999998093E+01 0. -1.
</event>
<event>
 5   0  0.1941387E-02  0.4996506E+03  0.7818609E-02  0.1013870E+00
       -2   -1    0    0    0  501  0.00000000000E+00  0.00000000000E+00  0.24445381181E+02  0.24445381314E+02  0.25500000920E-02 0. -1.
        2   -1    0    0  501    0  0.00000000000E+00  0.00000000000E+00 -0.25531479952E+04  0.25531479952E+04  0.25500000920E-02 0.  1.
    10030    2    1    2    0    0  0.00000000000E+00  0.00000000000E+00 -0.25287026140E+04  0.25775933765E+04  0.49965058241E+03 0.  0.
        4    1    3    3  502    0 -0.62259836586E+02 -0.45663608965E+02 -0.24900352172E+04  0.24912323152E+04  0.12699999809E+01 0.  1.
       -4    1    3    3    0  502  0.62259836586E+02  0.45663608965E+02 -0.38667396803E+02  0.86361061312E+02  0.12699999809E+01 0. -1.
</event>
<event>
 5   0  0.1180937E-02  0.4998664E+03  0.7818609E-02  0.1013814E+00
       -1   -1    0    0    0  501  0.00000000000E+00  0.00000000000E+00  0.10517859148E+04  0.10517859148E+04  0.50400001928E-02 0.  1.
        1   -1    0    0  501    0  0.00000000000E+00  0.00000000000E+00 -0.59390994281E+02  0.59390994495E+02  0.50400001928E-02 0. -1.
    10030    2    1    2    0    0  0.00000000000E+00  0.00000000000E+00  0.99239492049E+03  0.11111769093E+04  0.49986642766E+03 0.  0.
        1    1    3    3  502    0 -0.19004950323E+03 -0.52406625441E+02  0.83770287929E+03  0.86058781194E+03  0.50400001928E-02 0.  1.
       -1    1    3    3    0  502  0.19004950323E+03  0.52406625441E+02  0.15469204120E+03  0.25058909734E+03  0.50400001928E-02 0. -1.
</event>
<event>
 5   0  0.1941387E-02  0.5007470E+03  0.7818609E-02  0.1013584E+00
        2   -1    0    0  501    0  0.00000000000E+00  0.00000000000E+00  0.60702064279E+03  0.60702064280E+03  0.25500000920E-02 0.  1.
       -2   -1    0    0    0  501  0.00000000000E+00  0.00000000000E+00 -0.10326979132E+03  0.10326979135E+03  0.25500000920E-02 0. -1.
    10030    2    1    2    0    0  0.00000000000E+00  0.00000000000E+00  0.50375085147E+03  0.71029043415E+03  0.50074702244E+03 0.  0.
        4    1    3    3  502    0 -0.99993021100E+02  0.13551386817E+02 -0.73144365236E+02  0.12463528962E+03  0.12699999809E+01 0. -1.
       -4    1    3    3    0  502  0.99993021100E+02 -0.13551386817E+02  0.57689521671E+03  0.58565514453E+03  0.12699999809E+01 0.  1.
</event>
<event>
 5   0  0.1923706E-02  0.5011778E+03  0.7818609E-02  0.1013472E+00
       -2   -1    0    0    0  501  0.00000000000E+00  0.00000000000E+00  0.11909403285E+03  0.11909403288E+03  0.25500000920E-02 0.  1.
        2   -1    0    0  501    0  0.00000000000E+00  0.00000000000E+00 -0.52727071197E+03  0.52727071198E+03  0.25500000920E-02 0. -1.
    10030    2    1    2    0    0  0.00000000000E+00  0.00000000000E+00 -0.40817667912E+03  0.64636474486E+03  0.50117779482E+03 0.  0.
        3    1    3    3  502    0 -0.14954729521E+03  0.12922548799E+03 -0.40276432209E+03  0.44864543862E+03  0.10100000352E+00 0. -1.
       -3    1    3    3    0  502  0.14954729521E+03 -0.12922548799E+03 -0.54123570299E+01  0.19771930624E+03  0.10100000352E+00 0.  1.
</event>
<event>
 5   0  0.1855407E-02  0.4996133E+03  0.7818609E-02  0.1013880E+00
       -2   -1    0    0    0  501  0.00000000000E+00  0.00000000000E+00  0.20525264628E+03  0.20525264629E+03  0.25500000920E-02 0.  1.
        2   -1    0    0  501    0  0.00000000000E+00  0.00000000000E+00 -0.30403194807E+03  0.30403194808E+03  0.25500000920E-02 0. -1.
    10030    2    1    2    0    0  0.00000000000E+00  0.00000000000E+00 -0.98779301794E+02  0.50928459437E+03  0.49961329807E+03 0.  0.
        1    1    3    3  502    0 -0.71516062726E+02  0.15287717269E+03 -0.23712140090E+03  0.29105418043E+03  0.50400001928E-02 0. -1.
       -1    1    3    3    0  502  0.71516062726E+02 -0.15287717269E+03  0.13834209911E+03  0.21823041394E+03  0.50400001928E-02 0.  1.
</event>
<event>
 5   0  0.1941387E-02  0.5007840E+03  0.7818609E-02  0.1013574E+00
        2   -1    0    0  501    0  0.00000000000E+00  0.00000000000E+00  0.10640970119E+04  0.10640970119E+04  0.25500000920E-02 0. -1.
       -2   -1    0    0    0  501  0.00000000000E+00  0.00000000000E+00 -0.58919595047E+02  0.58919595102E+02  0.25500000920E-02 0.  1.
    10030    2    1    2    0    0  0.00000000000E+00  0.00000000000E+00  0.10051774169E+04  0.11230166070E+04  0.50078404554E+03 0.  0.
        4    1    3    3  502    0  0.16977617422E+03  0.56073009590E+02  0.89567842148E+03  0.91335074279E+03  0.12699999809E+01 0. -1.
       -4    1    3    3    0  502 -0.16977617422E+03 -0.56073009590E+02  0.10949899539E+03  0.20966586424E+03  0.12699999809E+01 0.  1.
</event>
<event>
 5   0  0.1180937E-02  0.5000117E+03  0.7818609E-02  0.1013776E+00
        1   -1    0    0  501    0  0.00000000000E+00  0.00000000000E+00  0.81284605548E+03  0.81284605550E+03  0.50400001928E-02 0.  1.
       -1   -1    0    0    0  501  0.00000000000E+00  0.00000000000E+00 -0.76893935010E+02  0.76893935175E+02  0.50400001928E-02 0. -1.
    10030    2    1    2    0    0  0.00000000000E+00  0.00000000000E+00  0.73595212048E+03  0.88973999068E+03  0.50001172724E+03 0.  0.
        1    1    3    3  502    0  0.25662229662E+02 -0.15225885117E+03  0.18092959075E+02  0.15546273825E+03  0.50400001928E-02 0. -1.
       -1    1    3    3    0  502 -0.25662229662E+02  0.15225885117E+03  0.71785916140E+03  0.73427725242E+03  0.50400001928E-02 0.  1.
</event>
<event>
 5   0  0.1923706E-02  0.4999537E+03  0.7818609E-02  0.1013791E+00
        2   -1    0    0  501    0  0.00000000000E+00  0.00000000000E+00  0.46850126518E+03  0.46850126519E+03  0.25500000920E-02 0. -1.
       -2   -1    0    0    0  501  0.00000000000E+00  0.00000000000E+00 -0.13337943438E+03  0.13337943441E+03  0.25500000920E-02 0.  1.
    10030    2    1    2    0    0  0.00000000000E+00  0.00000000000E+00  0.33512183079E+03  0.60188069959E+03  0.49995373293E+03 0.  0.
        3    1    3    3  502    0  0.27968926579E+02 -0.16362353961E+03 -0.57448997557E+02  0.17565682762E+03  0.10100000352E+00 0.  1.
       -3    1    3    3    0  502 -0.27968926579E+02  0.16362353961E+03  0.39257082835E+03  0.42622387198E+03  0.10100000352E+00 0. -1.
</event>
<event>
 5   0  0.1180937E-02  0.4984537E+03  0.7818609E-02  0.1014183E+00
        1   -1    0    0  501    0  0.00000000000E+00  0.00000000000E+00  0.18369598751E+03  0.18369598757E+03  0.50400001928E-02 0. -1.
       -1   -1    0    0    0  501  0.00000000000E+00  0.00000000000E+00 -0.33813491330E+03  0.33813491334E+03  0.50400001928E-02 0.  1.
    10030    2    1    2    0    0  0.00000000000E+00  0.00000000000E+00 -0.15443892580E+03  0.52183090091E+03  0.49845371636E+03 0.  0.
        1    1    3    3  502    0 -0.24897557669E+03 -0.13840201056E+01 -0.88843041011E+02  0.26435551680E+03  0.50400001928E-02 0.  1.
       -1    1    3    3    0  502  0.24897557669E+03  0.13840201056E+01 -0.65595884786E+02  0.25747538412E+03  0.50400001928E-02 0. -1.
</event>
<event>
 5   0  0.8012875E-03  0.5003117E+03  0.7818609E-02  0.1013698E+00
       -3   -1    0    0    0  501  0.00000000000E+00  0.00000000000E+00  0.47489573028E+03  0.47489574102E+03  0.10100000352E+00 0. -1.
        3   -1    0    0  501    0  0.00000000000E+00  0.00000000000E+00 -0.13177194341E+03  0.13177198212E+03  0.10100000352E+00 0.  1.
    10030    2    1    2    0    0  0.00000000000E+00  0.00000000000E+00  0.34312378687E+03  0.60666772314E+03  0.50031169604E+03 0.  0.
        3    1    3    3  502    0 -0.14712248808E+03 -0.42900314627E+02  0.41131089939E+03  0.43893294437E+03  0.10100000352E+00 0. -1.
       -3    1    3    3    0  502  0.14712248808E+03  0.42900314627E+02 -0.68187112525E+02  0.16773477877E+03  0.10100000352E+00 0.  1.
</event>
<event>
 5   0  0.1941387E-02  0.4999317E+03  0.7818609E-02  0.1013797E+00
        2   -1    0    0  501    0  0.00000000000E+00  0.00000000000E+00  0.37893273201E+03  0.37893273202E+03  0.25500000920E-02 0.  1.
       -2   -1    0    0    0  501  0.00000000000E+00  0.00000000000E+00 -0.16489186158E+03  0.16489186160E+03  0.25500000920E-02 0. -1.
    10030    2    1    2    0    0  0.00000000000E+00  0.00000000000E+00  0.21404087044E+03  0.54382459362E+03  0.49993168974E+03 0.  0.
        4    1    3    3  502    0  0.18636858931E+03 -0.11535647173E+03 -0.23700747917E+02  0.22046247981E+03  0.12699999809E+01 0. -1.
       -4    1    3    3    0  502 -0.18636858931E+03  0.11535647173E+03  0.23774161835E+03  0.32336211381E+03  0.12699999809E+01 0.  1.
</event>
<event>
 5   0  0.1982847E-02  0.4973118E+03  0.7818609E-02  0.1014483E+00
        2   -1    0    0  501    0  0.00000000000E+00  0.00000000000E+00  0.14170933084E+04  0.14170933084E+04  0.25500000920E-02 0.  1.
       -2   -1    0    0    0  501  0.00000000000E+00  0.00000000000E+00 -0.43631388094E+02  0.43631388169E+02  0.25500000920E-02 0. -1.
    10030    2    1    2    0    0  0.00000000000E+00  0.00000000000E+00  0.13734619203E+04  0.14607246966E+04  0.49731176604E+03 0.  0.
        2    1    3    3  502    0  0.13014617384E+03 -0.19124521465E+03  0.41886180177E+03  0.47849552525E+03  0.25500000920E-02 0. -1.
       -2    1    3    3    0  502 -0.13014617384E+03  0.19124521465E+03  0.95460011855E+03  0.98222917134E+03  0.25500000920E-02 0.  1.
</event>
<event>
 5   0  0.1855407E-02  0.4927980E+03  0.7818609E-02  0.1015676E+00
        2   -1    0    0  501    0  0.00000000000E+00  0.00000000000E+00  0.26773708111E+03  0.26773708112E+03  0.25500000920E-02 0. -1.
       -2   -1    0    0    0  501  0.00000000000E+00  0.00000000000E+00 -0.22676150509E+03  0.22676150511E+03  0.25500000920E-02 0.  1.
    10030    2    1    2    0    0  0.00000000000E+00  0.00000000000E+00  0.40975576019E+02  0.49449858623E+03  0.49279798493E+03 0.  0.
        1    1    3    3  502    0 -0.14579301198E+03 -0.88095070136E+02 -0.15816063233E+03  0.23244597086E+03  0.50400001928E-02 0.  1.
       -1    1    3    3    0  502  0.14579301198E+03  0.88095070136E+02  0.19913620835E+03  0.26205261537E+03  0.50400001928E-02 0. -1.
</event>
<event>
 5   0  0.1855407E-02  0.5008670E+03  0.7818609E-02  0.1013553E+00
        2   -1    0    0  501    0  0.00000000000E+00  0.00000000000E+00  0.58074152881E+02  0.58074152937E+02  0.25500000920E-02 0.  1.
       -2   -1    0    0    0  501  0.00000000000E+00  0.00000000000E+00 -0.10799457521E+04  0.10799457521E+04  0.25500000920E-02 0. -1.
    10030    2    1    2    0    0  0.00000000000E+00  0.00000000000E+00 -0.10218715992E+04  0.11380199051E+04  0.50086698731E+03 0.  0.
        1    1    3    3  502    0  0.24061385660E+03  0.55595811140E+02 -0.60546751846E+03  0.65389359848E+03  0.50400001928E-02 0.  1.
       -1    1    3    3    0  502 -0.24061385660E+03 -0.55595811140E+02 -0.41640408079E+03  0.48412630658E+03  0.50400001928E-02 0. -1.
</event>
<event>
 5   0  0.1227864E-02  0.5004885E+03  0.7818609E-02  0.1013651E+00
        1   -1    0    0  501    0  0.00000000000E+00  0.00000000000E+00  0.58092809923E+03  0.58092809925E+03  0.50400001928E-02 0. -1.
       -1   -1    0    0    0  501  0.00000000000E+00  0.00000000000E+00 -0.10779681045E+03  0.10779681057E+03  0.50400001928E-02 0.  1.
    10030    2    1    2    0    0  0.00000000000E+00  0.00000000000E+00  0.47313128878E+03  0.68872490983E+03  0.50048854632E+03 0.  0.
        5    1    3    3  502    0  0.61087917620E+02 -0.21065340130E+03  0.40223361080E+03  0.45817088167E+03  0.46999998093E+01 0. -1.
       -5    1    3    3    0  502 -0.61087917620E+02  0.21065340130E+03  0.70897677981E+02  0.23055402816E+03  0.46999998093E+01 0.  1.
</event>
<event>
 5   0  0.1982847E-02  0.4952258E+03  0.7818609E-02  0.1015033E+00
       -2   -1    0    0    0  501  0.00000000000E+00  0.00000000000E+00  0.12863442373E+03  0.12863442376E+03  0.25500000920E-02 0.  1.
        2   -1    0    0  501    0  0.00000000000E+00  0.00000000000E+00 -0.47663878540E+03  0.47663878541E+03  0.25500000920E-02 0. -1.
    10030    2    1    2    0    0  0.00000000000E+00  0.00000000000E+00 -0.34800436167E+03  0.60527320917E+03  0.49522582929E+03 0.  0.
        2    1    3    3  502    0  0.24578442317E+03  0.29169149967E+02 -0.18275904558E+03  0.30767140057E+03  0.25500000920E-02 0.  1.
       -2    1    3    3    0  502 -0.24578442317E+03 -0.29169149967E+02 -0.16524531609E+03  0.29760180860E+03  0.25500000920E-02 0. -1.
</event>
<event>
 5   0  0.1217270E-02  0.4996077E+03  0.7818609E-02  0.1013881E+00
       -1   -1    0    0    0  501  0.00000000000E+00  0.00000000000E+00  0.12196195579E+03  0.12196195589E+03  0.50400001928E-02 0. -1.
        1   -1    0    0  501    0  0.00000000000E+00  0.00000000000E+00 -0.51165112736E+03  0.51165112739E+03  0.50400001928E-02 0.  1.
    10030    2    1    2    0    0  0.00000000000E+00  0.00000000000E+00 -0.38968917158E+03  0.63361308328E+03  0.49960773499E+03 0.  0.
        2    1    3    3  502    0 -0.14920763048E+02  0.13914702885E+03  0.67580512887E+02  0.15540801310E+03  0.25500000920E-02 0. -1.
       -2    1    3    3    0  502  0.14920763048E+02 -0.13914702885E+03 -0.45726968446E+03  0.47820507018E+03  0.25500000920E-02 0.  1.
</event>
<event>
 5   0  0.1217270E-02  0.4991554E+03  0.7818609E-02  0.1014000E+00
       -1   -1    0    0    0  501  0.00000000000E+00  0.00000000000E+00  0.47113175929E+02  0.47113176199E+02  0.50400001928E-02 0.  1.
        1   -1    0    0  501    0  0.00000000000E+00  0.00000000000E+00 -0.13221149969E+04  0.13221149969E+04  0.50400001928E-02 0. -1.
    10030    2    1    2    0    0  0.00000000000E+00  0.00000000000E+00 -0.12750018209E+04  0.13692281731E+04  0.49915543326E+03 0.  0.
        2    1    3    3  502    0  0.11470473166E+01 -0.18195053505E+03 -0.16890823656E+03  0.24826861523E+03  0.25500000920E-02 0.  1.
       -2    1    3    3    0  502 -0.11470473166E+01  0.18195053505E+03 -0.11060935844E+04  0.11209595578E+04  0.25500000920E-02 0. -1.
</event>
<event>
 5   0  0.1209831E-02  0.4998113E+03  0.7818609E-02  0.1013828E+00
       -1   -1    0    0    0  501  0.00000000000E+00  0.00000000000E+00  0.13224728692E+03  0.13224728701E+03  0.50400001928E-02 0. -1.
        1   -1    0    0  501    0  0.00000000000E+00  0.00000000000E+00 -0.47224288879E+03  0.47224288882E+03  0.50400001928E-02 0.  1.
    10030    2    1    2    0    0  0.00000000000E+00  0.00000000000E+00 -0.33999560187E+03  0.60449017583E+03  0.49981132778E+03 0.  0.
        4    1    3    3  502    0  0.12282374742E+02 -0.11747223874E+03  0.96354778184E+02  0.15243503463E+03  0.12699999809E+01 0. -1.
       -4    1    3    3    0  502 -0.12282374742E+02  0.11747223874E+03 -0.43635038006E+03  0.45205514120E+03  0.12699999809E+01 0.  1.
</event>
<event>
 5   0  0.1227864E-02  0.5029512E+03  0.7818609E-02  0.1013011E+00
       -1   -1    0    0    0  501  0.00000000000E+00  0.00000000000E+00  0.63094489468E+02  0.63094489669E+02  0.50400001928E-02 0.  1.
        1   -1    0    0  501    0  0.00000000000E+00  0.00000000000E+00 -0.10023057210E+04  0.10023057210E+04  0.50400001928E-02 0. -1.
    10030    2    1    2    0    0  0.00000000000E+00  0.00000000000E+00 -0.93921123150E+03  0.10654002106E+04  0.50295116212E+03 0.  0.
        5    1    3    3  502    0 -0.11152014920E+03 -0.18573759854E+03 -0.73990800759E+03  0.77098712628E+03  0.46999998093E+01 0. -1.
       -5    1    3    3    0  502  0.11152014920E+03  0.18573759854E+03 -0.19930322390E+03  0.29441308437E+03  0.46999998093E+01 0.  1.
</event>
<event>
 5   0  0.1227864E-02  0.4998656E+03  0.7818609E-02  0.1013814E+00
        1   -1    0    0  501    0  0.00000000000E+00  0.00000000000E+00  0.16953223300E+04  0.16953223300E+04  0.50400001928E-02 0.  1.
       -1   -1    0    0    0  501  0.00000000000E+00  0.00000000000E+00 -0.36846335882E+02  0.36846336227E+02  0.50400001928E-02 0. -1.
    10030    2    1    2    0    0  0.00000000000E+00  0.00000000000E+00  0.16584759941E+04  0.17321686662E+04  0.49986564716E+03 0.  0.
        5    1    3    3  502    0  0.18463495507E+03  0.86344802258E+02  0.32828391087E+03  0.38644263177E+03  0.46999998093E+01 0. -1.
       -5    1    3    3    0  502 -0.18463495507E+03 -0.86344802258E+02  0.13301920832E+04  0.13457260344E+04  0.46999998093E+01 0.  1.
</event>
<event>
 5   0  0.8012875E-03  0.5001834E+03  0.7818609E-02  0.1013731E+00
        3   -1    0    0  501    0  0.00000000000E+00  0.00000000000E+00  0.61056635620E+03  0.61056636455E+03  0.10100000352E+00 0.  1.
       -3   -1    0    0    0  501  0.00000000000E+00  0.00000000000E+00 -0.10243904792E+03  0.10243909771E+03  0.10100000352E+00 0. -1.
    10030    2    1    2    0    0  0.00000000000E+00  0.00000000000E+00  0.50812730828E+03  0.71300546227E+03  0.50018339417E+03 0.  0.
        3    1    3    3  502    0 -0.31417093990E+02 -0.69113501426E+02 -0.85615936784E+02  0.11442818144E+03  0.10100000352E+00 0. -1.
       -3    1    3    3    0  502  0.31417093990E+02  0.69113501426E+02  0.59374324506E+03  0.59857728083E+03  0.10100000352E+00 0.  1.
</event>
<event>
 5   0  0.1923706E-02  0.4997460E+03  0.7818609E-02  0.1013845E+00
        2   -1    0    0  501    0  0.00000000000E+00  0.00000000000E+00  0.13722143456E+04  0.13722143456E+04  0.25500000920E-02 0.  1.
       -2   -1    0    0    0  501  0.00000000000E+00  0.00000000000E+00 -0.45500554502E+02  0.45500554574E+02  0.25500000920E-02 0. -1.
    10030    2    1    2    0    0  0.00000000000E+00  0.00000000000E+00  0.13267137911E+04  0.14177149002E+04  0.49974599018E+03 0.  0.
        3    1    3    3  502    0  0.15314261694E+03 -0.13257147965E+03  0.24827463105E+03  0.32041872754E+03  0.10100000352E+00 0. -1.
       -3    1    3    3    0  502 -0.15314261694E+03  0.13257147965E+03  0.10784391601E+04  0.10972961727E+04  0.10100000352E+00 0.  1.
</event>
<event>
 5   0  0.1923706E-02  0.4998950E+03  0.7818609E-02  0.1013806E+00
        2   -1    0    0  501    0  0.00000000000E+00  0.00000000000E+00  0.31777344548E+03  0.31777344549E+03  0.25500000920E-02 0.  1.
       -2   -1    0    0    0  501  0.00000000000E+00  0.00000000000E+00 -0.19659841055E+03  0.19659841056E+03  0.25500000920E-02 0. -1.
    10030    2    1    2    0    0  0.00000000000E+00  0.00000000000E+00  0.12117503494E+03  0.51437185606E+03  0.49989500619E+03 0.  0.
        3    1    3    3  502    0 -0.46728804199E+02  0.24298385523E+03  0.24222718250E+02  0.24861915719E+03  0.10100000352E+00 0.  1.
       -3    1    3    3    0  502  0.46728804199E+02 -0.24298385523E+03  0.96952316688E+02  0.26575269887E+03  0.10100000352E+00 0. -1.
</event>
<event>
 5   0  0.1227864E-02  0.5007560E+03  0.7818609E-02  0.1013582E+00
       -1   -1    0    0    0  501  0.00000000000E+00  0.00000000000E+00  0.21702605070E+03  0.21702605076E+03  0.50400001928E-02 0.  1.
        1   -1    0    0  501    0  0.00000000000E+00  0.00000000000E+00 -0.28885535417E+03  0.28885535421E+03  0.50400001928E-02 0. -1.
    10030    2    1    2    0    0  0.00000000000E+00  0.00000000000E+00 -0.71829303467E+02  0.50588140497E+03  0.50075597556E+03 0.  0.
        5    1    3    3  502    0 -0.90993557082E+02 -0.19845057831E+03  0.87832326566E+02  0.23537006405E+03  0.46999998093E+01 0.  1.
       -5    1    3    3    0  502  0.90993557082E+02  0.19845057831E+03 -0.15966163003E+03  0.27051134092E+03  0.46999998093E+01 0. -1.
</event>
<event>
 5   0  0.1855407E-02  0.4997992E+03  0.7818609E-02  0.1013831E+00
        2   -1    0    0  501    0  0.00000000000E+00  0.00000000000E+00  0.37438729115E+03  0.37438729116E+03  0.25500000920E-02 0.  1.
       -2   -1    0    0    0  501  0.00000000000E+00  0.00000000000E+00 -0.16680538664E+03  0.16680538666E+03  0.25500000920E-02 0. -1.
    10030    2    1    2    0    0  0.00000000000E+00  0.00000000000E+00  0.20758190452E+03  0.54119267782E+03  0.49979922713E+03 0.  0.
        1    1    3    3  502    0 -0.17567871089E+03  0.17740922857E+03  0.92291983870E+02  0.26618575123E+03  0.50400001928E-02 0. -1.
       -1    1    3    3    0  502  0.17567871089E+03 -0.17740922857E+03  0.11528992065E+03  0.27500692659E+03  0.50400001928E-02 0.  1.
</event>
<event>
 5   0  0.1217270E-02  0.4999382E+03  0.7818609E-02  0.1013795E+00
       -1   -1    0    0    0  501  0.00000000000E+00  0.00000000000E+00  0.16832734667E+03  0.16832734675E+03  0.50400001928E-02 0. -1.
        1   -1    0    0  501    0  0.00000000000E+00  0.00000000000E+00 -0.37120859700E+03  0.37120859704E+03  0.50400001928E-02 0.  1.
    10030    2    1    2    0    0  0.00000000000E+00  0.00000000000E+00 -0.20288125033E+03  0.53953594378E+03  0.49993822908E+03 0.  0.
        2    1    3    3  502    0 -0.17289568866E+03  0.69600615133E+02 -0.28120976119E+03  0.33736640997E+03  0.25500000920E-02 0. -1.
       -2    1    3    3    0  502  0.17289568866E+03 -0.69600615133E+02  0.78328510857E+02  0.20216953381E+03  0.25500000920E-02 0.  1.
</event>
<event>
 5   0  0.1923706E-02  0.5030130E+03  0.7818609E-02  0.1012995E+00
       -2   -1    0    0    0  501  0.00000000000E+00  0.00000000000E+00  0.26551980191E+03  0.26551980193E+03  0.25500000920E-02 0.  1.
        2   -1    0    0  501    0  0.00000000000E+00  0.00000000000E+00 -0.23823279228E+03  0.23823279230E+03  0.25500000920E-02 0. -1.
    10030    2    1    2    0    0  0.00000000000E+00  0.00000000000E+00  0.27287009629E+02  0.50375259422E+03  0.50301301702E+03 0.  0.
        3    1    3    3  502    0 -0.11476144606E+03 -0.78046400982E+02  0.22369956168E+03  0.26325450481E+03  0.10100000352E+00 0.  1.
       -3    1    3    3    0  502  0.11476144606E+03  0.78046400982E+02 -0.19641255205E+03  0.24049808941E+03  0.10100000352E+00 0. -1.
</event>
<event>
 5   0  0.1941387E-02  0.5006062E+03  0.7818609E-02  0.1013621E+00
        2   -1    0    0  501    0  0.00000000000E+00  0.00000000000E+00  0.61280519474E+03  0.61280519475E+03  0.25500000920E-02 0. -1.
       -2   -1    0    0    0  501  0.00000000000E+00  0.00000000000E+00 -0.10223745670E+03  0.10223745673E+03  0.25500000920E-02 0.  1.
    10030    2    1    2    0    0  0.00000000000E+00  0.00000000000E+00  0.51056773805E+03  0.71504265148E+03  0.50060621080E+03 0.  0.
        4    1    3    3  502    0 -0.16473012087E+03  0.10814194486E+03  0.47572902717E+03  0.51492758049E+03  0.12699999809E+01 0. -1.
       -4    1    3    3    0  502  0.16473012087E+03 -0.10814194486E+03  0.34838710876E+02  0.20011507098E+03  0.12699999809E+01 0.  1.
</event>
<event>
 5   0  0.1967813E-02  0.5026548E+03  0.7818609E-02  0.1013088E+00
       -2   -1    0    0    0  501  0.00000000000E+00  0.00000000000E+00  0.35819525664E+02  0.35819525755E+02  0.25500000920E-02 0. -1.
        2   -1    0    0  501    0  0.00000000000E+00  0.00000000000E+00 -0.17634364598E+04  0.17634364598E+04  0.25500000920E-02 0.  1.
    10030    2    1    2    0    0  0.00000000000E+00  0.00000000000E+00 -0.17276169342E+04  0.17992559856E+04  0.50265478258E+03 0.  0.
        5    1    3    3  502    0  0.21776782565E+03  0.20636077094E+02 -0.42112476417E+03  0.47457015347E+03  0.46999998093E+01 0. -1.
       -5    1    3    3    0  502 -0.21776782565E+03 -0.20636077094E+02 -0.13064921700E+04  0.13246858321E+04  0.46999998093E+01 0.  1.
</event>
<event>
 5   0  0.8012875E-03  0.4999315E+03  0.7818609E-02  0.1013797E+00
       -3   -1    0    0    0  501  0.00000000000E+00  0.00000000000E+00  0.22472468224E+03  0.22472470493E+03  0.10100000352E+00 0.  1.
        3   -1    0    0  501    0  0.00000000000E+00  0.00000000000E+00 -0.27804189643E+03  0.27804191478E+03  0.10100000352E+00 0. -1.
    10030    2    1    2    0    0  0.00000000000E+00  0.00000000000E+00 -0.53317214196E+02  0.50276661971E+03  0.49993154388E+03 0.  0.
        5    1    3    3  502    0 -0.14512589936E+03 -0.63754391805E+02  0.16765889822E+03  0.23077639673E+03  0.46999998093E+01 0.  1.
       -5    1    3    3    0  502  0.14512589936E+03  0.63754391805E+02 -0.22097611242E+03  0.27199022298E+03  0.46999998093E+01 0. -1.
</event>
<event>
 5   0  0.1180937E-02  0.4974263E+03  0.7818609E-02  0.1014453E+00
       -1   -1    0    0    0  501  0.00000000000E+00  0.00000000000E+00  0.24348219803E+03  0.24348219808E+03  0.50400001928E-02 0.  1.
        1   -1    0    0  501    0  0.00000000000E+00  0.00000000000E+00 -0.25405651962E+03  0.25405651967E+03  0.50400001928E-02 0. -1.
    10030    2    1    2    0    0  0.00000000000E+00  0.00000000000E+00 -0.10574321592E+02  0.49753871775E+03  0.49742633564E+03 0.  0.
        1    1    3    3  502    0 -0.29915688485E+02 -0.20110723689E+02  0.24085551544E+03  0.24353802366E+03  0.50400001928E-02 0.  1.
       -1    1    3    3    0  502  0.29915688485E+02  0.20110723689E+02 -0.25142983703E+03  0.25400069409E+03  0.50400001928E-02 0. -1.
</event>
<event>
 5   0  0.8012875E-03  0.5005393E+03  0.7818609E-02  0.1013638E+00
       -3   -1    0    0    0  501  0.00000000000E+00  0.00000000000E+00  0.86142170143E+03  0.86142170735E+03  0.10100000352E+00 0. -1.
        3   -1    0    0  501    0  0.00000000000E+00  0.00000000000E+00 -0.72711020176E+02  0.72711090324E+02  0.10100000352E+00 0.  1.
    10030    2    1    2    0    0  0.00000000000E+00  0.00000000000E+00  0.78871068125E+03  0.93413279767E+03  0.50053925417E+03 0.  0.
        4    1    3    3  502    0 -0.59713419499E+02  0.89144549388E+02 -0.27602855849E+02  0.11079699321E+03  0.12699999809E+01 0.  1.
       -4    1    3    3    0  502  0.59713419499E+02 -0.89144549388E+02  0.81631353710E+03  0.82333580446E+03  0.12699999809E+01 0. -1.
</event>
<event>
 5   0  0.8012875E-03  0.5001088E+03  0.7818609E-02  0.1013751E+00
        3   -1    0    0  501    0  0.00000000000E+00  0.00000000000E+00  0.15327078088E+04  0.15327078121E+04  0.10100000352E+00 0. -1.
       -3   -1    0    0    0  501  0.00000000000E+00  0.00000000000E+00 -0.40795188069E+02  0.40795313096E+02  0.10100000352E+00 0.  1.
    10030    2    1    2    0    0  0.00000000000E+00  0.00000000000E+00  0.14919126207E+04  0.15735031252E+04  0.50010880535E+03 0.  0.
        3    1    3    3  502    0  0.18211064867E+03 -0.10940735586E+02  0.12839975948E+04  0.12968939130E+04  0.10100000352E+00 0. -1.
       -3    1    3    3    0  502 -0.18211064867E+03  0.10940735586E+02  0.20791502595E+03  0.27660921219E+03  0.10100000352E+00 0.  1.
</event>
<event>
 5   0  0.1180937E-02  0.5008766E+03  0.7818609E-02  0.1013550E+00
        1   -1    0    0  501    0  0.00000000000E+00  0.00000000000E+00  0.80498409262E+03  0.80498409264E+03  0.50400001928E-02 0.  1.
       -1   -1    0    0    0  501  0.00000000000E+00  0.00000000000E+00 -0.77913773597E+02  0.77913773760E+02  0.50400001928E-02 0. -1.
    10030    2    1    2    0    0  0.00000000000E+00  0.00000000000E+00  0.72707031903E+03  0.88289786640E+03  0.50087662521E+03 0.  0.
        1    1    3    3  502    0  0.12621637879E+03  0.62493262119E+02 -0.14911247425E+01  0.14084816493E+03  0.50400001928E-02 0. -1.
       -1    1    3    3    0  502 -0.12621637879E+03 -0.62493262119E+02  0.72856144377E+03  0.74204970147E+03  0.50400001928E-02 0.  1.
</event>
<event>
 5   0  0.8012875E-03  0.4999938E+03  0.7818609E-02  0.1013781E+00
        3   -1    0    0  501    0  0.00000000000E+00  0.00000000000E+00  0.64993569183E+02  0.64993647660E+02  0.10100000352E+00 0. -1.
       -3   -1    0    0    0  501  0.00000000000E+00  0.00000000000E+00 -0.96160915188E+03  0.96160915718E+03  0.10100000352E+00 0.  1.
    10030    2    1    2    0    0  0.00000000000E+00  0.00000000000E+00 -0.89661558269E+03  0.10266028048E+04  0.49999381574E+03 0.  0.
        3    1    3    3  502    0 -0.20543706167E+03 -0.13568697620E+03 -0.35920840202E+03  0.43548367145E+03  0.10100000352E+00 0. -1.
       -3    1    3    3    0  502  0.20543706167E+03  0.13568697620E+03 -0.53740718068E+03  0.59111913339E+03  0.10100000352E+00 0.  1.
</event>
<event>
 5   0  0.1209831E-02  0.5027695E+03  0.7818609E-02  0.1013059E+00
       -1   -1    0    0    0  501  0.00000000000E+00  0.00000000000E+00  0.82965990558E+03  0.82965990559E+03  0.50400001928E-02 0. -1.
        1   -1    0    0  501    0  0.00000000000E+00  0.00000000000E+00 -0.76168905932E+02  0.76168906099E+02  0.50400001928E-02 0.  1.
    10030    2    1    2    0    0  0.00000000000E+00  0.00000000000E+00  0.75349099965E+03  0.90582881169E+03  0.50276947953E+03 0.  0.
        4    1    3    3  502    0  0.15493183407E+03  0.14205808470E+03  0.62514395125E+03  0.65953843354E+03  0.12699999809E+01 0. -1.
       -4    1    3    3    0  502 -0.15493183407E+03 -0.14205808470E+03  0.12834704840E+03  0.24629037815E+03  0.12699999809E+01 0.  1.
</event>
<event>
 5   0  0.1225989E-02  0.5000016E+03  0.7818609E-02  0.1013779E+00
       -1   -1    0    0    0  501  0.00000000000E+00  0.00000000000E+00  0.11589040061E+03  0.11589040072E+03  0.50400001928E-02 0. -1.
        1   -1    0    0  501    0  0.00000000000E+00  0.00000000000E+00 -0.53930607432E+03  0.53930607434E+03  0.50400001928E-02 0.  1.
    10030    2    1    2    0    0  0.00000000000E+00  0.00000000000E+00 -0.42341567370E+03  0.65519647507E+03  0.50000158820E+03 0.  0.
        3    1    3    3  502    0 -0.13497352604E+03  0.14313584739E+03 -0.95735668251E+01  0.19697052298E+03  0.10100000352E+00 0.  1.
       -3    1    3    3    0  502  0.13497352604E+03 -0.14313584739E+03 -0.41384210688E+03  0.45822595209E+03  0.10100000352E+00 0. -1.
</event>
<event>
 5   0  0.1923706E-02  0.5002455E+03  0.7818609E-02  0.1013715E+00
       -2   -1    0    0    0  501  0.00000000000E+00  0.00000000000E+00  0.60329657912E+02  0.60329657966E+02  0.25500000920E-02 0.  1.
        2   -1    0    0  501    0  0.00000000000E+00  0.00000000000E+00 -0.10369922871E+04  0.10369922871E+04  0.25500000920E-02 0. -1.
    10030    2    1    2    0    0  0.00000000000E+00  0.00000000000E+00 -0.97666262920E+03  0.10973219451E+04  0.50024549961E+03 0.  0.
        3    1    3    3  502    0 -0.72860284787E+02  0.17482656077E+03 -0.84668543829E+03  0.86761119695E+03  0.10100000352E+00 0. -1.
       -3    1    3    3    0  502  0.72860284787E+02 -0.17482656077E+03 -0.12997719091E+03  0.22971074813E+03  0.10100000352E+00 0.  1.
</event>
<event>
 5   0  0.1217270E-02  0.4994939E+03  0.7818609E-02  0.1013911E+00
       -1   -1    0    0    0  501  0.00000000000E+00  0.00000000000E+00  0.48679123266E+03  0.48679123268E+03  0.50400001928E-02 0.  1.
        1   -1    0    0  501    0  0.00000000000E+00  0.00000000000E+00 -0.12813200587E+03  0.12813200597E+03  0.50400001928E-02 0. -1.
    10030    2    1    2    0    0  0.00000000000E+00  0.00000000000E+00  0.35865922678E+03  0.61492323865E+03  0.49949389233E+03 0.  0.
        2    1    3    3  502    0  0.19697057961E+03  0.15196519308E+03  0.20637747653E+03  0.32323751633E+03  0.25500000920E-02 0.  1.
       -2    1    3    3    0  502 -0.19697057961E+03 -0.15196519308E+03  0.15228175025E+03  0.29168572232E+03  0.25500000920E-02 0. -1.
</event>
<event>
 5   0  0.1217270E-02  0.5010710E+03  0.7818609E-02  0.1013500E+00
       -1   -1    0    0    0  501  0.00000000000E+00  0.00000000000E+00  0.15268710651E+03  0.15268710659E+03  0.50400001928E-02 0. -1.
        1   -1    0    0  501    0  0.00000000000E+00  0.00000000000E+00 -0.41108931862E+03  0.41108931865E+03  0.50400001928E-02 0.  1.
    10030    2    1    2    0    0  0.00000000000E+00  0.00000000000E+00 -0.25840221212E+03  0.56377642524E+03  0.50107100738E+03 0.  0.
        2    1    3    3  502    0  0.82671389955E+02 -0.30522990107E+01  0.13687592425E+03  0.15993402982E+03  0.25500000920E-02 0. -1.
       -2    1    3    3    0  502 -0.82671389955E+02  0.30522990107E+01 -0.39527813637E+03  0.40384239543E+03  0.25500000920E-02 0.  1.
</event>
<event>
 5   0  0.1180937E-02  0.5000554E+03  0.7818609E-02  0.1013764E+00
        1   -1    0    0  501    0  0.00000000000E+00  0.00000000000E+00  0.13805447266E+04  0.13805447266E+04  0.50400001928E-02 0.  1.
       -1   -1    0    0    0  501  0.00000000000E+00  0.00000000000E+00 -0.45282023154E+02  0.45282023434E+02  0.50400001928E-02 0. -1.
    10030    2    1    2    0    0  0.00000000000E+00  0.00000000000E+00  0.13352627035E+04  0.14258267501E+04  0.50005543086E+03 0.  0.
        1    1    3    3  502    0 -0.16336362987E+03 -0.15810088003E+03  0.37089637149E+03  0.43502607076E+03  0.50400001928E-02 0. -1.
       -1    1    3    3    0  502  0.16336362987E+03  0.15810088003E+03  0.96436633199E+03  0.99080067931E+03  0.50400001928E-02 0.  1.
</event>
<event>
 5   0  0.1209831E-02  0.4998321E+03  0.7818609E-02  0.1013823E+00
        1   -1    0    0  501    0  0.00000000000E+00  0.00000000000E+00  0.28414466735E+03  0.28414466739E+03  0.50400001928E-02 0. -1.
       -1   -1    0    0    0  501  0.00000000000E+00  0.00000000000E+00 -0.21981065424E+03  0.21981065429E+03  0.50400001928E-02 0.  1.
    10030    2    1    2    0    0  0.00000000000E+00  0.00000000000E+00  0.64334013113E+02  0.50395532169E+03  0.49983207281E+03 0.  0.
        4    1    3    3  502    0 -0.34504357101E+02  0.74567192620E+02 -0.20580031699E+03  0.22159918828E+03  0.12699999809E+01 0.  1.
       -4    1    3    3    0  502  0.34504357101E+02 -0.74567192620E+02  0.27013433010E+03  0.28235613341E+03  0.12699999809E+01 0. -1.
</event>
<event>
 5   0  0.1982847E-02  0.5005143E+03  0.7818609E-02  0.1013645E+00
        2   -1    0    0  501    0  0.00000000000E+00  0.00000000000E+00  0.14789392931E+04  0.14789392931E+04  0.25500000920E-02 0. -1.
       -2   -1    0    0    0  501  0.00000000000E+00  0.00000000000E+00 -0.42346994141E+02  0.42346994218E+02  0.25500000920E-02 0.  1.
    10030    2    1    2    0    0  0.00000000000E+00  0.00000000000E+00  0.14365922990E+04  0.15212862873E+04  0.50051427009E+03 0.  0.
        2    1    3    3  502    0 -0.13291422118E+03  0.16456069747E+03  0.11247443516E+04  0.11444633108E+04  0.25500000920E-02 0. -1.
       -2    1    3    3    0  502  0.13291422118E+03 -0.16456069747E+03  0.31184794739E+03  0.37682297653E+03  0.25500000920E-02 0.  1.
</event>
<event>
 5   0  0.1967813E-02  0.4996946E+03  0.7818609E-02  0.1013859E+00
        2   -1    0    0  501    0  0.00000000000E+00  0.00000000000E+00  0.83022494207E+03  0.83022494208E+03  0.25500000920E-02 0.  1.
       -2   -1    0    0    0  501  0.00000000000E+00  0.00000000000E+00 -0.75188869865E+02  0.75188869909E+02  0.25500000920E-02 0. -1.
    10030    2    1    2    0    0  0.00000000000E+00  0.00000000000E+00  0.75503607221E+03  0.90541381199E+03  0.49969460734E+03 0.  0.
        5    1    3    3  502    0 -0.20572055788E+03  0.12576176970E+02  0.12176893280E+03  0.23943448197E+03  0.46999998093E+01 0. -1.
       -5    1    3    3    0  502  0.20572055788E+03 -0.12576176970E+02  0.63326713941E+03  0.66597933002E+03  0.46999998093E+01 0.  1.
</event>
<event>
 5   0  0.1923706E-02  0.5013197E+03  0.7818609E-02  0.1013435E+00
        2   -1    0    0  501    0  0.00000000000E+00  0.00000000000E+00  0.11296871070E+03  0.11296871073E+03  0.25500000920E-02 0. -1.
       -2   -1    0    0    0  501  0.00000000000E+00  0.00000000000E+00 -0.55617483719E+03  0.55617483719E+03  0.25500000920E-02 0.  1.
    10030    2    1    2    0    0  0.00000000000E+00  0.00000000000E+00 -0.44320612648E+03  0.66914354792E+03  0.50131967563E+03 0.  0.
        3    1    3    3  502    0  0.43632956845E+02  0.22287453372E+03 -0.80008227396E+02  0.24078666773E+03  0.10100000352E+00 0. -1.
       -3    1    3    3    0  502 -0.43632956845E+02 -0.22287453372E+03 -0.36319789909E+03  0.42835688019E+03  0.10100000352E+00 0.  1.
</event>
<event>
 5   0  0.1967813E-02  0.5000067E+03  0.7818609E-02  0.1013777E+00
       -2   -1    0    0    0  501  0.00000000000E+00  0.00000000000E+00  0.78401568031E+02  0.78401568073E+02  0.25500000920E-02 0. -1.
        2   -1    0    0  501    0  0.00000000000E+00  0.00000000000E+00 -0.79719925177E+03  0.79719925178E+03  0.25500000920E-02 0.  1.
    10030    2    1    2    0    0  0.00000000000E+00  0.00000000000E+00 -0.71879768374E+03  0.87560081985E+03  0.50000668553E+03 0.  0.
        5    1    3    3  502    0 -0.21713617155E+03 -0.10621951167E+03 -0.24796995632E+03  0.34632627808E+03  0.46999998093E+01 0. -1.
       -5    1    3    3    0  502  0.21713617155E+03  0.10621951167E+03 -0.47082772742E+03  0.52927454177E+03  0.46999998093E+01 0.  1.
</event>
<event>
 5   0  0.1209831E-02  0.4999157E+03  0.7818609E-02  0.1013801E+00
       -1   -1    0    0    0  501  0.00000000000E+00  0.00000000000E+00  0.53346729862E+02  0.53346730100E+02  0.50400001928E-02 0.  1.
        1   -1    0    0  501    0  0.00000000000E+00  0.00000000000E+00 -0.11711855055E+04  0.11711855056E+04  0.50400001928E-02 0. -1.
    10030    2    1    2    0    0  0.00000000000E+00  0.00000000000E+00 -0.11178387757E+04  0.12245322357E+04  0.49991566063E+03 0.  0.
        4    1    3    3  502    0 -0.13328293490E+03  0.20972955061E+03 -0.49289794917E+03  0.55199712529E+03  0.12699999809E+01 0.  1.
       -4    1    3    3    0  502  0.13328293490E+03 -0.20972955061E+03 -0.62494082651E+03  0.67253511037E+03  0.12699999809E+01 0. -1.
</event>
<event>
 5   0  0.1225989E-02  0.5016451E+03  0.7818609E-02  0.1013350E+00
       -1   -1    0    0    0  501  0.00000000000E+00  0.00000000000E+00  0.68471021127E+02  0.68471021312E+02  0.50400001928E-02 0.  1.
        1   -1    0    0  501    0  0.00000000000E+00  0.00000000000E+00 -0.91881139859E+03  0.91881139861E+03  0.50400001928E-02 0. -1.
    10030    2    1    2    0    0  0.00000000000E+00  0.00000000000E+00 -0.85034037747E+03  0.98728241992E+03  0.50164511274E+03 0.  0.
        3    1    3    3  502    0 -0.11658357344E+02  0.25040179910E+03 -0.44221051236E+03  0.50831793765E+03  0.10100000352E+00 0. -1.
       -3    1    3    3    0  502  0.11658357344E+02 -0.25040179910E+03 -0.40812986510E+03  0.47896448227E+03  0.10100000352E+00 0.  1.
</event>
<event>
 5   0  0.1225989E-02  0.4985870E+03  0.7818609E-02  0.1014148E+00
        1   -1    0    0  501    0  0.00000000000E+00  0.00000000000E+00  0.15770339357E+04  0.15770339357E+04  0.50400001928E-02 0. -1.
       -1   -1    0    0    0  501  0.00000000000E+00  0.00000000000E+00 -0.39407673252E+02  0.39407673575E+02  0.50400001928E-02 0.  1.
    10030    2    1    2    0    0  0.00000000000E+00  0.00000000000E+00  0.15376262624E+04  0.16164416093E+04  0.49858695655E+03 0.  0.
        3    1    3    3  502    0 -0.10686792988E+03  0.27475848802E+02  0.14935502827E+04  0.14976208245E+04  0.10100000352E+00 0. -1.
       -3    1    3    3    0  502  0.10686792988E+03 -0.27475848802E+02  0.44075979689E+02  0.11882078476E+03  0.10100000352E+00 0.  1.
</event>
<event>
 5   0  0.1225989E-02  0.5001755E+03  0.7818609E-02  0.1013733E+00
        1   -1    0    0  501    0  0.00000000000E+00  0.00000000000E+00  0.11568121198E+04  0.11568121198E+04  0.50400001928E-02 0.  1.
       -1   -1    0    0    0  501  0.00000000000E+00  0.00000000000E+00 -0.54065718761E+02  0.54065718996E+02  0.50400001928E-02 0. -1.
    10030    2    1    2    0    0  0.00000000000E+00  0.00000000000E+00  0.11027464011E+04  0.12108778388E+04  0.50017548472E+03 0.  0.
        3    1    3    3  502    0  0.23677159652E+02 -0.31950980272E+02  0.11491085521E+04  0.11497964810E+04  0.10100000352E+00 0.  1.
       -3    1    3    3    0  502 -0.23677159652E+02  0.31950980272E+02 -0.46362151010E+02  0.61081357850E+02  0.10100000352E+00 0. -1.
</event>
<event>
 5   0  0.1982847E-02  0.4910790E+03  0.7818609E-02  0.1016134E+00
        2   -1    0    0  501    0  0.00000000000E+00  0.00000000000E+00  0.54471728709E+03  0.54471728710E+03  0.25500000920E-02 0. -1.
       -2   -1    0    0    0  501  0.00000000000E+00  0.00000000000E+00 -0.11068062573E+03  0.11068062576E+03  0.25500000920E-02 0.  1.
    10030    2    1    2    0    0  0.00000000000E+00  0.00000000000E+00  0.43403666136E+03  0.65539791286E+03  0.49107901684E+03 0.  0.
        2    1    3    3  502    0 -0.22933763071E+03  0.51245029753E+01  0.10015330573E+03  0.25030520179E+03  0.25500000920E-02 0. -1.
       -2    1    3    3    0  502  0.22933763071E+03 -0.51245029753E+01  0.33388335563E+03  0.40509271107E+03  0.25500000920E-02 0.  1.
</event>
<event>
 5   0  0.1923706E-02  0.5002146E+03  0.7818609E-02  0.1013723E+00
        2   -1    0    0  501    0  0.00000000000E+00  0.00000000000E+00  0.24872558826E+03  0.24872558827E+03  0.25500000920E-02 0.  1.
       -2   -1    0    0    0  501  0.00000000000E+00  0.00000000000E+00 -0.25149666980E+03  0.25149666981E+03  0.25500000920E-02 0. -1.
    10030    2    1    2    0    0  0.00000000000E+00  0.00000000000E+00 -0.27710815359E+01  0.50022225808E+03  0.50021458254E+03 0.  0.
        3    1    3    3  502    0 -0.22095136021E+03 -0.69396745776E+02 -0.95823397257E+02  0.25063428649E+03  0.10100000352E+00 0. -1.
       -3    1    3    3    0  502  0.22095136021E+03  0.69396745776E+02  0.93052315722E+02  0.24958797159E+03  0.10100000352E+00 0.  1.
</event>
<event>
 5   0  0.1923706E-02  0.4998357E+03  0.7818609E-02  0.1013822E+00
       -2   -1    0    0    0  501  0.00000000000E+00  0.00000000000E+00  0.13548076196E+03  0.13548076199E+03  0.25500000920E-02 0. -1.
        2   -1    0    0  501    0  0.00000000000E+00  0.00000000000E+00 -0.46101705653E+03  0.46101705654E+03  0.25500000920E-02 0.  1.
    10030    2    1    2    0    0  0.00000000000E+00  0.00000000000E+00 -0.32553629457E+03  0.59649781852E+03  0.49983574144E+03 0.  0.
        3    1    3    3  502    0 -0.13819587324E+03  0.10380757780E+03 -0.37818972912E+03  0.41581437446E+03  0.10100000352E+00 0.  1.
       -3    1    3    3    0  502  0.13819587324E+03 -0.10380757780E+03  0.52653434553E+02  0.18068344407E+03  0.10100000352E+00 0. -1.
</event>
<event>
 5   0  0.1217270E-02  0.5007613E+03  0.7818609E-02  0.1013580E+00
        1   -1    0    0  501    0  0.00000000000E+00  0.00000000000E+00  0.62178901167E+02  0.62178901371E+02  0.50400001928E-02 0. -1.
       -1   -1    0    0    0  501  0.00000000000E+00  0.00000000000E+00 -0.10082274562E+04  0.10082274562E+04  0.50400001928E-02 0.  1.
    10030    2    1    2    0    0  0.00000000000E+00  0.00000000000E+00 -0.94604855502E+03  0.10704063576E+04  0.50076132226E+03 0.  0.
        2    1    3    3  502    0 -0.22637548988E+03 -0.96385884868E+02 -0.57223953783E+03  0.62289179629E+03  0.25500000920E-02 0.  1.
       -2    1    3    3    0  502  0.22637548988E+03  0.96385884868E+02 -0.37380901718E+03  0.44751456128E+03  0.25500000920E-02 0. -1.
</event>
<event>
 5   0  0.1941387E-02  0.5003424E+03  0.7818609E-02  0.1013690E+00
        2   -1    0    0  501    0  0.00000000000E+00  0.00000000000E+00  0.21202682763E+04  0.21202682763E+04  0.25500000920E-02 0.  1.
       -2   -1    0    0    0  501  0.00000000000E+00  0.00000000000E+00 -0.29517792534E+02  0.29517792644E+02  0.25500000920E-02 0. -1.
    10030    2    1    2    0    0  0.00000000000E+00  0.00000000000E+00  0.20907504838E+04  0.21497860690E+04  0.50034243960E+03 0.  0.
        4    1    3    3  502    0 -0.71351960041E+02 -0.22152706390E+03  0.65114493453E+03  0.69148874243E+03  0.12699999809E+01 0.  1.
       -4    1    3    3    0  502  0.71351960041E+02  0.22152706390E+03  0.14396055493E+04  0.14582973265E+04  0.12699999809E+01 0. -1.
</event>
<event>
 5   0  0.1855407E-02  0.5004276E+03  0.7818609E-02  0.1013667E+00
       -2   -1    0    0    0  501  0.00000000000E+00  0.00000000000E+00  0.67460715515E+02  0.67460715563E+02  0.25500000920E-02 0. -1.
        2   -1    0    0  501    0  0.00000000000E+00  0.00000000000E+00 -0.92805049606E+03  0.92805049606E+03  0.25500000920E-02 0.  1.
    10030    2    1    2    0    0  0.00000000000E+00  0.00000000000E+00 -0.86058978054E+03  0.99551121162E+03  0.50042761924E+03 0.  0.
        1    1    3    3  502    0  0.26663337145E+02  0.10310632738E+03 -0.88071295299E+03  0.88712860053E+03  0.50400001928E-02 0.  1.
       -1    1    3    3    0  502 -0.26663337145E+02 -0.10310632738E+03  0.20123172445E+02  0.10838261109E+03  0.50400001928E-02 0. -1.
</event>
<event>
 5   0  0.1923706E-02  0.5014148E+03  0.7818609E-02  0.1013410E+00
       -2   -1    0    0    0  501  0.00000000000E+00  0.00000000000E+00  0.38504706714E+02  0.38504706798E+02  0.25500000920E-02 0. -1.
        2   -1    0    0  501    0  0.00000000000E+00  0.00000000000E+00 -0.16323768315E+04  0.16323768315E+04  0.25500000920E-02 0.  1.
    10030    2    1    2    0    0  0.00000000000E+00  0.00000000000E+00 -0.15938721247E+04  0.16708815383E+04  0.50141476330E+03 0.  0.
        3    1    3    3  502    0 -0.71879762836E+02 -0.34921506625E+02 -0.15887982908E+04  0.15908067862E+04  0.10100000352E+00 0.  1.
       -3    1    3    3    0  502  0.71879762836E+02  0.34921506625E+02 -0.50738339650E+01  0.80074752091E+02  0.10100000352E+00 0. -1.
</event>
<event>
 5   0  0.8012875E-03  0.5005816E+03  0.7818609E-02  0.1013627E+00
        3   -1    0    0  501    0  0.00000000000E+00  0.00000000000E+00  0.66037369741E+03  0.66037370513E+03  0.10100000352E+00 0. -1.
       -3   -1    0    0    0  501  0.00000000000E+00  0.00000000000E+00 -0.94863645925E+02  0.94863699692E+02  0.10100000352E+00 0.  1.
    10030    2    1    2    0    0  0.00000000000E+00  0.00000000000E+00  0.56551005148E+03  0.75523740483E+03  0.50058158108E+03 0.  0.
        2    1    3    3  502    0 -0.11854462089E+03  0.18928249658E+03  0.45321226435E+03  0.50525443810E+03  0.25500000920E-02 0. -1.
       -2    1    3    3    0  502  0.11854462089E+03 -0.18928249658E+03  0.11229778714E+03  0.24998296673E+03  0.25500000920E-02 0.  1.
</event>
<event>
 5   0  0.1923706E-02  0.4997629E+03  0.7818609E-02  0.1013841E+00
       -2   -1    0    0    0  501  0.00000000000E+00  0.00000000000E+00  0.50838006529E+02  0.50838006593E+02  0.25500000920E-02 0. -1.
        2   -1    0    0  501    0  0.00000000000E+00  0.00000000000E+00 -0.12282294808E+04  0.12282294808E+04  0.25500000920E-02 0.  1.
    10030    2    1    2    0    0  0.00000000000E+00  0.00000000000E+00 -0.11773914743E+04  0.12790674874E+04  0.49976289741E+03 0.  0.
        3    1    3    3  502    0  0.80284898120E+01  0.41115469804E+02 -0.12191781155E+04  0.12198976294E+04  0.10100000352E+00 0.  1.
       -3    1    3    3    0  502 -0.80284898120E+01 -0.41115469804E+02  0.41786641292E+02  0.59169858013E+02  0.10100000352E+00 0. -1.
</event>
<event>
 5   0  0.1967813E-02  0.5017395E+03  0.7818609E-02  0.1013326E+00
       -2   -1    0    0    0  501  0.00000000000E+00  0.00000000000E+00  0.13986703356E+03  0.13986703358E+03  0.25500000920E-02 0.  1.
        2   -1    0    0  501    0  0.00000000000E+00  0.00000000000E+00 -0.44996762717E+03  0.44996762718E+03  0.25500000920E-02 0. -1.
    10030    2    1    2    0    0  0.00000000000E+00  0.00000000000E+00 -0.31010059361E+03  0.58983466076E+03  0.50173952294E+03 0.  0.
        5    1    3    3  502    0  0.86130677692E+02 -0.23529924985E+03 -0.14168190631E+03  0.28788901193E+03  0.46999998093E+01 0. -1.
       -5    1    3    3    0  502 -0.86130677692E+02  0.23529924985E+03 -0.16841868730E+03  0.30194564883E+03  0.46999998093E+01 0.  1.
</event>
<event>
 5   0  0.1225989E-02  0.5002504E+03  0.7818609E-02  0.1013714E+00
        1   -1    0    0  501    0  0.00000000000E+00  0.00000000000E+00  0.76702764830E+03  0.76702764832E+03  0.50400001928E-02 0.  1.
       -1   -1    0    0    0  501  0.00000000000E+00  0.00000000000E+00 -0.81565021476E+02  0.81565021631E+02  0.50400001928E-02 0. -1.
    10030    2    1    2    0    0  0.00000000000E+00  0.00000000000E+00  0.68546262683E+03  0.84859266995E+03  0.50025044400E+03 0.  0.
        3    1    3    3  502    0  0.18896384542E+03  0.16051458793E+03  0.39874504312E+03  0.46954221048E+03  0.10100000352E+00 0. -1.
       -3    1    3    3    0  502 -0.18896384542E+03 -0.16051458793E+03  0.28671758371E+03  0.37905045947E+03  0.10100000352E+00 0.  1.
</event>
<event>
 5   0  0.1227864E-02  0.4999621E+03  0.7818609E-02  0.1013789E+00
       -1   -1    0    0    0  501  0.00000000000E+00  0.00000000000E+00  0.78348042626E+02  0.78348042788E+02  0.50400001928E-02 0. -1.
        1   -1    0    0  501    0  0.00000000000E+00  0.00000000000E+00 -0.79760174198E+03  0.79760174200E+03  0.50400001928E-02 0.  1.
    10030    2    1    2    0    0  0.00000000000E+00  0.00000000000E+00 -0.71925369935E+03  0.87594978478E+03  0.49996213999E+03 0.  0.
        5    1    3    3  502    0  0.15968366586E+03 -0.57910789061E+02 -0.38397997621E+02  0.17420972663E+03  0.46999998093E+01 0.  1.
       -5    1    3    3    0  502 -0.15968366586E+03  0.57910789061E+02 -0.68085570173E+03  0.70174005815E+03  0.46999998093E+01 0. -1.
</event>
<event>
 5   0  0.1217270E-02  0.5000100E+03  0.7818609E-02  0.1013776E+00
       -1   -1    0    0    0  501  0.00000000000E+00  0.00000000000E+00  0.95187684744E+02  0.95187684877E+02  0.50400001928E-02 0.  1.
        1   -1    0    0  501    0  0.00000000000E+00  0.00000000000E+00 -0.65662388732E+03  0.65662388734E+03  0.50400001928E-02 0. -1.
    10030    2    1    2    0    0  0.00000000000E+00  0.00000000000E+00 -0.56143620258E+03  0.75181157222E+03  0.50001003046E+03 0.  0.
        2    1    3    3  502    0  0.22894575101E+03  0.72902276582E+02 -0.17685466072E+03  0.29834287299E+03  0.25500000920E-02 0. -1.
       -2    1    3    3    0  502 -0.22894575101E+03 -0.72902276582E+02 -0.38458154186E+03  0.45346869923E+03  0.25500000920E-02 0.  1.
</event>
<event>
 5   0  0.1209831E-02  0.5004447E+03  0.7818609E-02  0.1013663E+00
       -1   -1    0    0    0  501  0.00000000000E+00  0.00000000000E+00  0.13898950931E+03  0.13898950940E+03  0.50400001928E-02 0.  1.
        1   -1    0    0  501    0  0.00000000000E+00  0.00000000000E+00 -0.45047442662E+03  0.45047442664E+03  0.50400001928E-02 0. -1.
    10030    2    1    2    0    0  0.00000000000E+00  0.00000000000E+00 -0.31148491731E+03  0.58946393604E+03  0.50044468044E+03 0.  0.
        4    1    3    3  502    0  0.23453710005E+02  0.23889512068E+03 -0.72548317418E+02  0.25077046568E+03  0.12699999809E+01 0. -1.
       -4    1    3    3    0  502 -0.23453710005E+02 -0.23889512068E+03 -0.23893659989E+03  0.33869347036E+03  0.12699999809E+01 0.  1.
</event>
<event>
 5   0  0.1923706E-02  0.5026505E+03  0.7818609E-02  0.1013089E+00
        2   -1    0    0  501    0  0.00000000000E+00  0.00000000000E+00  0.62370067200E+03  0.62370067201E+03  0.25500000920E-02 0. -1.
       -2   -1    0    0    0  501  0.00000000000E+00  0.00000000000E+00 -0.10127355647E+03  0.10127355651E+03  0.25500000920E-02 0.  1.
    10030    2    1    2    0    0  0.00000000000E+00  0.00000000000E+00  0.52242711553E+03  0.72497422851E+03  0.50265051574E+03 0.  0.
        3    1    3    3  502    0 -0.21053592843E+03 -0.12506774695E+03  0.34276499050E+03  0.42125427879E+03  0.10100000352E+00 0. -1.
       -3    1    3    3    0  502  0.21053592843E+03  0.12506774695E+03  0.17966212503E+03  0.30371994972E+03  0.10100000352E+00 0.  1.
</event>
<event>
 5   0  0.1923706E-02  0.5004994E+03  0.7818609E-02  0.1013649E+00
        2   -1    0    0  501    0  0.00000000000E+00  0.00000000000E+00  0.65135295977E+03  0.65135295978E+03  0.25500000920E-02 0.  1.
       -2   -1    0    0    0  501  0.00000000000E+00  0.00000000000E+00 -0.96145904059E+02  0.96145904093E+02  0.25500000920E-02 0. -1.
    10030    2    1    2    0    0  0.00000000000E+00  0.00000000000E+00  0.55520705572E+03  0.74749886387E+03  0.50049942735E+03 0.  0.
        3    1    3    3  502    0  0.23443622235E+02 -0.10675851908E+02  0.64936752060E+03  0.64987826879E+03  0.10100000352E+00 0.  1.
       -3    1    3    3    0  502 -0.23443622235E+02  0.10675851908E+02 -0.94160464879E+02  0.97620595085E+02  0.10100000352E+00 0. -1.
</event>
<event>
 5   0  0.1855407E-02  0.5001906E+03  0.7818609E-02  0.1013729E+00
       -2   -1    0    0    0  501  0.00000000000E+00  0.00000000000E+00  0.35838412121E+02  0.35838412212E+02  0.25500000920E-02 0. -1.
        2   -1    0    0  501    0  0.00000000000E+00  0.00000000000E+00 -0.17452687690E+04  0.17452687690E+04  0.25500000920E-02 0.  1.
    10030    2    1    2    0    0  0.00000000000E+00  0.00000000000E+00 -0.17094303568E+04  0.17811071812E+04  0.50019060961E+03 0.  0.
        1    1    3    3  502    0 -0.15740774354E+03 -0.19010215342E+03 -0.71087969847E+03  0.75250645990E+03  0.50400001928E-02 0. -1.
       -1    1    3    3    0  502  0.15740774354E+03  0.19010215342E+03 -0.99855065836E+03  0.10286007213E+04  0.50400001928E-02 0.  1.
</event>
<event>
 5   0  0.1180937E-02  0.4997417E+03  0.7818609E-02  0.1013846E+00
       -1   -1    0    0    0  501  0.00000000000E+00  0.00000000000E+00  0.39102878001E+02  0.39102878326E+02  0.50400001928E-02 0. -1.
        1   -1    0    0  501    0  0.00000000000E+00  0.00000000000E+00 -0.15966969761E+04  0.15966969761E+04  0.50400001928E-02 0.  1.
    10030    2    1    2    0    0  0.00000000000E+00  0.00000000000E+00 -0.15575940981E+04  0.16357998544E+04  0.49974172263E+03 0.  0.
        1    1    3    3  502    0  0.17954263652E+03 -0.61617124918E+02 -0.13106762331E+04  0.13243505640E+04  0.50400001928E-02 0.  1.
       -1    1    3    3    0  502 -0.17954263652E+03  0.61617124918E+02 -0.24691786499E+03  0.31144929040E+03  0.50400001928E-02 0. -1.
</event>
<event>
 5   0  0.1982847E-02  0.5002708E+03  0.7818609E-02  0.1013708E+00
        2   -1    0    0  501    0  0.00000000000E+00  0.00000000000E+00  0.83898287359E+03  0.83898287359E+03  0.25500000920E-02 0.  1.
       -2   -1    0    0    0  501  0.00000000000E+00  0.00000000000E+00 -0.74575686247E+02  0.74575686290E+02  0.25500000920E-02 0. -1.
    10030    2    1    2    0    0  0.00000000000E+00  0.00000000000E+00  0.76440718734E+03  0.91355855988E+03  0.50027082093E+03 0.  0.
        2    1    3    3  502    0  0.93730648450E+02  0.23189046552E+03  0.38771266341E+03  0.46138891603E+03  0.25500000920E-02 0. -1.
       -2    1    3    3    0  502 -0.93730648450E+02 -0.23189046552E+03  0.37669452393E+03  0.45216964385E+03  0.25500000920E-02 0.  1.
</event>
<event>
 5   0  0.1923706E-02  0.5035434E+03  0.7818609E-02  0.1012858E+00
       -2   -1    0    0    0  501  0.00000000000E+00  0.00000000000E+00  0.91591511417E+02  0.91591511452E+02  0.25500000920E-02 0.  1.
        2   -1    0    0  501    0  0.00000000000E+00  0.00000000000E+00 -0.69208370291E+03  0.69208370291E+03  0.25500000920E-02 0. -1.
    10030    2    1    2    0    0  0.00000000000E+00  0.00000000000E+00 -0.60049219149E+03  0.78367521437E+03  0.50354341379E+03 0.  0.
        3    1    3    3  502    0  0.24010489437E+03 -0.14778514806E+02 -0.41587789459E+03  0.48044062923E+03  0.10100000352E+00 0. -1.
       -3    1    3    3    0  502 -0.24010489437E+03  0.14778514806E+02 -0.18461429690E+03  0.30323458514E+03  0.10100000352E+00 0.  1.
</event>
<event>
 5   0  0.1180937E-02  0.5002849E+03  0.7818609E-02  0.1013705E+00
       -1   -1    0    0    0  501  0.00000000000E+00  0.00000000000E+00  0.10918167747E+03  0.10918167759E+03  0.50400001928E-02 0. -1.
        1   -1    0    0  501    0  0.00000000000E+00  0.00000000000E+00 -0.57309280761E+03  0.57309280764E+03  0.50400001928E-02 0.  1.
    10030    2    1    2    0    0  0.00000000000E+00  0.00000000000E+00 -0.46391113014E+03  0.68227448522E+03  0.50028485538E+03 0.  0.
        1    1    3    3  502    0 -0.95704990083E+02 -0.55170357767E+02  0.74113344516E+02  0.13302631831E+03  0.50400001928E-02 0. -1.
       -1    1    3    3    0  502  0.95704990083E+02  0.55170357767E+02 -0.53802447466E+03  0.54924816691E+03  0.50400001928E-02 0.  1.
</event>
<event>
 5   0  0.1941387E-02  0.4990965E+03  0.7818609E-02  0.1014015E+00
       -2   -1    0    0    0  501  0.00000000000E+00  0.00000000000E+00  0.58454408207E+02  0.58454408262E+02  0.25500000920E-02 0. -1.
        2   -1    0    0  501    0  0.00000000000E+00  0.00000000000E+00 -0.10653486135E+04  0.10653486135E+04  0.25500000920E-02 0.  1.
    10030    2    1    2    0    0  0.00000000000E+00  0.00000000000E+00 -0.10068942053E+04  0.11238030217E+04  0.49909647471E+03 0.  0.
        4    1    3    3  502    0 -0.15268220443E+03  0.16385449005E+03 -0.25563433890E+03  0.33986861812E+03  0.12699999809E+01 0. -1.
       -4    1    3    3    0  502  0.15268220443E+03 -0.16385449005E+03 -0.75125986638E+03  0.78393440363E+03  0.12699999809E+01 0.  1.
</event>
<event>
 5   0  0.1227864E-02  0.5003070E+03  0.7818609E-02  0.1013699E+00
        1   -1    0    0  501    0  0.00000000000E+00  0.00000000000E+00  0.46075504117E+03  0.46075504119E+03  0.50400001928E-02 0. -1.
       -1   -1    0    0    0  501  0.00000000000E+00  0.00000000000E+00 -0.13581353362E+03  0.13581353372E+03  0.50400001928E-02 0.  1.
    10030    2    1    2    0    0  0.00000000000E+00  0.00000000000E+00  0.32494150754E+03  0.59656857491E+03  0.50030698701E+03 0.  0.
        5    1    3    3  502    0  0.96120393704E+02  0.12808370047E+03 -0.66614170029E+02  0.17350533727E+03  0.46999998093E+01 0.  1.
       -5    1    3    3    0  502 -0.96120393704E+02 -0.12808370047E+03  0.39155567757E+03  0.42306323765E+03  0.46999998093E+01 0. -1.
</event>
<event>
 5   0  0.8012875E-03  0.4984662E+03  0.7818609E-02  0.1014180E+00
        3   -1    0    0  501    0  0.00000000000E+00  0.00000000000E+00  0.14315817701E+04  0.14315817737E+04  0.10100000352E+00 0.  1.
       -3   -1    0    0    0  501  0.00000000000E+00  0.00000000000E+00 -0.43390506501E+02  0.43390624050E+02  0.10100000352E+00 0. -1.
    10030    2    1    2    0    0  0.00000000000E+00  0.00000000000E+00  0.13881912636E+04  0.14749723978E+04  0.49846623726E+03 0.  0.
        3    1    3    3  502    0 -0.14087509351E+03  0.17958781398E+03  0.39790417960E+03  0.45872139829E+03  0.10100000352E+00 0. -1.
       -3    1    3    3    0  502  0.14087509351E+03 -0.17958781398E+03  0.99028708404E+03  0.10162509995E+04  0.10100000352E+00 0.  1.
</event>
<event>
 5   0  0.1967813E-02  0.4990945E+03  0.7818609E-02  0.1014016E+00
        2   -1    0    0  501    0  0.00000000000E+00  0.00000000000E+00  0.85635767130E+03  0.85635767130E+03  0.25500000920E-02 0.  1.
       -2   -1    0    0    0  501  0.00000000000E+00  0.00000000000E+00 -0.72719417386E+02  0.72719417430E+02  0.25500000920E-02 0. -1.
    10030    2    1    2    0    0  0.00000000000E+00  0.00000000000E+00  0.78363825391E+03  0.92907708873E+03  0.49909450389E+03 0.  0.
        5    1    3    3  502    0  0.14730550916E+03 -0.56781460722E+02  0.75147765194E+03  0.76789569518E+03  0.46999998093E+01 0.  1.
       -5    1    3    3    0  502 -0.14730550916E+03  0.56781460722E+02  0.32160601973E+02  0.16118139355E+03  0.46999998093E+01 0. -1.
</event>
<event>
 5   0  0.1941387E-02  0.4933092E+03  0.7818609E-02  0.1015540E+00
        2   -1    0    0  501    0  0.00000000000E+00  0.00000000000E+00  0.15551381985E+04  0.15551381985E+04  0.25500000920E-02 0. -1.
       -2   -1    0    0    0  501  0.00000000000E+00  0.00000000000E+00 -0.39120953843E+02  0.39120953927E+02  0.25500000920E-02 0.  1.
    10030    2    1    2    0    0  0.00000000000E+00  0.00000000000E+00  0.15160172446E+04  0.15942591524E+04  0.49330919209E+03 0.  0.
        4    1    3    3  502    0  0.52437319732E+02 -0.15119733547E+03  0.15144705319E+03  0.22033640092E+03  0.12699999809E+01 0.  1.
       -4    1    3    3    0  502 -0.52437319732E+02  0.15119733547E+03  0.13645701915E+04  0.13739227515E+04  0.12699999809E+01 0. -1.
</event>
<event>
 5   0  0.1923706E-02  0.5004704E+03  0.7818609E-02  0.1013656E+00
        2   -1    0    0  501    0  0.00000000000E+00  0.00000000000E+00  0.16628936209E+04  0.16628936209E+04  0.25500000920E-02 0. -1.
       -2   -1    0    0    0  501  0.00000000000E+00  0.00000000000E+00 -0.37655836916E+02  0.37655837003E+02  0.25500000920E-02 0.  1.
    10030    2    1    2    0    0  0.00000000000E+00  0.00000000000E+00  0.16252377839E+04  0.17005494579E+04  0.50047038303E+03 0.  0.
        3    1    3    3  502    0  0.22027574180E+02  0.20185016520E+03  0.31567713316E+03  0.37534086618E+03  0.10100000352E+00 0.  1.
       -3    1    3    3    0  502 -0.22027574180E+02 -0.20185016520E+03  0.13095606508E+04  0.13252085917E+04  0.10100000352E+00 0. -1.
</event>
<event>
 5   0  0.1923706E-02  0.5007147E+03  0.7818609E-02  0.1013593E+00
        2   -1    0    0  501    0  0.00000000000E+00  0.00000000000E+00  0.86455571575E+02  0.86455571612E+02  0.25500000920E-02 0.  1.
       -2   -1    0    0    0  501  0.00000000000E+00  0.00000000000E+00 -0.72498272223E+03  0.72498272223E+03  0.25500000920E-02 0. -1.
    10030    2    1    2    0    0  0.00000000000E+00  0.00000000000E+00 -0.63852715065E+03  0.81143829385E+03  0.50071467184E+03 0.  0.
        3    1    3    3  502    0  0.63994839970E+02  0.94629570163E+02  0.41756697047E+02  0.12162946617E+03  0.10100000352E+00 0.  1.
       -3    1    3    3    0  502 -0.63994839970E+02 -0.94629570163E+02 -0.68028384770E+03  0.68980882767E+03  0.10100000352E+00 0. -1.
</event>
<event>
 5   0  0.8012875E-03  0.4957011E+03  0.7818609E-02  0.1014907E+00
       -3   -1    0    0    0  501  0.00000000000E+00  0.00000000000E+00  0.98375420240E+03  0.98375420759E+03  0.10100000352E+00 0.  1.
        3   -1    0    0  501    0  0.00000000000E+00  0.00000000000E+00 -0.62444308026E+02  0.62444389707E+02  0.10100000352E+00 0. -1.
    10030    2    1    2    0    0  0.00000000000E+00  0.00000000000E+00  0.92130989438E+03  0.10461985973E+04  0.49570110299E+03 0.  0.
        1    1    3    3  502    0 -0.80803488283E+02 -0.10783740157E+03  0.89968743967E+03  0.90972281384E+03  0.50400001928E-02 0.  1.
       -1    1    3    3    0  502  0.80803488283E+02  0.10783740157E+03  0.21622454704E+02  0.13647578345E+03  0.50400001928E-02 0. -1.
</event>
<event>
 5   0  0.1941387E-02  0.4996359E+03  0.7818609E-02  0.1013874E+00
       -2   -1    0    0    0  501  0.00000000000E+00  0.00000000000E+00  0.28143536795E+03  0.28143536796E+03  0.25500000920E-02 0.  1.
        2   -1    0    0  501    0  0.00000000000E+00  0.00000000000E+00 -0.22175252350E+03  0.22175252352E+03  0.25500000920E-02 0. -1.
    10030    2    1    2    0    0  0.00000000000E+00  0.00000000000E+00  0.59682844443E+02  0.50318789147E+03  0.49963587962E+03 0.  0.
        4    1    3    3  502    0  0.19165128177E+03  0.12078509801E+03 -0.76207398744E+02  0.23901555227E+03  0.12699999809E+01 0. -1.
       -4    1    3    3    0  502 -0.19165128177E+03 -0.12078509801E+03  0.13589024319E+03  0.26417233920E+03  0.12699999809E+01 0.  1.
</event>
<event>
 5   0  0.1923706E-02  0.5000001E+03  0.7818609E-02  0.1013779E+00
        2   -1    0    0  501    0  0.00000000000E+00  0.00000000000E+00  0.11747329023E+04  0.11747329023E+04  0.25500000920E-02 0.  1.
       -2   -1    0    0    0  501  0.00000000000E+00  0.00000000000E+00 -0.53203608469E+02  0.53203608530E+02  0.25500000920E-02 0. -1.
    10030    2    1    2    0    0  0.00000000000E+00  0.00000000000E+00  0.11215292938E+04  0.12279365108E+04  0.50000011770E+03 0.  0.
        3    1    3    3  502    0 -0.46141262416E+02 -0.46894391190E+02 -0.31563679716E+02  0.72968322583E+02  0.10100000352E+00 0. -1.
       -3    1    3    3    0  502  0.46141262416E+02  0.46894391190E+02  0.11530929735E+04  0.11549681882E+04  0.10100000352E+00 0.  1.
</event>
<event>
 5   0  0.1227864E-02  0.5043293E+03  0.7818609E-02  0.1012655E+00
       -1   -1    0    0    0  501  0.00000000000E+00  0.00000000000E+00  0.26000433283E+03  0.26000433288E+03  0.50400001928E-02 0.  1.
        1   -1    0    0  501    0  0.00000000000E+00  0.00000000000E+00 -0.24456132984E+03  0.24456132989E+03  0.50400001928E-02 0. -1.
    10030    2    1    2    0    0  0.00000000000E+00  0.00000000000E+00  0.15443002995E+02  0.50456566277E+03  0.50432927904E+03 0.  0.
        5    1    3    3  502    0 -0.18596139130E+03 -0.39744391565E+02 -0.15789659662E+03  0.24721383646E+03  0.46999998093E+01 0. -1.
       -5    1    3    3    0  502  0.18596139130E+03  0.39744391565E+02  0.17333959961E+03  0.25735182631E+03  0.46999998093E+01 0.  1.
</event>
<event>
 5   0  0.1225989E-02  0.4988546E+03  0.7818609E-02  0.1014078E+00
        1   -1    0    0  501    0  0.00000000000E+00  0.00000000000E+00  0.14775717871E+04  0.14775717871E+04  0.50400001928E-02 0. -1.
       -1   -1    0    0    0  501  0.00000000000E+00  0.00000000000E+00 -0.42105556142E+02  0.42105556443E+02  0.50400001928E-02 0.  1.
    10030    2    1    2    0    0  0.00000000000E+00  0.00000000000E+00  0.14354662309E+04  0.15196773435E+04  0.49885461638E+03 0.  0.
        3    1    3    3  502    0  0.16972897705E+03 -0.17142118971E+03  0.52456527992E+03  0.57737500209E+03  0.10100000352E+00 0.  1.
       -3    1    3    3    0  502 -0.16972897705E+03  0.17142118971E+03  0.91090095101E+03  0.94230234144E+03  0.10100000352E+00 0. -1.
</event>
<event>
 5   0  0.1855407E-02  0.4917896E+03  0.7818609E-02  0.1015944E+00
       -2   -1    0    0    0  501  0.00000000000E+00  0.00000000000E+00  0.39181013318E+02  0.39181013401E+02  0.25500000920E-02 0. -1.
        2   -1    0    0  501    0  0.00000000000E+00  0.00000000000E+00 -0.15432027576E+04  0.15432027576E+04  0.25500000920E-02 0.  1.
    10030    2    1    2    0    0  0.00000000000E+00  0.00000000000E+00 -0.15040217443E+04  0.15823837710E+04  0.49178958047E+03 0.  0.
        1    1    3    3  502    0  0.14732841238E+02 -0.10584477572E+03 -0.39443767343E+02  0.11391217655E+03  0.50400001928E-02 0. -1.
       -1    1    3    3    0  502 -0.14732841238E+02  0.10584477572E+03 -0.14645779769E+04  0.14684715945E+04  0.50400001928E-02 0.  1.
</event>
<event>
 5   0  0.1180937E-02  0.4897380E+03  0.7818609E-02  0.1016493E+00
        1   -1    0    0  501    0  0.00000000000E+00  0.00000000000E+00  0.61729161255E+03  0.61729161257E+03  0.50400001928E-02 0. -1.
       -1   -1    0    0    0  501  0.00000000000E+00  0.00000000000E+00 -0.97135326841E+02  0.97135326972E+02  0.50400001928E-02 0.  1.
    10030    2    1    2    0    0  0.00000000000E+00  0.00000000000E+00  0.52015628571E+03  0.71442693954E+03  0.48973798136E+03 0.  0.
        1    1    3    3  502    0 -0.38731328490E+02  0.16997472184E+03  0.92278787351E+01  0.17457570175E+03  0.50400001928E-02 0.  1.
       -1    1    3    3    0  502  0.38731328490E+02 -0.16997472184E+03  0.51092840697E+03  0.53985123779E+03  0.50400001928E-02 0. -1.
</event>
<event>
 5   0  0.1941387E-02  0.5001400E+03  0.7818609E-02  0.1013742E+00
       -2   -1    0    0    0  501  0.00000000000E+00  0.00000000000E+00  0.41947897073E+02  0.41947897150E+02  0.25500000920E-02 0. -1.
        2   -1    0    0  501    0  0.00000000000E+00  0.00000000000E+00 -0.14907782690E+04  0.14907782690E+04  0.25500000920E-02 0.  1.
    10030    2    1    2    0    0  0.00000000000E+00  0.00000000000E+00 -0.14488303719E+04  0.15327261661E+04  0.50014003418E+03 0.  0.
        4    1    3    3  502    0  0.52983234333E+02  0.24243297634E+03 -0.62983735478E+03  0.67696209459E+03  0.12699999809E+01 0.  1.
       -4    1    3    3    0  502 -0.52983234333E+02 -0.24243297634E+03 -0.81899301713E+03  0.85576407155E+03  0.12699999809E+01 0. -1.
</event>
<event>
 5   0  0.1941387E-02  0.5012327E+03  0.7818609E-02  0.1013458E+00
        2   -1    0    0  501    0  0.00000000000E+00  0.00000000000E+00  0.14908833014E+03  0.14908833017E+03  0.25500000920E-02 0. -1.
       -2   -1    0    0    0  501  0.00000000000E+00  0.00000000000E+00 -0.42128411153E+03  0.42128411153E+03  0.25500000920E-02 0.  1.
    10030    2    1    2    0    0  0.00000000000E+00  0.00000000000E+00 -0.27219578138E+03  0.57037244170E+03  0.50123265940E+03 0.  0.
        4    1    3    3  502    0  0.75589961158E+02 -0.11791469732E+03 -0.37258464547E+03  0.39804352653E+03  0.12699999809E+01 0.  1.
       -4    1    3    3    0  502 -0.75589961158E+02  0.11791469732E+03  0.10038886408E+03  0.17232891517E+03  0.12699999809E+01 0. -1.
</event>
<event>
 5   0  0.1227864E-02  0.5002081E+03  0.7818609E-02  0.1013725E+00
       -1   -1    0    0    0  501  0.00000000000E+00  0.00000000000E+00  0.89234330618E+02  0.89234330760E+02  0.50400001928E-02 0.  1.
        1   -1    0    0  501    0  0.00000000000E+00  0.00000000000E+00 -0.70098632744E+03  0.70098632746E+03  0.50400001928E-02 0. -1.
    10030    2    1    2    0    0  0.00000000000E+00  0.00000000000E+00 -0.61175199682E+03  0.79022065822E+03  0.50020813974E+03 0.  0.
        5    1    3    3  502    0 -0.13841271791E+03 -0.11323586093E+03 -0.58199721926E+03  0.60887050668E+03  0.46999998093E+01 0. -1.
       -5    1    3    3    0  502  0.13841271791E+03  0.11323586093E+03 -0.29754777568E+02  0.18135015155E+03  0.46999998093E+01 0.  1.
</event>
<event>
 5   0  0.1941387E-02  0.5002981E+03  0.7818609E-02  0.1013701E+00
        2   -1    0    0  501    0  0.00000000000E+00  0.00000000000E+00  0.70223680649E+03  0.70223680649E+03  0.25500000920E-02 0. -1.
       -2   -1    0    0    0  501  0.00000000000E+00  0.00000000000E+00 -0.89107466349E+02  0.89107466386E+02  0.25500000920E-02 0.  1.
    10030    2    1    2    0    0  0.00000000000E+00  0.00000000000E+00  0.61312934014E+03  0.79134427288E+03  0.50029808163E+03 0.  0.
        4    1    3    3  502    0 -0.10100053439E+03  0.18128431186E+03  0.52748770280E+03  0.56684212897E+03  0.12699999809E+01 0. -1.
       -4    1    3    3    0  502  0.10100053439E+03 -0.18128431186E+03  0.85641637338E+02  0.22450214391E+03  0.12699999809E+01 0.  1.
</event>
<event>
 5   0  0.1855407E-02  0.4997453E+03  0.7818609E-02  0.1013845E+00
       -2   -1    0    0    0  501  0.00000000000E+00  0.00000000000E+00  0.53447850236E+03  0.53447850237E+03  0.25500000920E-02 0. -1.
        2   -1    0    0  501    0  0.00000000000E+00  0.00000000000E+00 -0.11681728986E+03  0.11681728988E+03  0.25500000920E-02 0.  1.
    10030    2    1    2    0    0  0.00000000000E+00  0.00000000000E+00  0.41766121250E+03  0.65129579225E+03  0.49974525568E+03 0.  0.
        1    1    3    3  502    0  0.12468694848E+03  0.53193839224E+02 -0.64728639528E+02  0.15022055936E+03  0.50400001928E-02 0.  1.
       -1    1    3    3    0  502 -0.12468694848E+03 -0.53193839224E+02  0.48238985203E+03  0.50107523289E+03  0.50400001928E-02 0. -1.
</event>
<event>
 5   0  0.1209831E-02  0.5003429E+03  0.7818609E-02  0.1013689E+00
       -1   -1    0    0    0  501  0.00000000000E+00  0.00000000000E+00  0.14318342505E+03  0.14318342514E+03  0.50400001928E-02 0.  1.
        1   -1    0    0  501    0  0.00000000000E+00  0.00000000000E+00 -0.43710202458E+03  0.43710202461E+03  0.50400001928E-02 0. -1.
    10030    2    1    2    0    0  0.00000000000E+00  0.00000000000E+00 -0.29391859953E+03  0.58028544975E+03  0.50034294243E+03 0.  0.
        4    1    3    3  502    0  0.28029052389E+02  0.25424138196E+02 -0.43375968072E+03  0.43540910429E+03  0.12699999809E+01 0. -1.
       -4    1    3    3    0  502 -0.28029052389E+02 -0.25424138196E+02  0.13984108120E+03  0.14487634545E+03  0.12699999809E+01 0.  1.
</event>
<event>
 5   0  0.1227864E-02  0.5010496E+03  0.7818609E-02  0.1013505E+00
       -1   -1    0    0    0  501  0.00000000000E+00  0.00000000000E+00  0.21778644743E+03  0.21778644749E+03  0.50400001928E-02 0. -1.
        1   -1    0    0  501    0  0.00000000000E+00  0.00000000000E+00 -0.28818449383E+03  0.28818449387E+03  0.50400001928E-02 0.  1.
    10030    2    1    2    0    0  0.00000000000E+00  0.00000000000E+00 -0.70398046399E+02  0.50597094136E+03  0.50104960688E+03 0.  0.
        5    1    3    3  502    0 -0.15499614638E+03 -0.19471745109E+03 -0.66031165894E+01  0.24900679167E+03  0.46999998093E+01 0. -1.
       -5    1    3    3    0  502  0.15499614638E+03  0.19471745109E+03 -0.63794929809E+02  0.25696414968E+03  0.46999998093E+01 0.  1.
</event>
<event>
 5   0  0.1225989E-02  0.4965116E+03  0.7818609E-02  0.1014693E+00
        1   -1    0    0  501    0  0.00000000000E+00  0.00000000000E+00  0.76340442091E+03  0.76340442093E+03  0.50400001928E-02 0.  1.
       -1   -1    0    0    0  501  0.00000000000E+00  0.00000000000E+00 -0.80731699089E+02  0.80731699246E+02  0.50400001928E-02 0. -1.
    10030    2    1    2    0    0  0.00000000000E+00  0.00000000000E+00  0.68267272182E+03  0.84413612017E+03  0.49651157515E+03 0.  0.
        3    1    3    3  502    0  0.29950543938E+02  0.19633110074E+03  0.59458206312E+03  0.62687381201E+03  0.10100000352E+00 0. -1.
       -3    1    3    3    0  502 -0.29950543938E+02 -0.19633110074E+03  0.88090658708E+02  0.21726230817E+03  0.10100000352E+00 0.  1.
</event>
<event>
 5   0  0.1941387E-02  0.4998487E+03  0.7818609E-02  0.1013818E+00
       -2   -1    0    0    0  501  0.00000000000E+00  0.00000000000E+00  0.13706115024E+03  0.13706115027E+03  0.25500000920E-02 0. -1.
        2   -1    0    0  501    0  0.00000000000E+00  0.00000000000E+00 -0.45572485920E+03  0.45572485920E+03  0.25500000920E-02 0.  1.
    10030    2    1    2    0    0  0.00000000000E+00  0.00000000000E+00 -0.31866370895E+03  0.59278600947E+03  0.49984867072E+03 0.  0.
        4    1    3    3  502    0 -0.17952962624E+03  0.17207245806E+03 -0.12978472376E+03  0.28050936694E+03  0.12699999809E+01 0. -1.
       -4    1    3    3    0  502  0.17952962624E+03 -0.17207245806E+03 -0.18887898519E+03  0.31227664253E+03  0.12699999809E+01 0.  1.
</event>
<event>
 5   0  0.1855407E-02  0.4992993E+03  0.7818609E-02  0.1013962E+00
       -2   -1    0    0    0  501  0.00000000000E+00  0.00000000000E+00  0.38766505604E+03  0.38766505604E+03  0.25500000920E-02 0.  1.
        2   -1    0    0  501    0  0.00000000000E+00  0.00000000000E+00 -0.16077011653E+03  0.16077011655E+03  0.25500000920E-02 0. -1.
    10030    2    1    2    0    0  0.00000000000E+00  0.00000000000E+00  0.22689493951E+03  0.54843517259E+03  0.49929933403E+03 0.  0.
        1    1    3    3  502    0  0.24026321075E+03 -0.62970311860E+02  0.85805809844E+02  0.26278186323E+03  0.50400001928E-02 0. -1.
       -1    1    3    3    0  502 -0.24026321075E+03  0.62970311860E+02  0.14108912966E+03  0.28565330936E+03  0.50400001928E-02 0.  1.
</event>
<event>
 5   0  0.1982847E-02  0.5000718E+03  0.7818609E-02  0.1013760E+00
       -2   -1    0    0    0  501  0.00000000000E+00  0.00000000000E+00  0.70631061459E+02  0.70631061505E+02  0.25500000920E-02 0. -1.
        2   -1    0    0  501    0  0.00000000000E+00  0.00000000000E+00 -0.88513397829E+03  0.88513397830E+03  0.25500000920E-02 0.  1.
    10030    2    1    2    0    0  0.00000000000E+00  0.00000000000E+00 -0.81450291683E+03  0.95576503980E+03  0.50007180462E+03 0.  0.
        2    1    3    3  502    0 -0.24405338403E+03  0.39251142456E+02 -0.33535048997E+03  0.41660851836E+03  0.25500000920E-02 0.  1.
       -2    1    3    3    0  502  0.24405338403E+03 -0.39251142456E+02 -0.47915242687E+03  0.53915652145E+03  0.25500000920E-02 0. -1.
</event>
<event>
 5   0  0.1967813E-02  0.4963917E+03  0.7818609E-02  0.1014725E+00
       -2   -1    0    0    0  501  0.00000000000E+00  0.00000000000E+00  0.24722809531E+03  0.24722809532E+03  0.25500000920E-02 0.  1.
        2   -1    0    0  501    0  0.00000000000E+00  0.00000000000E+00 -0.24916737787E+03  0.24916737788E+03  0.25500000920E-02 0. -1.
    10030    2    1    2    0    0  0.00000000000E+00  0.00000000000E+00 -0.19392825648E+01  0.49639547320E+03  0.49639168506E+03 0.  0.
        5    1    3    3  502    0 -0.72213065402E+02  0.19533941050E+03  0.13396423894E+03  0.24767058651E+03  0.46999998093E+01 0.  1.
       -5    1    3    3    0  502  0.72213065402E+02 -0.19533941050E+03 -0.13590352150E+03  0.24872488670E+03  0.46999998093E+01 0. -1.
</event>
<event>
 5   0  0.1982847E-02  0.5001350E+03  0.7818609E-02  0.1013744E+00
        2   -1    0    0  501    0  0.00000000000E+00  0.00000000000E+00  0.15706414448E+04  0.15706414448E+04  0.25500000920E-02 0. -1.
       -2   -1    0    0    0  501  0.00000000000E+00  0.00000000000E+00 -0.39814146209E+02  0.39814146290E+02  0.25500000920E-02 0.  1.
    10030    2    1    2    0    0  0.00000000000E+00  0.00000000000E+00  0.15308272986E+04  0.16104555911E+04  0.50013497455E+03 0.  0.
        2    1    3    3  502    0  0.17558311877E+03  0.12688764865E+03  0.11676462700E+04  0.11875721952E+04  0.25500000920E-02 0. -1.
       -2    1    3    3    0  502 -0.17558311877E+03 -0.12688764865E+03  0.36318102854E+03  0.42288339583E+03  0.25500000920E-02 0.  1.
</event>
<event>
 5   0  0.1180937E-02  0.4993848E+03  0.7818609E-02  0.1013940E+00
        1   -1    0    0  501    0  0.00000000000E+00  0.00000000000E+00  0.49760113751E+03  0.49760113754E+03  0.50400001928E-02 0.  1.
       -1   -1    0    0    0  501  0.00000000000E+00  0.00000000000E+00 -0.12529370184E+03  0.12529370194E+03  0.50400001928E-02 0. -1.
    10030    2    1    2    0    0  0.00000000000E+00  0.00000000000E+00  0.37230743567E+03  0.62289483948E+03  0.49938477590E+03 0.  0.
        1    1    3    3  502    0 -0.94667977652E+02  0.10516832494E+03  0.44276290586E+03  0.46482404563E+03  0.50400001928E-02 0.  1.
       -1    1    3    3    0  502  0.94667977652E+02 -0.10516832494E+03 -0.70455470191E+02  0.15807079385E+03  0.50400001928E-02 0. -1.
</event>
<event>
 5   0  0.1855407E-02  0.4993688E+03  0.7818609E-02  0.1013944E+00
       -2   -1    0    0    0  501  0.00000000000E+00  0.00000000000E+00  0.43671881012E+02  0.43671881086E+02  0.25500000920E-02 0. -1.
        2   -1    0    0  501    0  0.00000000000E+00  0.00000000000E+00 -0.14275158240E+04  0.14275158240E+04  0.25500000920E-02 0.  1.
    10030    2    1    2    0    0  0.00000000000E+00  0.00000000000E+00 -0.13838439429E+04  0.14711877050E+04  0.49936880664E+03 0.  0.
        1    1    3    3  502    0  0.18130133952E+03  0.16112849541E+03 -0.51738648275E+03  0.57142045842E+03  0.50400001928E-02 0.  1.
       -1    1    3    3    0  502 -0.18130133952E+03 -0.16112849541E+03 -0.86645746019E+03  0.89976724662E+03  0.50400001928E-02 0. -1.
</event>
<event>
 5   0  0.1217270E-02  0.5019059E+03  0.7818609E-02  0.1013283E+00
       -1   -1    0    0    0  501  0.00000000000E+00  0.00000000000E+00  0.35503716115E+02  0.35503716473E+02  0.50400001928E-02 0. -1.
        1   -1    0    0  501    0  0.00000000000E+00  0.00000000000E+00 -0.17738251849E+04  0.17738251849E+04  0.50400001928E-02 0.  1.
    10030    2    1    2    0    0  0.00000000000E+00  0.00000000000E+00 -0.17383214688E+04  0.18093289014E+04  0.50190591204E+03 0.  0.
        2    1    3    3  502    0  0.20264812821E+03 -0.80694220981E+02 -0.42180868097E+03  0.47486880769E+03  0.25500000920E-02 0. -1.
       -2    1    3    3    0  502 -0.20264812821E+03  0.80694220981E+02 -0.13165127879E+04  0.13344600937E+04  0.25500000920E-02 0.  1.
</event>
<event>
 5   0  0.1217270E-02  0.4928482E+03  0.7818609E-02  0.1015663E+00
        1   -1    0    0  501    0  0.00000000000E+00  0.00000000000E+00  0.27395947013E+03  0.27395947018E+03  0.50400001928E-02 0. -1.
       -1   -1    0    0    0  501  0.00000000000E+00  0.00000000000E+00 -0.22165631258E+03  0.22165631264E+03  0.50400001928E-02 0.  1.
    10030    2    1    2    0    0  0.00000000000E+00  0.00000000000E+00  0.52303157554E+02  0.49561578282E+03  0.49284823616E+03 0.  0.
        2    1    3    3  502    0  0.71014047253E+02 -0.21577964959E+03  0.12219176722E+03  0.25794317217E+03  0.25500000920E-02 0.  1.
       -2    1    3    3    0  502 -0.71014047253E+02  0.21577964959E+03 -0.69888609670E+02  0.23767261065E+03  0.25500000920E-02 0. -1.
</event>
<event>
 5   0  0.1923706E-02  0.5003129E+03  0.7818609E-02  0.1013697E+00
       -2   -1    0    0    0  501  0.00000000000E+00  0.00000000000E+00  0.63141158453E+02  0.63141158505E+02  0.25500000920E-02 0. -1.
        2   -1    0    0  501    0  0.00000000000E+00  0.00000000000E+00 -0.99108481871E+03  0.99108481872E+03  0.25500000920E-02 0.  1.
    10030    2    1    2    0    0  0.00000000000E+00  0.00000000000E+00 -0.92794366026E+03  0.10542259772E+04  0.50031287654E+03 0.  0.
        3    1    3    3  502    0 -0.13156166885E+03  0.19901076776E+03 -0.30538326652E+03  0.38752123563E+03  0.10100000352E+00 0. -1.
       -3    1    3    3    0  502  0.13156166885E+03 -0.19901076776E+03 -0.62256039375E+03  0.66670474159E+03  0.10100000352E+00 0.  1.
</event>
<event>
 5   0  0.1967813E-02  0.5011873E+03  0.7818609E-02  0.1013469E+00
        2   -1    0    0  501    0  0.00000000000E+00  0.00000000000E+00  0.57871896169E+03  0.57871896170E+03  0.25500000920E-02 0.  1.
       -2   -1    0    0    0  501  0.00000000000E+00  0.00000000000E+00 -0.10851067945E+03  0.10851067948E+03  0.25500000920E-02 0. -1.
    10030    2    1    2    0    0  0.00000000000E+00  0.00000000000E+00  0.47020828224E+03  0.68722964118E+03  0.50118734125E+03 0.  0.
        5    1    3    3  502    0  0.26899743752E+02 -0.12774667817E+03  0.52833741789E+03  0.54424748703E+03  0.46999998093E+01 0.  1.
       -5    1    3    3    0  502 -0.26899743752E+02  0.12774667817E+03 -0.58129135650E+02  0.14298215415E+03  0.46999998093E+01 0. -1.
</event>
<event>
 5   0  0.8012875E-03  0.4996139E+03  0.7818609E-02  0.1013880E+00
        3   -1    0    0  501    0  0.00000000000E+00  0.00000000000E+00  0.22495644957E+03  0.22495647224E+03  0.10100000352E+00 0. -1.
       -3   -1    0    0    0  501  0.00000000000E+00  0.00000000000E+00 -0.27740262140E+03  0.27740263978E+03  0.10100000352E+00 0.  1.
    10030    2    1    2    0    0  0.00000000000E+00  0.00000000000E+00 -0.52446171829E+02  0.50235911202E+03  0.49961392744E+03 0.  0.
        2    1    3    3  502    0  0.64183261731E+02 -0.17870044284E+03  0.13699622455E+03  0.23413949881E+03  0.25500000920E-02 0. -1.
       -2    1    3    3    0  502 -0.64183261731E+02  0.17870044284E+03 -0.18944239638E+03  0.26821961321E+03  0.25500000920E-02 0.  1.
</event>
<event>
 5   0  0.1227864E-02  0.4996601E+03  0.7818609E-02  0.1013868E+00
       -1   -1    0    0    0  501  0.00000000000E+00  0.00000000000E+00  0.41763808271E+03  0.41763808274E+03  0.50400001928E-02 0.  1.
        1   -1    0    0  501    0  0.00000000000E+00  0.00000000000E+00 -0.14944770727E+03  0.14944770736E+03  0.50400001928E-02 0. -1.
    10030    2    1    2    0    0  0.00000000000E+00  0.00000000000E+00  0.26819037544E+03  0.56708579010E+03  0.49966010032E+03 0.  0.
        5    1    3    3  502    0  0.57839614975E+02  0.22884635866E+03  0.41356465361E+02  0.23968421758E+03  0.46999998093E+01 0. -1.
       -5    1    3    3    0  502 -0.57839614975E+02 -0.22884635866E+03  0.22683391008E+03  0.32740157252E+03  0.46999998093E+01 0.  1.
</event>
<event>
 5   0  0.1967813E-02  0.5006667E+03  0.7818609E-02  0.1013605E+00
       -2   -1    0    0    0  501  0.00000000000E+00  0.00000000000E+00  0.95038111318E+02  0.95038111352E+02  0.25500000920E-02 0. -1.
        2   -1    0    0  501    0  0.00000000000E+00  0.00000000000E+00 -0.65938576917E+03  0.65938576918E+03  0.25500000920E-02 0.  1.
    10030    2    1    2    0    0  0.00000000000E+00  0.00000000000E+00 -0.56434765786E+03  0.75442388053E+03  0.50066666814E+03 0.  0.
        5    1    3    3  502    0 -0.16967516055E+03 -0.89267193339E+02 -0.39734794798E+02  0.19585513991E+03  0.46999998093E+01 0. -1.
       -5    1    3    3    0  502  0.16967516055E+03  0.89267193339E+02 -0.52461286306E+03  0.55856874062E+03  0.46999998093E+01 0.  1.
</event>
<event>
 5   0  0.1855407E-02  0.5004056E+03  0.7818609E-02  0.1013673E+00
        2   -1    0    0  501    0  0.00000000000E+00  0.00000000000E+00  0.16698218099E+04  0.16698218099E+04  0.25500000920E-02 0. -1.
       -2   -1    0    0    0  501  0.00000000000E+00  0.00000000000E+00 -0.37489896871E+02  0.37489896958E+02  0.25500000920E-02 0.  1.
    10030    2    1    2    0    0  0.00000000000E+00  0.00000000000E+00  0.16323319130E+04  0.17073117068E+04  0.50040562555E+03 0.  0.
        1    1    3    3  502    0 -0.17335721669E+03  0.82506647192E+02  0.13635681266E+04  0.13770178311E+04  0.50400001928E-02 0. -1.
       -1    1    3    3    0  502  0.17335721669E+03 -0.82506647192E+02  0.26876378643E+03  0.33029387571E+03  0.50400001928E-02 0.  1.
</event>
<event>
 5   0  0.1209831E-02  0.5002004E+03  0.7818609E-02  0.1013727E+00
        1   -1    0    0  501    0  0.00000000000E+00  0.00000000000E+00  0.46822186488E+03  0.46822186491E+03  0.50400001928E-02 0. -1.
       -1   -1    0    0    0  501  0.00000000000E+00  0.00000000000E+00 -0.13359073607E+03  0.13359073616E+03  0.50400001928E-02 0.  1.
    10030    2    1    2    0    0  0.00000000000E+00  0.00000000000E+00  0.33463112881E+03  0.60181260107E+03  0.50020037429E+03 0.  0.
        4    1    3    3  502    0 -0.16267726605E+03  0.16026804010E+02 -0.60417960223E+02  0.17427763527E+03  0.12699999809E+01 0.  1.
       -4    1    3    3    0  502  0.16267726605E+03 -0.16026804010E+02  0.39504908903E+03  0.42753496580E+03  0.12699999809E+01 0. -1.
</event>
<event>
 5   0  0.8012875E-03  0.4997643E+03  0.7818609E-02  0.1013840E+00
       -3   -1    0    0    0  501  0.00000000000E+00  0.00000000000E+00  0.16599956939E+03  0.16599960011E+03  0.10100000352E+00 0. -1.
        3   -1    0    0  501    0  0.00000000000E+00  0.00000000000E+00 -0.37615205866E+03  0.37615207222E+03  0.10100000352E+00 0.  1.
    10030    2    1    2    0    0  0.00000000000E+00  0.00000000000E+00 -0.21015248928E+03  0.54215167234E+03  0.49976431152E+03 0.  0.
        4    1    3    3  502    0  0.93863574124E+01  0.24962054769E+03 -0.11201883255E+03  0.27376696894E+03  0.12699999809E+01 0.  1.
       -4    1    3    3    0  502 -0.93863574124E+01 -0.24962054769E+03 -0.98133656729E+02  0.26838470340E+03  0.12699999809E+01 0. -1.
</event>
<event>
 5   0  0.1227864E-02  0.5003813E+03  0.7818609E-02  0.1013679E+00
       -1   -1    0    0    0  501  0.00000000000E+00  0.00000000000E+00  0.67172355923E+02  0.67172356112E+02  0.50400001928E-02 0.  1.
        1   -1    0    0  501    0  0.00000000000E+00  0.00000000000E+00 -0.93186194468E+03  0.93186194469E+03  0.50400001928E-02 0. -1.
    10030    2    1    2    0    0  0.00000000000E+00  0.00000000000E+00 -0.86468958875E+03  0.99903430080E+03  0.50038130389E+03 0.  0.
        5    1    3    3  502    0  0.21492945929E+03  0.40574142805E+02 -0.67467925354E+03  0.70926378639E+03  0.46999998093E+01 0. -1.
       -5    1    3    3    0  502 -0.21492945929E+03 -0.40574142805E+02 -0.19001033522E+03  0.28977051441E+03  0.46999998093E+01 0.  1.
</event>
<event>
 5   0  0.1967813E-02  0.5000443E+03  0.7818609E-02  0.1013767E+00
       -2   -1    0    0    0  501  0.00000000000E+00  0.00000000000E+00  0.31560498377E+02  0.31560498480E+02  0.25500000920E-02 0. -1.
        2   -1    0    0  501    0  0.00000000000E+00  0.00000000000E+00 -0.19806748868E+04  0.19806748868E+04  0.25500000920E-02 0.  1.
    10030    2    1    2    0    0  0.00000000000E+00  0.00000000000E+00 -0.19491143884E+04  0.20122353852E+04  0.50004434465E+03 0.  0.
        5    1    3    3  502    0 -0.14789845508E+02 -0.24954007566E+03 -0.97420264406E+03  0.10057742642E+04  0.46999998093E+01 0. -1.
       -5    1    3    3    0  502  0.14789845508E+02  0.24954007566E+03 -0.97491174432E+03  0.10064611210E+04  0.46999998093E+01 0.  1.
</event>
<event>
 5   0  0.1982847E-02  0.5006851E+03  0.7818609E-02  0.1013600E+00
       -2   -1    0    0    0  501  0.00000000000E+00  0.00000000000E+00  0.42713267030E+03  0.42713267030E+03  0.25500000920E-02 0.  1.
        2   -1    0    0  501    0  0.00000000000E+00  0.00000000000E+00 -0.14672582704E+03  0.14672582706E+03  0.25500000920E-02 0. -1.
    10030    2    1    2    0    0  0.00000000000E+00  0.00000000000E+00  0.28040684326E+03  0.57385849737E+03  0.50068510788E+03 0.  0.
        2    1    3    3  502    0 -0.21447964174E+03 -0.77181945630E+02  0.21574073213E+02  0.22896290113E+03  0.25500000920E-02 0. -1.
       -2    1    3    3    0  502  0.21447964174E+03  0.77181945630E+02  0.25883277004E+03  0.34489559624E+03  0.25500000920E-02 0.  1.
</event>
<event>
 5   0  0.1923706E-02  0.4994311E+03  0.7818609E-02  0.1013928E+00
        2   -1    0    0  501    0  0.00000000000E+00  0.00000000000E+00  0.82695548127E+03  0.82695548127E+03  0.25500000920E-02 0.  1.
       -2   -1    0    0    0  501  0.00000000000E+00  0.00000000000E+00 -0.75406545851E+02  0.75406545894E+02  0.25500000920E-02 0. -1.
    10030    2    1    2    0    0  0.00000000000E+00  0.00000000000E+00  0.75154893542E+03  0.90236202717E+03  0.49943110210E+03 0.  0.
        3    1    3    3  502    0 -0.15669063741E+03 -0.10556111786E+03  0.67079865444E+03  0.69689737440E+03  0.10100000352E+00 0.  1.
       -3    1    3    3    0  502  0.15669063741E+03  0.10556111786E+03  0.80750280980E+02  0.20546465276E+03  0.10100000352E+00 0. -1.
</event>
<event>
 5   0  0.1209831E-02  0.5023797E+03  0.7818609E-02  0.1013160E+00
        1   -1    0    0  501    0  0.00000000000E+00  0.00000000000E+00  0.53878009836E+03  0.53878009838E+03  0.50400001928E-02 0.  1.
       -1   -1    0    0    0  501  0.00000000000E+00  0.00000000000E+00 -0.11710963060E+03  0.11710963071E+03  0.50400001928E-02 0. -1.
    10030    2    1    2    0    0  0.00000000000E+00  0.00000000000E+00  0.42167046776E+03  0.65588972909E+03  0.50237969043E+03 0.  0.
        4    1    3    3  502    0 -0.38530164888E+02 -0.24646931181E+03  0.24918932928E+03  0.35260265172E+03  0.12699999809E+01 0. -1.
       -4    1    3    3    0  502  0.38530164888E+02  0.24646931181E+03  0.17248113848E+03  0.30328707738E+03  0.12699999809E+01 0.  1.
</event>
<event>
 5   0  0.1923706E-02  0.4991950E+03  0.7818609E-02  0.1013989E+00
       -2   -1    0    0    0  501  0.00000000000E+00  0.00000000000E+00  0.66857155818E+02  0.66857155866E+02  0.25500000920E-02 0.  1.
        2   -1    0    0  501    0  0.00000000000E+00  0.00000000000E+00 -0.93182119950E+03  0.93182119951E+03  0.25500000920E-02 0. -1.
    10030    2    1    2    0    0  0.00000000000E+00  0.00000000000E+00 -0.86496404369E+03  0.99867835537E+03  0.49919501262E+03 0.  0.
        3    1    3    3  502    0  0.24667566002E+03  0.64705225117E+00 -0.35631267286E+03  0.43336823945E+03  0.10100000352E+00 0.  1.
       -3    1    3    3    0  502 -0.24667566002E+03 -0.64705225117E+00 -0.50865137083E+03  0.56531011593E+03  0.10100000352E+00 0. -1.
</event>
<event>
 5   0  0.1967813E-02  0.5001394E+03  0.7818609E-02  0.1013743E+00
       -2   -1    0    0    0  501  0.00000000000E+00  0.00000000000E+00  0.11965050553E+03  0.11965050555E+03  0.25500000920E-02 0.  1.
        2   -1    0    0  501    0  0.00000000000E+00  0.00000000000E+00 -0.52264607033E+03  0.52264607034E+03  0.25500000920E-02 0. -1.
    10030    2    1    2    0    0  0.00000000000E+00  0.00000000000E+00 -0.40299556481E+03  0.64229657589E+03  0.50013944670E+03 0.  0.
        5    1    3    3  502    0 -0.94582866905E+02 -0.22610331978E+03 -0.26498819133E+03  0.36098401830E+03  0.46999998093E+01 0. -1.
       -5    1    3    3    0  502  0.94582866905E+02  0.22610331978E+03 -0.13800737347E+03  0.28131255759E+03  0.46999998093E+01 0.  1.
</event>
<event>
 5   0  0.1209831E-02  0.5013783E+03  0.7818609E-02  0.1013420E+00
       -1   -1    0    0    0  501  0.00000000000E+00  0.00000000000E+00  0.60928499559E+03  0.60928499561E+03  0.50400001928E-02 0.  1.
        1   -1    0    0  501    0  0.00000000000E+00  0.00000000000E+00 -0.10314555894E+03  0.10314555906E+03  0.50400001928E-02 0. -1.
    10030    2    1    2    0    0  0.00000000000E+00  0.00000000000E+00  0.50613943666E+03  0.71243055467E+03  0.50137826627E+03 0.  0.
        4    1    3    3  502    0  0.84890463806E+02  0.92728986847E+02 -0.55109378087E+02  0.13727240181E+03  0.12699999809E+01 0. -1.
       -4    1    3    3    0  502 -0.84890463806E+02 -0.92728986847E+02  0.56124881474E+03  0.57515815286E+03  0.12699999809E+01 0.  1.
</event>
<event>
 5   0  0.8012875E-03  0.5008974E+03  0.7818609E-02  0.1013545E+00
        4   -1    0    0  501    0  0.00000000000E+00  0.00000000000E+00  0.76953386043E+02  0.76963865050E+02  0.12699999809E+01 0. -1.
       -4   -1    0    0    0  501  0.00000000000E+00  0.00000000000E+00 -0.81503140305E+03  0.81503239252E+03  0.12699999809E+01 0.  1.
    10030    2    1    2    0    0  0.00000000000E+00  0.00000000000E+00 -0.73807801701E+03  0.89199625757E+03  0.50089735908E+03 0.  0.
        1    1    3    3  502    0  0.54521108066E+02 -0.17879782763E+03 -0.72209951089E+02  0.20038835158E+03  0.50400001928E-02 0.  1.
       -1    1    3    3    0  502 -0.54521108066E+02  0.17879782763E+03 -0.66586806592E+03  0.69160790599E+03  0.50400001928E-02 0. -1.
</event>
<event>
 5   0  0.1941387E-02  0.4991442E+03  0.7818609E-02  0.1014003E+00
        2   -1    0    0  501    0  0.00000000000E+00  0.00000000000E+00  0.98616297282E+02  0.98616297315E+02  0.25500000920E-02 0. -1.
       -2   -1    0    0    0  501  0.00000000000E+00  0.00000000000E+00 -0.63160185818E+03  0.63160185819E+03  0.25500000920E-02 0.  1.
    10030    2    1    2    0    0  0.00000000000E+00  0.00000000000E+00 -0.53298556090E+03  0.73021815550E+03  0.49914421413E+03 0.  0.
        4    1    3    3  502    0  0.24340556136E+03  0.70897230012E+01 -0.34646213412E+03  0.42347863553E+03  0.12699999809E+01 0.  1.
       -4    1    3    3    0  502 -0.24340556136E+03 -0.70897230012E+01 -0.18652342678E+03  0.30673951997E+03  0.12699999809E+01 0. -1.
</event>
<event>
 5   0  0.1941387E-02  0.4982889E+03  0.7818609E-02  0.1014227E+00
       -2   -1    0    0    0  501  0.00000000000E+00  0.00000000000E+00  0.45391616619E+02  0.45391616690E+02  0.25500000920E-02 0. -1.
        2   -1    0    0  501    0  0.00000000000E+00  0.00000000000E+00 -0.13674981635E+04  0.13674981635E+04  0.25500000920E-02 0.  1.
    10030    2    1    2    0    0  0.00000000000E+00  0.00000000000E+00 -0.13221065469E+04  0.14128897802E+04  0.49828888174E+03 0.  0.
        4    1    3    3  502    0 -0.15788152866E+03  0.19177911286E+03 -0.71526473938E+03  0.75717307501E+03  0.12699999809E+01 0. -1.
       -4    1    3    3    0  502  0.15788152866E+03 -0.19177911286E+03 -0.60684180751E+03  0.65571670519E+03  0.12699999809E+01 0.  1.
</event>
<event>
 5   0  0.1982847E-02  0.5006134E+03  0.7818609E-02  0.1013619E+00
       -2   -1    0    0    0  501  0.00000000000E+00  0.00000000000E+00  0.55141172531E+02  0.55141172590E+02  0.25500000920E-02 0. -1.
        2   -1    0    0  501    0  0.00000000000E+00  0.00000000000E+00 -0.11362371257E+04  0.11362371257E+04  0.25500000920E-02 0.  1.
    10030    2    1    2    0    0  0.00000000000E+00  0.00000000000E+00 -0.10810959531E+04  0.11913782983E+04  0.50061341340E+03 0.  0.
        2    1    3    3  502    0 -0.19931581023E+02 -0.12791564395E+03 -0.10503764171E+04  0.10583242875E+04  0.25500000920E-02 0.  1.
       -2    1    3    3    0  502  0.19931581023E+02  0.12791564395E+03 -0.30719536078E+02  0.13305401081E+03  0.25500000920E-02 0. -1.
</event>
<event>
 5   0  0.1855407E-02  0.4991698E+03  0.7818609E-02  0.1013996E+00
        2   -1    0    0  501    0  0.00000000000E+00  0.00000000000E+00  0.95398741803E+03  0.95398741803E+03  0.25500000920E-02 0. -1.
       -2   -1    0    0    0  501  0.00000000000E+00  0.00000000000E+00 -0.65297116039E+02  0.65297116089E+02  0.25500000920E-02 0.  1.
    10030    2    1    2    0    0  0.00000000000E+00  0.00000000000E+00  0.88869030199E+03  0.10192845341E+04  0.49916981945E+03 0.  0.
        1    1    3    3  502    0  0.38394087232E+02 -0.24650620822E+03  0.42944996812E+03  0.49665550612E+03  0.50400001928E-02 0.  1.
       -1    1    3    3    0  502 -0.38394087232E+02  0.24650620822E+03  0.45924033387E+03  0.52262902799E+03  0.50400001928E-02 0. -1.
</event>
<event>
 5   0  0.1941387E-02  0.4999528E+03  0.7818609E-02  0.1013791E+00
       -2   -1    0    0    0  501  0.00000000000E+00  0.00000000000E+00  0.16134324371E+03  0.16134324373E+03  0.25500000920E-02 0.  1.
        2   -1    0    0  501    0  0.00000000000E+00  0.00000000000E+00 -0.38729970234E+03  0.38729970235E+03  0.25500000920E-02 0. -1.
    10030    2    1    2    0    0  0.00000000000E+00  0.00000000000E+00 -0.22595645863E+03  0.54864294608E+03  0.49995275886E+03 0.  0.
        4    1    3    3  502    0  0.23374962991E+03 -0.84639811957E+02 -0.84282171283E+02  0.26250311340E+03  0.12699999809E+01 0.  1.
       -4    1    3    3    0  502 -0.23374962991E+03  0.84639811957E+02 -0.14167428735E+03  0.28613983268E+03  0.12699999809E+01 0. -1.
</event>
<event>
 5   0  0.8012875E-03  0.4989911E+03  0.7818609E-02  0.1014043E+00
       -3   -1    0    0    0  501  0.00000000000E+00  0.00000000000E+00  0.14622608495E+03  0.14622611983E+03  0.10100000352E+00 0. -1.
        3   -1    0    0  501    0  0.00000000000E+00  0.00000000000E+00 -0.42569713646E+03  0.42569714844E+03  0.10100000352E+00 0.  1.
    10030    2    1    2    0    0  0.00000000000E+00  0.00000000000E+00 -0.27947105152E+03  0.57192326827E+03  0.49899113835E+03 0.  0.
        3    1    3    3  502    0  0.13441461687E+03 -0.39540617739E+02  0.96877033234E+02  0.17034059836E+03  0.10100000352E+00 0. -1.
       -3    1    3    3    0  502 -0.13441461687E+03  0.39540617739E+02 -0.37634808475E+03  0.40158266991E+03  0.10100000352E+00 0.  1.
</event>
<event>
 5   0  0.1923706E-02  0.4998962E+03  0.7818609E-02  0.1013806E+00
       -2   -1    0    0    0  501  0.00000000000E+00  0.00000000000E+00  0.30502006476E+02  0.30502006583E+02  0.25500000920E-02 0. -1.
        2   -1    0    0  501    0  0.00000000000E+00  0.00000000000E+00 -0.20481948520E+04  0.20481948520E+04  0.25500000920E-02 0.  1.
    10030    2    1    2    0    0  0.00000000000E+00  0.00000000000E+00 -0.20176928455E+04  0.20786968585E+04  0.49989620023E+03 0.  0.
        3    1    3    3  502    0  0.37265269628E+02  0.43814773784E+02 -0.20203000806E+04  0.20211187151E+04  0.10100000352E+00 0.  1.
       -3    1    3    3    0  502 -0.37265269628E+02 -0.43814773784E+02  0.26072351358E+01  0.57578143408E+02  0.10100000352E+00 0. -1.
</event>
<event>
 5   0  0.8012875E-03  0.4994236E+03  0.7818609E-02  0.1013929E+00
       -3   -1    0    0    0  501  0.00000000000E+00  0.00000000000E+00  0.15142432559E+03  0.15142435927E+03  0.10100000352E+00 0.  1.
        3   -1    0    0  501    0  0.00000000000E+00  0.00000000000E+00 -0.41179623733E+03  0.41179624972E+03  0.10100000352E+00 0. -1.
    10030    2    1    2    0    0  0.00000000000E+00  0.00000000000E+00 -0.26037191175E+03  0.56322060899E+03  0.49942358971E+03 0.  0.
        4    1    3    3  502    0 -0.23641813683E+03 -0.20302894977E+02 -0.42478239720E+02  0.24106380217E+03  0.12699999809E+01 0. -1.
       -4    1    3    3    0  502  0.23641813683E+03  0.20302894977E+02 -0.21789367203E+03  0.32215680682E+03  0.12699999809E+01 0.  1.
</event>
<event>
 5   0  0.1180937E-02  0.5029033E+03  0.7818609E-02  0.1013024E+00
       -1   -1    0    0    0  501  0.00000000000E+00  0.00000000000E+00  0.59990120955E+02  0.59990121167E+02  0.50400001928E-02 0.  1.
        1   -1    0    0  501    0  0.00000000000E+00  0.00000000000E+00 -0.10539725937E+04  0.10539725937E+04  0.50400001928E-02 0. -1.
    10030    2    1    2    0    0  0.00000000000E+00  0.00000000000E+00 -0.99398247272E+03  0.11139627148E+04  0.50290334460E+03 0.  0.
        1    1    3    3  502    0  0.12009012370E+02  0.22474223155E+02  0.57122834767E+02  0.62548584010E+02  0.50400001928E-02 0.  1.
       -1    1    3    3    0  502 -0.12009012370E+02 -0.22474223155E+02 -0.10511053075E+04  0.10514141308E+04  0.50400001928E-02 0. -1.
</event>
<event>
 5   0  0.1180937E-02  0.4997142E+03  0.7818609E-02  0.1013854E+00
        1   -1    0    0  501    0  0.00000000000E+00  0.00000000000E+00  0.28076864151E+03  0.28076864155E+03  0.50400001928E-02 0.  1.
       -1   -1    0    0    0  501  0.00000000000E+00  0.00000000000E+00 -0.22234876276E+03  0.22234876282E+03  0.50400001928E-02 0. -1.
    10030    2    1    2    0    0  0.00000000000E+00  0.00000000000E+00  0.58419878743E+02  0.50311740437E+03  0.49971415865E+03 0.  0.
        1    1    3    3  502    0 -0.10671571379E+02 -0.24121714859E+02 -0.22094307836E+03  0.22251198499E+03  0.50400001928E-02 0. -1.
       -1    1    3    3    0  502  0.10671571379E+02  0.24121714859E+02  0.27936295710E+03  0.28060541939E+03  0.50400001928E-02 0.  1.
</event>
<event>
 5   0  0.1209831E-02  0.5002928E+03  0.7818609E-02  0.1013703E+00
        1   -1    0    0  501    0  0.00000000000E+00  0.00000000000E+00  0.22257618516E+03  0.22257618521E+03  0.50400001928E-02 0.  1.
       -1   -1    0    0    0  501  0.00000000000E+00  0.00000000000E+00 -0.28113170134E+03  0.28113170138E+03  0.50400001928E-02 0. -1.
    10030    2    1    2    0    0  0.00000000000E+00  0.00000000000E+00 -0.58555516179E+02  0.50370788659E+03  0.50029280081E+03 0.  0.
        4    1    3    3  502    0  0.16712718389E+02 -0.18699767759E+03  0.13715082885E+03  0.23250679374E+03  0.12699999809E+01 0.  1.
       -4    1    3    3    0  502 -0.16712718389E+02  0.18699767759E+03 -0.19570634503E+03  0.27120109285E+03  0.12699999809E+01 0. -1.
</event>
<event>
 5   0  0.1180937E-02  0.5000457E+03  0.7818609E-02  0.1013767E+00
        1   -1    0    0  501    0  0.00000000000E+00  0.00000000000E+00  0.98014346121E+02  0.98014346250E+02  0.50400001928E-02 0.  1.
       -1   -1    0    0    0  501  0.00000000000E+00  0.00000000000E+00 -0.63777835114E+03  0.63777835116E+03  0.50400001928E-02 0. -1.
    10030    2    1    2    0    0  0.00000000000E+00  0.00000000000E+00 -0.53976400502E+03  0.73579269741E+03  0.50004571036E+03 0.  0.
        1    1    3    3  502    0 -0.91863820317E+02 -0.79471788291E+02  0.51678670191E+02  0.13200534684E+03  0.50400001928E-02 0.  1.
       -1    1    3    3    0  502  0.91863820317E+02  0.79471788291E+02 -0.59144267521E+03  0.60378735057E+03  0.50400001928E-02 0. -1.
</event>
<event>
 5   0  0.1855407E-02  0.4995928E+03  0.7818609E-02  0.1013885E+00
       -2   -1    0    0    0  501  0.00000000000E+00  0.00000000000E+00  0.62448624597E+02  0.62448624649E+02  0.25500000920E-02 0.  1.
        2   -1    0    0  501    0  0.00000000000E+00  0.00000000000E+00 -0.99919323971E+03  0.99919323971E+03  0.25500000920E-02 0. -1.
    10030    2    1    2    0    0  0.00000000000E+00  0.00000000000E+00 -0.93674461511E+03  0.10616418644E+04  0.49959280842E+03 0.  0.
        1    1    3    3  502    0 -0.12722250880E+03  0.17118534525E+03 -0.74469162285E+03  0.77463255957E+03  0.50400001928E-02 0.  1.
       -1    1    3    3    0  502  0.12722250880E+03 -0.17118534525E+03 -0.19205299225E+03  0.28700930479E+03  0.50400001928E-02 0. -1.
</event>
<event>
 5   0  0.1941387E-02  0.5003549E+03  0.7818609E-02  0.1013686E+00
       -2   -1    0    0    0  501  0.00000000000E+00  0.00000000000E+00  0.31135260734E+03  0.31135260735E+03  0.25500000920E-02 0. -1.
        2   -1    0    0  501    0  0.00000000000E+00  0.00000000000E+00 -0.20102208485E+03  0.20102208487E+03  0.25500000920E-02 0.  1.
    10030    2    1    2    0    0  0.00000000000E+00  0.00000000000E+00  0.11033052248E+03  0.51237469222E+03  0.50035487510E+03 0.  0.
        4    1    3    3  502    0 -0.71785523000E+01 -0.14141102816E+03  0.26636858952E+03  0.30166612153E+03  0.12699999809E+01 0. -1.
       -4    1    3    3    0  502  0.71785523000E+01  0.14141102816E+03 -0.15603806703E+03  0.21070857069E+03  0.12699999809E+01 0.  1.
</event>
<event>
 5   0  0.1982847E-02  0.4998260E+03  0.7818609E-02  0.1013824E+00
        2   -1    0    0  501    0  0.00000000000E+00  0.00000000000E+00  0.16607785580E+04  0.16607785580E+04  0.25500000920E-02 0.  1.
       -2   -1    0    0    0  501  0.00000000000E+00  0.00000000000E+00 -0.37606760294E+02  0.37606760380E+02  0.25500000920E-02 0. -1.
    10030    2    1    2    0    0  0.00000000000E+00  0.00000000000E+00  0.16231717977E+04  0.16983853184E+04  0.49982597454E+03 0.  0.
        2    1    3    3  502    0  0.23607929841E+02 -0.11515073137E+03  0.15609827240E+04  0.15654022135E+04  0.25500000920E-02 0.  1.
       -2    1    3    3    0  502 -0.23607929841E+02  0.11515073137E+03  0.62189073627E+02  0.13298310484E+03  0.25500000920E-02 0. -1.
</event>
<event>
 5   0  0.1227864E-02  0.5018379E+03  0.7818609E-02  0.1013300E+00
       -1   -1    0    0    0  501  0.00000000000E+00  0.00000000000E+00  0.61705859269E+02  0.61705859475E+02  0.50400001928E-02 0.  1.
        1   -1    0    0  501    0  0.00000000000E+00  0.00000000000E+00 -0.10203297066E+04  0.10203297066E+04  0.50400001928E-02 0. -1.
    10030    2    1    2    0    0  0.00000000000E+00  0.00000000000E+00 -0.95862384735E+03  0.10820355661E+04  0.50183790771E+03 0.  0.
        5    1    3    3  502    0 -0.28901986954E+02  0.15755318791E+03 -0.63003269635E+02  0.17219127113E+03  0.46999998093E+01 0.  1.
       -5    1    3    3    0  502  0.28901986954E+02 -0.15755318791E+03 -0.89562057771E+03  0.90984429497E+03  0.46999998093E+01 0. -1.
</event>
<event>
 5   0  0.1225989E-02  0.4908856E+03  0.7818609E-02  0.1016186E+00
       -1   -1    0    0    0  501  0.00000000000E+00  0.00000000000E+00  0.39247050173E+03  0.39247050176E+03  0.50400001928E-02 0. -1.
        1   -1    0    0  501    0  0.00000000000E+00  0.00000000000E+00 -0.15349474271E+03  0.15349474279E+03  0.50400001928E-02 0.  1.
    10030    2    1    2    0    0  0.00000000000E+00  0.00000000000E+00  0.23897575902E+03  0.54596524455E+03  0.49088556188E+03 0.  0.
        3    1    3    3  502    0 -0.21181151123E+02  0.11828878656E+03 -0.11853762816E+03  0.16879590540E+03  0.10100000352E+00 0.  1.
       -3    1    3    3    0  502  0.21181151123E+02 -0.11828878656E+03  0.35751338717E+03  0.37716933915E+03  0.10100000352E+00 0. -1.
</event>
<event>
 5   0  0.1855407E-02  0.5012406E+03  0.7818609E-02  0.1013456E+00
        2   -1    0    0  501    0  0.00000000000E+00  0.00000000000E+00  0.11806541933E+04  0.11806541933E+04  0.25500000920E-02 0.  1.
       -2   -1    0    0    0  501  0.00000000000E+00  0.00000000000E+00 -0.53199765940E+02  0.53199766001E+02  0.25500000920E-02 0. -1.
    10030    2    1    2    0    0  0.00000000000E+00  0.00000000000E+00  0.11274544273E+04  0.12338539593E+04  0.50124056810E+03 0.  0.
        1    1    3    3  502    0 -0.54586539586E+02  0.14695668167E+03  0.82394198377E+02  0.17710098968E+03  0.50400001928E-02 0. -1.
       -1    1    3    3    0  502  0.54586539586E+02 -0.14695668167E+03  0.10450602290E+04  0.10567529696E+04  0.50400001928E-02 0.  1.
</event>
<event>
 5   0  0.8012875E-03  0.4999063E+03  0.7818609E-02  0.1013803E+00
        3   -1    0    0  501    0  0.00000000000E+00  0.00000000000E+00  0.14325359884E+04  0.14325359919E+04  0.10100000352E+00 0. -1.
       -3   -1    0    0    0  501  0.00000000000E+00  0.00000000000E+00 -0.43612508703E+02  0.43612625653E+02  0.10100000352E+00 0.  1.
    10030    2    1    2    0    0  0.00000000000E+00  0.00000000000E+00  0.13889234797E+04  0.14761486176E+04  0.49990630004E+03 0.  0.
        3    1    3    3  502    0 -0.13683435061E+02  0.22124860429E+03  0.10354921522E+04  0.10589533459E+04  0.10100000352E+00 0. -1.
       -3    1    3    3    0  502  0.13683435061E+02 -0.22124860429E+03  0.35343132749E+03  0.41719527172E+03  0.10100000352E+00 0.  1.
</event>
<event>
 5   0  0.1209831E-02  0.4986019E+03  0.7818609E-02  0.1014144E+00
        1   -1    0    0  501    0  0.00000000000E+00  0.00000000000E+00  0.61380617515E+03  0.61380617517E+03  0.50400001928E-02 0. -1.
       -1   -1    0    0    0  501  0.00000000000E+00  0.00000000000E+00 -0.10125503931E+03  0.10125503943E+03  0.50400001928E-02 0.  1.
    10030    2    1    2    0    0  0.00000000000E+00  0.00000000000E+00  0.51255113584E+03  0.71506121460E+03  0.49860191915E+03 0.  0.
        4    1    3    3  502    0 -0.22784662075E+03  0.38851856725E+02  0.12231034915E+03  0.26150522704E+03  0.12699999809E+01 0. -1.
       -4    1    3    3    0  502  0.22784662075E+03 -0.38851856725E+02  0.39024078669E+03  0.45355598757E+03  0.12699999809E+01 0.  1.
</event>
<event>
 5   0  0.1180937E-02  0.4997718E+03  0.7818609E-02  0.1013839E+00
       -1   -1    0    0    0  501  0.00000000000E+00  0.00000000000E+00  0.60594667552E+02  0.60594667762E+02  0.50400001928E-02 0. -1.
        1   -1    0    0  501    0  0.00000000000E+00  0.00000000000E+00 -0.10305025376E+04  0.10305025376E+04  0.50400001928E-02 0.  1.
    10030    2    1    2    0    0  0.00000000000E+00  0.00000000000E+00 -0.96990787008E+03  0.10910972054E+04  0.49977178312E+03 0.  0.
        1    1    3    3  502    0  0.22861101649E+02  0.24190825407E+03 -0.61226832546E+03  0.65872204741E+03  0.50400001928E-02 0.  1.
       -1    1    3    3    0  502 -0.22861101649E+02 -0.24190825407E+03 -0.35763954462E+03  0.43237515800E+03  0.50400001928E-02 0. -1.
</event>
<event>
 5   0  0.1209831E-02  0.4966006E+03  0.7818609E-02  0.1014670E+00
        1   -1    0    0  501    0  0.00000000000E+00  0.00000000000E+00  0.39278551305E+02  0.39278551629E+02  0.50400001928E-02 0. -1.
       -1   -1    0    0    0  501  0.00000000000E+00  0.00000000000E+00 -0.15696361919E+04  0.15696361920E+04  0.50400001928E-02 0.  1.
    10030    2    1    2    0    0  0.00000000000E+00  0.00000000000E+00 -0.15303576406E+04  0.16089147436E+04  0.49660058785E+03 0.  0.
        4    1    3    3  502    0  0.20944809925E+03 -0.11792434297E+03 -0.56345341221E+03  0.61258143750E+03  0.12699999809E+01 0. -1.
       -4    1    3    3    0  502 -0.20944809925E+03  0.11792434297E+03 -0.96690422843E+03  0.99633330608E+03  0.12699999809E+01 0.  1.
</event>
<event>
 5   0  0.1227864E-02  0.4995990E+03  0.7818609E-02  0.1013884E+00
       -1   -1    0    0    0  501  0.00000000000E+00  0.00000000000E+00  0.38864308962E+03  0.38864308965E+03  0.50400001928E-02 0.  1.
        1   -1    0    0  501    0  0.00000000000E+00  0.00000000000E+00 -0.16055805826E+03  0.16055805834E+03  0.50400001928E-02 0. -1.
    10030    2    1    2    0    0  0.00000000000E+00  0.00000000000E+00  0.22808503136E+03  0.54920114799E+03  0.49959895859E+03 0.  0.
        5    1    3    3  502    0 -0.22919804890E+03  0.62426731887E+02  0.29256090299E+02  0.23938849448E+03  0.46999998093E+01 0. -1.
       -5    1    3    3    0  502  0.22919804890E+03 -0.62426731887E+02  0.19882894106E+03  0.30981265351E+03  0.46999998093E+01 0.  1.
</event>
<event>
 5   0  0.1227864E-02  0.4997751E+03  0.7818609E-02  0.1013838E+00
       -1   -1    0    0    0  501  0.00000000000E+00  0.00000000000E+00  0.94783416610E+02  0.94783416744E+02  0.50400001928E-02 0.  1.
        1   -1    0    0  501    0  0.00000000000E+00  0.00000000000E+00 -0.65880492993E+03  0.65880492995E+03  0.50400001928E-02 0. -1.
    10030    2    1    2    0    0  0.00000000000E+00  0.00000000000E+00 -0.56402151332E+03  0.75358834670E+03  0.49977507820E+03 0.  0.
        5    1    3    3  502    0 -0.10988246175E+03 -0.22371138921E+03 -0.25586126711E+03  0.35722264636E+03  0.46999998093E+01 0.  1.
       -5    1    3    3    0  502  0.10988246175E+03  0.22371138921E+03 -0.30816024621E+03  0.39636570034E+03  0.46999998093E+01 0. -1.
</event>
<event>
 5   0  0.1225989E-02  0.5017692E+03  0.7818609E-02  0.1013318E+00
       -1   -1    0    0    0  501  0.00000000000E+00  0.00000000000E+00  0.36273508523E+03  0.36273508526E+03  0.50400001928E-02 0. -1.
        1   -1    0    0  501    0  0.00000000000E+00  0.00000000000E+00 -0.17352355039E+03  0.17352355047E+03  0.50400001928E-02 0.  1.
    10030    2    1    2    0    0  0.00000000000E+00  0.00000000000E+00  0.18921153483E+03  0.53625863573E+03  0.50176918945E+03 0.  0.
        3    1    3    3  502    0  0.24060224608E+03  0.58638492800E+02  0.13755718950E+03  0.28328414047E+03  0.10100000352E+00 0. -1.
       -3    1    3    3    0  502 -0.24060224608E+03 -0.58638492800E+02  0.51654345333E+02  0.25297449526E+03  0.10100000352E+00 0.  1.
</event>
<event>
 5   0  0.1941387E-02  0.4998173E+03  0.7818609E-02  0.1013827E+00
       -2   -1    0    0    0  501  0.00000000000E+00  0.00000000000E+00  0.24237278359E+03  0.24237278361E+03  0.25500000920E-02 0.  1.
        2   -1    0    0  501    0  0.00000000000E+00  0.00000000000E+00 -0.25767878157E+03  0.25767878158E+03  0.25500000920E-02 0. -1.
    10030    2    1    2    0    0  0.00000000000E+00  0.00000000000E+00 -0.15305997974E+02  0.50005156519E+03  0.49981726088E+03 0.  0.
        4    1    3    3  502    0 -0.24022150445E+03  0.45606399021E+02  0.44008363066E+02  0.24844448827E+03  0.12699999809E+01 0. -1.
       -4    1    3    3    0  502  0.24022150445E+03 -0.45606399021E+02 -0.59314361040E+02  0.25160707692E+03  0.12699999809E+01 0.  1.
</event>
<event>
 5   0  0.1855407E-02  0.5000321E+03  0.7818609E-02  0.1013771E+00
       -2   -1    0    0    0  501  0.00000000000E+00  0.00000000000E+00  0.90746392164E+02  0.90746392200E+02  0.25500000920E-02 0. -1.
        2   -1    0    0  501    0  0.00000000000E+00  0.00000000000E+00 -0.68882106790E+03  0.68882106790E+03  0.25500000920E-02 0.  1.
    10030    2    1    2    0    0  0.00000000000E+00  0.00000000000E+00 -0.59807467573E+03  0.77956746010E+03  0.50003210606E+03 0.  0.
        1    1    3    3  502    0 -0.20222139509E+03 -0.92539141162E+02 -0.47714327520E+03  0.52642443938E+03  0.50400001928E-02 0.  1.
       -1    1    3    3    0  502  0.20222139509E+03  0.92539141162E+02 -0.12093140054E+03  0.25314302072E+03  0.50400001928E-02 0. -1.
</event>
<event>
 5   0  0.1209831E-02  0.4998869E+03  0.7818609E-02  0.1013808E+00
        1   -1    0    0  501    0  0.00000000000E+00  0.00000000000E+00  0.90393679975E+03  0.90393679977E+03  0.50400001928E-02 0. -1.
       -1   -1    0    0    0  501  0.00000000000E+00  0.00000000000E+00 -0.69110731839E+02  0.69110732022E+02  0.50400001928E-02 0.  1.
    10030    2    1    2    0    0  0.00000000000E+00  0.00000000000E+00  0.83482606791E+03  0.97304753179E+03  0.49988692267E+03 0.  0.
        4    1    3    3  502    0  0.96943814509E+02  0.13484696228E+03  0.53831117482E+02  0.17458868382E+03  0.12699999809E+01 0.  1.
       -4    1    3    3    0  502 -0.96943814509E+02 -0.13484696228E+03  0.78099495043E+03  0.79845884797E+03  0.12699999809E+01 0. -1.
</event>
<event>
 5   0  0.1967813E-02  0.5011352E+03  0.7818609E-02  0.1013483E+00
        2   -1    0    0  501    0  0.00000000000E+00  0.00000000000E+00  0.18430848761E+04  0.18430848761E+04  0.25500000920E-02 0.  1.
       -2   -1    0    0    0  501  0.00000000000E+00  0.00000000000E+00 -0.34064687986E+02  0.34064688081E+02  0.25500000920E-02 0. -1.
    10030    2    1    2    0    0  0.00000000000E+00  0.00000000000E+00  0.18090201881E+04  0.18771495642E+04  0.50113515673E+03 0.  0.
        5    1    3    3  502    0 -0.18726120903E+03  0.13822965105E+03  0.12516348487E+04  0.12731009705E+04  0.46999998093E+01 0. -1.
       -5    1    3    3    0  502  0.18726120903E+03 -0.13822965105E+03  0.55738533948E+03  0.60404859366E+03  0.46999998093E+01 0.  1.
</event>
<event>
 5   0  0.1217270E-02  0.5010723E+03  0.7818609E-02  0.1013499E+00
       -1   -1    0    0    0  501  0.00000000000E+00  0.00000000000E+00  0.17226471217E+03  0.17226471224E+03  0.50400001928E-02 0.  1.
        1   -1    0    0  501    0  0.00000000000E+00  0.00000000000E+00 -0.36437153958E+03  0.36437153962E+03  0.50400001928E-02 0. -1.
    10030    2    1    2    0    0  0.00000000000E+00  0.00000000000E+00 -0.19210682741E+03  0.53663625186E+03  0.50107228388E+03 0.  0.
        2    1    3    3  502    0 -0.18145963974E+03  0.63849417522E+02 -0.26795755979E+03  0.32985694298E+03  0.25500000920E-02 0. -1.
       -2    1    3    3    0  502  0.18145963974E+03 -0.63849417522E+02  0.75850732382E+02  0.20677930888E+03  0.25500000920E-02 0.  1.
</event>
<event>
 5   0  0.1209831E-02  0.5004780E+03  0.7818609E-02  0.1013654E+00
        1   -1    0    0  501    0  0.00000000000E+00  0.00000000000E+00  0.15811317245E+04  0.15811317245E+04  0.50400001928E-02 0. -1.
       -1   -1    0    0    0  501  0.00000000000E+00  0.00000000000E+00 -0.39604263511E+02  0.39604263832E+02  0.50400001928E-02 0.  1.
    10030    2    1    2    0    0  0.00000000000E+00  0.00000000000E+00  0.15415274610E+04  0.16207359884E+04  0.50047800243E+03 0.  0.
        4    1    3    3  502    0 -0.22122015377E+03  0.91466703297E+02  0.10068195913E+04  0.10348873449E+04  0.12699999809E+01 0.  1.
       -4    1    3    3    0  502  0.22122015377E+03 -0.91466703297E+02  0.53470786967E+03  0.58584864345E+03  0.12699999809E+01 0. -1.
</event>
<event>
 5   0  0.1180937E-02  0.4999877E+03  0.7818609E-02  0.1013782E+00
       -1   -1    0    0    0  501  0.00000000000E+00  0.00000000000E+00  0.79097710440E+02  0.79097710601E+02  0.50400001928E-02 0.  1.
        1   -1    0    0  501    0  0.00000000000E+00  0.00000000000E+00 -0.79012299696E+03  0.79012299697E+03  0.50400001928E-02 0. -1.
    10030    2    1    2    0    0  0.00000000000E+00  0.00000000000E+00 -0.71102528652E+03  0.86922070757E+03  0.49998768026E+03 0.  0.
        1    1    3    3  502    0  0.73754648742E+01  0.75850048126E+02  0.58411997175E+02  0.96018689442E+02  0.50400001928E-02 0.  1.
       -1    1    3    3    0  502 -0.73754648742E+01 -0.75850048126E+02 -0.76943728369E+03  0.77320201813E+03  0.50400001928E-02 0. -1.
</event>
<event>
 5   0  0.1225989E-02  0.4968602E+03  0.7818609E-02  0.1014602E+00
       -1   -1    0    0    0  501  0.00000000000E+00  0.00000000000E+00  0.24836754572E+03  0.24836754577E+03  0.50400001928E-02 0.  1.
        1   -1    0    0  501    0  0.00000000000E+00  0.00000000000E+00 -0.24849266876E+03  0.24849266881E+03  0.50400001928E-02 0. -1.
    10030    2    1    2    0    0  0.00000000000E+00  0.00000000000E+00 -0.12512303846E+00  0.49686021458E+03  0.49686019883E+03 0.  0.
        3    1    3    3  502    0 -0.18329053988E+03  0.16765715736E+03  0.35650645022E+01  0.24842919376E+03  0.10100000352E+00 0.  1.
       -3    1    3    3    0  502  0.18329053988E+03 -0.16765715736E+03 -0.36901875407E+01  0.24843102083E+03  0.10100000352E+00 0. -1.
</event>
<event>
 5   0  0.8012875E-03  0.4985495E+03  0.7818609E-02  0.1014158E+00
       -3   -1    0    0    0  501  0.00000000000E+00  0.00000000000E+00  0.22079389216E+03  0.22079391526E+03  0.10100000352E+00 0. -1.
        3   -1    0    0  501    0  0.00000000000E+00  0.00000000000E+00 -0.28142939125E+03  0.28142940937E+03  0.10100000352E+00 0.  1.
    10030    2    1    2    0    0  0.00000000000E+00  0.00000000000E+00 -0.60635499086E+02  0.50222332463E+03  0.49854950010E+03 0.  0.
        3    1    3    3  502    0 -0.19541199968E+03  0.12902626450E+03  0.55777032742E+02  0.24071708318E+03  0.10100000352E+00 0. -1.
       -3    1    3    3    0  502  0.19541199968E+03 -0.12902626450E+03 -0.11641253183E+03  0.26150624145E+03  0.10100000352E+00 0.  1.
</event>
<event>
 5   0  0.1967813E-02  0.5003416E+03  0.7818609E-02  0.1013690E+00
       -2   -1    0    0    0  501  0.00000000000E+00  0.00000000000E+00  0.44122649441E+03  0.44122649442E+03  0.25500000920E-02 0. -1.
        2   -1    0    0  501    0  0.00000000000E+00  0.00000000000E+00 -0.14184423905E+03  0.14184423907E+03  0.25500000920E-02 0.  1.
    10030    2    1    2    0    0  0.00000000000E+00  0.00000000000E+00  0.29938225536E+03  0.58307073349E+03  0.50034162872E+03 0.  0.
        5    1    3    3  502    0  0.11110894109E+03  0.16140397575E+03 -0.31470049139E+02  0.19851673524E+03  0.46999998093E+01 0.  1.
       -5    1    3    3    0  502 -0.11110894109E+03 -0.16140397575E+03  0.33085230450E+03  0.38455399825E+03  0.46999998093E+01 0. -1.
</event>
<event>
 5   0  0.1855407E-02  0.4990696E+03  0.7818609E-02  0.1014022E+00
        2   -1    0    0  501    0  0.00000000000E+00  0.00000000000E+00  0.13506555737E+04  0.13506555737E+04  0.25500000920E-02 0. -1.
       -2   -1    0    0    0  501  0.00000000000E+00  0.00000000000E+00 -0.46101763770E+02  0.46101763840E+02  0.25500000920E-02 0.  1.
    10030    2    1    2    0    0  0.00000000000E+00  0.00000000000E+00  0.13045538100E+04  0.13967573376E+04  0.49906955125E+03 0.  0.
        1    1    3    3  502    0  0.12718652757E+03  0.37490036350E+02  0.12438986321E+04  0.12509459311E+04  0.50400001928E-02 0. -1.
       -1    1    3    3    0  502 -0.12718652757E+03 -0.37490036350E+02  0.60655177839E+02  0.14581140643E+03  0.50400001928E-02 0.  1.
</event>
<event>
 5   0  0.1209831E-02  0.5014117E+03  0.7818609E-02  0.1013411E+00
        1   -1    0    0  501    0  0.00000000000E+00  0.00000000000E+00  0.17403001436E+03  0.17403001443E+03  0.50400001928E-02 0.  1.
       -1   -1    0    0    0  501  0.00000000000E+00  0.00000000000E+00 -0.36116426083E+03  0.36116426087E+03  0.50400001928E-02 0. -1.
    10030    2    1    2    0    0  0.00000000000E+00  0.00000000000E+00 -0.18713424647E+03  0.53519427530E+03  0.50141169323E+03 0.  0.
        4    1    3    3  502    0  0.74911880780E+02 -0.34348874903E+00 -0.34893510118E+03  0.35688825366E+03  0.12699999809E+01 0. -1.
       -4    1    3    3    0  502 -0.74911880780E+02  0.34348874903E+00  0.16180085471E+03  0.17830602164E+03  0.12699999809E+01 0.  1.
</event>
<event>
 5   0  0.1225989E-02  0.4989508E+03  0.7818609E-02  0.1014053E+00
        1   -1    0    0  501    0  0.00000000000E+00  0.00000000000E+00  0.66611815698E+03  0.66611815700E+03  0.50400001928E-02 0. -1.
       -1   -1    0    0    0  501  0.00000000000E+00  0.00000000000E+00 -0.93433835422E+02  0.93433835558E+02  0.50400001928E-02 0.  1.
    10030    2    1    2    0    0  0.00000000000E+00  0.00000000000E+00  0.57268432156E+03  0.75955199256E+03  0.49895079641E+03 0.  0.
        3    1    3    3  502    0 -0.15579988133E+03  0.12259090934E+03  0.51688785630E+03  0.55360202336E+03  0.10100000352E+00 0.  1.
       -3    1    3    3    0  502  0.15579988133E+03 -0.12259090934E+03  0.55796465257E+02  0.20594996920E+03  0.10100000352E+00 0. -1.
</event>
<event>
 5   0  0.1967813E-02  0.5000986E+03  0.7818609E-02  0.1013753E+00
        2   -1    0    0  501    0  0.00000000000E+00  0.00000000000E+00  0.62445183365E+03  0.62445183366E+03  0.25500000920E-02 0. -1.
       -2   -1    0    0    0  501  0.00000000000E+00  0.00000000000E+00 -0.10012727999E+03  0.10012728002E+03  0.25500000920E-02 0.  1.
    10030    2    1    2    0    0  0.00000000000E+00  0.00000000000E+00  0.52432455366E+03  0.72457911368E+03  0.50009864468E+03 0.  0.
        5    1    3    3  502    0  0.76164995443E+02 -0.18059625785E+03  0.48702455697E+03  0.52500583232E+03  0.46999998093E+01 0. -1.
       -5    1    3    3    0  502 -0.76164995443E+02  0.18059625785E+03  0.37299996692E+02  0.19957328136E+03  0.46999998093E+01 0.  1.
</event>
<event>
 5   0  0.1225989E-02  0.5001777E+03  0.7818609E-02  0.1013733E+00
       -1   -1    0    0    0  501  0.00000000000E+00  0.00000000000E+00  0.10395339667E+03  0.10395339680E+03  0.50400001928E-02 0. -1.
        1   -1    0    0  501    0  0.00000000000E+00  0.00000000000E+00 -0.60165834310E+03  0.60165834312E+03  0.50400001928E-02 0.  1.
    10030    2    1    2    0    0  0.00000000000E+00  0.00000000000E+00 -0.49770494643E+03  0.70561173992E+03  0.50017768224E+03 0.  0.
        3    1    3    3  502    0  0.49132417288E+02 -0.12923278324E+03  0.45137799214E+02  0.14543912064E+03  0.10100000352E+00 0. -1.
       -3    1    3    3    0  502 -0.49132417288E+02  0.12923278324E+03 -0.54284274564E+03  0.56017261928E+03  0.10100000352E+00 0.  1.
</event>
<event>
 5   0  0.1180937E-02  0.5002446E+03  0.7818609E-02  0.1013715E+00
       -1   -1    0    0    0  501  0.00000000000E+00  0.00000000000E+00  0.66582715960E+02  0.66582716150E+02  0.50400001928E-02 0.  1.
        1   -1    0    0  501    0  0.00000000000E+00  0.00000000000E+00 -0.93960051441E+03  0.93960051443E+03  0.50400001928E-02 0. -1.
    10030    2    1    2    0    0  0.00000000000E+00  0.00000000000E+00 -0.87301779845E+03  0.10061832306E+04  0.50024455727E+03 0.  0.
        1    1    3    3  502    0  0.10875626077E+03  0.11923284444E+02 -0.88891829397E+03  0.89562593886E+03  0.50400001928E-02 0. -1.
       -1    1    3    3    0  502 -0.10875626077E+03 -0.11923284444E+02  0.15900495521E+02  0.11055729172E+03  0.50400001928E-02 0.  1.
</event>
<event>
 5   0  0.1941387E-02  0.4987030E+03  0.7818609E-02  0.1014118E+00
        2   -1    0    0  501    0  0.00000000000E+00  0.00000000000E+00  0.11287547260E+04  0.11287547260E+04  0.25500000920E-02 0.  1.
       -2   -1    0    0    0  501  0.00000000000E+00  0.00000000000E+00 -0.55083873481E+02  0.55083873540E+02  0.25500000920E-02 0. -1.
    10030    2    1    2    0    0  0.00000000000E+00  0.00000000000E+00  0.10736708526E+04  0.11838385996E+04  0.49870304814E+03 0.  0.
        4    1    3    3  502    0  0.12419309892E+03  0.33476027756E+02  0.10439145196E+04  0.10518097296E+04  0.12699999809E+01 0.  1.
       -4    1    3    3    0  502 -0.12419309892E+03 -0.33476027756E+02  0.29756333000E+02  0.13202886997E+03  0.12699999809E+01 0. -1.
</event>
<event>
 5   0  0.1982847E-02  0.4996447E+03  0.7818609E-02  0.1013872E+00
        2   -1    0    0  501    0  0.00000000000E+00  0.00000000000E+00  0.96607540389E+03  0.96607540389E+03  0.25500000920E-02 0.  1.
       -2   -1    0    0    0  501  0.00000000000E+00  0.00000000000E+00 -0.64602819689E+02  0.64602819739E+02  0.25500000920E-02 0. -1.
    10030    2    1    2    0    0  0.00000000000E+00  0.00000000000E+00  0.90147258420E+03  0.10306782236E+04  0.49964465433E+03 0.  0.
        2    1    3    3  502    0  0.39419435943E+02  0.17059968986E+03  0.81831857616E+03  0.83684134590E+03  0.25500000920E-02 0.  1.
       -2    1    3    3    0  502 -0.39419435943E+02 -0.17059968986E+03  0.83154008041E+02  0.19383687773E+03  0.25500000920E-02 0. -1.
</event>
<event>
 5   0  0.8012875E-03  0.4986790E+03  0.7818609E-02  0.1014124E+00
        4   -1    0    0  501    0  0.00000000000E+00  0.00000000000E+00  0.76864324399E+02  0.76874815546E+02  0.12699999809E+01 0. -1.
       -4   -1    0    0    0  501  0.00000000000E+00  0.00000000000E+00 -0.80876415698E+03  0.80876515411E+03  0.12699999809E+01 0.  1.
    10030    2    1    2    0    0  0.00000000000E+00  0.00000000000E+00 -0.73189983258E+03  0.88563996966E+03  0.49867904601E+03 0.  0.
        5    1    3    3  502    0  0.27854313184E+02 -0.65117676722E+02  0.58547985617E+02  0.92011581894E+02  0.46999998093E+01 0. -1.
       -5    1    3    3    0  502 -0.27854313184E+02  0.65117676722E+02 -0.79044781819E+03  0.79362838777E+03  0.46999998093E+01 0.  1.
</event>
<event>
 5   0  0.1982847E-02  0.4994379E+03  0.7818609E-02  0.1013926E+00
       -2   -1    0    0    0  501  0.00000000000E+00  0.00000000000E+00  0.64054527542E+02  0.64054527592E+02  0.25500000920E-02 0. -1.
        2   -1    0    0  501    0  0.00000000000E+00  0.00000000000E+00 -0.97353856465E+03  0.97353856465E+03  0.25500000920E-02 0.  1.
    10030    2    1    2    0    0  0.00000000000E+00  0.00000000000E+00 -0.90948403711E+03  0.10375930922E+04  0.49943789536E+03 0.  0.
        2    1    3    3  502    0 -0.83786069161E+02 -0.21825017063E+03 -0.63711849911E+03  0.67865545329E+03  0.25500000920E-02 0.  1.
       -2    1    3    3    0  502  0.83786069161E+02  0.21825017063E+03 -0.27236553800E+03  0.35893763896E+03  0.25500000920E-02 0. -1.
</event>
<event>
 5   0  0.1217270E-02  0.5002807E+03  0.7818609E-02  0.1013706E+00
       -1   -1    0    0    0  501  0.00000000000E+00  0.00000000000E+00  0.26060419821E+03  0.26060419826E+03  0.50400001928E-02 0. -1.
        1   -1    0    0  501    0  0.00000000000E+00  0.00000000000E+00 -0.24009663898E+03  0.24009663903E+03  0.50400001928E-02 0.  1.
    10030    2    1    2    0    0  0.00000000000E+00  0.00000000000E+00  0.20507559236E+02  0.50070083729E+03  0.50028068969E+03 0.  0.
        2    1    3    3  502    0  0.14304337089E+03 -0.13296134834E+03 -0.14617868868E+03  0.24394330312E+03  0.25500000920E-02 0.  1.
       -2    1    3    3    0  502 -0.14304337089E+03  0.13296134834E+03  0.16668624791E+03  0.25675753417E+03  0.25500000920E-02 0. -1.
</event>
<event>
 5   0  0.1227864E-02  0.4995345E+03  0.7818609E-02  0.1013900E+00
       -1   -1    0    0    0  501  0.00000000000E+00  0.00000000000E+00  0.58163990233E+02  0.58163990451E+02  0.50400001928E-02 0.  1.
        1   -1    0    0  501    0  0.00000000000E+00  0.00000000000E+00 -0.10725479719E+04  0.10725479719E+04  0.50400001928E-02 0. -1.
    10030    2    1    2    0    0  0.00000000000E+00  0.00000000000E+00 -0.10143839816E+04  0.11307119623E+04  0.49953446283E+03 0.  0.
        5    1    3    3  502    0 -0.20715105873E+03  0.46438043491E+00 -0.82286985963E+03  0.84855681759E+03  0.46999998093E+01 0. -1.
       -5    1    3    3    0  502  0.20715105873E+03 -0.46438043491E+00 -0.19151412200E+03  0.28215514474E+03  0.46999998093E+01 0.  1.
</event>
<event>
 5   0  0.1180937E-02  0.5005894E+03  0.7818609E-02  0.1013625E+00
       -1   -1    0    0    0  501  0.00000000000E+00  0.00000000000E+00  0.58287487545E+02  0.58287487763E+02  0.50400001928E-02 0.  1.
        1   -1    0    0  501    0  0.00000000000E+00  0.00000000000E+00 -0.10748007624E+04  0.10748007624E+04  0.50400001928E-02 0. -1.
    10030    2    1    2    0    0  0.00000000000E+00  0.00000000000E+00 -0.10165132748E+04  0.11330882502E+04  0.50058939733E+03 0.  0.
        1    1    3    3  502    0 -0.77648554360E+01  0.10339988827E+03  0.73842940008E+01  0.10395363244E+03  0.50400001928E-02 0.  1.
       -1    1    3    3    0  502  0.77648554360E+01 -0.10339988827E+03 -0.10238975688E+04  0.10291346177E+04  0.50400001928E-02 0. -1.
</event>
<event>
 5   0  0.1982847E-02  0.4990380E+03  0.7818609E-02  0.1014030E+00
        2   -1    0    0  501    0  0.00000000000E+00  0.00000000000E+00  0.23283787301E+04  0.23283787301E+04  0.25500000920E-02 0. -1.
       -2   -1    0    0    0  501  0.00000000000E+00  0.00000000000E+00 -0.26739515771E+02  0.26739515892E+02  0.25500000920E-02 0.  1.
    10030    2    1    2    0    0  0.00000000000E+00  0.00000000000E+00  0.23016392143E+04  0.23551182460E+04  0.49903795414E+03 0.  0.
        2    1    3    3  502    0  0.15741698320E+03 -0.14353793915E+03  0.17639036165E+04  0.17767214793E+04  0.25500000920E-02 0. -1.
       -2    1    3    3    0  502 -0.15741698320E+03  0.14353793915E+03  0.53773559777E+03  0.57839676667E+03  0.25500000920E-02 0.  1.
</event>
<event>
 5   0  0.1941387E-02  0.5000492E+03  0.7818609E-02  0.1013766E+00
       -2   -1    0    0    0  501  0.00000000000E+00  0.00000000000E+00  0.70499559283E+03  0.70499559283E+03  0.25500000920E-02 0. -1.
        2   -1    0    0  501    0  0.00000000000E+00  0.00000000000E+00 -0.88670494271E+02  0.88670494307E+02  0.25500000920E-02 0.  1.
    10030    2    1    2    0    0  0.00000000000E+00  0.00000000000E+00  0.61632509856E+03  0.79366608714E+03  0.50004922834E+03 0.  0.
        4    1    3    3  502    0 -0.14080653670E+03 -0.13614263245E+03  0.55481089868E+03  0.58836896871E+03  0.12699999809E+01 0.  1.
       -4    1    3    3    0  502  0.14080653670E+03  0.13614263245E+03  0.61514199881E+02  0.20529711843E+03  0.12699999809E+01 0. -1.
</event>
<event>
 5   0  0.1855407E-02  0.5005134E+03  0.7818609E-02  0.1013645E+00
        2   -1    0    0  501    0  0.00000000000E+00  0.00000000000E+00  0.47124166341E+03  0.47124166342E+03  0.25500000920E-02 0.  1.
       -2   -1    0    0    0  501  0.00000000000E+00  0.00000000000E+00 -0.13290084232E+03  0.13290084235E+03  0.25500000920E-02 0. -1.
    10030    2    1    2    0    0  0.00000000000E+00  0.00000000000E+00  0.33834082109E+03  0.60414250577E+03  0.50051339249E+03 0.  0.
        1    1    3    3  502    0 -0.39581902200E+02 -0.18786609879E+03 -0.24589613682E+02  0.19355889849E+03  0.50400001928E-02 0. -1.
       -1    1    3    3    0  502  0.39581902200E+02  0.18786609879E+03  0.36293043477E+03  0.41058360728E+03  0.50400001928E-02 0.  1.
</event>
<event>
 5   0  0.1855407E-02  0.5005094E+03  0.7818609E-02  0.1013646E+00
       -2   -1    0    0    0  501  0.00000000000E+00  0.00000000000E+00  0.22347307518E+03  0.22347307519E+03  0.25500000920E-02 0. -1.
        2   -1    0    0  501    0  0.00000000000E+00  0.00000000000E+00 -0.28024592909E+03  0.28024592911E+03  0.25500000920E-02 0.  1.
    10030    2    1    2    0    0  0.00000000000E+00  0.00000000000E+00 -0.56772853916E+02  0.50371900430E+03  0.50050941884E+03 0.  0.
        1    1    3    3  502    0 -0.24903947432E+02  0.54297781018E+02 -0.27296533040E+03  0.27942535183E+03  0.50400001928E-02 0.  1.
       -1    1    3    3    0  502  0.24903947432E+02 -0.54297781018E+02  0.21619247648E+03  0.22429365246E+03  0.50400001928E-02 0. -1.
</event>
<event>
 5   0  0.8012875E-03  0.4993207E+03  0.7818609E-02  0.1013956E+00
        4   -1    0    0  501    0  0.00000000000E+00  0.00000000000E+00  0.52467740628E+03  0.52467894332E+03  0.12699999809E+01 0. -1.
       -4   -1    0    0    0  501  0.00000000000E+00  0.00000000000E+00 -0.11879223294E+03  0.11879902149E+03  0.12699999809E+01 0.  1.
    10030    2    1    2    0    0  0.00000000000E+00  0.00000000000E+00  0.40588517334E+03  0.64347796480E+03  0.49932065574E+03 0.  0.
        1    1    3    3  502    0  0.19044697597E+03  0.13139552854E+03  0.32380270749E+03  0.39797365363E+03  0.50400001928E-02 0. -1.
       -1    1    3    3    0  502 -0.19044697597E+03 -0.13139552854E+03  0.82082465850E+02  0.24550431117E+03  0.50400001928E-02 0.  1.
</event>
<event>
 5   0  0.1967813E-02  0.4957443E+03  0.7818609E-02  0.1014896E+00
       -2   -1    0    0    0  501  0.00000000000E+00  0.00000000000E+00  0.58242039019E+02  0.58242039075E+02  0.25500000920E-02 0.  1.
        2   -1    0    0  501    0  0.00000000000E+00  0.00000000000E+00 -0.10549185642E+04  0.10549185642E+04  0.25500000920E-02 0. -1.
    10030    2    1    2    0    0  0.00000000000E+00  0.00000000000E+00 -0.99667652523E+03  0.11131606033E+04  0.49574432206E+03 0.  0.
        5    1    3    3  502    0 -0.18991665345E+03  0.41101972208E+02 -0.84373234334E+03  0.86583142965E+03  0.46999998093E+01 0. -1.
       -5    1    3    3    0  502  0.18991665345E+03 -0.41101972208E+02 -0.15294418189E+03  0.24732917367E+03  0.46999998093E+01 0.  1.
</event>
<event>
 5   0  0.1855407E-02  0.4996495E+03  0.7818609E-02  0.1013870E+00
        2   -1    0    0  501    0  0.00000000000E+00  0.00000000000E+00  0.51128612385E+03  0.51128612386E+03  0.25500000920E-02 0.  1.
       -2   -1    0    0    0  501  0.00000000000E+00  0.00000000000E+00 -0.12206940741E+03  0.12206940743E+03  0.25500000920E-02 0. -1.
    10030    2    1    2    0    0  0.00000000000E+00  0.00000000000E+00  0.38921671645E+03  0.63335553129E+03  0.49964945378E+03 0.  0.
        1    1    3    3  502    0  0.90344928040E+01 -0.28745426215E+02 -0.11975759172E+03  0.12349009024E+03  0.50400001928E-02 0. -1.
       -1    1    3    3    0  502 -0.90344928040E+01  0.28745426215E+02  0.50897430816E+03  0.50986544105E+03  0.50400001928E-02 0.  1.
</event>
<event>
 5   0  0.1967813E-02  0.5003245E+03  0.7818609E-02  0.1013694E+00
        2   -1    0    0  501    0  0.00000000000E+00  0.00000000000E+00  0.28439135984E+03  0.28439135985E+03  0.25500000920E-02 0. -1.
       -2   -1    0    0    0  501  0.00000000000E+00  0.00000000000E+00 -0.22005294122E+03  0.22005294124E+03  0.25500000920E-02 0.  1.
    10030    2    1    2    0    0  0.00000000000E+00  0.00000000000E+00  0.64338418620E+02  0.50444430109E+03  0.50032451548E+03 0.  0.
        5    1    3    3  502    0 -0.43715687975E+02 -0.64021923234E+02 -0.20758964703E+03  0.22164254912E+03  0.46999998093E+01 0.  1.
       -5    1    3    3    0  502  0.43715687975E+02  0.64021923234E+02  0.27192806565E+03  0.28280175197E+03  0.46999998093E+01 0. -1.
</event>
<event>
 5   0  0.1941387E-02  0.5024437E+03  0.7818609E-02  0.1013143E+00
       -2   -1    0    0    0  501  0.00000000000E+00  0.00000000000E+00  0.67532273631E+02  0.67532273680E+02  0.25500000920E-02 0. -1.
        2   -1    0    0  501    0  0.00000000000E+00  0.00000000000E+00 -0.93455190115E+03  0.93455190116E+03  0.25500000920E-02 0.  1.
    10030    2    1    2    0    0  0.00000000000E+00  0.00000000000E+00 -0.86701962752E+03  0.10020841748E+04  0.50244368734E+03 0.  0.
        4    1    3    3  502    0  0.34127341093E+02  0.60693344498E+02 -0.91491543837E+03  0.91756211220E+03  0.12699999809E+01 0.  1.
       -4    1    3    3    0  502 -0.34127341093E+02 -0.60693344498E+02  0.47895810845E+02  0.84522062640E+02  0.12699999809E+01 0. -1.
</event>
<event>
 5   0  0.1180937E-02  0.4986900E+03  0.7818609E-02  0.1014121E+00
        1   -1    0    0  501    0  0.00000000000E+00  0.00000000000E+00  0.38823167421E+03  0.38823167424E+03  0.50400001928E-02 0. -1.
       -1   -1    0    0    0  501  0.00000000000E+00  0.00000000000E+00 -0.16014389678E+03  0.16014389685E+03  0.50400001928E-02 0.  1.
    10030    2    1    2    0    0  0.00000000000E+00  0.00000000000E+00  0.22808777743E+03  0.54837557110E+03  0.49869001671E+03 0.  0.
        1    1    3    3  502    0 -0.15035305016E+03  0.10288277283E+03  0.30124646248E+03  0.35205160960E+03  0.50400001928E-02 0. -1.
       -1    1    3    3    0  502  0.15035305016E+03 -0.10288277283E+03 -0.73158685047E+02  0.19632396150E+03  0.50400001928E-02 0.  1.
</event>
<event>
 5   0  0.1923706E-02  0.4991184E+03  0.7818609E-02  0.1014009E+00
       -2   -1    0    0    0  501  0.00000000000E+00  0.00000000000E+00  0.47597740098E+02  0.47597740166E+02  0.25500000920E-02 0. -1.
        2   -1    0    0  501    0  0.00000000000E+00  0.00000000000E+00 -0.13084613227E+04  0.13084613227E+04  0.25500000920E-02 0.  1.
    10030    2    1    2    0    0  0.00000000000E+00  0.00000000000E+00 -0.12608635826E+04  0.13560590628E+04  0.49911843089E+03 0.  0.
        3    1    3    3  502    0  0.19445491453E+03  0.15010798479E+03 -0.74993472065E+03  0.78914334333E+03  0.10100000352E+00 0.  1.
       -3    1    3    3    0  502 -0.19445491453E+03 -0.15010798479E+03 -0.51092886193E+03  0.56691571952E+03  0.10100000352E+00 0. -1.
</event>
<event>
 5   0  0.1855407E-02  0.5024553E+03  0.7818609E-02  0.1013140E+00
       -2   -1    0    0    0  501  0.00000000000E+00  0.00000000000E+00  0.31397429247E+03  0.31397429248E+03  0.25500000920E-02 0. -1.
        2   -1    0    0  501    0  0.00000000000E+00  0.00000000000E+00 -0.20102073290E+03  0.20102073292E+03  0.25500000920E-02 0.  1.
    10030    2    1    2    0    0  0.00000000000E+00  0.00000000000E+00  0.11295355957E+03  0.51499502540E+03  0.50245534087E+03 0.  0.
        1    1    3    3  502    0 -0.74938860137E+02 -0.28292303417E+02 -0.18758146186E+03  0.20396836042E+03  0.50400001928E-02 0.  1.
       -1    1    3    3    0  502  0.74938860137E+02  0.28292303417E+02  0.30053502144E+03  0.31102666498E+03  0.50400001928E-02 0. -1.
</event>
<event>
 5   0  0.1217270E-02  0.5014853E+03  0.7818609E-02  0.1013392E+00
       -1   -1    0    0    0  501  0.00000000000E+00  0.00000000000E+00  0.61104900693E+02  0.61104900901E+02  0.50400001928E-02 0.  1.
        1   -1    0    0  501    0  0.00000000000E+00  0.00000000000E+00 -0.10289169203E+04  0.10289169204E+04  0.50400001928E-02 0. -1.
    10030    2    1    2    0    0  0.00000000000E+00  0.00000000000E+00 -0.96781201965E+03  0.10900218213E+04  0.50148525944E+03 0.  0.
        2    1    3    3  502    0  0.18346466087E+02  0.20715731024E+03 -0.78837210907E+03  0.81534123309E+03  0.25500000920E-02 0. -1.
       -2    1    3    3    0  502 -0.18346466087E+02 -0.20715731024E+03 -0.17943991057E+03  0.27468058816E+03  0.25500000920E-02 0.  1.
</event>
<event>
 5   0  0.1923706E-02  0.5004600E+03  0.7818609E-02  0.1013659E+00
        2   -1    0    0  501    0  0.00000000000E+00  0.00000000000E+00  0.45714156851E+03  0.45714156851E+03  0.25500000920E-02 0.  1.
       -2   -1    0    0    0  501  0.00000000000E+00  0.00000000000E+00 -0.13697079302E+03  0.13697079304E+03  0.25500000920E-02 0. -1.
    10030    2    1    2    0    0  0.00000000000E+00  0.00000000000E+00  0.32017077549E+03  0.59411236156E+03  0.50045996111E+03 0.  0.
        3    1    3    3  502    0  0.22250559244E+03  0.11235207431E+03  0.18618356697E+03  0.31112064875E+03  0.10100000352E+00 0. -1.
       -3    1    3    3    0  502 -0.22250559244E+03 -0.11235207431E+03  0.13398720852E+03  0.28299171281E+03  0.10100000352E+00 0.  1.
</event>
<event>
 5   0  0.1855407E-02  0.4996938E+03  0.7818609E-02  0.1013859E+00
        2   -1    0    0  501    0  0.00000000000E+00  0.00000000000E+00  0.93543440109E+03  0.93543440110E+03  0.25500000920E-02 0. -1.
       -2   -1    0    0    0  501  0.00000000000E+00  0.00000000000E+00 -0.66732081499E+02  0.66732081548E+02  0.25500000920E-02 0.  1.
    10030    2    1    2    0    0  0.00000000000E+00  0.00000000000E+00  0.86870231960E+03  0.10021664826E+04  0.49969384514E+03 0.  0.
        1    1    3    3  502    0 -0.50172771015E+02  0.76340800939E+02 -0.32036689917E+02  0.96806892139E+02  0.50400001928E-02 0.  1.
       -1    1    3    3    0  502  0.50172771015E+02 -0.76340800939E+02  0.90073900951E+03  0.90535959051E+03  0.50400001928E-02 0. -1.
</event>
<event>
 5   0  0.1217270E-02  0.4998257E+03  0.7818609E-02  0.1013824E+00
        1   -1    0    0  501    0  0.00000000000E+00  0.00000000000E+00  0.66852020272E+02  0.66852020462E+02  0.50400001928E-02 0. -1.
       -1   -1    0    0    0  501  0.00000000000E+00  0.00000000000E+00 -0.93424914689E+03  0.93424914690E+03  0.50400001928E-02 0.  1.
    10030    2    1    2    0    0  0.00000000000E+00  0.00000000000E+00 -0.86739712661E+03  0.10011011674E+04  0.49982574167E+03 0.  0.
        2    1    3    3  502    0  0.17319604545E+03  0.58616105803E+02 -0.92477427853E+02  0.20490190992E+03  0.25500000920E-02 0. -1.
       -2    1    3    3    0  502 -0.17319604545E+03 -0.58616105803E+02 -0.77491969876E+03  0.79619925744E+03  0.25500000920E-02 0.  1.
</event>
<event>
 5   0  0.1967813E-02  0.4998830E+03  0.7818609E-02  0.1013809E+00
        2   -1    0    0  501    0  0.00000000000E+00  0.00000000000E+00  0.12894639592E+03  0.12894639594E+03  0.25500000920E-02 0.  1.
       -2   -1    0    0    0  501  0.00000000000E+00  0.00000000000E+00 -0.48447068598E+03  0.48447068599E+03  0.25500000920E-02 0. -1.
    10030    2    1    2    0    0  0.00000000000E+00  0.00000000000E+00 -0.35552429007E+03  0.61341708193E+03  0.49988298188E+03 0.  0.
        5    1    3    3  502    0 -0.25448779028E+02 -0.20891457279E+02 -0.48174307957E+03  0.48288981978E+03  0.46999998093E+01 0. -1.
       -5    1    3    3    0  502  0.25448779028E+02  0.20891457279E+02  0.12621878950E+03  0.13052726215E+03  0.46999998093E+01 0.  1.
</event>
<event>
 5   0  0.1180937E-02  0.4996723E+03  0.7818609E-02  0.1013864E+00
       -1   -1    0    0    0  501  0.00000000000E+00  0.00000000000E+00  0.52158768226E+02  0.52158768469E+02  0.50400001928E-02 0. -1.
        1   -1    0    0  501    0  0.00000000000E+00  0.00000000000E+00 -0.11966943064E+04  0.11966943064E+04  0.50400001928E-02 0.  1.
    10030    2    1    2    0    0  0.00000000000E+00  0.00000000000E+00 -0.11445355381E+04  0.12488530748E+04  0.49967229710E+03 0.  0.
        1    1    3    3  502    0  0.14526720478E+03 -0.64070269560E+02 -0.10543921197E+04  0.10662787170E+04  0.50400001928E-02 0.  1.
       -1    1    3    3    0  502 -0.14526720478E+03  0.64070269560E+02 -0.90143418441E+02  0.18257435784E+03  0.50400001928E-02 0. -1.
</event>
<event>
 5   0  0.1855407E-02  0.5021914E+03  0.7818609E-02  0.1013209E+00
        2   -1    0    0  501    0  0.00000000000E+00  0.00000000000E+00  0.41754228657E+03  0.41754228657E+03  0.25500000920E-02 0. -1.
       -2   -1    0    0    0  501  0.00000000000E+00  0.00000000000E+00 -0.15100039730E+03  0.15100039733E+03  0.25500000920E-02 0.  1.
    10030    2    1    2    0    0  0.00000000000E+00  0.00000000000E+00  0.26654188926E+03  0.56854268390E+03  0.50219140244E+03 0.  0.
        1    1    3    3  502    0 -0.42418320271E+02 -0.62692608236E+02 -0.13777600362E+03  0.15720020427E+03  0.50400001928E-02 0.  1.
       -1    1    3    3    0  502  0.42418320271E+02  0.62692608236E+02  0.40431789288E+03  0.41134247963E+03  0.50400001928E-02 0. -1.
</event>
<event>
 5   0  0.1982847E-02  0.4996999E+03  0.7818609E-02  0.1013857E+00
       -2   -1    0    0    0  501  0.00000000000E+00  0.00000000000E+00  0.83206801710E+02  0.83206801749E+02  0.25500000920E-02 0. -1.
        2   -1    0    0  501    0  0.00000000000E+00  0.00000000000E+00 -0.75023926172E+03  0.75023926172E+03  0.25500000920E-02 0.  1.
    10030    2    1    2    0    0  0.00000000000E+00  0.00000000000E+00 -0.66703246001E+03  0.83344606347E+03  0.49969994798E+03 0.  0.
        2    1    3    3  502    0 -0.90941364467E+02  0.37617790689E+02  0.49517065496E+02  0.11016973146E+03  0.25500000920E-02 0. -1.
       -2    1    3    3    0  502  0.90941364467E+02 -0.37617790689E+02 -0.71654952550E+03  0.72327633201E+03  0.25500000920E-02 0.  1.
</event>
<event>
 5   0  0.1227864E-02  0.5013298E+03  0.7818609E-02  0.1013432E+00
        1   -1    0    0  501    0  0.00000000000E+00  0.00000000000E+00  0.62848350106E+03  0.62848350108E+03  0.50400001928E-02 0. -1.
       -1   -1    0    0    0  501  0.00000000000E+00  0.00000000000E+00 -0.99975423512E+02  0.99975423640E+02  0.50400001928E-02 0.  1.
    10030    2    1    2    0    0  0.00000000000E+00  0.00000000000E+00  0.52850807755E+03  0.72845892472E+03  0.50132984847E+03 0.  0.
        5    1    3    3  502    0 -0.22215274275E+03  0.11596212371E+03  0.25927131645E+03  0.36061442120E+03  0.46999998093E+01 0.  1.
       -5    1    3    3    0  502  0.22215274275E+03 -0.11596212371E+03  0.26923676110E+03  0.36784450352E+03  0.46999998093E+01 0. -1.
</event>
<event>
 5   0  0.1225989E-02  0.4998572E+03  0.7818609E-02  0.1013816E+00
       -1   -1    0    0    0  501  0.00000000000E+00  0.00000000000E+00  0.35888523726E+03  0.35888523729E+03  0.50400001928E-02 0. -1.
        1   -1    0    0  501    0  0.00000000000E+00  0.00000000000E+00 -0.17405092608E+03  0.17405092615E+03  0.50400001928E-02 0.  1.
    10030    2    1    2    0    0  0.00000000000E+00  0.00000000000E+00  0.18483431118E+03  0.53293616344E+03  0.49985721133E+03 0.  0.
        3    1    3    3  502    0 -0.43212172569E+02 -0.10732887369E+03  0.32861206214E+03  0.34838581568E+03  0.10100000352E+00 0. -1.
       -3    1    3    3    0  502  0.43212172569E+02  0.10732887369E+03 -0.14377775096E+03  0.18455034776E+03  0.10100000352E+00 0.  1.
</event>
<event>
 5   0  0.1855407E-02  0.4996387E+03  0.7818609E-02  0.1013873E+00
        2   -1    0    0  501    0  0.00000000000E+00  0.00000000000E+00  0.85382943717E+02  0.85382943755E+02  0.25500000920E-02 0.  1.
       -2   -1    0    0    0  501  0.00000000000E+00  0.00000000000E+00 -0.73093870943E+03  0.73093870943E+03  0.25500000920E-02 0. -1.
    10030    2    1    2    0    0  0.00000000000E+00  0.00000000000E+00 -0.64555576571E+03  0.81632165319E+03  0.49963866426E+03 0.  0.
        1    1    3    3  502    0  0.15405171123E+03 -0.18250526533E+03 -0.20305528643E+03  0.31348293571E+03  0.50400001928E-02 0.  1.
       -1    1    3    3    0  502 -0.15405171123E+03  0.18250526533E+03 -0.44250047928E+03  0.50283871748E+03  0.50400001928E-02 0. -1.
</event>
<event>
 5   0  0.1967813E-02  0.4989296E+03  0.7818609E-02  0.1014059E+00
        2   -1    0    0  501    0  0.00000000000E+00  0.00000000000E+00  0.38864373578E+03  0.38864373579E+03  0.25500000920E-02 0. -1.
       -2   -1    0    0    0  501  0.00000000000E+00  0.00000000000E+00 -0.16012785610E+03  0.16012785612E+03  0.25500000920E-02 0.  1.
    10030    2    1    2    0    0  0.00000000000E+00  0.00000000000E+00  0.22851587969E+03  0.54877159191E+03  0.49892960707E+03 0.  0.
        5    1    3    3  502    0  0.39819230315E+02  0.12913807286E+02  0.38470369513E+03  0.38700304981E+03  0.46999998093E+01 0. -1.
       -5    1    3    3    0  502 -0.39819230315E+02 -0.12913807286E+02 -0.15618781544E+03  0.16176854210E+03  0.46999998093E+01 0.  1.
</event>
<event>
 5   0  0.1227864E-02  0.5000212E+03  0.7818609E-02  0.1013773E+00
        1   -1    0    0  501    0  0.00000000000E+00  0.00000000000E+00  0.65209062886E+03  0.65209062888E+03  0.50400001928E-02 0.  1.
       -1   -1    0    0    0  501  0.00000000000E+00  0.00000000000E+00 -0.95853715118E+02  0.95853715250E+02  0.50400001928E-02 0. -1.
    10030    2    1    2    0    0  0.00000000000E+00  0.00000000000E+00  0.55623691375E+03  0.74794434413E+03  0.50002123726E+03 0.  0.
        5    1    3    3  502    0 -0.96605173141E+01  0.31012108226E+02 -0.92617342865E+02  0.98260565075E+02  0.46999998093E+01 0. -1.
       -5    1    3    3    0  502  0.96605173141E+01 -0.31012108226E+02  0.64885425661E+03  0.64968377906E+03  0.46999998093E+01 0.  1.
</event>
<event>
 5   0  0.1855407E-02  0.5080410E+03  0.7818609E-02  0.1011701E+00
        2   -1    0    0  501    0  0.00000000000E+00  0.00000000000E+00  0.38013754459E+03  0.38013754460E+03  0.25500000920E-02 0. -1.
       -2   -1    0    0    0  501  0.00000000000E+00  0.00000000000E+00 -0.16974488406E+03  0.16974488408E+03  0.25500000920E-02 0.  1.
    10030    2    1    2    0    0  0.00000000000E+00  0.00000000000E+00  0.21039266052E+03  0.54988242868E+03  0.50804095678E+03 0.  0.
        1    1    3    3  502    0  0.23351880482E+03 -0.64615433130E+01  0.21318088404E+03  0.31625760559E+03  0.50400001928E-02 0.  1.
       -1    1    3    3    0  502 -0.23351880482E+03  0.64615433130E+01 -0.27882235149E+01  0.23362482309E+03  0.50400001928E-02 0. -1.
</event>
<event>
 5   0  0.1209831E-02  0.4998873E+03  0.7818609E-02  0.1013808E+00
        1   -1    0    0  501    0  0.00000000000E+00  0.00000000000E+00  0.79545272971E+03  0.79545272973E+03  0.50400001928E-02 0. -1.
       -1   -1    0    0    0  501  0.00000000000E+00  0.00000000000E+00 -0.78536184115E+02  0.78536184277E+02  0.50400001928E-02 0.  1.
    10030    2    1    2    0    0  0.00000000000E+00  0.00000000000E+00  0.71691654560E+03  0.87398891400E+03  0.49988727575E+03 0.  0.
        4    1    3    3  502    0 -0.12637851001E+03  0.98101799413E+02  0.22722051828E+02  0.16159639655E+03  0.12699999809E+01 0.  1.
       -4    1    3    3    0  502  0.12637851001E+03 -0.98101799413E+02  0.69419449377E+03  0.71239251745E+03  0.12699999809E+01 0. -1.
</event>
<event>
 5   0  0.1923706E-02  0.5001351E+03  0.7818609E-02  0.1013744E+00
       -2   -1    0    0    0  501  0.00000000000E+00  0.00000000000E+00  0.14466378326E+03  0.14466378329E+03  0.25500000920E-02 0. -1.
        2   -1    0    0  501    0  0.00000000000E+00  0.00000000000E+00 -0.43226975446E+03  0.43226975447E+03  0.25500000920E-02 0.  1.
    10030    2    1    2    0    0  0.00000000000E+00  0.00000000000E+00 -0.28760597119E+03  0.57693353775E+03  0.50013509407E+03 0.  0.
        3    1    3    3  502    0 -0.15694118282E+03 -0.62066528657E+02  0.69061523536E+02  0.18235211290E+03  0.10100000352E+00 0. -1.
       -3    1    3    3    0  502  0.15694118282E+03  0.62066528657E+02 -0.35666749473E+03  0.39458142486E+03  0.10100000352E+00 0.  1.
</event>
<event>
 5   0  0.8012875E-03  0.5002980E+03  0.7818609E-02  0.1013701E+00
       -3   -1    0    0    0  501  0.00000000000E+00  0.00000000000E+00  0.35750459079E+03  0.35750460506E+03  0.10100000352E+00 0.  1.
        3   -1    0    0  501    0  0.00000000000E+00  0.00000000000E+00 -0.17503137932E+03  0.17503140846E+03  0.10100000352E+00 0. -1.
    10030    2    1    2    0    0  0.00000000000E+00  0.00000000000E+00  0.18247321147E+03  0.53253601352E+03  0.50029804396E+03 0.  0.
        4    1    3    3  502    0 -0.57949345134E+02  0.22943725592E+03  0.49361274104E+01  0.23669718895E+03  0.12699999809E+01 0. -1.
       -4    1    3    3    0  502  0.57949345134E+02 -0.22943725592E+03  0.17753708406E+03  0.29583882456E+03  0.12699999809E+01 0.  1.
</event>
<event>
 5   0  0.1941387E-02  0.4993268E+03  0.7818609E-02  0.1013955E+00
        2   -1    0    0  501    0  0.00000000000E+00  0.00000000000E+00  0.14939858210E+04  0.14939858210E+04  0.25500000920E-02 0. -1.
       -2   -1    0    0    0  501  0.00000000000E+00  0.00000000000E+00 -0.41721821574E+02  0.41721821652E+02  0.25500000920E-02 0.  1.
    10030    2    1    2    0    0  0.00000000000E+00  0.00000000000E+00  0.14522639994E+04  0.15357076427E+04  0.49932678647E+03 0.  0.
        4    1    3    3  502    0 -0.11160870515E+03 -0.10701300170E+03  0.13289874121E+04  0.13379527047E+04  0.12699999809E+01 0. -1.
       -4    1    3    3    0  502  0.11160870515E+03  0.10701300170E+03  0.12327658729E+03  0.19775493792E+03  0.12699999809E+01 0.  1.
</event>
<event>
 5   0  0.1982847E-02  0.4987687E+03  0.7818609E-02  0.1014101E+00
        2   -1    0    0  501    0  0.00000000000E+00  0.00000000000E+00  0.20119234100E+03  0.20119234102E+03  0.25500000920E-02 0.  1.
       -2   -1    0    0    0  501  0.00000000000E+00  0.00000000000E+00 -0.30911987078E+03  0.30911987079E+03  0.25500000920E-02 0. -1.
    10030    2    1    2    0    0  0.00000000000E+00  0.00000000000E+00 -0.10792752978E+03  0.51031221181E+03  0.49876868571E+03 0.  0.
        2    1    3    3  502    0 -0.77959394425E+02  0.22780487215E+03  0.12499844881E+02  0.24109950868E+03  0.25500000920E-02 0. -1.
       -2    1    3    3    0  502  0.77959394425E+02 -0.22780487215E+03 -0.12042737466E+03  0.26921270314E+03  0.25500000920E-02 0.  1.
</event>
<event>
 5   0  0.1982847E-02  0.4990429E+03  0.7818609E-02  0.1014029E+00
       -2   -1    0    0    0  501  0.00000000000E+00  0.00000000000E+00  0.10345067075E+03  0.10345067078E+03  0.25500000920E-02 0.  1.
        2   -1    0    0  501    0  0.00000000000E+00  0.00000000000E+00 -0.60184206883E+03  0.60184206884E+03  0.25500000920E-02 0. -1.
    10030    2    1    2    0    0  0.00000000000E+00  0.00000000000E+00 -0.49839139808E+03  0.70529273962E+03  0.49904294693E+03 0.  0.
        2    1    3    3  502    0 -0.19044173217E+03  0.85350995021E+02 -0.55889151322E+02  0.21604731645E+03  0.25500000920E-02 0.  1.
       -2    1    3    3    0  502  0.19044173217E+03 -0.85350995021E+02 -0.44250224676E+03  0.48924542317E+03  0.25500000920E-02 0. -1.
</event>
<event>
 5   0  0.1855407E-02  0.4999306E+03  0.7818609E-02  0.1013797E+00
       -2   -1    0    0    0  501  0.00000000000E+00  0.00000000000E+00  0.60911156466E+02  0.60911156520E+02  0.25500000920E-02 0. -1.
        2   -1    0    0  501    0  0.00000000000E+00  0.00000000000E+00 -0.10257999243E+04  0.10257999243E+04  0.25500000920E-02 0.  1.
    10030    2    1    2    0    0  0.00000000000E+00  0.00000000000E+00 -0.96488876784E+03  0.10867110808E+04  0.49993063408E+03 0.  0.
        1    1    3    3  502    0 -0.40011774205E+02 -0.42316908270E+02  0.45958286986E+02  0.74187781801E+02  0.50400001928E-02 0. -1.
       -1    1    3    3    0  502  0.40011774205E+02  0.42316908270E+02 -0.10108470548E+04  0.10125232990E+04  0.50400001928E-02 0.  1.
</event>
<event>
 5   0  0.1227864E-02  0.5007072E+03  0.7818609E-02  0.1013595E+00
       -1   -1    0    0    0  501  0.00000000000E+00  0.00000000000E+00  0.11086063075E+03  0.11086063086E+03  0.50400001928E-02 0.  1.
        1   -1    0    0  501    0  0.00000000000E+00  0.00000000000E+00 -0.56536673763E+03  0.56536673765E+03  0.50400001928E-02 0. -1.
    10030    2    1    2    0    0  0.00000000000E+00  0.00000000000E+00 -0.45450610688E+03  0.67622736851E+03  0.50070715267E+03 0.  0.
        5    1    3    3  502    0  0.65091983685E+02  0.24805307735E+02 -0.55195318207E+03  0.55635121536E+03  0.46999998093E+01 0. -1.
       -5    1    3    3    0  502 -0.65091983685E+02 -0.24805307735E+02  0.97447075198E+02  0.11987615315E+03  0.46999998093E+01 0.  1.
</event>
<event>
 5   0  0.1180937E-02  0.4994617E+03  0.7818609E-02  0.1013920E+00
        1   -1    0    0  501    0  0.00000000000E+00  0.00000000000E+00  0.32404818398E+03  0.32404818402E+03  0.50400001928E-02 0.  1.
       -1   -1    0    0    0  501  0.00000000000E+00  0.00000000000E+00 -0.19245751640E+03  0.19245751647E+03  0.50400001928E-02 0. -1.
    10030    2    1    2    0    0  0.00000000000E+00  0.00000000000E+00  0.13159066758E+03  0.51650570049E+03  0.49946174512E+03 0.  0.
        1    1    3    3  502    0 -0.20191650472E+02 -0.19551906131E+03 -0.93507204849E+02  0.21766718510E+03  0.50400001928E-02 0. -1.
       -1    1    3    3    0  502  0.20191650472E+02  0.19551906131E+03  0.22509787242E+03  0.29883851539E+03  0.50400001928E-02 0.  1.
</event>
<event>
 5   0  0.1855407E-02  0.5005547E+03  0.7818609E-02  0.1013634E+00
        2   -1    0    0  501    0  0.00000000000E+00  0.00000000000E+00  0.70010090862E+03  0.70010090863E+03  0.25500000920E-02 0.  1.
       -2   -1    0    0    0  501  0.00000000000E+00  0.00000000000E+00 -0.89471015924E+02  0.89471015961E+02  0.25500000920E-02 0. -1.
    10030    2    1    2    0    0  0.00000000000E+00  0.00000000000E+00  0.61062989270E+03  0.78957192459E+03  0.50055465060E+03 0.  0.
        1    1    3    3  502    0  0.74430358176E+02  0.80021104613E+02 -0.49845697074E+02  0.12011598122E+03  0.50400001928E-02 0. -1.
       -1    1    3    3    0  502 -0.74430358176E+02 -0.80021104613E+02  0.66047558977E+03  0.66945594337E+03  0.50400001928E-02 0.  1.
</event>
<event>
 5   0  0.1217270E-02  0.4997722E+03  0.7818609E-02  0.1013838E+00
        1   -1    0    0  501    0  0.00000000000E+00  0.00000000000E+00  0.92962170150E+03  0.92962170151E+03  0.50400001928E-02 0.  1.
       -1   -1    0    0    0  501  0.00000000000E+00  0.00000000000E+00 -0.67170391649E+02  0.67170391838E+02  0.50400001928E-02 0. -1.
    10030    2    1    2    0    0  0.00000000000E+00  0.00000000000E+00  0.86245130985E+03  0.99679209335E+03  0.49977216359E+03 0.  0.
        2    1    3    3  502    0  0.18456655635E+03 -0.51471843636E+02  0.75114687099E+03  0.77520048131E+03  0.25500000920E-02 0.  1.
       -2    1    3    3    0  502 -0.18456655635E+03  0.51471843636E+02  0.11130443886E+03  0.22159161204E+03  0.25500000920E-02 0. -1.
</event>
<event>
 5   0  0.1225989E-02  0.5007611E+03  0.7818609E-02  0.1013580E+00
        1   -1    0    0  501    0  0.00000000000E+00  0.00000000000E+00  0.16792706429E+04  0.16792706429E+04  0.50400001928E-02 0.  1.
       -1   -1    0    0    0  501  0.00000000000E+00  0.00000000000E+00 -0.37331936548E+02  0.37331936888E+02  0.50400001928E-02 0. -1.
    10030    2    1    2    0    0  0.00000000000E+00  0.00000000000E+00  0.16419387063E+04  0.17166025798E+04  0.50076112224E+03 0.  0.
        3    1    3    3  502    0  0.90540608394E+02 -0.15608706868E+03  0.22594309536E+03  0.28915578382E+03  0.10100000352E+00 0. -1.
       -3    1    3    3    0  502 -0.90540608394E+02  0.15608706868E+03  0.14159956110E+04  0.14274467960E+04  0.10100000352E+00 0.  1.
</event>
<event>
 5   0  0.1209831E-02  0.5000547E+03  0.7818609E-02  0.1013765E+00
        1   -1    0    0  501    0  0.00000000000E+00  0.00000000000E+00  0.38456308794E+03  0.38456308797E+03  0.50400001928E-02 0.  1.
       -1   -1    0    0    0  501  0.00000000000E+00  0.00000000000E+00 -0.16255766756E+03  0.16255766764E+03  0.50400001928E-02 0. -1.
    10030    2    1    2    0    0  0.00000000000E+00  0.00000000000E+00  0.22200542038E+03  0.54712075561E+03  0.50005471155E+03 0.  0.
        4    1    3    3  502    0  0.96010354070E+02  0.94447174358E+02  0.34148046854E+03  0.36708143528E+03  0.12699999809E+01 0.  1.
       -4    1    3    3    0  502 -0.96010354070E+02 -0.94447174358E+02 -0.11947504816E+03  0.18003932033E+03  0.12699999809E+01 0. -1.
</event>
<event>
 5   0  0.1855407E-02  0.4997990E+03  0.7818609E-02  0.1013831E+00
       -2   -1    0    0    0  501  0.00000000000E+00  0.00000000000E+00  0.54448701564E+03  0.54448701564E+03  0.25500000920E-02 0.  1.
        2   -1    0    0  501    0  0.00000000000E+00  0.00000000000E+00 -0.11469466493E+03  0.11469466496E+03  0.25500000920E-02 0. -1.
    10030    2    1    2    0    0  0.00000000000E+00  0.00000000000E+00  0.42979235071E+03  0.65918168060E+03  0.49979898291E+03 0.  0.
        1    1    3    3  502    0  0.28098392279E+02 -0.22881862926E+03  0.34210119708E+03  0.41252965204E+03  0.50400001928E-02 0.  1.
       -1    1    3    3    0  502 -0.28098392279E+02  0.22881862926E+03  0.87691153627E+02  0.24665202856E+03  0.50400001928E-02 0. -1.
</event>
<event>
 5   0  0.1217270E-02  0.5003358E+03  0.7818609E-02  0.1013691E+00
        1   -1    0    0  501    0  0.00000000000E+00  0.00000000000E+00  0.51836914064E+03  0.51836914066E+03  0.50400001928E-02 0. -1.
       -1   -1    0    0    0  501  0.00000000000E+00  0.00000000000E+00 -0.12073245183E+03  0.12073245194E+03  0.50400001928E-02 0.  1.
    10030    2    1    2    0    0  0.00000000000E+00  0.00000000000E+00  0.39763668880E+03  0.63910159260E+03  0.50033579662E+03 0.  0.
        2    1    3    3  502    0  0.13562245698E+03  0.14617838451E+03  0.58486800477E+01  0.19948879166E+03  0.25500000920E-02 0.  1.
       -2    1    3    3    0  502 -0.13562245698E+03 -0.14617838451E+03  0.39178800876E+03  0.43961280093E+03  0.25500000920E-02 0. -1.
</event>
<event>
 5   0  0.1225989E-02  0.4991758E+03  0.7818609E-02  0.1013994E+00
       -1   -1    0    0    0  501  0.00000000000E+00  0.00000000000E+00  0.21005427967E+03  0.21005427973E+03  0.50400001928E-02 0.  1.
        1   -1    0    0  501    0  0.00000000000E+00  0.00000000000E+00 -0.29656195867E+03  0.29656195872E+03  0.50400001928E-02 0. -1.
    10030    2    1    2    0    0  0.00000000000E+00  0.00000000000E+00 -0.86507679005E+02  0.50661623844E+03  0.49917575515E+03 0.  0.
        3    1    3    3  502    0 -0.68936830846E+02  0.21751800829E+03  0.59385820366E+02  0.23578179836E+03  0.10100000352E+00 0.  1.
       -3    1    3    3    0  502  0.68936830846E+02 -0.21751800829E+03 -0.14589349937E+03  0.27083444008E+03  0.10100000352E+00 0. -1.
</event>
<event>
 5   0  0.1227864E-02  0.5004626E+03  0.7818609E-02  0.1013658E+00
       -1   -1    0    0    0  501  0.00000000000E+00  0.00000000000E+00  0.90064274815E+02  0.90064274956E+02  0.50400001928E-02 0. -1.
        1   -1    0    0  501    0  0.00000000000E+00  0.00000000000E+00 -0.69523357455E+03  0.69523357457E+03  0.50400001928E-02 0.  1.
    10030    2    1    2    0    0  0.00000000000E+00  0.00000000000E+00 -0.60516929974E+03  0.78529784953E+03  0.50046261711E+03 0.  0.
        5    1    3    3  502    0  0.85281187509E+02  0.14110477588E+03 -0.59785975103E+03  0.62019497790E+03  0.46999998093E+01 0.  1.
       -5    1    3    3    0  502 -0.85281187509E+02 -0.14110477588E+03 -0.73095487094E+01  0.16510287162E+03  0.46999998093E+01 0. -1.
</event>
<event>
 5   0  0.1855407E-02  0.5010109E+03  0.7818609E-02  0.1013515E+00
       -2   -1    0    0    0  501  0.00000000000E+00  0.00000000000E+00  0.14709098016E+03  0.14709098019E+03  0.25500000920E-02 0.  1.
        2   -1    0    0  501    0  0.00000000000E+00  0.00000000000E+00 -0.42662698061E+03  0.42662698062E+03  0.25500000920E-02 0. -1.
    10030    2    1    2    0    0  0.00000000000E+00  0.00000000000E+00 -0.27953600045E+03  0.57371796081E+03  0.50101090108E+03 0.  0.
        1    1    3    3  502    0 -0.23198765896E+03 -0.44364748108E+02 -0.44190021565E+02  0.24028995571E+03  0.50400001928E-02 0. -1.
       -1    1    3    3    0  502  0.23198765896E+03  0.44364748108E+02 -0.23534597888E+03  0.33342800510E+03  0.50400001928E-02 0.  1.
</event>
<event>
 5   0  0.1227864E-02  0.4993295E+03  0.7818609E-02  0.1013954E+00
        1   -1    0    0  501    0  0.00000000000E+00  0.00000000000E+00  0.42455377805E+03  0.42455377808E+03  0.50400001928E-02 0. -1.
       -1   -1    0    0    0  501  0.00000000000E+00  0.00000000000E+00 -0.14681880606E+03  0.14681880615E+03  0.50400001928E-02 0.  1.
    10030    2    1    2    0    0  0.00000000000E+00  0.00000000000E+00  0.27773497199E+03  0.57137258422E+03  0.49932946572E+03 0.  0.
        5    1    3    3  502    0  0.17469322404E+03 -0.52809083438E+02  0.33374429331E+03  0.38041275627E+03  0.46999998093E+01 0. -1.
       -5    1    3    3    0  502 -0.17469322404E+03  0.52809083438E+02 -0.56009321320E+02  0.19095982795E+03  0.46999998093E+01 0.  1.
</event>
<event>
 5   0  0.1225989E-02  0.5000655E+03  0.7818609E-02  0.1013762E+00
       -1   -1    0    0    0  501  0.00000000000E+00  0.00000000000E+00  0.21596034558E+03  0.21596034564E+03  0.50400001928E-02 0.  1.
        1   -1    0    0  501    0  0.00000000000E+00  0.00000000000E+00 -0.28948078347E+03  0.28948078351E+03  0.50400001928E-02 0. -1.
    10030    2    1    2    0    0  0.00000000000E+00  0.00000000000E+00 -0.73520437888E+02  0.50544112915E+03  0.50006547596E+03 0.  0.
        3    1    3    3  502    0  0.17038510322E+03 -0.15611550422E+03 -0.13324965587E+03  0.26675572168E+03  0.10100000352E+00 0. -1.
       -3    1    3    3    0  502 -0.17038510322E+03  0.15611550422E+03  0.59729217981E+02  0.23868540747E+03  0.10100000352E+00 0.  1.
</event>
<event>
 5   0  0.8012875E-03  0.5000512E+03  0.7818609E-02  0.1013766E+00
        3   -1    0    0  501    0  0.00000000000E+00  0.00000000000E+00  0.22821980642E+03  0.22821982877E+03  0.10100000352E+00 0.  1.
       -3   -1    0    0    0  501  0.00000000000E+00  0.00000000000E+00 -0.27391484745E+03  0.27391486607E+03  0.10100000352E+00 0. -1.
    10030    2    1    2    0    0  0.00000000000E+00  0.00000000000E+00 -0.45695041024E+02  0.50213469484E+03  0.50005121236E+03 0.  0.
        4    1    3    3  502    0  0.16379190580E+03  0.92890075800E+01 -0.21230561150E+03  0.26830832943E+03  0.12699999809E+01 0. -1.
       -4    1    3    3    0  502 -0.16379190580E+03 -0.92890075800E+01  0.16661057048E+03  0.23382636541E+03  0.12699999809E+01 0.  1.
</event>
<event>
 5   0  0.1982847E-02  0.4978079E+03  0.7818609E-02  0.1014353E+00
       -2   -1    0    0    0  501  0.00000000000E+00  0.00000000000E+00  0.47429250696E+02  0.47429250764E+02  0.25500000920E-02 0. -1.
        2   -1    0    0  501    0  0.00000000000E+00  0.00000000000E+00 -0.13062229736E+04  0.13062229736E+04  0.25500000920E-02 0.  1.
    10030    2    1    2    0    0  0.00000000000E+00  0.00000000000E+00 -0.12587937229E+04  0.13536522244E+04  0.49780790242E+03 0.  0.
        2    1    3    3  502    0 -0.17812340388E+03 -0.15791832687E+03 -0.82711717121E+03  0.86069097816E+03  0.25500000920E-02 0.  1.
       -2    1    3    3    0  502  0.17812340388E+03  0.15791832687E+03 -0.43167655168E+03  0.49296124619E+03  0.25500000920E-02 0. -1.
</event>
<event>
 5   0  0.1217270E-02  0.5006809E+03  0.7818609E-02  0.1013601E+00
       -1   -1    0    0    0  501  0.00000000000E+00  0.00000000000E+00  0.32144301918E+03  0.32144301922E+03  0.50400001928E-02 0. -1.
        1   -1    0    0  501    0  0.00000000000E+00  0.00000000000E+00 -0.19496564640E+03  0.19496564646E+03  0.50400001928E-02 0.  1.
    10030    2    1    2    0    0  0.00000000000E+00  0.00000000000E+00  0.12647737278E+03  0.51640866569E+03  0.50068092052E+03 0.  0.
        2    1    3    3  502    0 -0.21252137398E+03 -0.11445908636E+03 -0.52095880594E+01  0.24144017202E+03  0.25500000920E-02 0.  1.
       -2    1    3    3    0  502  0.21252137398E+03  0.11445908636E+03  0.13168696084E+03  0.27496849367E+03  0.25500000920E-02 0. -1.
</event>
<event>
 5   0  0.1967813E-02  0.5002156E+03  0.7818609E-02  0.1013723E+00
        2   -1    0    0  501    0  0.00000000000E+00  0.00000000000E+00  0.99823593519E+03  0.99823593520E+03  0.25500000920E-02 0.  1.
       -2   -1    0    0    0  501  0.00000000000E+00  0.00000000000E+00 -0.62664466641E+02  0.62664466693E+02  0.25500000920E-02 0. -1.
    10030    2    1    2    0    0  0.00000000000E+00  0.00000000000E+00  0.93557146855E+03  0.10609004019E+04  0.50021564346E+03 0.  0.
        5    1    3    3  502    0 -0.19017171409E+03 -0.11425906003E+03  0.22308824182E+03  0.31465992322E+03  0.46999998093E+01 0. -1.
       -5    1    3    3    0  502  0.19017171409E+03  0.11425906003E+03  0.71248322673E+03  0.74624047867E+03  0.46999998093E+01 0.  1.
</event>
<event>
 5   0  0.1941387E-02  0.4987070E+03  0.7818609E-02  0.1014117E+00
        2   -1    0    0  501    0  0.00000000000E+00  0.00000000000E+00  0.16458480236E+04  0.16458480236E+04  0.25500000920E-02 0.  1.
       -2   -1    0    0    0  501  0.00000000000E+00  0.00000000000E+00 -0.37778201358E+02  0.37778201444E+02  0.25500000920E-02 0. -1.
    10030    2    1    2    0    0  0.00000000000E+00  0.00000000000E+00  0.16080698222E+04  0.16836262250E+04  0.49870704071E+03 0.  0.
        4    1    3    3  502    0 -0.16652595572E+03 -0.11371985915E+03  0.30887523535E+03  0.36887480831E+03  0.12699999809E+01 0. -1.
       -4    1    3    3    0  502  0.16652595572E+03  0.11371985915E+03  0.12991945869E+04  0.13147514167E+04  0.12699999809E+01 0.  1.
</event>
<event>
 5   0  0.1941387E-02  0.4988165E+03  0.7818609E-02  0.1014088E+00
       -2   -1    0    0    0  501  0.00000000000E+00  0.00000000000E+00  0.12583761231E+03  0.12583761233E+03  0.25500000920E-02 0.  1.
        2   -1    0    0  501    0  0.00000000000E+00  0.00000000000E+00 -0.49432348423E+03  0.49432348424E+03  0.25500000920E-02 0. -1.
    10030    2    1    2    0    0  0.00000000000E+00  0.00000000000E+00 -0.36848587192E+03  0.62016109657E+03  0.49881654733E+03 0.  0.
        4    1    3    3  502    0  0.34341443215E+02 -0.14560915257E+03 -0.43234052908E+03  0.45749459671E+03  0.12699999809E+01 0. -1.
       -4    1    3    3    0  502 -0.34341443215E+02  0.14560915257E+03  0.63854657156E+02  0.16266649986E+03  0.12699999809E+01 0.  1.
</event>
<event>
 5   0  0.1227864E-02  0.4996085E+03  0.7818609E-02  0.1013881E+00
        1   -1    0    0  501    0  0.00000000000E+00  0.00000000000E+00  0.10347981317E+04  0.10347981317E+04  0.50400001928E-02 0.  1.
       -1   -1    0    0    0  501  0.00000000000E+00  0.00000000000E+00 -0.60303697380E+02  0.60303697591E+02  0.50400001928E-02 0. -1.
    10030    2    1    2    0    0  0.00000000000E+00  0.00000000000E+00  0.97449443432E+03  0.10951018293E+04  0.49960846072E+03 0.  0.
        5    1    3    3  502    0  0.17987847094E+03  0.16813483176E+03  0.57905904368E+03  0.62925118357E+03  0.46999998093E+01 0.  1.
       -5    1    3    3    0  502 -0.17987847094E+03 -0.16813483176E+03  0.39543539065E+03  0.46585064574E+03  0.46999998093E+01 0. -1.
</event>
<event>
 5   0  0.1227864E-02  0.4995363E+03  0.7818609E-02  0.1013900E+00
       -1   -1    0    0    0  501  0.00000000000E+00  0.00000000000E+00  0.19322501487E+03  0.19322501493E+03  0.50400001928E-02 0. -1.
        1   -1    0    0  501    0  0.00000000000E+00  0.00000000000E+00 -0.32285743112E+03  0.32285743116E+03  0.50400001928E-02 0.  1.
    10030    2    1    2    0    0  0.00000000000E+00  0.00000000000E+00 -0.12963241625E+03  0.51608244609E+03  0.49953631281E+03 0.  0.
        5    1    3    3  502    0 -0.41069138444E+02  0.10319166109E+03 -0.29589154647E+03  0.31608399251E+03  0.46999998093E+01 0.  1.
       -5    1    3    3    0  502  0.41069138444E+02 -0.10319166109E+03  0.16625913022E+03  0.19999845357E+03  0.46999998093E+01 0. -1.
</event>
<event>
 5   0  0.1227864E-02  0.5000266E+03  0.7818609E-02  0.1013772E+00
        1   -1    0    0  501    0  0.00000000000E+00  0.00000000000E+00  0.72147600719E+03  0.72147600721E+03  0.50400001928E-02 0.  1.
       -1   -1    0    0    0  501  0.00000000000E+00  0.00000000000E+00 -0.86637189707E+02  0.86637189854E+02  0.50400001928E-02 0. -1.
    10030    2    1    2    0    0  0.00000000000E+00  0.00000000000E+00  0.63483881748E+03  0.80811319706E+03  0.50002661437E+03 0.  0.
        5    1    3    3  502    0 -0.28532705522E+02 -0.81286561272E+02  0.69665473894E+03  0.70197687684E+03  0.46999998093E+01 0.  1.
       -5    1    3    3    0  502  0.28532705522E+02  0.81286561272E+02 -0.61815921455E+02  0.10613632023E+03  0.46999998093E+01 0. -1.
</event>
<event>
 5   0  0.1941387E-02  0.5000551E+03  0.7818609E-02  0.1013765E+00
       -2   -1    0    0    0  501  0.00000000000E+00  0.00000000000E+00  0.88093609398E+02  0.88093609435E+02  0.25500000920E-02 0.  1.
        2   -1    0    0  501    0  0.00000000000E+00  0.00000000000E+00 -0.70962884050E+03  0.70962884050E+03  0.25500000920E-02 0. -1.
    10030    2    1    2    0    0  0.00000000000E+00  0.00000000000E+00 -0.62153523110E+03  0.79772244994E+03  0.50005506061E+03 0.  0.
        4    1    3    3  502    0  0.11319076957E+03 -0.22170239635E+03 -0.27342161182E+03  0.36976356442E+03  0.12699999809E+01 0. -1.
       -4    1    3    3    0  502 -0.11319076957E+03  0.22170239635E+03 -0.34811361928E+03  0.42795888552E+03  0.12699999809E+01 0.  1.
</event>
<event>
 5   0  0.1967813E-02  0.5000309E+03  0.7818609E-02  0.1013771E+00
        2   -1    0    0  501    0  0.00000000000E+00  0.00000000000E+00  0.88724855168E+03  0.88724855168E+03  0.25500000920E-02 0.  1.
       -2   -1    0    0    0  501  0.00000000000E+00  0.00000000000E+00 -0.70451196320E+02  0.70451196366E+02  0.25500000920E-02 0. -1.
    10030    2    1    2    0    0  0.00000000000E+00  0.00000000000E+00  0.81679735536E+03  0.95769974804E+03  0.50003088674E+03 0.  0.
        5    1    3    3  502    0 -0.89107228204E+02  0.43205457834E+02 -0.31194121778E+02  0.10393254032E+03  0.46999998093E+01 0. -1.
       -5    1    3    3    0  502  0.89107228204E+02 -0.43205457834E+02  0.84799147713E+03  0.85376720773E+03  0.46999998093E+01 0.  1.
</event>
<event>
 5   0  0.1225989E-02  0.4994943E+03  0.7818609E-02  0.1013911E+00
       -1   -1    0    0    0  501  0.00000000000E+00  0.00000000000E+00  0.55235094741E+02  0.55235094970E+02  0.50400001928E-02 0. -1.
        1   -1    0    0  501    0  0.00000000000E+00  0.00000000000E+00 -0.11292394173E+04  0.11292394173E+04  0.50400001928E-02 0.  1.
    10030    2    1    2    0    0  0.00000000000E+00  0.00000000000E+00 -0.10740043226E+04  0.11844745123E+04  0.49949432966E+03 0.  0.
        3    1    3    3  502    0  0.19740415225E+03  0.15242197076E+03 -0.50583182793E+03  0.56397402852E+03  0.10100000352E+00 0. -1.
       -3    1    3    3    0  502 -0.19740415225E+03 -0.15242197076E+03 -0.56817249462E+03  0.62050048376E+03  0.10100000352E+00 0.  1.
</event>
<event>
 5   0  0.1941387E-02  0.5001424E+03  0.7818609E-02  0.1013742E+00
        2   -1    0    0  501    0  0.00000000000E+00  0.00000000000E+00  0.75720747422E+03  0.75720747423E+03  0.25500000920E-02 0. -1.
       -2   -1    0    0    0  501  0.00000000000E+00  0.00000000000E+00 -0.82587136683E+02  0.82587136723E+02  0.25500000920E-02 0.  1.
    10030    2    1    2    0    0  0.00000000000E+00  0.00000000000E+00  0.67462033754E+03  0.83979461095E+03  0.50014236849E+03 0.  0.
        4    1    3    3  502    0  0.42968606456E+02  0.34930666607E+02 -0.72157290077E+02  0.90965598011E+02  0.12699999809E+01 0.  1.
       -4    1    3    3    0  502 -0.42968606456E+02 -0.34930666607E+02  0.74677762761E+03  0.74882901294E+03  0.12699999809E+01 0. -1.
</event>
<event>
 5   0  0.1855407E-02  0.4999575E+03  0.7818609E-02  0.1013790E+00
        2   -1    0    0  501    0  0.00000000000E+00  0.00000000000E+00  0.16826809998E+04  0.16826809998E+04  0.25500000920E-02 0.  1.
       -2   -1    0    0    0  501  0.00000000000E+00  0.00000000000E+00 -0.37136797877E+02  0.37136797965E+02  0.25500000920E-02 0. -1.
    10030    2    1    2    0    0  0.00000000000E+00  0.00000000000E+00  0.16455442019E+04  0.17198177977E+04  0.49995753522E+03 0.  0.
        1    1    3    3  502    0  0.15257304035E+03 -0.10962212983E+03  0.13900352761E+04  0.14026737372E+04  0.50400001928E-02 0.  1.
       -1    1    3    3    0  502 -0.15257304035E+03  0.10962212983E+03  0.25550892574E+03  0.31714406056E+03  0.50400001928E-02 0. -1.
</event>
<event>
 5   0  0.8012875E-03  0.5019585E+03  0.7818609E-02  0.1013269E+00
        3   -1    0    0  501    0  0.00000000000E+00  0.00000000000E+00  0.12675668283E+04  0.12675668323E+04  0.10100000352E+00 0. -1.
       -3   -1    0    0    0  501  0.00000000000E+00  0.00000000000E+00 -0.49694045854E+02  0.49694148492E+02  0.10100000352E+00 0.  1.
    10030    2    1    2    0    0  0.00000000000E+00  0.00000000000E+00  0.12178727824E+04  0.13172609808E+04  0.50195854147E+03 0.  0.
        4    1    3    3  502    0 -0.19036951332E+03 -0.10742508981E+03  0.93256285485E+03  0.95783912671E+03  0.12699999809E+01 0. -1.
       -4    1    3    3    0  502  0.19036951332E+03  0.10742508981E+03  0.28530992760E+03  0.35942185410E+03  0.12699999809E+01 0.  1.
</event>
<event>
 5   0  0.1180937E-02  0.4999686E+03  0.7818609E-02  0.1013787E+00
        1   -1    0    0  501    0  0.00000000000E+00  0.00000000000E+00  0.64671986025E+03  0.64671986027E+03  0.50400001928E-02 0.  1.
       -1   -1    0    0    0  501  0.00000000000E+00  0.00000000000E+00 -0.96629390436E+02  0.96629390568E+02  0.50400001928E-02 0. -1.
    10030    2    1    2    0    0  0.00000000000E+00  0.00000000000E+00  0.55009046981E+03  0.74334925084E+03  0.49996858275E+03 0.  0.
        1    1    3    3  502    0  0.14033940820E+03 -0.19716682924E+03  0.18193076889E+03  0.30276841437E+03  0.50400001928E-02 0. -1.
       -1    1    3    3    0  502 -0.14033940820E+03  0.19716682924E+03  0.36815970093E+03  0.44058083646E+03  0.50400001928E-02 0.  1.
</event>
<event>
 5   0  0.1923706E-02  0.4998840E+03  0.7818609E-02  0.1013809E+00
        2   -1    0    0  501    0  0.00000000000E+00  0.00000000000E+00  0.51777464697E+03  0.51777464698E+03  0.25500000920E-02 0. -1.
       -2   -1    0    0    0  501  0.00000000000E+00  0.00000000000E+00 -0.12065288901E+03  0.12065288904E+03  0.25500000920E-02 0.  1.
    10030    2    1    2    0    0  0.00000000000E+00  0.00000000000E+00  0.39712175796E+03  0.63842753602E+03  0.49988401465E+03 0.  0.
        3    1    3    3  502    0  0.12439959696E+03 -0.12271689216E+03 -0.29675396157E+02  0.17724371550E+03  0.10100000352E+00 0.  1.
       -3    1    3    3    0  502 -0.12439959696E+03  0.12271689216E+03  0.42679715412E+03  0.46118382052E+03  0.10100000352E+00 0. -1.
</event>
<event>
 5   0  0.1180937E-02  0.5009221E+03  0.7818609E-02  0.1013539E+00
        1   -1    0    0  501    0  0.00000000000E+00  0.00000000000E+00  0.13533761222E+04  0.13533761222E+04  0.50400001928E-02 0. -1.
       -1   -1    0    0    0  501  0.00000000000E+00  0.00000000000E+00 -0.46351290865E+02  0.46351291139E+02  0.50400001928E-02 0.  1.
    10030    2    1    2    0    0  0.00000000000E+00  0.00000000000E+00  0.13070248314E+04  0.13997274134E+04  0.50092207174E+03 0.  0.
        1    1    3    3  502    0 -0.59163489872E+02  0.20473878405E+03  0.10211775679E+04  0.10431787543E+04  0.50400001928E-02 0. -1.
       -1    1    3    3    0  502  0.59163489872E+02 -0.20473878405E+03  0.28584726347E+03  0.35654865908E+03  0.50400001928E-02 0.  1.
</event>
<event>
 5   0  0.1227864E-02  0.5000066E+03  0.7818609E-02  0.1013777E+00
       -1   -1    0    0    0  501  0.00000000000E+00  0.00000000000E+00  0.87188248109E+02  0.87188248255E+02  0.50400001928E-02 0. -1.
        1   -1    0    0  501    0  0.00000000000E+00  0.00000000000E+00 -0.71685859145E+03  0.71685859147E+03  0.50400001928E-02 0.  1.
    10030    2    1    2    0    0  0.00000000000E+00  0.00000000000E+00 -0.62967034334E+03  0.80404683973E+03  0.50000657914E+03 0.  0.
        5    1    3    3  502    0  0.87771446750E+02  0.12971077048E+03 -0.62810339898E+03  0.64735205310E+03  0.46999998093E+01 0.  1.
       -5    1    3    3    0  502 -0.87771446750E+02 -0.12971077048E+03 -0.15669443667E+01  0.15669478663E+03  0.46999998093E+01 0. -1.
</event>
<event>
 5   0  0.8012875E-03  0.4980132E+03  0.7818609E-02  0.1014299E+00
       -3   -1    0    0    0  501  0.00000000000E+00  0.00000000000E+00  0.15169476848E+03  0.15169480210E+03  0.10100000352E+00 0. -1.
        3   -1    0    0  501    0  0.00000000000E+00  0.00000000000E+00 -0.40874364280E+03  0.40874365528E+03  0.10100000352E+00 0.  1.
    10030    2    1    2    0    0  0.00000000000E+00  0.00000000000E+00 -0.25704887432E+03  0.56043845738E+03  0.49801319332E+03 0.  0.
        2    1    3    3  502    0 -0.10462338396E+03 -0.16953880276E+03 -0.29663068065E+03  0.35732228985E+03  0.25500000920E-02 0.  1.
       -2    1    3    3    0  502  0.10462338396E+03  0.16953880276E+03  0.39581806330E+02  0.20311616753E+03  0.25500000920E-02 0. -1.
</event>
<event>
 5   0  0.1180937E-02  0.5000352E+03  0.7818609E-02  0.1013770E+00
        1   -1    0    0  501    0  0.00000000000E+00  0.00000000000E+00  0.37829355051E+03  0.37829355055E+03  0.50400001928E-02 0. -1.
       -1   -1    0    0    0  501  0.00000000000E+00  0.00000000000E+00 -0.16523890624E+03  0.16523890632E+03  0.50400001928E-02 0.  1.
    10030    2    1    2    0    0  0.00000000000E+00  0.00000000000E+00  0.21305464427E+03  0.54353245686E+03  0.50003524898E+03 0.  0.
        1    1    3    3  502    0  0.41757576171E+02  0.20616210724E+03  0.25342084071E+03  0.32934576384E+03  0.50400001928E-02 0. -1.
       -1    1    3    3    0  502 -0.41757576171E+02 -0.20616210724E+03 -0.40366196438E+02  0.21418669302E+03  0.50400001928E-02 0.  1.
</event>
<event>
 5   0  0.1209831E-02  0.4997938E+03  0.7818609E-02  0.1013833E+00
       -1   -1    0    0    0  501  0.00000000000E+00  0.00000000000E+00  0.14013276769E+03  0.14013276778E+03  0.50400001928E-02 0. -1.
        1   -1    0    0  501    0  0.00000000000E+00  0.00000000000E+00 -0.44563779419E+03  0.44563779422E+03  0.50400001928E-02 0.  1.
    10030    2    1    2    0    0  0.00000000000E+00  0.00000000000E+00 -0.30550502650E+03  0.58577056201E+03  0.49979378757E+03 0.  0.
        4    1    3    3  502    0  0.12234865635E+03 -0.10661133104E+03 -0.37547317352E+03  0.40904386873E+03  0.12699999809E+01 0. -1.
       -4    1    3    3    0  502 -0.12234865635E+03  0.10661133104E+03  0.69968147014E+02  0.17672669327E+03  0.12699999809E+01 0.  1.
</event>
<event>
 5   0  0.8012875E-03  0.5002298E+03  0.7818609E-02  0.1013719E+00
       -3   -1    0    0    0  501  0.00000000000E+00  0.00000000000E+00  0.32689366344E+03  0.32689367905E+03  0.10100000352E+00 0. -1.
        3   -1    0    0  501    0  0.00000000000E+00  0.00000000000E+00 -0.19136943618E+03  0.19136946284E+03  0.10100000352E+00 0.  1.
    10030    2    1    2    0    0  0.00000000000E+00  0.00000000000E+00  0.13552422726E+03  0.51826314188E+03  0.50022981525E+03 0.  0.
        4    1    3    3  502    0 -0.41711953699E+02 -0.34038427365E+02  0.32081584070E+03  0.32530434698E+03  0.12699999809E+01 0. -1.
       -4    1    3    3    0  502  0.41711953699E+02  0.34038427365E+02 -0.18529161344E+03  0.19295879490E+03  0.12699999809E+01 0.  1.
</event>
<event>
 5   0  0.1923706E-02  0.4997846E+03  0.7818609E-02  0.1013835E+00
       -2   -1    0    0    0  501  0.00000000000E+00  0.00000000000E+00  0.31007500331E+02  0.31007500436E+02  0.25500000920E-02 0.  1.
        2   -1    0    0  501    0  0.00000000000E+00  0.00000000000E+00 -0.20139046610E+04  0.20139046610E+04  0.25500000920E-02 0. -1.
    10030    2    1    2    0    0  0.00000000000E+00  0.00000000000E+00 -0.19828971607E+04  0.20449121615E+04  0.49978455179E+03 0.  0.
        3    1    3    3  502    0 -0.36752363815E+02 -0.24717399093E+03 -0.99410437134E+03  0.10250313309E+04  0.10100000352E+00 0. -1.
       -3    1    3    3    0  502  0.36752363815E+02  0.24717399093E+03 -0.98879278936E+03  0.10198808306E+04  0.10100000352E+00 0.  1.
</event>
<event>
 5   0  0.8012875E-03  0.4999947E+03  0.7818609E-02  0.1013780E+00
        3   -1    0    0  501    0  0.00000000000E+00  0.00000000000E+00  0.24180826161E+03  0.24180828270E+03  0.10100000352E+00 0.  1.
       -3   -1    0    0    0  501  0.00000000000E+00  0.00000000000E+00 -0.25846371755E+03  0.25846373729E+03  0.10100000352E+00 0. -1.
    10030    2    1    2    0    0  0.00000000000E+00  0.00000000000E+00 -0.16655455945E+02  0.50027201999E+03  0.49999468974E+03 0.  0.
        4    1    3    3  502    0  0.53241404110E+02  0.18179332652E+03 -0.17155496341E+03  0.25557030158E+03  0.12699999809E+01 0. -1.
       -4    1    3    3    0  502 -0.53241404110E+02 -0.18179332652E+03  0.15489950747E+03  0.24470171841E+03  0.12699999809E+01 0.  1.
</event>
<event>
 5   0  0.1180937E-02  0.5019370E+03  0.7818609E-02  0.1013275E+00
       -1   -1    0    0    0  501  0.00000000000E+00  0.00000000000E+00  0.74535049269E+02  0.74535049439E+02  0.50400001928E-02 0. -1.
        1   -1    0    0  501    0  0.00000000000E+00  0.00000000000E+00 -0.84504119181E+03  0.84504119182E+03  0.50400001928E-02 0.  1.
    10030    2    1    2    0    0  0.00000000000E+00  0.00000000000E+00 -0.77050614254E+03  0.91957624126E+03  0.50193699585E+03 0.  0.
        1    1    3    3  502    0 -0.89113976759E+02 -0.18756141200E+03 -0.64346629383E+03  0.67614307320E+03  0.50400001928E-02 0.  1.
       -1    1    3    3    0  502  0.89113976759E+02  0.18756141200E+03 -0.12703984871E+03  0.24343316806E+03  0.50400001928E-02 0. -1.
</event>
<event>
 5   0  0.1217270E-02  0.5013425E+03  0.7818609E-02  0.1013429E+00
        1   -1    0    0  501    0  0.00000000000E+00  0.00000000000E+00  0.26350114968E+03  0.26350114973E+03  0.50400001928E-02 0. -1.
       -1   -1    0    0    0  501  0.00000000000E+00  0.00000000000E+00 -0.23846601586E+03  0.23846601591E+03  0.50400001928E-02 0.  1.
    10030    2    1    2    0    0  0.00000000000E+00  0.00000000000E+00  0.25035133827E+02  0.50196716564E+03  0.50134247522E+03 0.  0.
        2    1    3    3  502    0 -0.11975451601E+03 -0.21949522472E+03  0.30337821875E+02  0.25187235105E+03  0.25500000920E-02 0.  1.
       -2    1    3    3    0  502  0.11975451601E+03  0.21949522472E+03 -0.53026880483E+01  0.25009481459E+03  0.25500000920E-02 0. -1.
</event>
<event>
 5   0  0.1225989E-02  0.5045106E+03  0.7818609E-02  0.1012608E+00
        1   -1    0    0  501    0  0.00000000000E+00  0.00000000000E+00  0.61157261361E+03  0.61157261363E+03  0.50400001928E-02 0.  1.
       -1   -1    0    0    0  501  0.00000000000E+00  0.00000000000E+00 -0.10404771052E+03  0.10404771065E+03  0.50400001928E-02 0. -1.
    10030    2    1    2    0    0  0.00000000000E+00  0.00000000000E+00  0.50752490308E+03  0.71562032428E+03  0.50451057597E+03 0.  0.
        3    1    3    3  502    0 -0.12156985445E+03  0.20080358244E+03  0.12274690089E+03  0.26489265772E+03  0.10100000352E+00 0. -1.
       -3    1    3    3    0  502  0.12156985445E+03 -0.20080358244E+03  0.38477800219E+03  0.45072766656E+03  0.10100000352E+00 0.  1.
</event>
<event>
 5   0  0.1941387E-02  0.5000629E+03  0.7818609E-02  0.1013762E+00
       -2   -1    0    0    0  501  0.00000000000E+00  0.00000000000E+00  0.29649040863E+02  0.29649040973E+02  0.25500000920E-02 0. -1.
        2   -1    0    0  501    0  0.00000000000E+00  0.00000000000E+00 -0.21085247625E+04  0.21085247625E+04  0.25500000920E-02 0.  1.
    10030    2    1    2    0    0  0.00000000000E+00  0.00000000000E+00 -0.20788757216E+04  0.21381738035E+04  0.50006294389E+03 0.  0.
        4    1    3    3  502    0 -0.31332774357E+02 -0.51967348994E+02 -0.20765466395E+04  0.20774334904E+04  0.12699999809E+01 0.  1.
       -4    1    3    3    0  502  0.31332774357E+02  0.51967348994E+02 -0.23290821485E+01  0.60740313087E+02  0.12699999809E+01 0. -1.
</event>
<event>
 5   0  0.1923706E-02  0.4999702E+03  0.7818609E-02  0.1013787E+00
       -2   -1    0    0    0  501  0.00000000000E+00  0.00000000000E+00  0.41440781234E+02  0.41440781312E+02  0.25500000920E-02 0.  1.
        2   -1    0    0  501    0  0.00000000000E+00  0.00000000000E+00 -0.15079966781E+04  0.15079966781E+04  0.25500000920E-02 0. -1.
    10030    2    1    2    0    0  0.00000000000E+00  0.00000000000E+00 -0.14665558969E+04  0.15494374594E+04  0.49997024112E+03 0.  0.
        3    1    3    3  502    0  0.45527747272E+02  0.11333000035E+02 -0.14942301111E+04  0.14949665039E+04  0.10100000352E+00 0. -1.
       -3    1    3    3    0  502 -0.45527747272E+02 -0.11333000035E+02  0.27674214226E+02  0.54470955523E+02  0.10100000352E+00 0.  1.
</event>
<event>
 5   0  0.8012875E-03  0.4991746E+03  0.7818609E-02  0.1013995E+00
       -3   -1    0    0    0  501  0.00000000000E+00  0.00000000000E+00  0.79288619414E+02  0.79288683742E+02  0.10100000352E+00 0. -1.
        3   -1    0    0  501    0  0.00000000000E+00  0.00000000000E+00 -0.78565865310E+03  0.78565865960E+03  0.10100000352E+00 0.  1.
    10030    2    1    2    0    0  0.00000000000E+00  0.00000000000E+00 -0.70637003369E+03  0.86494734334E+03  0.49917460097E+03 0.  0.
        3    1    3    3  502    0  0.15589916750E+03  0.91176266413E+02 -0.65168269447E+03  0.67624552232E+03  0.10100000352E+00 0.  1.
       -3    1    3    3    0  502 -0.15589916750E+03 -0.91176266413E+02 -0.54687339217E+02  0.18870182102E+03  0.10100000352E+00 0. -1.
</event>
<event>
 5   0  0.1209831E-02  0.4989059E+03  0.7818609E-02  0.1014065E+00
        1   -1    0    0  501    0  0.00000000000E+00  0.00000000000E+00  0.79211873855E+03  0.79211873857E+03  0.50400001928E-02 0. -1.
       -1   -1    0    0    0  501  0.00000000000E+00  0.00000000000E+00 -0.78557393614E+02  0.78557393775E+02  0.50400001928E-02 0.  1.
    10030    2    1    2    0    0  0.00000000000E+00  0.00000000000E+00  0.71356134494E+03  0.87067613234E+03  0.49890593747E+03 0.  0.
        4    1    3    3  502    0 -0.35415758290E+02  0.12041725367E+03  0.73298779400E+03  0.74365805985E+03  0.12699999809E+01 0. -1.
       -4    1    3    3    0  502  0.35415758290E+02 -0.12041725367E+03 -0.19426449068E+02  0.12701807249E+03  0.12699999809E+01 0.  1.
</event>
<event>
 5   0  0.8012875E-03  0.5010995E+03  0.7818609E-02  0.1013492E+00
        4   -1    0    0  501    0  0.00000000000E+00  0.00000000000E+00  0.86480817747E+03  0.86480910999E+03  0.12699999809E+01 0.  1.
       -4   -1    0    0    0  501  0.00000000000E+00  0.00000000000E+00 -0.72582037331E+02  0.72593147356E+02  0.12699999809E+01 0. -1.
    10030    2    1    2    0    0  0.00000000000E+00  0.00000000000E+00  0.79222614014E+03  0.93740225734E+03  0.50109952600E+03 0.  0.
        3    1    3    3  502    0 -0.10585444828E+02 -0.20989369217E+03  0.14093165014E+03  0.25303982664E+03  0.10100000352E+00 0. -1.
       -3    1    3    3    0  502  0.10585444828E+02  0.20989369217E+03  0.65129449000E+03  0.68436243070E+03  0.10100000352E+00 0.  1.
</event>
<event>
 5   0  0.1217270E-02  0.4959664E+03  0.7818609E-02  0.1014837E+00
        1   -1    0    0  501    0  0.00000000000E+00  0.00000000000E+00  0.10632268307E+04  0.10632268307E+04  0.50400001928E-02 0.  1.
       -1   -1    0    0    0  501  0.00000000000E+00  0.00000000000E+00 -0.57838703309E+02  0.57838703529E+02  0.50400001928E-02 0. -1.
    10030    2    1    2    0    0  0.00000000000E+00  0.00000000000E+00  0.10053881274E+04  0.11210655343E+04  0.49596637524E+03 0.  0.
        2    1    3    3  502    0  0.70623762927E+02 -0.23755451966E+03  0.48301516164E+03  0.54288443713E+03  0.25500000920E-02 0. -1.
       -2    1    3    3    0  502 -0.70623762927E+02  0.23755451966E+03  0.52237296577E+03  0.57818109713E+03  0.25500000920E-02 0.  1.
</event>
<event>
 5   0  0.1180937E-02  0.5005721E+03  0.7818609E-02  0.1013630E+00
        1   -1    0    0  501    0  0.00000000000E+00  0.00000000000E+00  0.28806464662E+03  0.28806464667E+03  0.50400001928E-02 0.  1.
       -1   -1    0    0    0  501  0.00000000000E+00  0.00000000000E+00 -0.21746193971E+03  0.21746193977E+03  0.50400001928E-02 0. -1.
    10030    2    1    2    0    0  0.00000000000E+00  0.00000000000E+00  0.70602706910E+02  0.50552658643E+03  0.50057206012E+03 0.  0.
        1    1    3    3  502    0 -0.85859025288E+02 -0.18814937659E+02  0.27196528435E+03  0.28581618222E+03  0.50400001928E-02 0.  1.
       -1    1    3    3    0  502  0.85859025288E+02  0.18814937659E+02 -0.20136257744E+03  0.21971040422E+03  0.50400001928E-02 0. -1.
</event>
<event>
 5   0  0.1227864E-02  0.5045743E+03  0.7818609E-02  0.1012592E+00
        1   -1    0    0  501    0  0.00000000000E+00  0.00000000000E+00  0.97550621435E+03  0.97550621437E+03  0.50400001928E-02 0. -1.
       -1   -1    0    0    0  501  0.00000000000E+00  0.00000000000E+00 -0.65246953948E+02  0.65246954142E+02  0.50400001928E-02 0.  1.
    10030    2    1    2    0    0  0.00000000000E+00  0.00000000000E+00  0.91025926040E+03  0.10407531685E+04  0.50457431227E+03 0.  0.
        5    1    3    3  502    0 -0.10203338794E+03  0.83625177292E+02  0.11673735721E+02  0.13252301172E+03  0.46999998093E+01 0.  1.
       -5    1    3    3    0  502  0.10203338794E+03 -0.83625177292E+02  0.89858552468E+03  0.90823015679E+03  0.46999998093E+01 0. -1.
</event>
<event>
 5   0  0.8012875E-03  0.5003397E+03  0.7818609E-02  0.1013690E+00
        3   -1    0    0  501    0  0.00000000000E+00  0.00000000000E+00  0.47232379129E+03  0.47232380208E+03  0.10100000352E+00 0. -1.
       -3   -1    0    0    0  501  0.00000000000E+00  0.00000000000E+00 -0.13250431699E+03  0.13250435549E+03  0.10100000352E+00 0.  1.
    10030    2    1    2    0    0  0.00000000000E+00  0.00000000000E+00  0.33981947429E+03  0.60482815757E+03  0.50033970968E+03 0.  0.
        5    1    3    3  502    0  0.18468920564E+03  0.16856725638E+03  0.16247332182E+03  0.29823596850E+03  0.46999998093E+01 0. -1.
       -5    1    3    3    0  502 -0.18468920564E+03 -0.16856725638E+03  0.17734615247E+03  0.30659218907E+03  0.46999998093E+01 0.  1.
</event>
<event>
 5   0  0.1209831E-02  0.4997199E+03  0.7818609E-02  0.1013852E+00
        1   -1    0    0  501    0  0.00000000000E+00  0.00000000000E+00  0.32572912330E+03  0.32572912334E+03  0.50400001928E-02 0. -1.
       -1   -1    0    0    0  501  0.00000000000E+00  0.00000000000E+00 -0.19166231760E+03  0.19166231767E+03  0.50400001928E-02 0.  1.
    10030    2    1    2    0    0  0.00000000000E+00  0.00000000000E+00  0.13406680570E+03  0.51739144100E+03  0.49971991639E+03 0.  0.
        4    1    3    3  502    0  0.49169904863E+02 -0.13275670570E+03  0.28019337746E+03  0.31392987135E+03  0.12699999809E+01 0. -1.
       -4    1    3    3    0  502 -0.49169904863E+02  0.13275670570E+03 -0.14612657176E+03  0.20346156966E+03  0.12699999809E+01 0.  1.
</event>
<event>
 5   0  0.1941387E-02  0.4980850E+03  0.7818609E-02  0.1014280E+00
       -2   -1    0    0    0  501  0.00000000000E+00  0.00000000000E+00  0.18659217922E+03  0.18659217923E+03  0.25500000920E-02 0.  1.
        2   -1    0    0  501    0  0.00000000000E+00  0.00000000000E+00 -0.33239430356E+03  0.33239430357E+03  0.25500000920E-02 0. -1.
    10030    2    1    2    0    0  0.00000000000E+00  0.00000000000E+00 -0.14580212434E+03  0.51898648280E+03  0.49808504281E+03 0.  0.
        4    1    3    3  502    0 -0.16586871640E+03  0.12268272414E+03 -0.21824315469E+03  0.30032510610E+03  0.12699999809E+01 0. -1.
       -4    1    3    3    0  502  0.16586871640E+03 -0.12268272414E+03  0.72441030351E+02  0.21866137670E+03  0.12699999809E+01 0.  1.
</event>
<event>
 5   0  0.1227864E-02  0.5018082E+03  0.7818609E-02  0.1013308E+00
        1   -1    0    0  501    0  0.00000000000E+00  0.00000000000E+00  0.78906425760E+03  0.78906425762E+03  0.50400001928E-02 0. -1.
       -1   -1    0    0    0  501  0.00000000000E+00  0.00000000000E+00 -0.79781678811E+02  0.79781678970E+02  0.50400001928E-02 0.  1.
    10030    2    1    2    0    0  0.00000000000E+00  0.00000000000E+00  0.70928257879E+03  0.86884593659E+03  0.50180821531E+03 0.  0.
        5    1    3    3  502    0  0.96975335681E+02  0.73367357129E+02  0.73454643359E+03  0.74455861953E+03  0.46999998093E+01 0. -1.
       -5    1    3    3    0  502 -0.96975335681E+02 -0.73367357129E+02 -0.25263854802E+02  0.12428731705E+03  0.46999998093E+01 0.  1.
</event>
<event>
 5   0  0.1941387E-02  0.4999480E+03  0.7818609E-02  0.1013792E+00
        2   -1    0    0  501    0  0.00000000000E+00  0.00000000000E+00  0.45227001445E+03  0.45227001446E+03  0.25500000920E-02 0. -1.
       -2   -1    0    0    0  501  0.00000000000E+00  0.00000000000E+00 -0.13816305191E+03  0.13816305193E+03  0.25500000920E-02 0.  1.
    10030    2    1    2    0    0  0.00000000000E+00  0.00000000000E+00  0.31410696254E+03  0.59043306639E+03  0.49994801927E+03 0.  0.
        4    1    3    3  502    0 -0.23190250251E+03  0.82024298354E+02  0.10452089084E+03  0.26726950016E+03  0.12699999809E+01 0.  1.
       -4    1    3    3    0  502  0.23190250251E+03 -0.82024298354E+02  0.20958607170E+03  0.32316356624E+03  0.12699999809E+01 0. -1.
</event>
<event>
 5   0  0.1180937E-02  0.5029355E+03  0.7818609E-02  0.1013016E+00
        1   -1    0    0  501    0  0.00000000000E+00  0.00000000000E+00  0.65418410318E+03  0.65418410320E+03  0.50400001928E-02 0. -1.
       -1   -1    0    0    0  501  0.00000000000E+00  0.00000000000E+00 -0.96663969814E+02  0.96663969945E+02  0.50400001928E-02 0.  1.
    10030    2    1    2    0    0  0.00000000000E+00  0.00000000000E+00  0.55752013336E+03  0.75084807314E+03  0.50293551260E+03 0.  0.
        1    1    3    3  502    0 -0.15655013339E+03 -0.19358187375E+03  0.22588951124E+03  0.33616656202E+03  0.50400001928E-02 0. -1.
       -1    1    3    3    0  502  0.15655013339E+03  0.19358187375E+03  0.33163062213E+03  0.41468151112E+03  0.50400001928E-02 0.  1.
</event>
<event>
 5   0  0.1217270E-02  0.4987293E+03  0.7818609E-02  0.1014111E+00
        1   -1    0    0  501    0  0.00000000000E+00  0.00000000000E+00  0.14843365139E+03  0.14843365148E+03  0.50400001928E-02 0. -1.
       -1   -1    0    0    0  501  0.00000000000E+00  0.00000000000E+00 -0.41892613884E+03  0.41892613887E+03  0.50400001928E-02 0.  1.
    10030    2    1    2    0    0  0.00000000000E+00  0.00000000000E+00 -0.27049248745E+03  0.56735979035E+03  0.49872933134E+03 0.  0.
        2    1    3    3  502    0 -0.14879322092E+03  0.19872646158E+03 -0.10854006534E+03  0.27094755012E+03  0.25500000920E-02 0. -1.
       -2    1    3    3    0  502  0.14879322092E+03 -0.19872646158E+03 -0.16195242211E+03  0.29641224023E+03  0.25500000920E-02 0.  1.
</event>
<event>
 5   0  0.1941387E-02  0.4997748E+03  0.7818609E-02  0.1013838E+00
        2   -1    0    0  501    0  0.00000000000E+00  0.00000000000E+00  0.83226509336E+03  0.83226509336E+03  0.25500000920E-02 0.  1.
       -2   -1    0    0    0  501  0.00000000000E+00  0.00000000000E+00 -0.75028640025E+02  0.75028640068E+02  0.25500000920E-02 0. -1.
    10030    2    1    2    0    0  0.00000000000E+00  0.00000000000E+00  0.75723645333E+03  0.90729373343E+03  0.49977482176E+03 0.  0.
        4    1    3    3  502    0  0.95741836668E+02 -0.98947150644E+02  0.75718597471E+03  0.76960330763E+03  0.12699999809E+01 0.  1.
       -4    1    3    3    0  502 -0.95741836668E+02  0.98947150644E+02  0.50478618502E-01  0.13769042580E+03  0.12699999809E+01 0. -1.
</event>
<event>
 5   0  0.1941387E-02  0.4999625E+03  0.7818609E-02  0.1013789E+00
       -2   -1    0    0    0  501  0.00000000000E+00  0.00000000000E+00  0.36308926585E+03  0.36308926586E+03  0.25500000920E-02 0. -1.
        2   -1    0    0  501    0  0.00000000000E+00  0.00000000000E+00 -0.17210813520E+03  0.17210813522E+03  0.25500000920E-02 0.  1.
    10030    2    1    2    0    0  0.00000000000E+00  0.00000000000E+00  0.19098113065E+03  0.53519740108E+03  0.49996246445E+03 0.  0.
        4    1    3    3  502    0  0.20690570828E+03  0.24136330007E+02  0.24341950080E+03  0.32038601845E+03  0.12699999809E+01 0.  1.
       -4    1    3    3    0  502 -0.20690570828E+03 -0.24136330007E+02 -0.52438370151E+02  0.21481138263E+03  0.12699999809E+01 0. -1.
</event>
<event>
 5   0  0.1967813E-02  0.5012545E+03  0.7818609E-02  0.1013452E+00
       -2   -1    0    0    0  501  0.00000000000E+00  0.00000000000E+00  0.51343887798E+02  0.51343887862E+02  0.25500000920E-02 0. -1.
        2   -1    0    0  501    0  0.00000000000E+00  0.00000000000E+00 -0.12233982110E+04  0.12233982110E+04  0.25500000920E-02 0.  1.
    10030    2    1    2    0    0  0.00000000000E+00  0.00000000000E+00 -0.11720543232E+04  0.12747420989E+04  0.50125450829E+03 0.  0.
        5    1    3    3  502    0 -0.89915886308E+02 -0.18249261729E+03 -0.95808162787E+03  0.97945439793E+03  0.46999998093E+01 0.  1.
       -5    1    3    3    0  502  0.89915886308E+02  0.18249261729E+03 -0.21397269533E+03  0.29528770093E+03  0.46999998093E+01 0. -1.
</event>
<event>
 5   0  0.1855407E-02  0.5012935E+03  0.7818609E-02  0.1013442E+00
       -2   -1    0    0    0  501  0.00000000000E+00  0.00000000000E+00  0.98436125592E+02  0.98436125625E+02  0.25500000920E-02 0.  1.
        2   -1    0    0  501    0  0.00000000000E+00  0.00000000000E+00 -0.63821892279E+03  0.63821892280E+03  0.25500000920E-02 0. -1.
    10030    2    1    2    0    0  0.00000000000E+00  0.00000000000E+00 -0.53978279720E+03  0.73665504842E+03  0.50129351902E+03 0.  0.
        1    1    3    3  502    0  0.63849507832E+02  0.67277571493E+02  0.72288825982E+02  0.11759551719E+03  0.50400001928E-02 0.  1.
       -1    1    3    3    0  502 -0.63849507832E+02 -0.67277571493E+02 -0.61207162318E+03  0.61905953123E+03  0.50400001928E-02 0. -1.
</event>
<event>
 5   0  0.1227864E-02  0.4994456E+03  0.7818609E-02  0.1013924E+00
       -1   -1    0    0    0  501  0.00000000000E+00  0.00000000000E+00  0.12607899769E+03  0.12607899780E+03  0.50400001928E-02 0. -1.
        1   -1    0    0  501    0  0.00000000000E+00  0.00000000000E+00 -0.49462215951E+03  0.49462215954E+03  0.50400001928E-02 0.  1.
    10030    2    1    2    0    0  0.00000000000E+00  0.00000000000E+00 -0.36854316182E+03  0.62070115733E+03  0.49944555719E+03 0.  0.
        5    1    3    3  502    0  0.35324341793E+02  0.14953099623E+03 -0.42885647603E+03  0.45557358899E+03  0.46999998093E+01 0.  1.
       -5    1    3    3    0  502 -0.35324341793E+02 -0.14953099623E+03  0.60313314208E+02  0.16512756834E+03  0.46999998093E+01 0. -1.
</event>
<event>
 5   0  0.1967813E-02  0.5007087E+03  0.7818609E-02  0.1013594E+00
       -2   -1    0    0    0  501  0.00000000000E+00  0.00000000000E+00  0.49563161573E+03  0.49563161573E+03  0.25500000920E-02 0. -1.
        2   -1    0    0  501    0  0.00000000000E+00  0.00000000000E+00 -0.12645944567E+03  0.12645944570E+03  0.25500000920E-02 0.  1.
    10030    2    1    2    0    0  0.00000000000E+00  0.00000000000E+00  0.36917217006E+03  0.62209106143E+03  0.50070869532E+03 0.  0.
        5    1    3    3  502    0  0.60732871390E+02 -0.23767894824E+03  0.12277085438E+03  0.27436205420E+03  0.46999998093E+01 0.  1.
       -5    1    3    3    0  502 -0.60732871390E+02  0.23767894824E+03  0.24640131568E+03  0.34772900723E+03  0.46999998093E+01 0. -1.
</event>
<event>
 5   0  0.8012875E-03  0.4993231E+03  0.7818609E-02  0.1013956E+00
       -4   -1    0    0    0  501  0.00000000000E+00  0.00000000000E+00  0.40495402463E+03  0.40495601608E+03  0.12699999809E+01 0.  1.
        4   -1    0    0  501    0  0.00000000000E+00  0.00000000000E+00 -0.15391593867E+03  0.15392117813E+03  0.12699999809E+01 0. -1.
    10030    2    1    2    0    0  0.00000000000E+00  0.00000000000E+00  0.25103808596E+03  0.55887719421E+03  0.49932313947E+03 0.  0.
        4    1    3    3  502    0 -0.10299147173E+03  0.18427675803E+03  0.27469764776E+03  0.34644707732E+03  0.12699999809E+01 0.  1.
       -4    1    3    3    0  502  0.10299147173E+03 -0.18427675803E+03 -0.23659561806E+02  0.21243011689E+03  0.12699999809E+01 0. -1.
</event>
<event>
 5   0  0.1967813E-02  0.4974207E+03  0.7818609E-02  0.1014454E+00
        2   -1    0    0  501    0  0.00000000000E+00  0.00000000000E+00  0.46761544974E+03  0.46761544975E+03  0.25500000920E-02 0.  1.
       -2   -1    0    0    0  501  0.00000000000E+00  0.00000000000E+00 -0.13228141095E+03  0.13228141098E+03  0.25500000920E-02 0. -1.
    10030    2    1    2    0    0  0.00000000000E+00  0.00000000000E+00  0.33533403879E+03  0.59989686073E+03  0.49742067301E+03 0.  0.
        5    1    3    3  502    0  0.13969498014E+03  0.16708225401E+03  0.31240679624E+03  0.38085596151E+03  0.46999998093E+01 0.  1.
       -5    1    3    3    0  502 -0.13969498014E+03 -0.16708225401E+03  0.22927242553E+02  0.21904089922E+03  0.46999998093E+01 0. -1.
</event>
<event>
 5   0  0.1180937E-02  0.5011990E+03  0.7818609E-02  0.1013466E+00
       -1   -1    0    0    0  501  0.00000000000E+00  0.00000000000E+00  0.57775849949E+03  0.57775849952E+03  0.50400001928E-02 0. -1.
        1   -1    0    0  501    0  0.00000000000E+00  0.00000000000E+00 -0.10869613894E+03  0.10869613906E+03  0.50400001928E-02 0.  1.
    10030    2    1    2    0    0  0.00000000000E+00  0.00000000000E+00  0.46906236055E+03  0.68645463858E+03  0.50119903505E+03 0.  0.
        1    1    3    3  502    0  0.23119869012E+03  0.96605195923E+02  0.22927639442E+03  0.33963666359E+03  0.50400001928E-02 0.  1.
       -1    1    3    3    0  502 -0.23119869012E+03 -0.96605195923E+02  0.23978596613E+03  0.34681797499E+03  0.50400001928E-02 0. -1.
</event>
<event>
 5   0  0.1217270E-02  0.4994277E+03  0.7818609E-02  0.1013928E+00
        1   -1    0    0  501    0  0.00000000000E+00  0.00000000000E+00  0.21758884099E+03  0.21758884105E+03  0.50400001928E-02 0. -1.
       -1   -1    0    0    0  501  0.00000000000E+00  0.00000000000E+00 -0.28658180403E+03  0.28658180408E+03  0.50400001928E-02 0.  1.
    10030    2    1    2    0    0  0.00000000000E+00  0.00000000000E+00 -0.68992963041E+02  0.50417064513E+03  0.49942768291E+03 0.  0.
        2    1    3    3  502    0  0.14319733657E+03  0.14050249445E+03 -0.18460486827E+03  0.27262682469E+03  0.25500000920E-02 0.  1.
       -2    1    3    3    0  502 -0.14319733657E+03 -0.14050249445E+03  0.11561190523E+03  0.23154382044E+03  0.25500000920E-02 0. -1.
</event>
<event>
 5   0  0.1225989E-02  0.5019717E+03  0.7818609E-02  0.1013266E+00
        1   -1    0    0  501    0  0.00000000000E+00  0.00000000000E+00  0.47358264955E+03  0.47358264958E+03  0.50400001928E-02 0. -1.
       -1   -1    0    0    0  501  0.00000000000E+00  0.00000000000E+00 -0.13301564087E+03  0.13301564096E+03  0.50400001928E-02 0.  1.
    10030    2    1    2    0    0  0.00000000000E+00  0.00000000000E+00  0.34056700868E+03  0.60659829054E+03  0.50197171104E+03 0.  0.
        3    1    3    3  502    0  0.24289946031E+03 -0.59387990660E+02  0.14417444741E+03  0.28864054244E+03  0.10100000352E+00 0.  1.
       -3    1    3    3    0  502 -0.24289946031E+03  0.59387990660E+02  0.19639256127E+03  0.31795774810E+03  0.10100000352E+00 0. -1.
</event>
<event>
 5   0  0.8012875E-03  0.5008316E+03  0.7818609E-02  0.1013562E+00
        3   -1    0    0  501    0  0.00000000000E+00  0.00000000000E+00  0.22388735330E+03  0.22388737608E+03  0.10100000352E+00 0. -1.
       -3   -1    0    0    0  501  0.00000000000E+00  0.00000000000E+00 -0.28008754315E+03  0.28008756136E+03  0.10100000352E+00 0.  1.
    10030    2    1    2    0    0  0.00000000000E+00  0.00000000000E+00 -0.56200189843E+02  0.50397493744E+03  0.50083158470E+03 0.  0.
        3    1    3    3  502    0 -0.17128189201E+03 -0.17483032344E+03  0.25193899143E+02  0.24604444981E+03  0.10100000352E+00 0. -1.
       -3    1    3    3    0  502  0.17128189201E+03  0.17483032344E+03 -0.81394088987E+02  0.25793048763E+03  0.10100000352E+00 0.  1.
</event>
<event>
 5   0  0.1225989E-02  0.5003074E+03  0.7818609E-02  0.1013699E+00
        1   -1    0    0  501    0  0.00000000000E+00  0.00000000000E+00  0.12590187076E+04  0.12590187077E+04  0.50400001928E-02 0. -1.
       -1   -1    0    0    0  501  0.00000000000E+00  0.00000000000E+00 -0.49702900302E+02  0.49702900557E+02  0.50400001928E-02 0.  1.
    10030    2    1    2    0    0  0.00000000000E+00  0.00000000000E+00  0.12093158073E+04  0.13087216082E+04  0.50030743140E+03 0.  0.
        3    1    3    3  502    0 -0.10683213458E+03  0.21628734972E+03  0.43146773522E+03  0.49432553987E+03  0.10100000352E+00 0. -1.
       -3    1    3    3    0  502  0.10683213458E+03 -0.21628734972E+03  0.77784807212E+03  0.81439606834E+03  0.10100000352E+00 0.  1.
</event>
<event>
 5   0  0.1982847E-02  0.5006516E+03  0.7818609E-02  0.1013609E+00
       -2   -1    0    0    0  501  0.00000000000E+00  0.00000000000E+00  0.56392826111E+02  0.56392826169E+02  0.25500000920E-02 0.  1.
        2   -1    0    0  501    0  0.00000000000E+00  0.00000000000E+00 -0.11111873774E+04  0.11111873774E+04  0.25500000920E-02 0. -1.
    10030    2    1    2    0    0  0.00000000000E+00  0.00000000000E+00 -0.10547945513E+04  0.11675802036E+04  0.50065156182E+03 0.  0.
        2    1    3    3  502    0 -0.10717695075E+03 -0.13129579954E+03 -0.97770697611E+02  0.19566449619E+03  0.25500000920E-02 0.  1.
       -2    1    3    3    0  502  0.10717695075E+03  0.13129579954E+03 -0.95702385371E+03  0.97191570742E+03  0.25500000920E-02 0. -1.
</event>
<event>
 5   0  0.1225989E-02  0.5043996E+03  0.7818609E-02  0.1012637E+00
       -1   -1    0    0    0  501  0.00000000000E+00  0.00000000000E+00  0.82811962056E+02  0.82811962209E+02  0.50400001928E-02 0.  1.
        1   -1    0    0  501    0  0.00000000000E+00  0.00000000000E+00 -0.76806236364E+03  0.76806236366E+03  0.50400001928E-02 0. -1.
    10030    2    1    2    0    0  0.00000000000E+00  0.00000000000E+00 -0.68525040159E+03  0.85087432587E+03  0.50439964864E+03 0.  0.
        3    1    3    3  502    0 -0.20429667520E+03 -0.98497082228E+02 -0.15656076054E+03  0.27559043642E+03  0.10100000352E+00 0.  1.
       -3    1    3    3    0  502  0.20429667520E+03  0.98497082228E+02 -0.52868964105E+03  0.57528388945E+03  0.10100000352E+00 0. -1.
</event>
<event>
 5   0  0.8012875E-03  0.5004763E+03  0.7818609E-02  0.1013655E+00
       -4   -1    0    0    0  501  0.00000000000E+00  0.00000000000E+00  0.47075331189E+03  0.47075502499E+03  0.12699999809E+01 0.  1.
        4   -1    0    0  501    0  0.00000000000E+00  0.00000000000E+00 -0.13301398429E+03  0.13302004705E+03  0.12699999809E+01 0. -1.
    10030    2    1    2    0    0  0.00000000000E+00  0.00000000000E+00  0.33773932760E+03  0.60377507204E+03  0.50047625739E+03 0.  0.
        5    1    3    3  502    0  0.61953396226E+02  0.18477608796E+03 -0.20410794206E+02  0.19600795010E+03  0.46999998093E+01 0.  1.
       -5    1    3    3    0  502 -0.61953396226E+02 -0.18477608796E+03  0.35815012181E+03  0.40776712194E+03  0.46999998093E+01 0. -1.
</event>
<event>
 5   0  0.1180937E-02  0.5005178E+03  0.7818609E-02  0.1013644E+00
        1   -1    0    0  501    0  0.00000000000E+00  0.00000000000E+00  0.29474819241E+03  0.29474819245E+03  0.50400001928E-02 0. -1.
       -1   -1    0    0    0  501  0.00000000000E+00  0.00000000000E+00 -0.21248485628E+03  0.21248485634E+03  0.50400001928E-02 0.  1.
    10030    2    1    2    0    0  0.00000000000E+00  0.00000000000E+00  0.82263336127E+02  0.50723304879E+03  0.50051784116E+03 0.  0.
        1    1    3    3  502    0 -0.21125899081E+03 -0.13784083101E+01  0.17708543602E+03  0.27566558161E+03  0.50400001928E-02 0.  1.
       -1    1    3    3    0  502  0.21125899081E+03  0.13784083101E+01 -0.94822099892E+02  0.23156746719E+03  0.50400001928E-02 0. -1.
</event>
<event>
 5   0  0.1855407E-02  0.5011294E+03  0.7818609E-02  0.1013485E+00
       -2   -1    0    0    0  501  0.00000000000E+00  0.00000000000E+00  0.80691804937E+02  0.80691804977E+02  0.25500000920E-02 0. -1.
        2   -1    0    0  501    0  0.00000000000E+00  0.00000000000E+00 -0.77805511443E+03  0.77805511443E+03  0.25500000920E-02 0.  1.
    10030    2    1    2    0    0  0.00000000000E+00  0.00000000000E+00 -0.69736330949E+03  0.85874691941E+03  0.50112941060E+03 0.  0.
        1    1    3    3  502    0  0.84235907235E+02 -0.53813598866E+02  0.45045686395E+02  0.10963897746E+03  0.50400001928E-02 0. -1.
       -1    1    3    3    0  502 -0.84235907235E+02  0.53813598866E+02 -0.74240899589E+03  0.74910794195E+03  0.50400001928E-02 0.  1.
</event>
<event>
 5   0  0.1982847E-02  0.4920496E+03  0.7818609E-02  0.1015875E+00
        2   -1    0    0  501    0  0.00000000000E+00  0.00000000000E+00  0.25813090516E+04  0.25813090517E+04  0.25500000920E-02 0.  1.
       -2   -1    0    0    0  501  0.00000000000E+00  0.00000000000E+00 -0.23448642413E+02  0.23448642551E+02  0.25500000920E-02 0. -1.
    10030    2    1    2    0    0  0.00000000000E+00  0.00000000000E+00  0.25578604092E+04  0.26047576942E+04  0.49204956291E+03 0.  0.
        2    1    3    3  502    0  0.31767161034E+01 -0.24408560622E+03  0.11166012676E+04  0.11429725567E+04  0.25500000920E-02 0. -1.
       -2    1    3    3    0  502 -0.31767161034E+01  0.24408560622E+03  0.14412591417E+04  0.14617851375E+04  0.25500000920E-02 0.  1.
</event>
<event>
 5   0  0.8012875E-03  0.4978941E+03  0.7818609E-02  0.1014330E+00
       -3   -1    0    0    0  501  0.00000000000E+00  0.00000000000E+00  0.16871925147E+03  0.16871928170E+03  0.10100000352E+00 0.  1.
        3   -1    0    0  501    0  0.00000000000E+00  0.00000000000E+00 -0.36732393524E+03  0.36732394912E+03  0.10100000352E+00 0. -1.
    10030    2    1    2    0    0  0.00000000000E+00  0.00000000000E+00 -0.19860468376E+03  0.53604323083E+03  0.49789409004E+03 0.  0.
        1    1    3    3  502    0  0.19394945775E+03  0.64633610783E+02 -0.25224595260E+03  0.32468741342E+03  0.50400001928E-02 0. -1.
       -1    1    3    3    0  502 -0.19394945775E+03 -0.64633610783E+02  0.53641268838E+02  0.21135581741E+03  0.50400001928E-02 0.  1.
</event>
<event>
 5   0  0.1225989E-02  0.4991628E+03  0.7818609E-02  0.1013998E+00
        1   -1    0    0  501    0  0.00000000000E+00  0.00000000000E+00  0.34934098237E+03  0.34934098241E+03  0.50400001928E-02 0. -1.
       -1   -1    0    0    0  501  0.00000000000E+00  0.00000000000E+00 -0.17830968142E+03  0.17830968149E+03  0.50400001928E-02 0.  1.
    10030    2    1    2    0    0  0.00000000000E+00  0.00000000000E+00  0.17103130095E+03  0.52765066390E+03  0.49916281633E+03 0.  0.
        3    1    3    3  502    0  0.14618913424E+03  0.16677808417E+03  0.20652458005E+03  0.30304884870E+03  0.10100000352E+00 0. -1.
       -3    1    3    3    0  502 -0.14618913424E+03 -0.16677808417E+03 -0.35493279098E+02  0.22460181520E+03  0.10100000352E+00 0.  1.
</event>
<event>
 5   0  0.1855407E-02  0.4989582E+03  0.7818609E-02  0.1014051E+00
        2   -1    0    0  501    0  0.00000000000E+00  0.00000000000E+00  0.25019167406E+03  0.25019167407E+03  0.25500000920E-02 0.  1.
       -2   -1    0    0    0  501  0.00000000000E+00  0.00000000000E+00 -0.24876859978E+03  0.24876859979E+03  0.25500000920E-02 0. -1.
    10030    2    1    2    0    0  0.00000000000E+00  0.00000000000E+00  0.14230742798E+01  0.49896027386E+03  0.49895824449E+03 0.  0.
        1    1    3    3  502    0 -0.81336806919E+02  0.23527502379E+03 -0.15714710961E+02  0.24943328797E+03  0.50400001928E-02 0. -1.
       -1    1    3    3    0  502  0.81336806919E+02 -0.23527502379E+03  0.17137785241E+02  0.24952698589E+03  0.50400001928E-02 0.  1.
</event>
<event>
 5   0  0.1180937E-02  0.4999858E+03  0.7818609E-02  0.1013783E+00
        1   -1    0    0  501    0  0.00000000000E+00  0.00000000000E+00  0.97430255461E+03  0.97430255462E+03  0.50400001928E-02 0. -1.
       -1   -1    0    0    0  501  0.00000000000E+00  0.00000000000E+00 -0.64144797368E+02  0.64144797566E+02  0.50400001928E-02 0.  1.
    10030    2    1    2    0    0  0.00000000000E+00  0.00000000000E+00  0.91015775724E+03  0.10384473522E+04  0.49998576000E+03 0.  0.
        1    1    3    3  502    0  0.74710378050E+02  0.23590790459E+03  0.38128824229E+03  0.45454912141E+03  0.50400001928E-02 0. -1.
       -1    1    3    3    0  502 -0.74710378050E+02 -0.23590790459E+03  0.52886951495E+03  0.58389823078E+03  0.50400001928E-02 0.  1.
</event>
<event>
 5   0  0.1225989E-02  0.5007932E+03  0.7818609E-02  0.1013572E+00
       -1   -1    0    0    0  501  0.00000000000E+00  0.00000000000E+00  0.24363965124E+03  0.24363965129E+03  0.50400001928E-02 0. -1.
        1   -1    0    0  501    0  0.00000000000E+00  0.00000000000E+00 -0.25734098553E+03  0.25734098558E+03  0.50400001928E-02 0.  1.
    10030    2    1    2    0    0  0.00000000000E+00  0.00000000000E+00 -0.13701334289E+02  0.50098063687E+03  0.50079324272E+03 0.  0.
        3    1    3    3  502    0  0.89358460284E+02  0.20340311186E+03  0.10869449005E+03  0.24733027050E+03  0.10100000352E+00 0. -1.
       -3    1    3    3    0  502 -0.89358460284E+02 -0.20340311186E+03 -0.12239582434E+03  0.25365036636E+03  0.10100000352E+00 0.  1.
</event>
<event>
 5   0  0.1941387E-02  0.4998807E+03  0.7818609E-02  0.1013810E+00
       -2   -1    0    0    0  501  0.00000000000E+00  0.00000000000E+00  0.86203076952E+02  0.86203076990E+02  0.25500000920E-02 0. -1.
        2   -1    0    0  501    0  0.00000000000E+00  0.00000000000E+00 -0.72468611969E+03  0.72468611969E+03  0.25500000920E-02 0.  1.
    10030    2    1    2    0    0  0.00000000000E+00  0.00000000000E+00 -0.63848304274E+03  0.81088919668E+03  0.49988067920E+03 0.  0.
        4    1    3    3  502    0  0.14356719717E+03 -0.13627842247E+03 -0.71707292913E+02  0.21053953855E+03  0.12699999809E+01 0. -1.
       -4    1    3    3    0  502 -0.14356719717E+03  0.13627842247E+03 -0.56677574982E+03  0.60034965813E+03  0.12699999809E+01 0.  1.
</event>
<event>
 5   0  0.1967813E-02  0.5009725E+03  0.7818609E-02  0.1013525E+00
        2   -1    0    0  501    0  0.00000000000E+00  0.00000000000E+00  0.12160516552E+04  0.12160516552E+04  0.25500000920E-02 0. -1.
       -2   -1    0    0    0  501  0.00000000000E+00  0.00000000000E+00 -0.51595970781E+02  0.51595970844E+02  0.25500000920E-02 0.  1.
    10030    2    1    2    0    0  0.00000000000E+00  0.00000000000E+00  0.11644556845E+04  0.12676476261E+04  0.50097251706E+03 0.  0.
        5    1    3    3  502    0 -0.22851990411E+03 -0.91665549497E+02  0.46634457250E+03  0.52737393739E+03  0.46999998093E+01 0.  1.
       -5    1    3    3    0  502  0.22851990411E+03  0.91665549497E+02  0.69811111197E+03  0.74027368870E+03  0.46999998093E+01 0. -1.
</event>
<event>
 5   0  0.1227864E-02  0.4995792E+03  0.7818609E-02  0.1013889E+00
        1   -1    0    0  501    0  0.00000000000E+00  0.00000000000E+00  0.14789155438E+04  0.14789155438E+04  0.50400001928E-02 0. -1.
       -1   -1    0    0    0  501  0.00000000000E+00  0.00000000000E+00 -0.42189591826E+02  0.42189592127E+02  0.50400001928E-02 0.  1.
    10030    2    1    2    0    0  0.00000000000E+00  0.00000000000E+00  0.14367259520E+04  0.15211051359E+04  0.49957919642E+03 0.  0.
        5    1    3    3  502    0 -0.13535486245E+03  0.14783001141E+03  0.11720045117E+04  0.11890295692E+04  0.46999998093E+01 0. -1.
       -5    1    3    3    0  502  0.13535486245E+03 -0.14783001141E+03  0.26472144028E+03  0.33207556671E+03  0.46999998093E+01 0.  1.
</event>
<event>
 5   0  0.1855407E-02  0.4898755E+03  0.7818609E-02  0.1016456E+00
       -2   -1    0    0    0  501  0.00000000000E+00  0.00000000000E+00  0.91105544921E+03  0.91105544921E+03  0.25500000920E-02 0. -1.
        2   -1    0    0  501    0  0.00000000000E+00  0.00000000000E+00 -0.65851636192E+02  0.65851636241E+02  0.25500000920E-02 0.  1.
    10030    2    1    2    0    0  0.00000000000E+00  0.00000000000E+00  0.84520381302E+03  0.97690708546E+03  0.48987546180E+03 0.  0.
        1    1    3    3  502    0 -0.11193877657E+03  0.44435667161E+02  0.84792991717E+03  0.85644028552E+03  0.50400001928E-02 0. -1.
       -1    1    3    3    0  502  0.11193877657E+03 -0.44435667161E+02 -0.27261041483E+01  0.12046679993E+03  0.50400001928E-02 0.  1.
</event>
<event>
 5   0  0.1967813E-02  0.5020805E+03  0.7818609E-02  0.1013237E+00
       -2   -1    0    0    0  501  0.00000000000E+00  0.00000000000E+00  0.73514933738E+02  0.73514933782E+02  0.25500000920E-02 0. -1.
        2   -1    0    0  501    0  0.00000000000E+00  0.00000000000E+00 -0.85725718987E+03  0.85725718987E+03  0.25500000920E-02 0.  1.
    10030    2    1    2    0    0  0.00000000000E+00  0.00000000000E+00 -0.78374225613E+03  0.93077212365E+03  0.50208049367E+03 0.  0.
        5    1    3    3  502    0  0.10054117401E+03 -0.18203728938E+03 -0.13132375719E+03  0.24599618208E+03  0.46999998093E+01 0. -1.
       -5    1    3    3    0  502 -0.10054117401E+03  0.18203728938E+03 -0.65241849894E+03  0.68477594157E+03  0.46999998093E+01 0.  1.
</event>
<event>
 5   0  0.1941387E-02  0.4872937E+03  0.7818609E-02  0.1017150E+00
        2   -1    0    0  501    0  0.00000000000E+00  0.00000000000E+00  0.14374985581E+04  0.14374985581E+04  0.25500000920E-02 0.  1.
       -2   -1    0    0    0  501  0.00000000000E+00  0.00000000000E+00 -0.41296595894E+02  0.41296595973E+02  0.25500000920E-02 0. -1.
    10030    2    1    2    0    0  0.00000000000E+00  0.00000000000E+00  0.13962019622E+04  0.14787951541E+04  0.48729373940E+03 0.  0.
        4    1    3    3  502    0  0.47399032422E+02 -0.95624195491E+02  0.33426556460E+02  0.11184633483E+03  0.12699999809E+01 0. -1.
       -4    1    3    3    0  502 -0.47399032422E+02  0.95624195491E+02  0.13627754058E+04  0.13669488193E+04  0.12699999809E+01 0.  1.
</event>
<event>
 5   0  0.1225989E-02  0.5010420E+03  0.7818609E-02  0.1013507E+00
        1   -1    0    0  501    0  0.00000000000E+00  0.00000000000E+00  0.12153718508E+04  0.12153718509E+04  0.50400001928E-02 0.  1.
       -1   -1    0    0    0  501  0.00000000000E+00  0.00000000000E+00 -0.51639161641E+02  0.51639161887E+02  0.50400001928E-02 0. -1.
    10030    2    1    2    0    0  0.00000000000E+00  0.00000000000E+00  0.11637326892E+04  0.12670110127E+04  0.50104204862E+03 0.  0.
        3    1    3    3  502    0  0.14201548826E+03  0.33877286191E+02  0.10966689503E+04  0.11063448225E+04  0.10100000352E+00 0.  1.
       -3    1    3    3    0  502 -0.14201548826E+03 -0.33877286191E+02  0.67063738912E+02  0.16066619029E+03  0.10100000352E+00 0. -1.
</event>
<event>
 5   0  0.1225989E-02  0.5022426E+03  0.7818609E-02  0.1013195E+00
        1   -1    0    0  501    0  0.00000000000E+00  0.00000000000E+00  0.11088974399E+04  0.11088974399E+04  0.50400001928E-02 0.  1.
       -1   -1    0    0    0  501  0.00000000000E+00  0.00000000000E+00 -0.56869014786E+02  0.56869015009E+02  0.50400001928E-02 0. -1.
    10030    2    1    2    0    0  0.00000000000E+00  0.00000000000E+00  0.10520284251E+04  0.11657664549E+04  0.50224259095E+03 0.  0.
        3    1    3    3  502    0  0.17426983038E+03 -0.17995562015E+03  0.56674285380E+03  0.61963817792E+03  0.10100000352E+00 0.  1.
       -3    1    3    3    0  502 -0.17426983038E+03  0.17995562015E+03  0.48528557128E+03  0.54612827697E+03  0.10100000352E+00 0. -1.
</event>
<event>
 5   0  0.1923706E-02  0.4975634E+03  0.7818609E-02  0.1014417E+00
        2   -1    0    0  501    0  0.00000000000E+00  0.00000000000E+00  0.66767284738E+03  0.66767284739E+03  0.25500000920E-02 0.  1.
       -2   -1    0    0    0  501  0.00000000000E+00  0.00000000000E+00 -0.92698589135E+02  0.92698589170E+02  0.25500000920E-02 0. -1.
    10030    2    1    2    0    0  0.00000000000E+00  0.00000000000E+00  0.57497425825E+03  0.76037143656E+03  0.49756338680E+03 0.  0.
        3    1    3    3  502    0 -0.15945986024E+03  0.52785788289E+02  0.56793617716E+03  0.59225441999E+03  0.10100000352E+00 0.  1.
       -3    1    3    3    0  502  0.15945986024E+03 -0.52785788289E+02  0.70380810914E+01  0.16811701657E+03  0.10100000352E+00 0. -1.
</event>
<event>
 5   0  0.1941387E-02  0.5011940E+03  0.7818609E-02  0.1013468E+00
       -2   -1    0    0    0  501  0.00000000000E+00  0.00000000000E+00  0.22258137252E+03  0.22258137253E+03  0.25500000920E-02 0. -1.
        2   -1    0    0  501    0  0.00000000000E+00  0.00000000000E+00 -0.28213890978E+03  0.28213890979E+03  0.25500000920E-02 0.  1.
    10030    2    1    2    0    0  0.00000000000E+00  0.00000000000E+00 -0.59557537259E+02  0.50472028232E+03  0.50119403742E+03 0.  0.
        4    1    3    3  502    0 -0.10164390393E+03 -0.73980939934E+02  0.18852415575E+03  0.22660016082E+03  0.12699999809E+01 0. -1.
       -4    1    3    3    0  502  0.10164390393E+03  0.73980939934E+02 -0.24808169301E+03  0.27812012151E+03  0.12699999809E+01 0.  1.
</event>
<event>
 5   0  0.1217270E-02  0.5004176E+03  0.7818609E-02  0.1013670E+00
       -1   -1    0    0    0  501  0.00000000000E+00  0.00000000000E+00  0.42822170776E+02  0.42822171073E+02  0.50400001928E-02 0. -1.
        1   -1    0    0  501    0  0.00000000000E+00  0.00000000000E+00 -0.14619634852E+04  0.14619634852E+04  0.50400001928E-02 0.  1.
    10030    2    1    2    0    0  0.00000000000E+00  0.00000000000E+00 -0.14191413144E+04  0.15047856563E+04  0.50041762663E+03 0.  0.
        2    1    3    3  502    0 -0.18864703819E+03  0.88714756249E+02 -0.29348185280E+03  0.35998557044E+03  0.25500000920E-02 0. -1.
       -2    1    3    3    0  502  0.18864703819E+03 -0.88714756249E+02 -0.11256594616E+04  0.11448000858E+04  0.25500000920E-02 0.  1.
</event>
<event>
 5   0  0.1180937E-02  0.4997384E+03  0.7818609E-02  0.1013847E+00
        1   -1    0    0  501    0  0.00000000000E+00  0.00000000000E+00  0.31216113718E+03  0.31216113722E+03  0.50400001928E-02 0. -1.
       -1   -1    0    0    0  501  0.00000000000E+00  0.00000000000E+00 -0.20000768445E+03  0.20000768451E+03  0.50400001928E-02 0.  1.
    10030    2    1    2    0    0  0.00000000000E+00  0.00000000000E+00  0.11215345273E+03  0.51216882174E+03  0.49973843658E+03 0.  0.
        1    1    3    3  502    0 -0.10160249692E+03  0.15120950261E+01  0.29002933288E+03  0.30731476985E+03  0.50400001928E-02 0. -1.
       -1    1    3    3    0  502  0.10160249692E+03 -0.15120950261E+01 -0.17787588014E+03  0.20485405189E+03  0.50400001928E-02 0.  1.
</event>
<event>
 5   0  0.8012875E-03  0.5008282E+03  0.7818609E-02  0.1013563E+00
       -4   -1    0    0    0  501  0.00000000000E+00  0.00000000000E+00  0.93248989152E+03  0.93249075636E+03  0.12699999809E+01 0.  1.
        4   -1    0    0  501    0  0.00000000000E+00  0.00000000000E+00 -0.67240174884E+02  0.67252167388E+02  0.12699999809E+01 0. -1.
    10030    2    1    2    0    0  0.00000000000E+00  0.00000000000E+00  0.86524971664E+03  0.99974292375E+03  0.50082815560E+03 0.  0.
        3    1    3    3  502    0 -0.48696330969E+02 -0.24386663095E+03  0.37391770240E+03  0.44906204996E+03  0.10100000352E+00 0.  1.
       -3    1    3    3    0  502  0.48696330969E+02  0.24386663095E+03  0.49133201424E+03  0.55068087379E+03  0.10100000352E+00 0. -1.
</event>
<event>
 5   0  0.1227864E-02  0.5004786E+03  0.7818609E-02  0.1013654E+00
        1   -1    0    0  501    0  0.00000000000E+00  0.00000000000E+00  0.25233420491E+04  0.25233420491E+04  0.50400001928E-02 0. -1.
       -1   -1    0    0    0  501  0.00000000000E+00  0.00000000000E+00 -0.24816177673E+02  0.24816178184E+02  0.50400001928E-02 0.  1.
    10030    2    1    2    0    0  0.00000000000E+00  0.00000000000E+00  0.24985258715E+04  0.25481582273E+04  0.50047859206E+03 0.  0.
        5    1    3    3  502    0  0.74865182167E+02  0.58508118597E+02  0.24276831097E+04  0.24295463294E+04  0.46999998093E+01 0. -1.
       -5    1    3    3    0  502 -0.74865182167E+02 -0.58508118597E+02  0.70842761753E+02  0.11861189794E+03  0.46999998093E+01 0.  1.
</event>
<event>
 5   0  0.1941387E-02  0.4955140E+03  0.7818609E-02  0.1014956E+00
       -2   -1    0    0    0  501  0.00000000000E+00  0.00000000000E+00  0.78699349252E+02  0.78699349293E+02  0.25500000920E-02 0. -1.
        2   -1    0    0  501    0  0.00000000000E+00  0.00000000000E+00 -0.77997520045E+03  0.77997520046E+03  0.25500000920E-02 0.  1.
    10030    2    1    2    0    0  0.00000000000E+00  0.00000000000E+00 -0.70127585120E+03  0.85867454975E+03  0.49551403907E+03 0.  0.
        4    1    3    3  502    0  0.55721213342E+02 -0.24104921612E+03 -0.37338773660E+03  0.44791694872E+03  0.12699999809E+01 0. -1.
       -4    1    3    3    0  502 -0.55721213342E+02  0.24104921612E+03 -0.32788811460E+03  0.41075760103E+03  0.12699999809E+01 0.  1.
</event>
<event>
 5   0  0.1941387E-02  0.5001328E+03  0.7818609E-02  0.1013744E+00
        2   -1    0    0  501    0  0.00000000000E+00  0.00000000000E+00  0.11766895015E+04  0.11766895015E+04  0.25500000920E-02 0. -1.
       -2   -1    0    0    0  501  0.00000000000E+00  0.00000000000E+00 -0.53143330684E+02  0.53143330745E+02  0.25500000920E-02 0.  1.
    10030    2    1    2    0    0  0.00000000000E+00  0.00000000000E+00  0.11235461708E+04  0.12298328323E+04  0.50013277970E+03 0.  0.
        4    1    3    3  502    0  0.17131833490E+03 -0.63447179651E+02  0.14189302136E+03  0.23132392632E+03  0.12699999809E+01 0.  1.
       -4    1    3    3    0  502 -0.17131833490E+03  0.63447179651E+02  0.98165314949E+03  0.99850890596E+03  0.12699999809E+01 0. -1.
</event>
<event>
 5   0  0.1967813E-02  0.5006917E+03  0.7818609E-02  0.1013599E+00
        2   -1    0    0  501    0  0.00000000000E+00  0.00000000000E+00  0.16926249026E+04  0.16926249026E+04  0.25500000920E-02 0. -1.
       -2   -1    0    0    0  501  0.00000000000E+00  0.00000000000E+00 -0.37027135233E+02  0.37027135321E+02  0.25500000920E-02 0.  1.
    10030    2    1    2    0    0  0.00000000000E+00  0.00000000000E+00  0.16555977674E+04  0.17296520379E+04  0.50069172649E+03 0.  0.
        5    1    3    3  502    0 -0.82105473542E+02  0.88497681174E+02  0.70337181926E+02  0.13979469775E+03  0.46999998093E+01 0.  1.
       -5    1    3    3    0  502  0.82105473542E+02 -0.88497681174E+02  0.15852605854E+04  0.15898573402E+04  0.46999998093E+01 0. -1.
</event>
<event>
 5   0  0.8012875E-03  0.5001425E+03  0.7818609E-02  0.1013742E+00
        3   -1    0    0  501    0  0.00000000000E+00  0.00000000000E+00  0.17708633547E+03  0.17708636428E+03  0.10100000352E+00 0.  1.
       -3   -1    0    0    0  501  0.00000000000E+00  0.00000000000E+00 -0.35313634542E+03  0.35313635986E+03  0.10100000352E+00 0. -1.
    10030    2    1    2    0    0  0.00000000000E+00  0.00000000000E+00 -0.17605000994E+03  0.53022272414E+03  0.50014251088E+03 0.  0.
        2    1    3    3  502    0  0.55951244941E+02 -0.15213625501E+03  0.11384712986E+03  0.19808369666E+03  0.25500000920E-02 0.  1.
       -2    1    3    3    0  502 -0.55951244941E+02  0.15213625501E+03 -0.28989713981E+03  0.33213902748E+03  0.25500000920E-02 0. -1.
</event>
<event>
 5   0  0.1225989E-02  0.5007474E+03  0.7818609E-02  0.1013584E+00
        1   -1    0    0  501    0  0.00000000000E+00  0.00000000000E+00  0.11168079231E+03  0.11168079242E+03  0.50400001928E-02 0. -1.
       -1   -1    0    0    0  501  0.00000000000E+00  0.00000000000E+00 -0.56130512719E+03  0.56130512721E+03  0.50400001928E-02 0.  1.
    10030    2    1    2    0    0  0.00000000000E+00  0.00000000000E+00 -0.44962433488E+03  0.67298591964E+03  0.50074744684E+03 0.  0.
        3    1    3    3  502    0 -0.10498293635E+02 -0.21689886519E+03 -0.57319360110E+02  0.22459040748E+03  0.10100000352E+00 0. -1.
       -3    1    3    3    0  502  0.10498293635E+02  0.21689886519E+03 -0.39230497477E+03  0.44839551215E+03  0.10100000352E+00 0.  1.
</event>
<event>
 5   0  0.8012875E-03  0.4998123E+03  0.7818609E-02  0.1013828E+00
       -4   -1    0    0    0  501  0.00000000000E+00  0.00000000000E+00  0.49317702828E+03  0.49317866349E+03  0.12699999809E+01 0. -1.
        4   -1    0    0  501    0  0.00000000000E+00  0.00000000000E+00 -0.12662916294E+03  0.12663553138E+03  0.12699999809E+01 0.  1.
    10030    2    1    2    0    0  0.00000000000E+00  0.00000000000E+00  0.36654786533E+03  0.61981419487E+03  0.49981226333E+03 0.  0.
        5    1    3    3  502    0  0.15524330607E+03 -0.55849892412E+02  0.41597350174E+03  0.44752177456E+03  0.46999998093E+01 0. -1.
       -5    1    3    3    0  502 -0.15524330607E+03  0.55849892412E+02 -0.49425636406E+02  0.17229242030E+03  0.46999998093E+01 0.  1.
</event>
<event>
 5   0  0.1855407E-02  0.5031811E+03  0.7818609E-02  0.1012952E+00
        2   -1    0    0  501    0  0.00000000000E+00  0.00000000000E+00  0.10877124420E+04  0.10877124420E+04  0.25500000920E-02 0. -1.
       -2   -1    0    0    0  501  0.00000000000E+00  0.00000000000E+00 -0.58193507494E+02  0.58193507550E+02  0.25500000920E-02 0.  1.
    10030    2    1    2    0    0  0.00000000000E+00  0.00000000000E+00  0.10295189345E+04  0.11459059496E+04  0.50318108939E+03 0.  0.
        1    1    3    3  502    0 -0.14262447283E+03 -0.11244675872E+03  0.11827110609E+03  0.21673501877E+03  0.50400001928E-02 0.  1.
       -1    1    3    3    0  502  0.14262447283E+03  0.11244675872E+03  0.91124782843E+03  0.92917093080E+03  0.50400001928E-02 0. -1.
</event>
<event>
 5   0  0.1217270E-02  0.4998767E+03  0.7818609E-02  0.1013811E+00
       -1   -1    0    0    0  501  0.00000000000E+00  0.00000000000E+00  0.80060296213E+02  0.80060296372E+02  0.50400001928E-02 0.  1.
        1   -1    0    0  501    0  0.00000000000E+00  0.00000000000E+00 -0.78027678049E+03  0.78027678050E+03  0.50400001928E-02 0. -1.
    10030    2    1    2    0    0  0.00000000000E+00  0.00000000000E+00 -0.70021648427E+03  0.86033707687E+03  0.49987674581E+03 0.  0.
        2    1    3    3  502    0  0.20405006237E+03  0.14412953625E+03 -0.36337734943E+03  0.44096808191E+03  0.25500000920E-02 0.  1.
       -2    1    3    3    0  502 -0.20405006237E+03 -0.14412953625E+03 -0.33683913484E+03  0.41936899497E+03  0.25500000920E-02 0. -1.
</event>
<event>
 5   0  0.1941387E-02  0.4998033E+03  0.7818609E-02  0.1013830E+00
        2   -1    0    0  501    0  0.00000000000E+00  0.00000000000E+00  0.14683388461E+04  0.14683388461E+04  0.25500000920E-02 0.  1.
       -2   -1    0    0    0  501  0.00000000000E+00  0.00000000000E+00 -0.42531622824E+02  0.42531622901E+02  0.25500000920E-02 0. -1.
    10030    2    1    2    0    0  0.00000000000E+00  0.00000000000E+00  0.14258072233E+04  0.15108704690E+04  0.49980329747E+03 0.  0.
        4    1    3    3  502    0 -0.15821069134E+03 -0.55953686515E+02  0.15314882018E+03  0.22719509658E+03  0.12699999809E+01 0. -1.
       -4    1    3    3    0  502  0.15821069134E+03  0.55953686515E+02  0.12726584031E+04  0.12836753724E+04  0.12699999809E+01 0.  1.
</event>
<event>
 5   0  0.1227864E-02  0.4951871E+03  0.7818609E-02  0.1015043E+00
       -1   -1    0    0    0  501  0.00000000000E+00  0.00000000000E+00  0.36724761840E+03  0.36724761844E+03  0.50400001928E-02 0.  1.
        1   -1    0    0  501    0  0.00000000000E+00  0.00000000000E+00 -0.16692437269E+03  0.16692437277E+03  0.50400001928E-02 0. -1.
    10030    2    1    2    0    0  0.00000000000E+00  0.00000000000E+00  0.20032324571E+03  0.53417199121E+03  0.49518714989E+03 0.  0.
        5    1    3    3  502    0 -0.29690864431E+02  0.56208183002E+02  0.35824496230E+03  0.36387147495E+03  0.46999998093E+01 0.  1.
       -5    1    3    3    0  502  0.29690864431E+02 -0.56208183002E+02 -0.15792171659E+03  0.17030051626E+03  0.46999998093E+01 0. -1.
</event>
<event>
 5   0  0.1982847E-02  0.5015075E+03  0.7818609E-02  0.1013386E+00
       -2   -1    0    0    0  501  0.00000000000E+00  0.00000000000E+00  0.41792782031E+02  0.41792782109E+02  0.25500000920E-02 0. -1.
        2   -1    0    0  501    0  0.00000000000E+00  0.00000000000E+00 -0.15045050711E+04  0.15045050711E+04  0.25500000920E-02 0.  1.
    10030    2    1    2    0    0  0.00000000000E+00  0.00000000000E+00 -0.14627122891E+04  0.15462978532E+04  0.50150753758E+03 0.  0.
        2    1    3    3  502    0  0.67796962404E+02 -0.11105858582E+03 -0.70443076587E+02  0.14796169991E+03  0.25500000920E-02 0. -1.
       -2    1    3    3    0  502 -0.67796962404E+02  0.11105858582E+03 -0.13922692125E+04  0.13983361533E+04  0.25500000920E-02 0.  1.
</event>
<event>
 5   0  0.1209831E-02  0.4998096E+03  0.7818609E-02  0.1013829E+00
        1   -1    0    0  501    0  0.00000000000E+00  0.00000000000E+00  0.45039705137E+03  0.45039705140E+03  0.50400001928E-02 0.  1.
       -1   -1    0    0    0  501  0.00000000000E+00  0.00000000000E+00 -0.13866077926E+03  0.13866077935E+03  0.50400001928E-02 0. -1.
    10030    2    1    2    0    0  0.00000000000E+00  0.00000000000E+00  0.31173627212E+03  0.58905783075E+03  0.49980958836E+03 0.  0.
        4    1    3    3  502    0  0.70280118845E+02 -0.17816892477E+03  0.34505373762E+03  0.39464814152E+03  0.12699999809E+01 0.  1.
       -4    1    3    3    0  502 -0.70280118845E+02  0.17816892477E+03 -0.33317465501E+02  0.19440968923E+03  0.12699999809E+01 0. -1.
</event>
<event>
 5   0  0.1941387E-02  0.4996819E+03  0.7818609E-02  0.1013862E+00
       -2   -1    0    0    0  501  0.00000000000E+00  0.00000000000E+00  0.19603444807E+03  0.19603444808E+03  0.25500000920E-02 0. -1.
        2   -1    0    0  501    0  0.00000000000E+00  0.00000000000E+00 -0.31841601059E+03  0.31841601060E+03  0.25500000920E-02 0.  1.
    10030    2    1    2    0    0  0.00000000000E+00  0.00000000000E+00 -0.12238156252E+03  0.51445045868E+03  0.49968192642E+03 0.  0.
        4    1    3    3  502    0 -0.13941047960E+03  0.19250643672E+03  0.18057498413E+02  0.23837301893E+03  0.12699999809E+01 0. -1.
       -4    1    3    3    0  502  0.13941047960E+03 -0.19250643672E+03 -0.14043906093E+03  0.27607743975E+03  0.12699999809E+01 0.  1.
</event>
<event>
 5   0  0.1225989E-02  0.5042218E+03  0.7818609E-02  0.1012683E+00
       -1   -1    0    0    0  501  0.00000000000E+00  0.00000000000E+00  0.19278801712E+03  0.19278801718E+03  0.50400001928E-02 0.  1.
        1   -1    0    0  501    0  0.00000000000E+00  0.00000000000E+00 -0.32968804293E+03  0.32968804297E+03  0.50400001928E-02 0. -1.
    10030    2    1    2    0    0  0.00000000000E+00  0.00000000000E+00 -0.13690002581E+03  0.52247606016E+03  0.50422179283E+03 0.  0.
        3    1    3    3  502    0  0.23981983601E+03 -0.75067710396E+02 -0.89461667333E+02  0.26674353790E+03  0.10100000352E+00 0. -1.
       -3    1    3    3    0  502 -0.23981983601E+03  0.75067710396E+02 -0.47438358481E+02  0.25573252226E+03  0.10100000352E+00 0.  1.
</event>
<event>
 5   0  0.1967813E-02  0.4995616E+03  0.7818609E-02  0.1013893E+00
        2   -1    0    0  501    0  0.00000000000E+00  0.00000000000E+00  0.45948370151E+03  0.45948370152E+03  0.25500000920E-02 0.  1.
       -2   -1    0    0    0  501  0.00000000000E+00  0.00000000000E+00 -0.13578381839E+03  0.13578381841E+03  0.25500000920E-02 0. -1.
    10030    2    1    2    0    0  0.00000000000E+00  0.00000000000E+00  0.32369988313E+03  0.59526751993E+03  0.49956161376E+03 0.  0.
        5    1    3    3  502    0 -0.18064752082E+03 -0.15158055162E+02 -0.42828186826E+02  0.18633206111E+03  0.46999998093E+01 0. -1.
       -5    1    3    3    0  502  0.18064752082E+03  0.15158055162E+02  0.36652806996E+03  0.40893545882E+03  0.46999998093E+01 0.  1.
</event>
<event>
 5   0  0.1967813E-02  0.4999010E+03  0.7818609E-02  0.1013805E+00
       -2   -1    0    0    0  501  0.00000000000E+00  0.00000000000E+00  0.43198868775E+03  0.43198868776E+03  0.25500000920E-02 0. -1.
        2   -1    0    0  501    0  0.00000000000E+00  0.00000000000E+00 -0.14462240448E+03  0.14462240450E+03  0.25500000920E-02 0.  1.
    10030    2    1    2    0    0  0.00000000000E+00  0.00000000000E+00  0.28736628328E+03  0.57661109226E+03  0.49990096114E+03 0.  0.
        5    1    3    3  502    0  0.16100131882E+03  0.23656891710E+02  0.36245013268E+03  0.39733268411E+03  0.46999998093E+01 0. -1.
       -5    1    3    3    0  502 -0.16100131882E+03 -0.23656891710E+02 -0.75083849400E+02  0.17927840815E+03  0.46999998093E+01 0.  1.
</event>
<event>
 5   0  0.1855407E-02  0.4973328E+03  0.7818609E-02  0.1014477E+00
       -2   -1    0    0    0  501  0.00000000000E+00  0.00000000000E+00  0.50985578369E+02  0.50985578432E+02  0.25500000920E-02 0.  1.
        2   -1    0    0  501    0  0.00000000000E+00  0.00000000000E+00 -0.12127936015E+04  0.12127936015E+04  0.25500000920E-02 0. -1.
    10030    2    1    2    0    0  0.00000000000E+00  0.00000000000E+00 -0.11618080231E+04  0.12637791799E+04  0.49733281917E+03 0.  0.
        1    1    3    3  502    0 -0.94815876968E+02  0.22952836845E+03 -0.54859479584E+03  0.60218732343E+03  0.50400001928E-02 0.  1.
       -1    1    3    3    0  502  0.94815876968E+02 -0.22952836845E+03 -0.61321322730E+03  0.66159185651E+03  0.50400001928E-02 0. -1.
</event>
<event>
 5   0  0.1217270E-02  0.5004445E+03  0.7818609E-02  0.1013663E+00
        1   -1    0    0  501    0  0.00000000000E+00  0.00000000000E+00  0.42181326435E+03  0.42181326438E+03  0.50400001928E-02 0. -1.
       -1   -1    0    0    0  501  0.00000000000E+00  0.00000000000E+00 -0.14843342192E+03  0.14843342200E+03  0.50400001928E-02 0.  1.
    10030    2    1    2    0    0  0.00000000000E+00  0.00000000000E+00  0.27337984243E+03  0.57024668638E+03  0.50044454746E+03 0.  0.
        2    1    3    3  502    0 -0.13829318312E+03  0.11452106951E+03  0.33527065686E+03  0.38032419488E+03  0.25500000920E-02 0. -1.
       -2    1    3    3    0  502  0.13829318312E+03 -0.11452106951E+03 -0.61890814426E+02  0.18992249150E+03  0.25500000920E-02 0.  1.
</event>
<event>
 5   0  0.1180937E-02  0.5004279E+03  0.7818609E-02  0.1013667E+00
       -1   -1    0    0    0  501  0.00000000000E+00  0.00000000000E+00  0.71405926693E+02  0.71405926871E+02  0.50400001928E-02 0.  1.
        1   -1    0    0  501    0  0.00000000000E+00  0.00000000000E+00 -0.87677625314E+03  0.87677625315E+03  0.50400001928E-02 0. -1.
    10030    2    1    2    0    0  0.00000000000E+00  0.00000000000E+00 -0.80537032645E+03  0.94818218003E+03  0.50042790070E+03 0.  0.
        1    1    3    3  502    0  0.22594631945E+03 -0.10603641047E+03 -0.36924086942E+03  0.44568405770E+03  0.50400001928E-02 0. -1.
       -1    1    3    3    0  502 -0.22594631945E+03  0.10603641047E+03 -0.43612945703E+03  0.50249812232E+03  0.50400001928E-02 0.  1.
</event>
<event>
 5   0  0.1180937E-02  0.4961932E+03  0.7818609E-02  0.1014777E+00
        1   -1    0    0  501    0  0.00000000000E+00  0.00000000000E+00  0.13087581045E+03  0.13087581055E+03  0.50400001928E-02 0. -1.
       -1   -1    0    0    0  501  0.00000000000E+00  0.00000000000E+00 -0.47030792768E+03  0.47030792771E+03  0.50400001928E-02 0.  1.
    10030    2    1    2    0    0  0.00000000000E+00  0.00000000000E+00 -0.33943211723E+03  0.60118373826E+03  0.49619323347E+03 0.  0.
        1    1    3    3  502    0  0.19458759301E+03  0.36069410062E+02  0.11564166858E+02  0.19823991443E+03  0.50400001928E-02 0. -1.
       -1    1    3    3    0  502 -0.19458759301E+03 -0.36069410062E+02 -0.35099628409E+03  0.40294382383E+03  0.50400001928E-02 0.  1.
</event>
<event>
 5   0  0.1941387E-02  0.4993035E+03  0.7818609E-02  0.1013961E+00
       -2   -1    0    0    0  501  0.00000000000E+00  0.00000000000E+00  0.68659353407E+02  0.68659353454E+02  0.25500000920E-02 0.  1.
        2   -1    0    0  501    0  0.00000000000E+00  0.00000000000E+00 -0.90775671785E+03  0.90775671785E+03  0.25500000920E-02 0. -1.
    10030    2    1    2    0    0  0.00000000000E+00  0.00000000000E+00 -0.83909736444E+03  0.97641607131E+03  0.49930347214E+03 0.  0.
        4    1    3    3  502    0 -0.69490726052E+02 -0.77395158085E+02  0.24260962401E+02  0.10681375707E+03  0.12699999809E+01 0.  1.
       -4    1    3    3    0  502  0.69490726052E+02  0.77395158085E+02 -0.86335832684E+03  0.86960231424E+03  0.12699999809E+01 0. -1.
</event>
<event>
 5   0  0.1227864E-02  0.5000062E+03  0.7818609E-02  0.1013777E+00
        1   -1    0    0  501    0  0.00000000000E+00  0.00000000000E+00  0.67321164022E+02  0.67321164211E+02  0.50400001928E-02 0. -1.
       -1   -1    0    0    0  501  0.00000000000E+00  0.00000000000E+00 -0.92840866192E+03  0.92840866193E+03  0.50400001928E-02 0.  1.
    10030    2    1    2    0    0  0.00000000000E+00  0.00000000000E+00 -0.86108749790E+03  0.99572982614E+03  0.50000620760E+03 0.  0.
        5    1    3    3  502    0 -0.90645753702E+02  0.22690765474E+03 -0.32562469276E+03  0.40713298439E+03  0.46999998093E+01 0. -1.
       -5    1    3    3    0  502  0.90645753702E+02 -0.22690765474E+03 -0.53546280513E+03  0.58859684175E+03  0.46999998093E+01 0.  1.
</event>
<event>
 5   0  0.1209831E-02  0.5000060E+03  0.7818609E-02  0.1013777E+00
        1   -1    0    0  501    0  0.00000000000E+00  0.00000000000E+00  0.28028308556E+03  0.28028308560E+03  0.50400001928E-02 0. -1.
       -1   -1    0    0    0  501  0.00000000000E+00  0.00000000000E+00 -0.22299421916E+03  0.22299421922E+03  0.50400001928E-02 0.  1.
    10030    2    1    2    0    0  0.00000000000E+00  0.00000000000E+00  0.57288866398E+02  0.50327730482E+03  0.50000603130E+03 0.  0.
        4    1    3    3  502    0 -0.18361180566E+03  0.16135884420E+03 -0.24138361639E+02  0.24563030184E+03  0.12699999809E+01 0.  1.
       -4    1    3    3    0  502  0.18361180566E+03 -0.16135884420E+03  0.81427228037E+02  0.25764700298E+03  0.12699999809E+01 0. -1.
</event>
<event>
 5   0  0.1217270E-02  0.4997953E+03  0.7818609E-02  0.1013832E+00
       -1   -1    0    0    0  501  0.00000000000E+00  0.00000000000E+00  0.15271521436E+03  0.15271521444E+03  0.50400001928E-02 0.  1.
        1   -1    0    0  501    0  0.00000000000E+00  0.00000000000E+00 -0.40892352781E+03  0.40892352784E+03  0.50400001928E-02 0. -1.
    10030    2    1    2    0    0  0.00000000000E+00  0.00000000000E+00 -0.25620831346E+03  0.56163874229E+03  0.49979533506E+03 0.  0.
        2    1    3    3  502    0  0.28832198204E+02 -0.29773672833E+02  0.14882606366E+03  0.15448936687E+03  0.25500000920E-02 0.  1.
       -2    1    3    3    0  502 -0.28832198204E+02  0.29773672833E+02 -0.40503437711E+03  0.40714937541E+03  0.25500000920E-02 0. -1.
</event>
<event>
 5   0  0.1923706E-02  0.4998983E+03  0.7818609E-02  0.1013805E+00
        2   -1    0    0  501    0  0.00000000000E+00  0.00000000000E+00  0.74955653878E+03  0.74955653878E+03  0.25500000920E-02 0.  1.
       -2   -1    0    0    0  501  0.00000000000E+00  0.00000000000E+00 -0.83348702960E+02  0.83348702999E+02  0.25500000920E-02 0. -1.
    10030    2    1    2    0    0  0.00000000000E+00  0.00000000000E+00  0.66620783582E+03  0.83290524178E+03  0.49989825093E+03 0.  0.
        3    1    3    3  502    0  0.30960764215E+02 -0.34498623411E+02 -0.76124359229E+02  0.89127168737E+02  0.10100000352E+00 0. -1.
       -3    1    3    3    0  502 -0.30960764215E+02  0.34498623411E+02  0.74233219504E+03  0.74377807304E+03  0.10100000352E+00 0.  1.
</event>
<event>
 5   0  0.1941387E-02  0.4997445E+03  0.7818609E-02  0.1013846E+00
        2   -1    0    0  501    0  0.00000000000E+00  0.00000000000E+00  0.67404271474E+03  0.67404271474E+03  0.25500000920E-02 0. -1.
       -2   -1    0    0    0  501  0.00000000000E+00  0.00000000000E+00 -0.92629349012E+02  0.92629349047E+02  0.25500000920E-02 0.  1.
    10030    2    1    2    0    0  0.00000000000E+00  0.00000000000E+00  0.58141336572E+03  0.76667206379E+03  0.49974448626E+03 0.  0.
        4    1    3    3  502    0  0.23934609201E+02 -0.42853077734E+02 -0.85155559239E+02  0.98297171669E+02  0.12699999809E+01 0.  1.
       -4    1    3    3    0  502 -0.23934609201E+02  0.42853077734E+02  0.66656892496E+03  0.66837489212E+03  0.12699999809E+01 0. -1.
</event>
<event>
 5   0  0.1855407E-02  0.5002570E+03  0.7818609E-02  0.1013712E+00
        2   -1    0    0  501    0  0.00000000000E+00  0.00000000000E+00  0.16365990248E+04  0.16365990248E+04  0.25500000920E-02 0.  1.
       -2   -1    0    0    0  501  0.00000000000E+00  0.00000000000E+00 -0.38228214562E+02  0.38228214647E+02  0.25500000920E-02 0. -1.
    10030    2    1    2    0    0  0.00000000000E+00  0.00000000000E+00  0.15983708102E+04  0.16748272394E+04  0.50025696894E+03 0.  0.
        1    1    3    3  502    0 -0.16292505266E+03  0.18553816478E+03  0.93290488997E+03  0.96502876492E+03  0.50400001928E-02 0. -1.
       -1    1    3    3    0  502  0.16292505266E+03 -0.18553816478E+03  0.66546592026E+03  0.70979847452E+03  0.50400001928E-02 0.  1.
</event>
<event>
 5   0  0.1923706E-02  0.4999021E+03  0.7818609E-02  0.1013804E+00
       -2   -1    0    0    0  501  0.00000000000E+00  0.00000000000E+00  0.71885913767E+03  0.71885913768E+03  0.25500000920E-02 0. -1.
        2   -1    0    0  501    0  0.00000000000E+00  0.00000000000E+00 -0.86909270258E+02  0.86909270295E+02  0.25500000920E-02 0.  1.
    10030    2    1    2    0    0  0.00000000000E+00  0.00000000000E+00  0.63194986742E+03  0.80576840797E+03  0.49990208277E+03 0.  0.
        3    1    3    3  502    0  0.13876853036E+03  0.50095913598E+02 -0.92408481708E+01  0.14782323584E+03  0.10100000352E+00 0.  1.
       -3    1    3    3    0  502 -0.13876853036E+03 -0.50095913598E+02  0.64119071559E+03  0.65794517213E+03  0.10100000352E+00 0. -1.
</event>
<event>
 5   0  0.1227864E-02  0.5004186E+03  0.7818609E-02  0.1013670E+00
       -1   -1    0    0    0  501  0.00000000000E+00  0.00000000000E+00  0.59042163870E+02  0.59042164085E+02  0.50400001928E-02 0. -1.
        1   -1    0    0  501    0  0.00000000000E+00  0.00000000000E+00 -0.10603386492E+04  0.10603386492E+04  0.50400001928E-02 0.  1.
    10030    2    1    2    0    0  0.00000000000E+00  0.00000000000E+00 -0.10012964853E+04  0.11193808133E+04  0.50041857843E+03 0.  0.
        5    1    3    3  502    0 -0.24519464325E+03  0.48780852825E+02 -0.52097979552E+03  0.57787716863E+03  0.46999998093E+01 0.  1.
       -5    1    3    3    0  502  0.24519464325E+03 -0.48780852825E+02 -0.48031668977E+03  0.54150364464E+03  0.46999998093E+01 0. -1.
</event>
<event>
 5   0  0.1217270E-02  0.5007455E+03  0.7818609E-02  0.1013585E+00
        1   -1    0    0  501    0  0.00000000000E+00  0.00000000000E+00  0.10757437192E+04  0.10757437192E+04  0.50400001928E-02 0. -1.
       -1   -1    0    0    0  501  0.00000000000E+00  0.00000000000E+00 -0.58272722754E+02  0.58272722972E+02  0.50400001928E-02 0.  1.
    10030    2    1    2    0    0  0.00000000000E+00  0.00000000000E+00  0.10174709964E+04  0.11340164422E+04  0.50074550675E+03 0.  0.
        2    1    3    3  502    0 -0.14852295602E+02  0.24620419513E+03  0.60612675641E+03  0.65439035844E+03  0.25500000920E-02 0. -1.
       -2    1    3    3    0  502  0.14852295602E+02 -0.24620419513E+03  0.41134424001E+03  0.47962608371E+03  0.25500000920E-02 0.  1.
</event>
<event>
 5   0  0.8012875E-03  0.4996985E+03  0.7818609E-02  0.1013858E+00
        3   -1    0    0  501    0  0.00000000000E+00  0.00000000000E+00  0.43097631837E+03  0.43097633020E+03  0.10100000352E+00 0. -1.
       -3   -1    0    0    0  501  0.00000000000E+00  0.00000000000E+00 -0.14484467178E+03  0.14484470699E+03  0.10100000352E+00 0.  1.
    10030    2    1    2    0    0  0.00000000000E+00  0.00000000000E+00  0.28613164659E+03  0.57582103720E+03  0.49969845677E+03 0.  0.
        3    1    3    3  502    0 -0.10493630397E+03 -0.19842443046E+03  0.26951214048E+03  0.35074304920E+03  0.10100000352E+00 0. -1.
       -3    1    3    3    0  502  0.10493630397E+03  0.19842443046E+03  0.16619506112E+02  0.22507798800E+03  0.10100000352E+00 0.  1.
</event>
<event>
 5   0  0.1225989E-02  0.4992197E+03  0.7818609E-02  0.1013983E+00
        1   -1    0    0  501    0  0.00000000000E+00  0.00000000000E+00  0.64640162414E+03  0.64640162416E+03  0.50400001928E-02 0. -1.
       -1   -1    0    0    0  501  0.00000000000E+00  0.00000000000E+00 -0.96387547452E+02  0.96387547584E+02  0.50400001928E-02 0.  1.
    10030    2    1    2    0    0  0.00000000000E+00  0.00000000000E+00  0.55001407669E+03  0.74278917175E+03  0.49921966018E+03 0.  0.
        3    1    3    3  502    0 -0.15752362443E+03  0.76919731442E+02  0.10617883900E+02  0.17562200033E+03  0.10100000352E+00 0.  1.
       -3    1    3    3    0  502  0.15752362443E+03 -0.76919731442E+02  0.53939619279E+03  0.56716717142E+03  0.10100000352E+00 0. -1.
</event>
<event>
 5   0  0.1180937E-02  0.4994442E+03  0.7818609E-02  0.1013924E+00
        1   -1    0    0  501    0  0.00000000000E+00  0.00000000000E+00  0.34816382522E+03  0.34816382525E+03  0.50400001928E-02 0. -1.
       -1   -1    0    0    0  501  0.00000000000E+00  0.00000000000E+00 -0.17911432233E+03  0.17911432240E+03  0.50400001928E-02 0.  1.
    10030    2    1    2    0    0  0.00000000000E+00  0.00000000000E+00  0.16904950288E+03  0.52727814766E+03  0.49944420166E+03 0.  0.
        1    1    3    3  502    0 -0.78254745907E+01 -0.43440639375E+02 -0.17496325010E+03  0.18044518866E+03  0.50400001928E-02 0.  1.
       -1    1    3    3    0  502  0.78254745907E+01  0.43440639375E+02  0.34401275298E+03  0.34683295899E+03  0.50400001928E-02 0. -1.
</event>
<event>
 5   0  0.1941387E-02  0.4994188E+03  0.7818609E-02  0.1013931E+00
       -2   -1    0    0    0  501  0.00000000000E+00  0.00000000000E+00  0.22910530843E+03  0.22910530844E+03  0.25500000920E-02 0.  1.
        2   -1    0    0  501    0  0.00000000000E+00  0.00000000000E+00 -0.27216646159E+03  0.27216646161E+03  0.25500000920E-02 0. -1.
    10030    2    1    2    0    0  0.00000000000E+00  0.00000000000E+00 -0.43061153165E+02  0.50127177005E+03  0.49941878673E+03 0.  0.
        4    1    3    3  502    0  0.14969963339E+03 -0.25436032511E+02 -0.22049875734E+03  0.26772800914E+03  0.12699999809E+01 0. -1.
       -4    1    3    3    0  502 -0.14969963339E+03  0.25436032511E+02  0.17743760417E+03  0.23354376091E+03  0.12699999809E+01 0.  1.
</event>
<event>
 5   0  0.1855407E-02  0.4987818E+03  0.7818609E-02  0.1014097E+00
       -2   -1    0    0    0  501  0.00000000000E+00  0.00000000000E+00  0.88130084198E+02  0.88130084235E+02  0.25500000920E-02 0. -1.
        2   -1    0    0  501    0  0.00000000000E+00  0.00000000000E+00 -0.70572743245E+03  0.70572743246E+03  0.25500000920E-02 0.  1.
    10030    2    1    2    0    0  0.00000000000E+00  0.00000000000E+00 -0.61759734825E+03  0.79385751669E+03  0.49878178820E+03 0.  0.
        1    1    3    3  502    0  0.36083065118E+02  0.17084854981E+03 -0.25403052446E+02  0.17645546084E+03  0.50400001928E-02 0. -1.
       -1    1    3    3    0  502 -0.36083065118E+02 -0.17084854981E+03 -0.59219429581E+03  0.61740205585E+03  0.50400001928E-02 0.  1.
</event>
<event>
 5   0  0.1982847E-02  0.5015885E+03  0.7818609E-02  0.1013365E+00
        2   -1    0    0  501    0  0.00000000000E+00  0.00000000000E+00  0.19094714282E+03  0.19094714283E+03  0.25500000920E-02 0. -1.
       -2   -1    0    0    0  501  0.00000000000E+00  0.00000000000E+00 -0.32939880558E+03  0.32939880559E+03  0.25500000920E-02 0.  1.
    10030    2    1    2    0    0  0.00000000000E+00  0.00000000000E+00 -0.13845166276E+03  0.52034594842E+03  0.50158851972E+03 0.  0.
        2    1    3    3  502    0  0.12943019680E+03 -0.18526558726E+03 -0.18202206693E+03  0.29018536580E+03  0.25500000920E-02 0.  1.
       -2    1    3    3    0  502 -0.12943019680E+03  0.18526558726E+03  0.43570404169E+02  0.23016058262E+03  0.25500000920E-02 0. -1.
</event>
<event>
 5   0  0.1180937E-02  0.4997063E+03  0.7818609E-02  0.1013856E+00
       -1   -1    0    0    0  501  0.00000000000E+00  0.00000000000E+00  0.75337397392E+02  0.75337397560E+02  0.50400001928E-02 0. -1.
        1   -1    0    0  501    0  0.00000000000E+00  0.00000000000E+00 -0.82862685665E+03  0.82862685667E+03  0.50400001928E-02 0.  1.
    10030    2    1    2    0    0  0.00000000000E+00  0.00000000000E+00 -0.75328945926E+03  0.90396425423E+03  0.49970627722E+03 0.  0.
        1    1    3    3  502    0  0.17702983186E+03 -0.42645582124E+02 -0.67162424427E+02  0.19408502859E+03  0.50400001928E-02 0. -1.
       -1    1    3    3    0  502 -0.17702983186E+03  0.42645582124E+02 -0.68612703484E+03  0.70987922564E+03  0.50400001928E-02 0.  1.
</event>
<event>
 5   0  0.1923706E-02  0.5005001E+03  0.7818609E-02  0.1013648E+00
        2   -1    0    0  501    0  0.00000000000E+00  0.00000000000E+00  0.17824999040E+04  0.17824999040E+04  0.25500000920E-02 0.  1.
       -2   -1    0    0    0  501  0.00000000000E+00  0.00000000000E+00 -0.35133291088E+02  0.35133291181E+02  0.25500000920E-02 0. -1.
    10030    2    1    2    0    0  0.00000000000E+00  0.00000000000E+00  0.17473666129E+04  0.18176331952E+04  0.50050010221E+03 0.  0.
        3    1    3    3  502    0  0.14897213949E+03  0.19732056403E+03  0.73317264368E+03  0.77373783607E+03  0.10100000352E+00 0. -1.
       -3    1    3    3    0  502 -0.14897213949E+03 -0.19732056403E+03  0.10141939692E+04  0.10438953591E+04  0.10100000352E+00 0.  1.
</event>
<event>
 5   0  0.1967813E-02  0.4967473E+03  0.7818609E-02  0.1014631E+00
       -2   -1    0    0    0  501  0.00000000000E+00  0.00000000000E+00  0.55529839057E+02  0.55529839115E+02  0.25500000920E-02 0. -1.
        2   -1    0    0  501    0  0.00000000000E+00  0.00000000000E+00 -0.11109247451E+04  0.11109247451E+04  0.25500000920E-02 0.  1.
    10030    2    1    2    0    0  0.00000000000E+00  0.00000000000E+00 -0.10553949060E+04  0.11664545842E+04  0.49674730934E+03 0.  0.
        5    1    3    3  502    0  0.14630879167E+03 -0.11359088949E+03 -0.13930006004E+03  0.23180972676E+03  0.46999998093E+01 0. -1.
       -5    1    3    3    0  502 -0.14630879167E+03  0.11359088949E+03 -0.91609484598E+03  0.93464485743E+03  0.46999998093E+01 0.  1.
</event>
<event>
 5   0  0.1855407E-02  0.5011242E+03  0.7818609E-02  0.1013486E+00
       -2   -1    0    0    0  501  0.00000000000E+00  0.00000000000E+00  0.46122219925E+02  0.46122219996E+02  0.25500000920E-02 0.  1.
        2   -1    0    0  501    0  0.00000000000E+00  0.00000000000E+00 -0.13611954281E+04  0.13611954281E+04  0.25500000920E-02 0. -1.
    10030    2    1    2    0    0  0.00000000000E+00  0.00000000000E+00 -0.13150732082E+04  0.14073176481E+04  0.50112415607E+03 0.  0.
        1    1    3    3  502    0  0.13826524519E+03  0.28057667611E+02 -0.12390479631E+04  0.12470542754E+04  0.50400001928E-02 0. -1.
       -1    1    3    3    0  502 -0.13826524519E+03 -0.28057667611E+02 -0.76025245087E+02  0.16026337278E+03  0.50400001928E-02 0.  1.
</event>
<event>
 5   0  0.1180937E-02  0.5002910E+03  0.7818609E-02  0.1013703E+00
        1   -1    0    0  501    0  0.00000000000E+00  0.00000000000E+00  0.98527035516E+03  0.98527035517E+03  0.50400001928E-02 0. -1.
       -1   -1    0    0    0  501  0.00000000000E+00  0.00000000000E+00 -0.63508227534E+02  0.63508227734E+02  0.50400001928E-02 0.  1.
    10030    2    1    2    0    0  0.00000000000E+00  0.00000000000E+00  0.92176212763E+03  0.10487785829E+04  0.50029101135E+03 0.  0.
        1    1    3    3  502    0 -0.11279268962E+03 -0.13126969334E+03  0.83949399070E+03  0.85714881069E+03  0.50400001928E-02 0. -1.
       -1    1    3    3    0  502  0.11279268962E+03  0.13126969334E+03  0.82268136932E+02  0.19162977222E+03  0.50400001928E-02 0.  1.
</event>
<event>
 5   0  0.1209831E-02  0.4995122E+03  0.7818609E-02  0.1013906E+00
       -1   -1    0    0    0  501  0.00000000000E+00  0.00000000000E+00  0.82415224354E+02  0.82415224508E+02  0.50400001928E-02 0. -1.
        1   -1    0    0  501    0  0.00000000000E+00  0.00000000000E+00 -0.75687619745E+03  0.75687619747E+03  0.50400001928E-02 0.  1.
    10030    2    1    2    0    0  0.00000000000E+00  0.00000000000E+00 -0.67446097310E+03  0.83929142198E+03  0.49951224887E+03 0.  0.
        4    1    3    3  502    0  0.67448998179E+02  0.12735222536E+03  0.55041087989E+01  0.14422158221E+03  0.12699999809E+01 0. -1.
       -4    1    3    3    0  502 -0.67448998179E+02 -0.12735222536E+03 -0.67996508190E+03  0.69506983977E+03  0.12699999809E+01 0.  1.
</event>
<event>
 5   0  0.8012875E-03  0.4995317E+03  0.7818609E-02  0.1013901E+00
        3   -1    0    0  501    0  0.00000000000E+00  0.00000000000E+00  0.14356725685E+04  0.14356725721E+04  0.10100000352E+00 0.  1.
       -3   -1    0    0    0  501  0.00000000000E+00  0.00000000000E+00 -0.43452031364E+02  0.43452148746E+02  0.10100000352E+00 0. -1.
    10030    2    1    2    0    0  0.00000000000E+00  0.00000000000E+00  0.13922205372E+04  0.14791247208E+04  0.49953169635E+03 0.  0.
        5    1    3    3  502    0  0.18124227823E+03 -0.17005664503E+03  0.76820755382E+03  0.80742365687E+03  0.46999998093E+01 0. -1.
       -5    1    3    3    0  502 -0.18124227823E+03  0.17005664503E+03  0.62401298335E+03  0.67170106396E+03  0.46999998093E+01 0.  1.
</event>
<event>
 5   0  0.1225989E-02  0.5001837E+03  0.7818609E-02  0.1013731E+00
       -1   -1    0    0    0  501  0.00000000000E+00  0.00000000000E+00  0.97481124154E+03  0.97481124156E+03  0.50400001928E-02 0.  1.
        1   -1    0    0  501    0  0.00000000000E+00  0.00000000000E+00 -0.64162096646E+02  0.64162096844E+02  0.50400001928E-02 0. -1.
    10030    2    1    2    0    0  0.00000000000E+00  0.00000000000E+00  0.91064914490E+03  0.10389733384E+04  0.50018369906E+03 0.  0.
        3    1    3    3  502    0 -0.13896986286E+03 -0.16896851432E+03  0.70702352116E+03  0.74009813625E+03  0.10100000352E+00 0.  1.
       -3    1    3    3    0  502  0.13896986286E+03  0.16896851432E+03  0.20362562374E+03  0.29887520214E+03  0.10100000352E+00 0. -1.
</event>
<event>
 5   0  0.1941387E-02  0.4987478E+03  0.7818609E-02  0.1014106E+00
       -2   -1    0    0    0  501  0.00000000000E+00  0.00000000000E+00  0.11554390180E+04  0.11554390180E+04  0.25500000920E-02 0. -1.
        2   -1    0    0  501    0  0.00000000000E+00  0.00000000000E+00 -0.53821394910E+02  0.53821394970E+02  0.25500000920E-02 0.  1.
    10030    2    1    2    0    0  0.00000000000E+00  0.00000000000E+00  0.11016176231E+04  0.12092604130E+04  0.49874779085E+03 0.  0.
        4    1    3    3  502    0 -0.22489538813E+03  0.29024176588E+02  0.29924179335E+03  0.37545652507E+03  0.12699999809E+01 0.  1.
       -4    1    3    3    0  502  0.22489538813E+03 -0.29024176588E+02  0.80237582973E+03  0.83380388789E+03  0.12699999809E+01 0. -1.
</event>
<event>
 5   0  0.1967813E-02  0.4996426E+03  0.7818609E-02  0.1013872E+00
        2   -1    0    0  501    0  0.00000000000E+00  0.00000000000E+00  0.47725029083E+03  0.47725029084E+03  0.25500000920E-02 0. -1.
       -2   -1    0    0    0  501  0.00000000000E+00  0.00000000000E+00 -0.13077136116E+03  0.13077136118E+03  0.25500000920E-02 0.  1.
    10030    2    1    2    0    0  0.00000000000E+00  0.00000000000E+00  0.34647892967E+03  0.60802165202E+03  0.49964255285E+03 0.  0.
        5    1    3    3  502    0 -0.38768785146E+02  0.49724714105E+02 -0.12087368015E+03  0.13641151875E+03  0.46999998093E+01 0.  1.
       -5    1    3    3    0  502  0.38768785146E+02 -0.49724714105E+02  0.46735260983E+03  0.47161013327E+03  0.46999998093E+01 0. -1.
</event>
<event>
 5   0  0.1982847E-02  0.4981968E+03  0.7818609E-02  0.1014251E+00
        2   -1    0    0  501    0  0.00000000000E+00  0.00000000000E+00  0.11434983279E+04  0.11434983279E+04  0.25500000920E-02 0.  1.
       -2   -1    0    0    0  501  0.00000000000E+00  0.00000000000E+00 -0.54263316816E+02  0.54263316876E+02  0.25500000920E-02 0. -1.
    10030    2    1    2    0    0  0.00000000000E+00  0.00000000000E+00  0.10892350111E+04  0.11977616448E+04  0.49819679678E+03 0.  0.
        2    1    3    3  502    0  0.32661200337E+02 -0.46470799566E+02 -0.38486096681E+02  0.68610996669E+02  0.25500000920E-02 0. -1.
       -2    1    3    3    0  502 -0.32661200337E+02  0.46470799566E+02  0.11277211077E+04  0.11291506481E+04  0.25500000920E-02 0.  1.
</event>
<event>
 5   0  0.1923706E-02  0.4998108E+03  0.7818609E-02  0.1013828E+00
       -2   -1    0    0    0  501  0.00000000000E+00  0.00000000000E+00  0.85600850076E+02  0.85600850114E+02  0.25500000920E-02 0. -1.
        2   -1    0    0  501    0  0.00000000000E+00  0.00000000000E+00 -0.72958039427E+03  0.72958039427E+03  0.25500000920E-02 0.  1.
    10030    2    1    2    0    0  0.00000000000E+00  0.00000000000E+00 -0.64397954419E+03  0.81518124439E+03  0.49981077205E+03 0.  0.
        3    1    3    3  502    0  0.19045260608E+03 -0.15740401642E+03 -0.26086670437E+03  0.35930442134E+03  0.10100000352E+00 0. -1.
       -3    1    3    3    0  502 -0.19045260608E+03  0.15740401642E+03 -0.38311283982E+03  0.45587682304E+03  0.10100000352E+00 0.  1.
</event>
<event>
 5   0  0.1982847E-02  0.5010099E+03  0.7818609E-02  0.1013516E+00
       -2   -1    0    0    0  501  0.00000000000E+00  0.00000000000E+00  0.41065263886E+02  0.41065263965E+02  0.25500000920E-02 0.  1.
        2   -1    0    0  501    0  0.00000000000E+00  0.00000000000E+00 -0.15281219241E+04  0.15281219241E+04  0.25500000920E-02 0. -1.
    10030    2    1    2    0    0  0.00000000000E+00  0.00000000000E+00 -0.14870566602E+04  0.15691871881E+04  0.50100990061E+03 0.  0.
        2    1    3    3  502    0  0.24839854966E+03 -0.82171013770E+00 -0.84502870461E+03  0.88078148613E+03  0.25500000920E-02 0.  1.
       -2    1    3    3    0  502 -0.24839854966E+03  0.82171013770E+00 -0.64202795559E+03  0.68840570193E+03  0.25500000920E-02 0. -1.
</event>
<event>
 5   0  0.1923706E-02  0.4901085E+03  0.7818609E-02  0.1016393E+00
       -2   -1    0    0    0  501  0.00000000000E+00  0.00000000000E+00  0.12485975837E+03  0.12485975840E+03  0.25500000920E-02 0.  1.
        2   -1    0    0  501    0  0.00000000000E+00  0.00000000000E+00 -0.48095230328E+03  0.48095230328E+03  0.25500000920E-02 0. -1.
    10030    2    1    2    0    0  0.00000000000E+00  0.00000000000E+00 -0.35609254491E+03  0.60581206168E+03  0.49010851200E+03 0.  0.
        3    1    3    3  502    0 -0.94159196825E+02 -0.78836772636E+02  0.84079053600E+02  0.14883040187E+03  0.10100000352E+00 0.  1.
       -3    1    3    3    0  502  0.94159196825E+02  0.78836772636E+02 -0.44017159851E+03  0.45698165981E+03  0.10100000352E+00 0. -1.
</event>
<event>
 5   0  0.1923706E-02  0.5008039E+03  0.7818609E-02  0.1013569E+00
       -2   -1    0    0    0  501  0.00000000000E+00  0.00000000000E+00  0.47676624418E+02  0.47676624486E+02  0.25500000920E-02 0. -1.
        2   -1    0    0  501    0  0.00000000000E+00  0.00000000000E+00 -0.13151336275E+04  0.13151336275E+04  0.25500000920E-02 0.  1.
    10030    2    1    2    0    0  0.00000000000E+00  0.00000000000E+00 -0.12674570030E+04  0.13628102520E+04  0.50080388203E+03 0.  0.
        3    1    3    3  502    0  0.18221313353E+03  0.58137053811E+02 -0.10735240103E+04  0.10904289770E+04  0.10100000352E+00 0.  1.
       -3    1    3    3    0  502 -0.18221313353E+03 -0.58137053811E+02 -0.19393299278E+03  0.27238127496E+03  0.10100000352E+00 0. -1.
</event>
<event>
 5   0  0.1941387E-02  0.5003268E+03  0.7818609E-02  0.1013694E+00
       -2   -1    0    0    0  501  0.00000000000E+00  0.00000000000E+00  0.12524568554E+03  0.12524568557E+03  0.25500000920E-02 0.  1.
        2   -1    0    0  501    0  0.00000000000E+00  0.00000000000E+00 -0.49967179131E+03  0.49967179132E+03  0.25500000920E-02 0. -1.
    10030    2    1    2    0    0  0.00000000000E+00  0.00000000000E+00 -0.37442610577E+03  0.62491747689E+03  0.50032683742E+03 0.  0.
        4    1    3    3  502    0  0.71544378587E+02 -0.14373760927E+03 -0.42681968103E+03  0.45602165677E+03  0.12699999809E+01 0. -1.
       -4    1    3    3    0  502 -0.71544378587E+02  0.14373760927E+03  0.52393575257E+02  0.16889582012E+03  0.12699999809E+01 0.  1.
</event>
<event>
 5   0  0.1225989E-02  0.5008958E+03  0.7818609E-02  0.1013545E+00
        1   -1    0    0  501    0  0.00000000000E+00  0.00000000000E+00  0.68263859126E+03  0.68263859128E+03  0.50400001928E-02 0. -1.
       -1   -1    0    0    0  501  0.00000000000E+00  0.00000000000E+00 -0.91884854522E+02  0.91884854660E+02  0.50400001928E-02 0.  1.
    10030    2    1    2    0    0  0.00000000000E+00  0.00000000000E+00  0.59075373674E+03  0.77452344594E+03  0.50089578840E+03 0.  0.
        3    1    3    3  502    0  0.10712884450E+03  0.19264246568E+03  0.47922407726E+03  0.52748785326E+03  0.10100000352E+00 0.  1.
       -3    1    3    3    0  502 -0.10712884450E+03 -0.19264246568E+03  0.11152965948E+03  0.24703559268E+03  0.10100000352E+00 0. -1.
</event>
<event>
 5   0  0.1217270E-02  0.5023229E+03  0.7818609E-02  0.1013174E+00
        1   -1    0    0  501    0  0.00000000000E+00  0.00000000000E+00  0.11986769475E+04  0.11986769475E+04  0.50400001928E-02 0. -1.
       -1   -1    0    0    0  501  0.00000000000E+00  0.00000000000E+00 -0.52626409277E+02  0.52626409518E+02  0.50400001928E-02 0.  1.
    10030    2    1    2    0    0  0.00000000000E+00  0.00000000000E+00  0.11460505382E+04  0.12513033570E+04  0.50232285948E+03 0.  0.
        2    1    3    3  502    0 -0.80828186761E+02 -0.16444807839E+03  0.10009157356E+04  0.10175503310E+04  0.25500000920E-02 0. -1.
       -2    1    3    3    0  502  0.80828186761E+02  0.16444807839E+03  0.14513480264E+03  0.23375302609E+03  0.25500000920E-02 0.  1.
</event>
<event>
 5   0  0.8012875E-03  0.4992158E+03  0.7818609E-02  0.1013984E+00
       -3   -1    0    0    0  501  0.00000000000E+00  0.00000000000E+00  0.90148543485E+02  0.90148600064E+02  0.10100000352E+00 0. -1.
        3   -1    0    0  501    0  0.00000000000E+00  0.00000000000E+00 -0.69112684774E+03  0.69112685512E+03  0.10100000352E+00 0.  1.
    10030    2    1    2    0    0  0.00000000000E+00  0.00000000000E+00 -0.60097830425E+03  0.78127545518E+03  0.49921579972E+03 0.  0.
        3    1    3    3  502    0 -0.10149940229E+03 -0.15667244696E+03 -0.41171433868E+02  0.19116349408E+03  0.10100000352E+00 0. -1.
       -3    1    3    3    0  502  0.10149940229E+03  0.15667244696E+03 -0.55980687038E+03  0.59011196110E+03  0.10100000352E+00 0.  1.
</event>
<event>
 5   0  0.8012875E-03  0.5002524E+03  0.7818609E-02  0.1013713E+00
       -3   -1    0    0    0  501  0.00000000000E+00  0.00000000000E+00  0.15530515955E+03  0.15530519239E+03  0.10100000352E+00 0.  1.
        3   -1    0    0  501    0  0.00000000000E+00  0.00000000000E+00 -0.40283975550E+03  0.40283976816E+03  0.10100000352E+00 0. -1.
    10030    2    1    2    0    0  0.00000000000E+00  0.00000000000E+00 -0.24753459595E+03  0.55814496055E+03  0.50025235711E+03 0.  0.
        3    1    3    3  502    0  0.26393896732E+02  0.78019069081E+02 -0.38727608565E+03  0.39593735571E+03  0.10100000352E+00 0. -1.
       -3    1    3    3    0  502 -0.26393896732E+02 -0.78019069081E+02  0.13974148970E+03  0.16220760484E+03  0.10100000352E+00 0.  1.
</event>
<event>
 5   0  0.1217270E-02  0.4987870E+03  0.7818609E-02  0.1014096E+00
        1   -1    0    0  501    0  0.00000000000E+00  0.00000000000E+00  0.95331994338E+03  0.95331994340E+03  0.50400001928E-02 0. -1.
       -1   -1    0    0    0  501  0.00000000000E+00  0.00000000000E+00 -0.65242654234E+02  0.65242654429E+02  0.50400001928E-02 0.  1.
    10030    2    1    2    0    0  0.00000000000E+00  0.00000000000E+00  0.88807728915E+03  0.10185625978E+04  0.49878702287E+03 0.  0.
        2    1    3    3  502    0  0.28278194753E+02  0.23679548804E+03  0.59305956151E+03  0.63921154790E+03  0.25500000920E-02 0. -1.
       -2    1    3    3    0  502 -0.28278194753E+02 -0.23679548804E+03  0.29501772763E+03  0.37935104993E+03  0.25500000920E-02 0.  1.
</event>
<event>
 5   0  0.1225989E-02  0.4998593E+03  0.7818609E-02  0.1013816E+00
       -1   -1    0    0    0  501  0.00000000000E+00  0.00000000000E+00  0.12275274467E+03  0.12275274477E+03  0.50400001928E-02 0. -1.
        1   -1    0    0  501    0  0.00000000000E+00  0.00000000000E+00 -0.50886702343E+03  0.50886702345E+03  0.50400001928E-02 0.  1.
    10030    2    1    2    0    0  0.00000000000E+00  0.00000000000E+00 -0.38611427876E+03  0.63161976823E+03  0.49985927555E+03 0.  0.
        3    1    3    3  502    0 -0.20754609286E+03 -0.10247909465E+03 -0.31218051369E+03  0.38863096741E+03  0.10100000352E+00 0.  1.
       -3    1    3    3    0  502  0.20754609286E+03  0.10247909465E+03 -0.73933765072E+02  0.24298880082E+03  0.10100000352E+00 0. -1.
</event>
<event>
 5   0  0.1855407E-02  0.5139199E+03  0.7818609E-02  0.1010208E+00
        2   -1    0    0  501    0  0.00000000000E+00  0.00000000000E+00  0.13709548092E+04  0.13709548092E+04  0.25500000920E-02 0.  1.
       -2   -1    0    0    0  501  0.00000000000E+00  0.00000000000E+00 -0.48162350746E+02  0.48162350813E+02  0.25500000920E-02 0. -1.
    10030    2    1    2    0    0  0.00000000000E+00  0.00000000000E+00  0.13227924585E+04  0.14191171600E+04  0.51391986312E+03 0.  0.
        1    1    3    3  502    0 -0.14276000717E+03  0.14063080918E+03  0.11055456900E+04  0.11235607313E+04  0.50400001928E-02 0.  1.
       -1    1    3    3    0  502  0.14276000717E+03 -0.14063080918E+03  0.21724676840E+03  0.29555642870E+03  0.50400001928E-02 0. -1.
</event>
<event>
 5   0  0.1225989E-02  0.5000791E+03  0.7818609E-02  0.1013758E+00
       -1   -1    0    0    0  501  0.00000000000E+00  0.00000000000E+00  0.87460166191E+02  0.87460166336E+02  0.50400001928E-02 0.  1.
        1   -1    0    0  501    0  0.00000000000E+00  0.00000000000E+00 -0.71483713874E+03  0.71483713876E+03  0.50400001928E-02 0. -1.
    10030    2    1    2    0    0  0.00000000000E+00  0.00000000000E+00 -0.62737697255E+03  0.80229730509E+03  0.50007909382E+03 0.  0.
        3    1    3    3  502    0  0.21993400556E+03  0.92225330590E+02 -0.43420947361E+03  0.49539313235E+03  0.10100000352E+00 0. -1.
       -3    1    3    3    0  502 -0.21993400556E+03 -0.92225330590E+02 -0.19316749894E+03  0.30690417274E+03  0.10100000352E+00 0.  1.
</event>
<event>
 5   0  0.1923706E-02  0.4994066E+03  0.7818609E-02  0.1013934E+00
        2   -1    0    0  501    0  0.00000000000E+00  0.00000000000E+00  0.59639286678E+03  0.59639286679E+03  0.25500000920E-02 0.  1.
       -2   -1    0    0    0  501  0.00000000000E+00  0.00000000000E+00 -0.10454809502E+03  0.10454809505E+03  0.25500000920E-02 0. -1.
    10030    2    1    2    0    0  0.00000000000E+00  0.00000000000E+00  0.49184477176E+03  0.70094096184E+03  0.49940660035E+03 0.  0.
        3    1    3    3  502    0 -0.26212819794E+02 -0.54185857999E+02 -0.94212869302E+02  0.11180024182E+03  0.10100000352E+00 0. -1.
       -3    1    3    3    0  502  0.26212819794E+02  0.54185857999E+02  0.58605764106E+03  0.58914072001E+03  0.10100000352E+00 0.  1.
</event>
<event>
 5   0  0.1180937E-02  0.5003126E+03  0.7818609E-02  0.1013697E+00
        1   -1    0    0  501    0  0.00000000000E+00  0.00000000000E+00  0.48566713486E+03  0.48566713488E+03  0.50400001928E-02 0.  1.
       -1   -1    0    0    0  501  0.00000000000E+00  0.00000000000E+00 -0.12884992140E+03  0.12884992150E+03  0.50400001928E-02 0. -1.
    10030    2    1    2    0    0  0.00000000000E+00  0.00000000000E+00  0.35681721346E+03  0.61451705638E+03  0.50031259105E+03 0.  0.
        1    1    3    3  502    0 -0.21008588658E+03 -0.57957772853E+02  0.27561767021E+02  0.21966982997E+03  0.50400001928E-02 0. -1.
       -1    1    3    3    0  502  0.21008588658E+03  0.57957772853E+02  0.32925544643E+03  0.39484722641E+03  0.50400001928E-02 0.  1.
</event>
<event>
 5   0  0.1941387E-02  0.5006583E+03  0.7818609E-02  0.1013607E+00
        2   -1    0    0  501    0  0.00000000000E+00  0.00000000000E+00  0.14027323162E+04  0.14027323162E+04  0.25500000920E-02 0.  1.
       -2   -1    0    0    0  501  0.00000000000E+00  0.00000000000E+00 -0.44673294755E+02  0.44673294828E+02  0.25500000920E-02 0. -1.
    10030    2    1    2    0    0  0.00000000000E+00  0.00000000000E+00  0.13580590214E+04  0.14474056110E+04  0.50065826379E+03 0.  0.
        4    1    3    3  502    0 -0.24986893122E+02 -0.20338567529E+02 -0.38645026180E+02  0.50329445709E+02  0.12699999809E+01 0. -1.
       -4    1    3    3    0  502  0.24986893122E+02  0.20338567529E+02  0.13967040476E+04  0.13970761653E+04  0.12699999809E+01 0.  1.
</event>
<event>
 5   0  0.1941387E-02  0.5060989E+03  0.7818609E-02  0.1012199E+00
        2   -1    0    0  501    0  0.00000000000E+00  0.00000000000E+00  0.34758273333E+03  0.34758273334E+03  0.25500000920E-02 0.  1.
       -2   -1    0    0    0  501  0.00000000000E+00  0.00000000000E+00 -0.18422670374E+03  0.18422670376E+03  0.25500000920E-02 0. -1.
    10030    2    1    2    0    0  0.00000000000E+00  0.00000000000E+00  0.16335602959E+03  0.53180943709E+03  0.50609888854E+03 0.  0.
        4    1    3    3  502    0 -0.47003439892E+02  0.49410374245E+02  0.33774109722E+03  0.34455967566E+03  0.12699999809E+01 0.  1.
       -4    1    3    3    0  502  0.47003439892E+02 -0.49410374245E+02 -0.17438506763E+03  0.18724976143E+03  0.12699999809E+01 0. -1.
</event>
<event>
 5   0  0.1225989E-02  0.4994323E+03  0.7818609E-02  0.1013927E+00
        1   -1    0    0  501    0  0.00000000000E+00  0.00000000000E+00  0.33634784577E+03  0.33634784581E+03  0.50400001928E-02 0. -1.
       -1   -1    0    0    0  501  0.00000000000E+00  0.00000000000E+00 -0.18539782947E+03  0.18539782954E+03  0.50400001928E-02 0.  1.
    10030    2    1    2    0    0  0.00000000000E+00  0.00000000000E+00  0.15095001630E+03  0.52174567534E+03  0.49943232006E+03 0.  0.
        3    1    3    3  502    0 -0.18868060846E+02 -0.18281998919E+03  0.25208111418E+03  0.31196802800E+03  0.10100000352E+00 0. -1.
       -3    1    3    3    0  502  0.18868060846E+02  0.18281998919E+03 -0.10113109788E+03  0.20977764735E+03  0.10100000352E+00 0.  1.
</event>
<event>
 5   0  0.1180937E-02  0.5016138E+03  0.7818609E-02  0.1013359E+00
       -1   -1    0    0    0  501  0.00000000000E+00  0.00000000000E+00  0.18561158902E+03  0.18561158909E+03  0.50400001928E-02 0.  1.
        1   -1    0    0  501    0  0.00000000000E+00  0.00000000000E+00 -0.33890173219E+03  0.33890173223E+03  0.50400001928E-02 0. -1.
    10030    2    1    2    0    0  0.00000000000E+00  0.00000000000E+00 -0.15329014318E+03  0.52451332132E+03  0.50161375205E+03 0.  0.
        1    1    3    3  502    0  0.16652220870E+03 -0.22380059093E+02 -0.27135424151E+03  0.31916083320E+03  0.50400001928E-02 0. -1.
       -1    1    3    3    0  502 -0.16652220870E+03  0.22380059093E+02  0.11806409833E+03  0.20535248812E+03  0.50400001928E-02 0.  1.
</event>
<event>
 5   0  0.1217270E-02  0.5006566E+03  0.7818609E-02  0.1013608E+00
       -1   -1    0    0    0  501  0.00000000000E+00  0.00000000000E+00  0.24178014866E+02  0.24178015392E+02  0.50400001928E-02 0. -1.
        1   -1    0    0  501    0  0.00000000000E+00  0.00000000000E+00 -0.25917866160E+04  0.25917866161E+04  0.50400001928E-02 0.  1.
    10030    2    1    2    0    0  0.00000000000E+00  0.00000000000E+00 -0.25676086012E+04  0.26159646314E+04  0.50065659299E+03 0.  0.
        2    1    3    3  502    0  0.72335129826E+01  0.19081947382E+03 -0.43805544345E+03  0.47786710165E+03  0.25500000920E-02 0. -1.
       -2    1    3    3    0  502 -0.72335129826E+01 -0.19081947382E+03 -0.21295531577E+04  0.21380975298E+04  0.25500000920E-02 0.  1.
</event>
<event>
 5   0  0.1941387E-02  0.5000197E+03  0.7818609E-02  0.1013774E+00
       -2   -1    0    0    0  501  0.00000000000E+00  0.00000000000E+00  0.10240506102E+03  0.10240506105E+03  0.25500000920E-02 0.  1.
        2   -1    0    0  501    0  0.00000000000E+00  0.00000000000E+00 -0.61036961031E+03  0.61036961032E+03  0.25500000920E-02 0. -1.
    10030    2    1    2    0    0  0.00000000000E+00  0.00000000000E+00 -0.50796454929E+03  0.71277467137E+03  0.50001974841E+03 0.  0.
        4    1    3    3  502    0  0.10165984633E+03  0.22538037166E+03 -0.30678881757E+03  0.39402033928E+03  0.12699999809E+01 0.  1.
       -4    1    3    3    0  502 -0.10165984633E+03 -0.22538037166E+03 -0.20117573173E+03  0.31875433208E+03  0.12699999809E+01 0. -1.
</event>
<event>
 5   0  0.1225989E-02  0.4993003E+03  0.7818609E-02  0.1013962E+00
        1   -1    0    0  501    0  0.00000000000E+00  0.00000000000E+00  0.27857728211E+03  0.27857728216E+03  0.50400001928E-02 0.  1.
       -1   -1    0    0    0  501  0.00000000000E+00  0.00000000000E+00 -0.22372681664E+03  0.22372681669E+03  0.50400001928E-02 0. -1.
    10030    2    1    2    0    0  0.00000000000E+00  0.00000000000E+00  0.54850465477E+02  0.50230409885E+03  0.49930034464E+03 0.  0.
        3    1    3    3  502    0 -0.66124375162E+02 -0.90653089922E+02 -0.19692936206E+03  0.22665303780E+03  0.10100000352E+00 0. -1.
       -3    1    3    3    0  502  0.66124375162E+02  0.90653089922E+02  0.25177982753E+03  0.27565106105E+03  0.10100000352E+00 0.  1.
</event>
<event>
 5   0  0.1982847E-02  0.4926816E+03  0.7818609E-02  0.1015707E+00
       -2   -1    0    0    0  501  0.00000000000E+00  0.00000000000E+00  0.61670414114E+02  0.61670414167E+02  0.25500000920E-02 0. -1.
        2   -1    0    0  501    0  0.00000000000E+00  0.00000000000E+00 -0.98400148525E+03  0.98400148526E+03  0.25500000920E-02 0.  1.
    10030    2    1    2    0    0  0.00000000000E+00  0.00000000000E+00 -0.92233107114E+03  0.10456718994E+04  0.49268155685E+03 0.  0.
        2    1    3    3  502    0 -0.12564507202E+03  0.68586583954E+02 -0.35660982783E+02  0.14752121651E+03  0.25500000920E-02 0. -1.
       -2    1    3    3    0  502  0.12564507202E+03 -0.68586583954E+02 -0.88667008836E+03  0.89815068291E+03  0.25500000920E-02 0.  1.
</event>
<event>
 5   0  0.1941387E-02  0.5029644E+03  0.7818609E-02  0.1013008E+00
        2   -1    0    0  501    0  0.00000000000E+00  0.00000000000E+00  0.22660268840E+04  0.22660268840E+04  0.25500000920E-02 0.  1.
       -2   -1    0    0    0  501  0.00000000000E+00  0.00000000000E+00 -0.27909334331E+02  0.27909334447E+02  0.25500000920E-02 0. -1.
    10030    2    1    2    0    0  0.00000000000E+00  0.00000000000E+00  0.22381175496E+04  0.22939362184E+04  0.50296442038E+03 0.  0.
        4    1    3    3  502    0 -0.74781122354E+02  0.12730219384E+03  0.20475395982E+04  0.20528560797E+04  0.12699999809E+01 0.  1.
       -4    1    3    3    0  502  0.74781122354E+02 -0.12730219384E+03  0.19057795144E+03  0.24108013873E+03  0.12699999809E+01 0. -1.
</event>
<event>
 5   0  0.1227864E-02  0.5030794E+03  0.7818609E-02  0.1012978E+00
        1   -1    0    0  501    0  0.00000000000E+00  0.00000000000E+00  0.10777168638E+04  0.10777168639E+04  0.50400001928E-02 0.  1.
       -1   -1    0    0    0  501  0.00000000000E+00  0.00000000000E+00 -0.58709501069E+02  0.58709501285E+02  0.50400001928E-02 0. -1.
    10030    2    1    2    0    0  0.00000000000E+00  0.00000000000E+00  0.10190073628E+04  0.11364263651E+04  0.50307939532E+03 0.  0.
        5    1    3    3  502    0 -0.13823335914E+03 -0.12399415033E+03  0.12636768870E+03  0.22466395715E+03  0.46999998093E+01 0. -1.
       -5    1    3    3    0  502  0.13823335914E+03  0.12399415033E+03  0.89263967408E+03  0.91176240800E+03  0.46999998093E+01 0.  1.
</event>
<event>
 5   0  0.8012875E-03  0.5002753E+03  0.7818609E-02  0.1013707E+00
       -4   -1    0    0    0  501  0.00000000000E+00  0.00000000000E+00  0.39765422538E+03  0.39765625339E+03  0.12699999809E+01 0.  1.
        4   -1    0    0  501    0  0.00000000000E+00  0.00000000000E+00 -0.15733987760E+03  0.15734500304E+03  0.12699999809E+01 0. -1.
    10030    2    1    2    0    0  0.00000000000E+00  0.00000000000E+00  0.24031434778E+03  0.55500125643E+03  0.50027533308E+03 0.  0.
        2    1    3    3  502    0 -0.12819105541E+03 -0.87679655592E+02  0.33768899205E+03  0.37169143661E+03  0.25500000920E-02 0.  1.
       -2    1    3    3    0  502  0.12819105541E+03  0.87679655592E+02 -0.97374644271E+02  0.18330981982E+03  0.25500000920E-02 0. -1.
</event>
<event>
 5   0  0.1982847E-02  0.5001197E+03  0.7818609E-02  0.1013748E+00
        2   -1    0    0  501    0  0.00000000000E+00  0.00000000000E+00  0.98475824452E+03  0.98475824452E+03  0.25500000920E-02 0.  1.
       -2   -1    0    0    0  501  0.00000000000E+00  0.00000000000E+00 -0.63497736273E+02  0.63497736324E+02  0.25500000920E-02 0. -1.
    10030    2    1    2    0    0  0.00000000000E+00  0.00000000000E+00  0.92126050825E+03  0.10482559808E+04  0.50011966301E+03 0.  0.
        2    1    3    3  502    0  0.17387922803E+03 -0.16270921766E+03  0.62055520887E+03  0.66467814972E+03  0.25500000920E-02 0.  1.
       -2    1    3    3    0  502 -0.17387922803E+03  0.16270921766E+03  0.30070529938E+03  0.38357783113E+03  0.25500000920E-02 0. -1.
</event>
<event>
 5   0  0.1923706E-02  0.5002267E+03  0.7818609E-02  0.1013720E+00
        2   -1    0    0  501    0  0.00000000000E+00  0.00000000000E+00  0.29587963389E+03  0.29587963390E+03  0.25500000920E-02 0.  1.
       -2   -1    0    0    0  501  0.00000000000E+00  0.00000000000E+00 -0.21142617670E+03  0.21142617672E+03  0.25500000920E-02 0. -1.
    10030    2    1    2    0    0  0.00000000000E+00  0.00000000000E+00  0.84453457186E+02  0.50730581062E+03  0.50022674764E+03 0.  0.
        3    1    3    3  502    0  0.49688615946E+02 -0.87228461867E+02  0.27455143532E+03  0.29232903372E+03  0.10100000352E+00 0.  1.
       -3    1    3    3    0  502 -0.49688615946E+02  0.87228461867E+02 -0.19009797814E+03  0.21497677690E+03  0.10100000352E+00 0. -1.
</event>
<event>
 5   0  0.1967813E-02  0.4997691E+03  0.7818609E-02  0.1013839E+00
       -2   -1    0    0    0  501  0.00000000000E+00  0.00000000000E+00  0.39520438476E+02  0.39520438558E+02  0.25500000920E-02 0.  1.
        2   -1    0    0  501    0  0.00000000000E+00  0.00000000000E+00 -0.15799996827E+04  0.15799996827E+04  0.25500000920E-02 0. -1.
    10030    2    1    2    0    0  0.00000000000E+00  0.00000000000E+00 -0.15404792442E+04  0.16195201212E+04  0.49976906795E+03 0.  0.
        5    1    3    3  502    0  0.99837815748E+02  0.20281245050E+03 -0.11150137279E+04  0.11377074241E+04  0.46999998093E+01 0. -1.
       -5    1    3    3    0  502 -0.99837815748E+02 -0.20281245050E+03 -0.42546551630E+03  0.48181269710E+03  0.46999998093E+01 0.  1.
</event>
<event>
 5   0  0.1217270E-02  0.5000322E+03  0.7818609E-02  0.1013771E+00
       -1   -1    0    0    0  501  0.00000000000E+00  0.00000000000E+00  0.57181211927E+02  0.57181212150E+02  0.50400001928E-02 0.  1.
        1   -1    0    0  501    0  0.00000000000E+00  0.00000000000E+00 -0.10931570924E+04  0.10931570924E+04  0.50400001928E-02 0. -1.
    10030    2    1    2    0    0  0.00000000000E+00  0.00000000000E+00 -0.10359758804E+04  0.11503383045E+04  0.50003218897E+03 0.  0.
        2    1    3    3  502    0 -0.10973543707E+02 -0.11842173089E+03 -0.10239155460E+04  0.10307992871E+04  0.25500000920E-02 0. -1.
       -2    1    3    3    0  502  0.10973543707E+02  0.11842173089E+03 -0.12060334454E+02  0.11953901741E+03  0.25500000920E-02 0.  1.
</event>
<event>
 5   0  0.1982847E-02  0.4955620E+03  0.7818609E-02  0.1014944E+00
        2   -1    0    0  501    0  0.00000000000E+00  0.00000000000E+00  0.12366297498E+04  0.12366297499E+04  0.25500000920E-02 0.  1.
       -2   -1    0    0    0  501  0.00000000000E+00  0.00000000000E+00 -0.49647379688E+02  0.49647379753E+02  0.25500000920E-02 0. -1.
    10030    2    1    2    0    0  0.00000000000E+00  0.00000000000E+00  0.11869823702E+04  0.12862771296E+04  0.49556201133E+03 0.  0.
        2    1    3    3  502    0  0.18202774834E+03 -0.16478553851E+03  0.50712961481E+03  0.56344371599E+03  0.25500000920E-02 0. -1.
       -2    1    3    3    0  502 -0.18202774834E+03  0.16478553851E+03  0.67985275535E+03  0.72283341361E+03  0.25500000920E-02 0.  1.
</event>
<event>
 5   0  0.8012875E-03  0.4989865E+03  0.7818609E-02  0.1014044E+00
       -4   -1    0    0    0  501  0.00000000000E+00  0.00000000000E+00  0.82100850250E+02  0.82110672337E+02  0.12699999809E+01 0.  1.
        4   -1    0    0  501    0  0.00000000000E+00  0.00000000000E+00 -0.75812002506E+03  0.75812108880E+03  0.12699999809E+01 0. -1.
    10030    2    1    2    0    0  0.00000000000E+00  0.00000000000E+00 -0.67601917481E+03  0.84023176114E+03  0.49898646046E+03 0.  0.
        4    1    3    3  502    0 -0.17800691310E+03  0.17432091791E+03 -0.36003013261E+03  0.43783279094E+03  0.12699999809E+01 0. -1.
       -4    1    3    3    0  502  0.17800691310E+03 -0.17432091791E+03 -0.31598904219E+03  0.40239897020E+03  0.12699999809E+01 0.  1.
</event>
<event>
 5   0  0.1923706E-02  0.5001412E+03  0.7818609E-02  0.1013742E+00
       -2   -1    0    0    0  501  0.00000000000E+00  0.00000000000E+00  0.71103463100E+03  0.71103463100E+03  0.25500000920E-02 0. -1.
        2   -1    0    0  501    0  0.00000000000E+00  0.00000000000E+00 -0.87949744520E+02  0.87949744557E+02  0.25500000920E-02 0.  1.
    10030    2    1    2    0    0  0.00000000000E+00  0.00000000000E+00  0.62308488648E+03  0.79898437556E+03  0.50014123668E+03 0.  0.
        3    1    3    3  502    0  0.55405244030E+02 -0.62351322509E+02 -0.65071672520E+02  0.10579112085E+03  0.10100000352E+00 0.  1.
       -3    1    3    3    0  502 -0.55405244030E+02  0.62351322509E+02  0.68815655900E+03  0.69319325471E+03  0.10100000352E+00 0. -1.
</event>
<event>
 5   0  0.1209831E-02  0.5005132E+03  0.7818609E-02  0.1013645E+00
        1   -1    0    0  501    0  0.00000000000E+00  0.00000000000E+00  0.30731343834E+03  0.30731343838E+03  0.50400001928E-02 0.  1.
       -1   -1    0    0    0  501  0.00000000000E+00  0.00000000000E+00 -0.20379316305E+03  0.20379316311E+03  0.50400001928E-02 0. -1.
    10030    2    1    2    0    0  0.00000000000E+00  0.00000000000E+00  0.10352027528E+03  0.51110660149E+03  0.50051324727E+03 0.  0.
        4    1    3    3  502    0  0.54158916063E+02 -0.90113019036E+01  0.30108415666E+03  0.30605175060E+03  0.12699999809E+01 0.  1.
       -4    1    3    3    0  502 -0.54158916063E+02  0.90113019036E+01 -0.19756388138E+03  0.20505485090E+03  0.12699999809E+01 0. -1.
</event>
<event>
 5   0  0.1217270E-02  0.5010238E+03  0.7818609E-02  0.1013512E+00
       -1   -1    0    0    0  501  0.00000000000E+00  0.00000000000E+00  0.31976527351E+03  0.31976527355E+03  0.50400001928E-02 0.  1.
        1   -1    0    0  501    0  0.00000000000E+00  0.00000000000E+00 -0.19625715781E+03  0.19625715788E+03  0.50400001928E-02 0. -1.
    10030    2    1    2    0    0  0.00000000000E+00  0.00000000000E+00  0.12350811570E+03  0.51602243142E+03  0.50102384683E+03 0.  0.
        2    1    3    3  502    0 -0.13695218976E+03 -0.16990525275E+03 -0.64942818088E+02  0.22768677348E+03  0.25500000920E-02 0. -1.
       -2    1    3    3    0  502  0.13695218976E+03  0.16990525275E+03  0.18845093378E+03  0.28833565794E+03  0.25500000920E-02 0.  1.
</event>
<event>
 5   0  0.1180937E-02  0.4997900E+03  0.7818609E-02  0.1013834E+00
       -1   -1    0    0    0  501  0.00000000000E+00  0.00000000000E+00  0.68624890546E+03  0.68624890548E+03  0.50400001928E-02 0. -1.
        1   -1    0    0  501    0  0.00000000000E+00  0.00000000000E+00 -0.90998336215E+02  0.90998336354E+02  0.50400001928E-02 0.  1.
    10030    2    1    2    0    0  0.00000000000E+00  0.00000000000E+00  0.59525056925E+03  0.77724724183E+03  0.49978999065E+03 0.  0.
        1    1    3    3  502    0 -0.60556471928E+02  0.19104866028E+02  0.67349333490E+03  0.67648012120E+03  0.50400001928E-02 0. -1.
       -1    1    3    3    0  502  0.60556471928E+02 -0.19104866028E+02 -0.78242765654E+02  0.10076712063E+03  0.50400001928E-02 0.  1.
</event>
<event>
 5   0  0.1967813E-02  0.4999688E+03  0.7818609E-02  0.1013787E+00
       -2   -1    0    0    0  501  0.00000000000E+00  0.00000000000E+00  0.12093119942E+03  0.12093119945E+03  0.25500000920E-02 0. -1.
        2   -1    0    0  501    0  0.00000000000E+00  0.00000000000E+00 -0.51675832734E+03  0.51675832734E+03  0.25500000920E-02 0.  1.
    10030    2    1    2    0    0  0.00000000000E+00  0.00000000000E+00 -0.39582712791E+03  0.63768952679E+03  0.49996881641E+03 0.  0.
        5    1    3    3  502    0  0.10721442000E+03 -0.22550095625E+03 -0.21214514583E+03  0.32767860172E+03  0.46999998093E+01 0.  1.
       -5    1    3    3    0  502 -0.10721442000E+03  0.22550095625E+03 -0.18368198208E+03  0.31001092507E+03  0.46999998093E+01 0. -1.
</event>
<event>
 5   0  0.1225989E-02  0.4998974E+03  0.7818609E-02  0.1013806E+00
        1   -1    0    0  501    0  0.00000000000E+00  0.00000000000E+00  0.40406862110E+03  0.40406862114E+03  0.50400001928E-02 0.  1.
       -1   -1    0    0    0  501  0.00000000000E+00  0.00000000000E+00 -0.15461320193E+03  0.15461320201E+03  0.50400001928E-02 0. -1.
    10030    2    1    2    0    0  0.00000000000E+00  0.00000000000E+00  0.24945541918E+03  0.55868182315E+03  0.49989736282E+03 0.  0.
        3    1    3    3  502    0  0.23671668402E+02 -0.81567315740E+02  0.38744709285E+03  0.39664699021E+03  0.10100000352E+00 0.  1.
       -3    1    3    3    0  502 -0.23671668402E+02  0.81567315740E+02 -0.13799167367E+03  0.16203483294E+03  0.10100000352E+00 0. -1.
</event>
<event>
 5   0  0.1180937E-02  0.5008197E+03  0.7818609E-02  0.1013565E+00
       -1   -1    0    0    0  501  0.00000000000E+00  0.00000000000E+00  0.10979072192E+03  0.10979072204E+03  0.50400001928E-02 0.  1.
        1   -1    0    0  501    0  0.00000000000E+00  0.00000000000E+00 -0.57113287763E+03  0.57113287765E+03  0.50400001928E-02 0. -1.
    10030    2    1    2    0    0  0.00000000000E+00  0.00000000000E+00 -0.46134215570E+03  0.68092359969E+03  0.50081969209E+03 0.  0.
        1    1    3    3  502    0 -0.97732744829E+01 -0.20336088965E+03 -0.42888608716E+03  0.47475724757E+03  0.50400001928E-02 0. -1.
       -1    1    3    3    0  502  0.97732744829E+01  0.20336088965E+03 -0.32456068539E+02  0.20616635211E+03  0.50400001928E-02 0.  1.
</event>
<event>
 5   0  0.1855407E-02  0.5005702E+03  0.7818609E-02  0.1013630E+00
        2   -1    0    0  501    0  0.00000000000E+00  0.00000000000E+00  0.39503484235E+03  0.39503484236E+03  0.25500000920E-02 0. -1.
       -2   -1    0    0    0  501  0.00000000000E+00  0.00000000000E+00 -0.15857494054E+03  0.15857494056E+03  0.25500000920E-02 0.  1.
    10030    2    1    2    0    0  0.00000000000E+00  0.00000000000E+00  0.23645990181E+03  0.55360978292E+03  0.50057018147E+03 0.  0.
        1    1    3    3  502    0 -0.11724793244E+03 -0.19622189822E+02  0.36181842750E+03  0.38084732177E+03  0.50400001928E-02 0. -1.
       -1    1    3    3    0  502  0.11724793244E+03  0.19622189822E+02 -0.12535852569E+03  0.17276246115E+03  0.50400001928E-02 0.  1.
</event>
<event>
 5   0  0.1180937E-02  0.5000110E+03  0.7818609E-02  0.1013776E+00
        1   -1    0    0  501    0  0.00000000000E+00  0.00000000000E+00  0.10165418716E+03  0.10165418728E+03  0.50400001928E-02 0. -1.
       -1   -1    0    0    0  501  0.00000000000E+00  0.00000000000E+00 -0.61485672707E+03  0.61485672709E+03  0.50400001928E-02 0.  1.
    10030    2    1    2    0    0  0.00000000000E+00  0.00000000000E+00 -0.51320253992E+03  0.71651091438E+03  0.50001104332E+03 0.  0.
        1    1    3    3  502    0  0.11078993817E+03  0.21380516879E+03 -0.35289671978E+03  0.42722728782E+03  0.50400001928E-02 0.  1.
       -1    1    3    3    0  502 -0.11078993817E+03 -0.21380516879E+03 -0.16030582014E+03  0.28928362656E+03  0.50400001928E-02 0. -1.
</event>
<event>
 5   0  0.1923706E-02  0.5000166E+03  0.7818609E-02  0.1013775E+00
        2   -1    0    0  501    0  0.00000000000E+00  0.00000000000E+00  0.21553629722E+03  0.21553629724E+03  0.25500000920E-02 0.  1.
       -2   -1    0    0    0  501  0.00000000000E+00  0.00000000000E+00 -0.28999366932E+03  0.28999366933E+03  0.25500000920E-02 0. -1.
    10030    2    1    2    0    0  0.00000000000E+00  0.00000000000E+00 -0.74457372097E+02  0.50552996657E+03  0.50001664656E+03 0.  0.
        3    1    3    3  502    0 -0.39241596868E+02 -0.23167405369E+03  0.49102429033E+02  0.24004963823E+03  0.10100000352E+00 0.  1.
       -3    1    3    3    0  502  0.39241596868E+02  0.23167405369E+03 -0.12355980113E+03  0.26548032834E+03  0.10100000352E+00 0. -1.
</event>
<event>
 5   0  0.1180937E-02  0.5009017E+03  0.7818609E-02  0.1013544E+00
        1   -1    0    0  501    0  0.00000000000E+00  0.00000000000E+00  0.25574347268E+03  0.25574347273E+03  0.50400001928E-02 0.  1.
       -1   -1    0    0    0  501  0.00000000000E+00  0.00000000000E+00 -0.24526770967E+03  0.24526770972E+03  0.50400001928E-02 0. -1.
    10030    2    1    2    0    0  0.00000000000E+00  0.00000000000E+00  0.10475763010E+02  0.50101118245E+03  0.50090165035E+03 0.  0.
        1    1    3    3  502    0 -0.15557794060E+03  0.18161389632E+03 -0.69192857506E+02  0.24894930105E+03  0.50400001928E-02 0. -1.
       -1    1    3    3    0  502  0.15557794060E+03 -0.18161389632E+03  0.79668620517E+02  0.25206188140E+03  0.50400001928E-02 0.  1.
</event>
<event>
 5   0  0.1209831E-02  0.4967041E+03  0.7818609E-02  0.1014643E+00
       -1   -1    0    0    0  501  0.00000000000E+00  0.00000000000E+00  0.21900973772E+03  0.21900973778E+03  0.50400001928E-02 0. -1.
        1   -1    0    0  501    0  0.00000000000E+00  0.00000000000E+00 -0.28162560012E+03  0.28162560016E+03  0.50400001928E-02 0.  1.
    10030    2    1    2    0    0  0.00000000000E+00  0.00000000000E+00 -0.62615862398E+02  0.50063533794E+03  0.49670413263E+03 0.  0.
        4    1    3    3  502    0  0.19414401839E+02 -0.36022183698E+02  0.21558510042E+03  0.21943806675E+03  0.12699999809E+01 0. -1.
       -4    1    3    3    0  502 -0.19414401839E+02  0.36022183698E+02 -0.27820096281E+03  0.28119727119E+03  0.12699999809E+01 0.  1.
</event>
<event>
 5   0  0.1855407E-02  0.5003283E+03  0.7818609E-02  0.1013693E+00
       -2   -1    0    0    0  501  0.00000000000E+00  0.00000000000E+00  0.10821590287E+03  0.10821590290E+03  0.25500000920E-02 0. -1.
        2   -1    0    0  501    0  0.00000000000E+00  0.00000000000E+00 -0.57830775428E+03  0.57830775429E+03  0.25500000920E-02 0.  1.
    10030    2    1    2    0    0  0.00000000000E+00  0.00000000000E+00 -0.47009185141E+03  0.68652365719E+03  0.50032827536E+03 0.  0.
        1    1    3    3  502    0 -0.20354368606E+03 -0.11145538969E+03 -0.36324993459E+03  0.43104854834E+03  0.50400001928E-02 0.  1.
       -1    1    3    3    0  502  0.20354368606E+03  0.11145538969E+03 -0.10684191682E+03  0.25547510885E+03  0.50400001928E-02 0. -1.
</event>
<event>
 5   0  0.1180937E-02  0.4997751E+03  0.7818609E-02  0.1013838E+00
       -1   -1    0    0    0  501  0.00000000000E+00  0.00000000000E+00  0.36716604672E+02  0.36716605017E+02  0.50400001928E-02 0.  1.
        1   -1    0    0  501    0  0.00000000000E+00  0.00000000000E+00 -0.17006957946E+04  0.17006957946E+04  0.50400001928E-02 0. -1.
    10030    2    1    2    0    0  0.00000000000E+00  0.00000000000E+00 -0.16639791899E+04  0.17374123996E+04  0.49977505125E+03 0.  0.
        1    1    3    3  502    0 -0.44955466745E+01  0.11206247929E+03 -0.55691140082E+02  0.12521865801E+03  0.50400001928E-02 0.  1.
       -1    1    3    3    0  502  0.44955466745E+01 -0.11206247929E+03 -0.16082880498E+04  0.16121937416E+04  0.50400001928E-02 0. -1.
</event>
<event>
 5   0  0.1180937E-02  0.4972095E+03  0.7818609E-02  0.1014510E+00
        1   -1    0    0  501    0  0.00000000000E+00  0.00000000000E+00  0.42821509031E+03  0.42821509034E+03  0.50400001928E-02 0. -1.
       -1   -1    0    0    0  501  0.00000000000E+00  0.00000000000E+00 -0.14433011553E+03  0.14433011561E+03  0.50400001928E-02 0.  1.
    10030    2    1    2    0    0  0.00000000000E+00  0.00000000000E+00  0.28388497479E+03  0.57254520596E+03  0.49720954733E+03 0.  0.
        1    1    3    3  502    0  0.18219592281E+03 -0.45786853750E+02 -0.45555244204E+02  0.19330564028E+03  0.50400001928E-02 0.  1.
       -1    1    3    3    0  502 -0.18219592281E+03  0.45786853750E+02  0.32944021899E+03  0.37923956568E+03  0.50400001928E-02 0. -1.
</event>
<event>
 5   0  0.1923706E-02  0.4993216E+03  0.7818609E-02  0.1013956E+00
       -2   -1    0    0    0  501  0.00000000000E+00  0.00000000000E+00  0.89263547732E+02  0.89263547768E+02  0.25500000920E-02 0. -1.
        2   -1    0    0  501    0  0.00000000000E+00  0.00000000000E+00 -0.69827499336E+03  0.69827499336E+03  0.25500000920E-02 0.  1.
    10030    2    1    2    0    0  0.00000000000E+00  0.00000000000E+00 -0.60901144563E+03  0.78753854113E+03  0.49932155257E+03 0.  0.
        3    1    3    3  502    0  0.45702601292E+02  0.35632767293E+02  0.78508318026E+02  0.97580674675E+02  0.10100000352E+00 0. -1.
       -3    1    3    3    0  502 -0.45702601292E+02 -0.35632767293E+02 -0.68751976365E+03  0.68995786646E+03  0.10100000352E+00 0.  1.
</event>
<event>
 5   0  0.1967813E-02  0.4998943E+03  0.7818609E-02  0.1013807E+00
       -2   -1    0    0    0  501  0.00000000000E+00  0.00000000000E+00  0.13273599080E+03  0.13273599083E+03  0.25500000920E-02 0. -1.
        2   -1    0    0  501    0  0.00000000000E+00  0.00000000000E+00 -0.47066043319E+03  0.47066043319E+03  0.25500000920E-02 0.  1.
    10030    2    1    2    0    0  0.00000000000E+00  0.00000000000E+00 -0.33792444239E+03  0.60339642402E+03  0.49989430459E+03 0.  0.
        5    1    3    3  502    0  0.51009281558E+01 -0.14232299133E+02 -0.47005456075E+03  0.47032112209E+03  0.46999998093E+01 0.  1.
       -5    1    3    3    0  502 -0.51009281558E+01  0.14232299133E+02  0.13213011836E+03  0.13307530193E+03  0.46999998093E+01 0. -1.
</event>
<event>
 5   0  0.8012875E-03  0.4992005E+03  0.7818609E-02  0.1013988E+00
        3   -1    0    0  501    0  0.00000000000E+00  0.00000000000E+00  0.81056856401E+02  0.81056919326E+02  0.10100000352E+00 0.  1.
       -3   -1    0    0    0  501  0.00000000000E+00  0.00000000000E+00 -0.76859955126E+03  0.76859955790E+03  0.10100000352E+00 0. -1.
    10030    2    1    2    0    0  0.00000000000E+00  0.00000000000E+00 -0.68754269486E+03  0.84965647722E+03  0.49920053288E+03 0.  0.
        1    1    3    3  502    0 -0.15190240352E+03  0.37513405448E+02 -0.67476648525E+03  0.69266976650E+03  0.50400001928E-02 0. -1.
       -1    1    3    3    0  502  0.15190240352E+03 -0.37513405448E+02 -0.12776209608E+02  0.15698671072E+03  0.50400001928E-02 0.  1.
</event>
<event>
 5   0  0.1982847E-02  0.5004256E+03  0.7818609E-02  0.1013668E+00
        2   -1    0    0  501    0  0.00000000000E+00  0.00000000000E+00  0.32725234380E+03  0.32725234381E+03  0.25500000920E-02 0.  1.
       -2   -1    0    0    0  501  0.00000000000E+00  0.00000000000E+00 -0.19130938973E+03  0.19130938975E+03  0.25500000920E-02 0. -1.
    10030    2    1    2    0    0  0.00000000000E+00  0.00000000000E+00  0.13594295407E+03  0.51856173356E+03  0.50042560361E+03 0.  0.
        2    1    3    3  502    0 -0.21704268168E+03  0.12192034410E+03  0.41872379773E+02  0.25243888799E+03  0.25500000920E-02 0.  1.
       -2    1    3    3    0  502  0.21704268168E+03 -0.12192034410E+03  0.94070574300E+02  0.26612284557E+03  0.25500000920E-02 0. -1.
</event>
<event>
 5   0  0.1982847E-02  0.4930012E+03  0.7818609E-02  0.1015622E+00
        2   -1    0    0  501    0  0.00000000000E+00  0.00000000000E+00  0.41638019864E+03  0.41638019865E+03  0.25500000920E-02 0. -1.
       -2   -1    0    0    0  501  0.00000000000E+00  0.00000000000E+00 -0.14593043723E+03  0.14593043725E+03  0.25500000920E-02 0.  1.
    10030    2    1    2    0    0  0.00000000000E+00  0.00000000000E+00  0.27044976141E+03  0.56231063590E+03  0.49300119453E+03 0.  0.
        2    1    3    3  502    0 -0.18848418277E+03 -0.11370794111E+03  0.26175683542E+03  0.34201231545E+03  0.25500000920E-02 0. -1.
       -2    1    3    3    0  502  0.18848418277E+03  0.11370794111E+03  0.86929259938E+01  0.22029832045E+03  0.25500000920E-02 0.  1.
</event>
<event>
 5   0  0.1923706E-02  0.4995929E+03  0.7818609E-02  0.1013885E+00
       -2   -1    0    0    0  501  0.00000000000E+00  0.00000000000E+00  0.19541006031E+03  0.19541006032E+03  0.25500000920E-02 0. -1.
        2   -1    0    0  501    0  0.00000000000E+00  0.00000000000E+00 -0.31931957640E+03  0.31931957641E+03  0.25500000920E-02 0.  1.
    10030    2    1    2    0    0  0.00000000000E+00  0.00000000000E+00 -0.12390951610E+03  0.51472963674E+03  0.49959286500E+03 0.  0.
        3    1    3    3  502    0 -0.11471047356E+03  0.83200718060E+02  0.14998986889E+03  0.20634394394E+03  0.10100000352E+00 0. -1.
       -3    1    3    3    0  502  0.11471047356E+03 -0.83200718060E+02 -0.27389938498E+03  0.30838569280E+03  0.10100000352E+00 0.  1.
</event>
<event>
 5   0  0.8012875E-03  0.5003328E+03  0.7818609E-02  0.1013692E+00
        4   -1    0    0  501    0  0.00000000000E+00  0.00000000000E+00  0.39923533632E+03  0.39923735630E+03  0.12699999809E+01 0.  1.
       -4   -1    0    0    0  501  0.00000000000E+00  0.00000000000E+00 -0.15675274841E+03  0.15675789305E+03  0.12699999809E+01 0. -1.
    10030    2    1    2    0    0  0.00000000000E+00  0.00000000000E+00  0.24248258792E+03  0.55599524935E+03  0.50033280110E+03 0.  0.
        5    1    3    3  502    0  0.24486274675E+03  0.38533484976E+02  0.15840667542E+03  0.29420632050E+03  0.46999998093E+01 0.  1.
       -5    1    3    3    0  502 -0.24486274675E+03 -0.38533484976E+02  0.84075912495E+02  0.26178892885E+03  0.46999998093E+01 0. -1.
</event>
<event>
 5   0  0.1855407E-02  0.4984451E+03  0.7818609E-02  0.1014186E+00
        2   -1    0    0  501    0  0.00000000000E+00  0.00000000000E+00  0.75643076219E+03  0.75643076220E+03  0.25500000920E-02 0.  1.
       -2   -1    0    0    0  501  0.00000000000E+00  0.00000000000E+00 -0.82111798020E+02  0.82111798060E+02  0.25500000920E-02 0. -1.
    10030    2    1    2    0    0  0.00000000000E+00  0.00000000000E+00  0.67431896417E+03  0.83854256026E+03  0.49844514234E+03 0.  0.
        1    1    3    3  502    0  0.21473849374E+03  0.98642924170E+02  0.20396033897E+03  0.31215840063E+03  0.50400001928E-02 0. -1.
       -1    1    3    3    0  502 -0.21473849374E+03 -0.98642924170E+02  0.47035862520E+03  0.52638415963E+03  0.50400001928E-02 0.  1.
</event>
<event>
 5   0  0.1180937E-02  0.4997175E+03  0.7818609E-02  0.1013853E+00
        1   -1    0    0  501    0  0.00000000000E+00  0.00000000000E+00  0.81009465245E+02  0.81009465402E+02  0.50400001928E-02 0.  1.
       -1   -1    0    0    0  501  0.00000000000E+00  0.00000000000E+00 -0.77064332705E+03  0.77064332707E+03  0.50400001928E-02 0. -1.
    10030    2    1    2    0    0  0.00000000000E+00  0.00000000000E+00 -0.68963386180E+03  0.85165279247E+03  0.49971753578E+03 0.  0.
        1    1    3    3  502    0 -0.18227661323E+03  0.15704256321E+03 -0.45967846812E+03  0.51883660671E+03  0.50400001928E-02 0. -1.
       -1    1    3    3    0  502  0.18227661323E+03 -0.15704256321E+03 -0.22995539369E+03  0.33281618576E+03  0.50400001928E-02 0.  1.
</event>
<event>
 5   0  0.1225989E-02  0.5004617E+03  0.7818609E-02  0.1013658E+00
        1   -1    0    0  501    0  0.00000000000E+00  0.00000000000E+00  0.90914035854E+03  0.90914035855E+03  0.50400001928E-02 0. -1.
       -1   -1    0    0    0  501  0.00000000000E+00  0.00000000000E+00 -0.68873281483E+02  0.68873281667E+02  0.50400001928E-02 0.  1.
    10030    2    1    2    0    0  0.00000000000E+00  0.00000000000E+00  0.84026707706E+03  0.97801364022E+03  0.50046170650E+03 0.  0.
        3    1    3    3  502    0 -0.13264963838E+03  0.18313188548E+03  0.62953883687E+03  0.66891880776E+03  0.10100000352E+00 0. -1.
       -3    1    3    3    0  502  0.13264963838E+03 -0.18313188548E+03  0.21072824019E+03  0.30909483246E+03  0.10100000352E+00 0.  1.
</event>
<event>
 5   0  0.1217270E-02  0.5008557E+03  0.7818609E-02  0.1013556E+00
       -1   -1    0    0    0  501  0.00000000000E+00  0.00000000000E+00  0.27184061748E+03  0.27184061753E+03  0.50400001928E-02 0.  1.
        1   -1    0    0  501    0  0.00000000000E+00  0.00000000000E+00 -0.23070175363E+03  0.23070175368E+03  0.50400001928E-02 0. -1.
    10030    2    1    2    0    0  0.00000000000E+00  0.00000000000E+00  0.41138863856E+02  0.50254237121E+03  0.50085569653E+03 0.  0.
        2    1    3    3  502    0  0.12711219211E+03 -0.48600847391E+02 -0.19036353033E+03  0.23400390047E+03  0.25500000920E-02 0.  1.
       -2    1    3    3    0  502 -0.12711219211E+03  0.48600847391E+02  0.23150239418E+03  0.26853847074E+03  0.25500000920E-02 0. -1.
</event>
<event>
 5   0  0.1941387E-02  0.5023836E+03  0.7818609E-02  0.1013159E+00
       -2   -1    0    0    0  501  0.00000000000E+00  0.00000000000E+00  0.27551777844E+03  0.27551777845E+03  0.25500000920E-02 0.  1.
        2   -1    0    0  501    0  0.00000000000E+00  0.00000000000E+00 -0.22901357468E+03  0.22901357469E+03  0.25500000920E-02 0. -1.
    10030    2    1    2    0    0  0.00000000000E+00  0.00000000000E+00  0.46504203761E+02  0.50453135314E+03  0.50238356396E+03 0.  0.
        4    1    3    3  502    0  0.47749794841E+02 -0.31447939657E+02  0.26889272945E+03  0.27490712735E+03  0.12699999809E+01 0.  1.
       -4    1    3    3    0  502 -0.47749794841E+02  0.31447939657E+02 -0.22238852569E+03  0.22962422580E+03  0.12699999809E+01 0. -1.
</event>
<event>
 5   0  0.1225989E-02  0.5010760E+03  0.7818609E-02  0.1013498E+00
        1   -1    0    0  501    0  0.00000000000E+00  0.00000000000E+00  0.88871918735E+03  0.88871918737E+03  0.50400001928E-02 0.  1.
       -1   -1    0    0    0  501  0.00000000000E+00  0.00000000000E+00 -0.70628945676E+02  0.70628945856E+02  0.50400001928E-02 0. -1.
    10030    2    1    2    0    0  0.00000000000E+00  0.00000000000E+00  0.81809024168E+03  0.95934813322E+03  0.50107603933E+03 0.  0.
        3    1    3    3  502    0 -0.10804995954E+02  0.56733560764E+02 -0.57710449654E+02  0.81645275765E+02  0.10100000352E+00 0. -1.
       -3    1    3    3    0  502  0.10804995954E+02 -0.56733560764E+02  0.87580069133E+03  0.87770285746E+03  0.10100000352E+00 0.  1.
</event>
<event>
 5   0  0.1967813E-02  0.4997176E+03  0.7818609E-02  0.1013853E+00
        2   -1    0    0  501    0  0.00000000000E+00  0.00000000000E+00  0.95807818098E+03  0.95807818099E+03  0.25500000920E-02 0. -1.
       -2   -1    0    0    0  501  0.00000000000E+00  0.00000000000E+00 -0.65161104170E+02  0.65161104220E+02  0.25500000920E-02 0.  1.
    10030    2    1    2    0    0  0.00000000000E+00  0.00000000000E+00  0.89291707681E+03  0.10232392852E+04  0.49971764900E+03 0.  0.
        5    1    3    3  502    0 -0.42915777807E+02 -0.23742309507E+03  0.31382217544E+03  0.39587616480E+03  0.46999998093E+01 0.  1.
       -5    1    3    3    0  502  0.42915777807E+02  0.23742309507E+03  0.57909490137E+03  0.62736312041E+03  0.46999998093E+01 0. -1.
</event>
<event>
 5   0  0.1225989E-02  0.5001580E+03  0.7818609E-02  0.1013738E+00
        1   -1    0    0  501    0  0.00000000000E+00  0.00000000000E+00  0.16398956859E+03  0.16398956867E+03  0.50400001928E-02 0. -1.
       -1   -1    0    0    0  501  0.00000000000E+00  0.00000000000E+00 -0.38136276856E+03  0.38136276859E+03  0.50400001928E-02 0.  1.
    10030    2    1    2    0    0  0.00000000000E+00  0.00000000000E+00 -0.21737319997E+03  0.54535233726E+03  0.50015803871E+03 0.  0.
        3    1    3    3  502    0  0.11979413063E+03 -0.20809334295E+03 -0.18490294285E+03  0.30305541010E+03  0.10100000352E+00 0.  1.
       -3    1    3    3    0  502 -0.11979413063E+03  0.20809334295E+03 -0.32470257119E+02  0.24229692716E+03  0.10100000352E+00 0. -1.
</event>
<event>
 5   0  0.1855407E-02  0.4989635E+03  0.7818609E-02  0.1014050E+00
       -2   -1    0    0    0  501  0.00000000000E+00  0.00000000000E+00  0.55998597323E+02  0.55998597381E+02  0.25500000920E-02 0.  1.
        2   -1    0    0  501    0  0.00000000000E+00  0.00000000000E+00 -0.11114768168E+04  0.11114768168E+04  0.25500000920E-02 0. -1.
    10030    2    1    2    0    0  0.00000000000E+00  0.00000000000E+00 -0.10554782195E+04  0.11674754142E+04  0.49896349659E+03 0.  0.
        1    1    3    3  502    0  0.18997405388E+03 -0.48955848564E+02 -0.88835954181E+03  0.90976342628E+03  0.50400001928E-02 0. -1.
       -1    1    3    3    0  502 -0.18997405388E+03  0.48955848564E+02 -0.16711867767E+03  0.25771198790E+03  0.50400001928E-02 0.  1.
</event>
<event>
 5   0  0.1225989E-02  0.4999541E+03  0.7818609E-02  0.1013791E+00
        1   -1    0    0  501    0  0.00000000000E+00  0.00000000000E+00  0.93094844575E+03  0.93094844576E+03  0.50400001928E-02 0. -1.
       -1   -1    0    0    0  501  0.00000000000E+00  0.00000000000E+00 -0.67123511122E+02  0.67123511311E+02  0.50400001928E-02 0.  1.
    10030    2    1    2    0    0  0.00000000000E+00  0.00000000000E+00  0.86382493463E+03  0.99807195707E+03  0.49995411171E+03 0.  0.
        3    1    3    3  502    0 -0.91775998365E+02  0.22348433257E+03  0.56005797117E+03  0.60994509757E+03  0.10100000352E+00 0.  1.
       -3    1    3    3    0  502  0.91775998365E+02 -0.22348433257E+03  0.30376696346E+03  0.38812685951E+03  0.10100000352E+00 0. -1.
</event>
<event>
 5   0  0.1967813E-02  0.5002181E+03  0.7818609E-02  0.1013722E+00
       -2   -1    0    0    0  501  0.00000000000E+00  0.00000000000E+00  0.43673575265E+02  0.43673575339E+02  0.25500000920E-02 0. -1.
        2   -1    0    0  501    0  0.00000000000E+00  0.00000000000E+00 -0.14323202545E+04  0.14323202545E+04  0.25500000920E-02 0.  1.
    10030    2    1    2    0    0  0.00000000000E+00  0.00000000000E+00 -0.13886466793E+04  0.14759938299E+04  0.50021813840E+03 0.  0.
        5    1    3    3  502    0 -0.97890958061E+02 -0.13070241168E+03 -0.13550481454E+03  0.21224845076E+03  0.46999998093E+01 0. -1.
       -5    1    3    3    0  502  0.97890958061E+02  0.13070241168E+03 -0.12531418647E+04  0.12637453791E+04  0.46999998093E+01 0.  1.
</event>
<event>
 5   0  0.1923706E-02  0.4993473E+03  0.7818609E-02  0.1013949E+00
        2   -1    0    0  501    0  0.00000000000E+00  0.00000000000E+00  0.15314765967E+04  0.15314765967E+04  0.25500000920E-02 0. -1.
       -2   -1    0    0    0  501  0.00000000000E+00  0.00000000000E+00 -0.40703812026E+02  0.40703812106E+02  0.25500000920E-02 0.  1.
    10030    2    1    2    0    0  0.00000000000E+00  0.00000000000E+00  0.14907727847E+04  0.15721804088E+04  0.49934731632E+03 0.  0.
        3    1    3    3  502    0 -0.11021030787E+03  0.17452864181E+03  0.30313700754E+03  0.36674052723E+03  0.10100000352E+00 0.  1.
       -3    1    3    3    0  502  0.11021030787E+03 -0.17452864181E+03  0.11876357771E+04  0.12054398816E+04  0.10100000352E+00 0. -1.
</event>
<event>
 5   0  0.8012875E-03  0.5000567E+03  0.7818609E-02  0.1013764E+00
       -3   -1    0    0    0  501  0.00000000000E+00  0.00000000000E+00  0.17911491661E+03  0.17911494508E+03  0.10100000352E+00 0. -1.
        3   -1    0    0  501    0  0.00000000000E+00  0.00000000000E+00 -0.34901705987E+03  0.34901707448E+03  0.10100000352E+00 0.  1.
    10030    2    1    2    0    0  0.00000000000E+00  0.00000000000E+00 -0.16990214326E+03  0.52813201957E+03  0.50005668860E+03 0.  0.
        2    1    3    3  502    0  0.15354085529E+03 -0.18528470580E+03 -0.15665196432E+03  0.28713246834E+03  0.25500000920E-02 0.  1.
       -2    1    3    3    0  502 -0.15354085529E+03  0.18528470580E+03 -0.13250178944E+02  0.24099955123E+03  0.25500000920E-02 0. -1.
</event>
<event>
 5   0  0.1923706E-02  0.4996619E+03  0.7818609E-02  0.1013867E+00
       -2   -1    0    0    0  501  0.00000000000E+00  0.00000000000E+00  0.36715812374E+03  0.36715812375E+03  0.25500000920E-02 0. -1.
        2   -1    0    0  501    0  0.00000000000E+00  0.00000000000E+00 -0.16999624166E+03  0.16999624168E+03  0.25500000920E-02 0.  1.
    10030    2    1    2    0    0  0.00000000000E+00  0.00000000000E+00  0.19716188208E+03  0.53715436543E+03  0.49966189024E+03 0.  0.
        3    1    3    3  502    0 -0.76829097318E+02  0.14017605580E+03 -0.10782438341E+03  0.19281634960E+03  0.10100000352E+00 0.  1.
       -3    1    3    3    0  502  0.76829097318E+02 -0.14017605580E+03  0.30498626548E+03  0.34433801583E+03  0.10100000352E+00 0. -1.
</event>
<event>
 5   0  0.1209831E-02  0.4997032E+03  0.7818609E-02  0.1013856E+00
       -1   -1    0    0    0  501  0.00000000000E+00  0.00000000000E+00  0.22153094217E+03  0.22153094222E+03  0.50400001928E-02 0.  1.
        1   -1    0    0  501    0  0.00000000000E+00  0.00000000000E+00 -0.28179274845E+03  0.28179274850E+03  0.50400001928E-02 0. -1.
    10030    2    1    2    0    0  0.00000000000E+00  0.00000000000E+00 -0.60261806287E+02  0.50332369072E+03  0.49970316423E+03 0.  0.
        4    1    3    3  502    0  0.28226552825E+02  0.23747631766E+02  0.21876982202E+03  0.22186152489E+03  0.12699999809E+01 0.  1.
       -4    1    3    3    0  502 -0.28226552825E+02 -0.23747631766E+02 -0.27903162831E+03  0.28146216583E+03  0.12699999809E+01 0. -1.
</event>
<event>
 5   0  0.1209831E-02  0.5005229E+03  0.7818609E-02  0.1013643E+00
       -1   -1    0    0    0  501  0.00000000000E+00  0.00000000000E+00  0.15834648511E+03  0.15834648519E+03  0.50400001928E-02 0. -1.
        1   -1    0    0  501    0  0.00000000000E+00  0.00000000000E+00 -0.39552997464E+03  0.39552997467E+03  0.50400001928E-02 0.  1.
    10030    2    1    2    0    0  0.00000000000E+00  0.00000000000E+00 -0.23718348953E+03  0.55387645986E+03  0.50052285171E+03 0.  0.
        4    1    3    3  502    0 -0.63898557788E+02  0.22308244902E+03 -0.22228374408E+03  0.32134168813E+03  0.12699999809E+01 0.  1.
       -4    1    3    3    0  502  0.63898557788E+02 -0.22308244902E+03 -0.14899745449E+02  0.23253477173E+03  0.12699999809E+01 0. -1.
</event>
<event>
 5   0  0.1180937E-02  0.5003207E+03  0.7818609E-02  0.1013695E+00
       -1   -1    0    0    0  501  0.00000000000E+00  0.00000000000E+00  0.15720384174E+03  0.15720384182E+03  0.50400001928E-02 0.  1.
        1   -1    0    0  501    0  0.00000000000E+00  0.00000000000E+00 -0.39808307844E+03  0.39808307847E+03  0.50400001928E-02 0. -1.
    10030    2    1    2    0    0  0.00000000000E+00  0.00000000000E+00 -0.24087923670E+03  0.55528692030E+03  0.50032065436E+03 0.  0.
        1    1    3    3  502    0  0.21955630720E+03  0.11976781454E+03 -0.11427135710E+03  0.27496771540E+03  0.50400001928E-02 0. -1.
       -1    1    3    3    0  502 -0.21955630720E+03 -0.11976781454E+03 -0.12660787960E+03  0.28031920490E+03  0.50400001928E-02 0.  1.
</event>
<event>
 5   0  0.1227864E-02  0.4983938E+03  0.7818609E-02  0.1014199E+00
        1   -1    0    0  501    0  0.00000000000E+00  0.00000000000E+00  0.23691247653E+04  0.23691247653E+04  0.50400001928E-02 0.  1.
       -1   -1    0    0    0  501  0.00000000000E+00  0.00000000000E+00 -0.26211833030E+02  0.26211833514E+02  0.50400001928E-02 0. -1.
    10030    2    1    2    0    0  0.00000000000E+00  0.00000000000E+00  0.23429129323E+04  0.23953365988E+04  0.49839383368E+03 0.  0.
        5    1    3    3  502    0  0.54015092841E+02  0.23466804199E+03  0.86407964941E+03  0.89701864569E+03  0.46999998093E+01 0.  1.
       -5    1    3    3    0  502 -0.54015092841E+02 -0.23466804199E+03  0.14788332829E+04  0.14983179531E+04  0.46999998093E+01 0. -1.
</event>
<event>
 5   0  0.1225989E-02  0.4990796E+03  0.7818609E-02  0.1014019E+00
       -1   -1    0    0    0  501  0.00000000000E+00  0.00000000000E+00  0.53176408228E+02  0.53176408467E+02  0.50400001928E-02 0.  1.
        1   -1    0    0  501    0  0.00000000000E+00  0.00000000000E+00 -0.11710100350E+04  0.11710100351E+04  0.50400001928E-02 0. -1.
    10030    2    1    2    0    0  0.00000000000E+00  0.00000000000E+00 -0.11178336268E+04  0.12241864435E+04  0.49907958410E+03 0.  0.
        3    1    3    3  502    0 -0.21326579710E+03 -0.14994924525E+02 -0.24323715201E+03  0.32383864855E+03  0.10100000352E+00 0.  1.
       -3    1    3    3    0  502  0.21326579710E+03  0.14994924525E+02 -0.87459647480E+03  0.90034779497E+03  0.10100000352E+00 0. -1.
</event>
<event>
 5   0  0.1217270E-02  0.4978415E+03  0.7818609E-02  0.1014344E+00
        1   -1    0    0  501    0  0.00000000000E+00  0.00000000000E+00  0.10119573887E+04  0.10119573887E+04  0.50400001928E-02 0. -1.
       -1   -1    0    0    0  501  0.00000000000E+00  0.00000000000E+00 -0.61229406856E+02  0.61229407063E+02  0.50400001928E-02 0.  1.
    10030    2    1    2    0    0  0.00000000000E+00  0.00000000000E+00  0.95072798185E+03  0.10731867958E+04  0.49784154424E+03 0.  0.
        2    1    3    3  502    0  0.35372912911E+02  0.11869233071E+03  0.99047278306E+01  0.12424659343E+03  0.25500000920E-02 0.  1.
       -2    1    3    3    0  502 -0.35372912911E+02 -0.11869233071E+03  0.94082325402E+03  0.94894020236E+03  0.25500000920E-02 0. -1.
</event>
<event>
 5   0  0.8012875E-03  0.4997077E+03  0.7818609E-02  0.1013855E+00
        4   -1    0    0  501    0  0.00000000000E+00  0.00000000000E+00  0.24685567388E+03  0.24685894075E+03  0.12699999809E+01 0.  1.
       -4   -1    0    0    0  501  0.00000000000E+00  0.00000000000E+00 -0.25288193162E+03  0.25288512064E+03  0.12699999809E+01 0. -1.
    10030    2    1    2    0    0  0.00000000000E+00  0.00000000000E+00 -0.60262577412E+01  0.49974406138E+03  0.49970772568E+03 0.  0.
        1    1    3    3  502    0 -0.14946351471E+03 -0.18808121925E+03 -0.71669890550E+02  0.25069994116E+03  0.50400001928E-02 0.  1.
       -1    1    3    3    0  502  0.14946351471E+03  0.18808121925E+03  0.65643632809E+02  0.24904412022E+03  0.50400001928E-02 0. -1.
</event>
<event>
 5   0  0.1982847E-02  0.5013377E+03  0.7818609E-02  0.1013430E+00
       -2   -1    0    0    0  501  0.00000000000E+00  0.00000000000E+00  0.29352477330E+03  0.29352477331E+03  0.25500000920E-02 0. -1.
        2   -1    0    0  501    0  0.00000000000E+00  0.00000000000E+00 -0.21407009567E+03  0.21407009569E+03  0.25500000920E-02 0.  1.
    10030    2    1    2    0    0  0.00000000000E+00  0.00000000000E+00  0.79454677630E+02  0.50759486900E+03  0.50133771575E+03 0.  0.
        2    1    3    3  502    0  0.12123798656E+03  0.14490677164E+03 -0.12706565366E+03  0.22768904717E+03  0.25500000920E-02 0.  1.
       -2    1    3    3    0  502 -0.12123798656E+03 -0.14490677164E+03  0.20652033129E+03  0.27990582183E+03  0.25500000920E-02 0. -1.
</event>
<event>
 5   0  0.1225989E-02  0.4996054E+03  0.7818609E-02  0.1013882E+00
        1   -1    0    0  501    0  0.00000000000E+00  0.00000000000E+00  0.11509006058E+04  0.11509006058E+04  0.50400001928E-02 0. -1.
       -1   -1    0    0    0  501  0.00000000000E+00  0.00000000000E+00 -0.54219618316E+02  0.54219618550E+02  0.50400001928E-02 0.  1.
    10030    2    1    2    0    0  0.00000000000E+00  0.00000000000E+00  0.10966809875E+04  0.12051202244E+04  0.49960541116E+03 0.  0.
        3    1    3    3  502    0 -0.16353586638E+03  0.16301942465E+03  0.31846342933E+03  0.39336786654E+03  0.10100000352E+00 0. -1.
       -3    1    3    3    0  502  0.16353586638E+03 -0.16301942465E+03  0.77821755817E+03  0.81175235784E+03  0.10100000352E+00 0.  1.
</event>
<event>
 5   0  0.1180937E-02  0.4992051E+03  0.7818609E-02  0.1013987E+00
       -1   -1    0    0    0  501  0.00000000000E+00  0.00000000000E+00  0.15379390652E+04  0.15379390652E+04  0.50400001928E-02 0. -1.
        1   -1    0    0  501    0  0.00000000000E+00  0.00000000000E+00 -0.40509696251E+02  0.40509696565E+02  0.50400001928E-02 0.  1.
    10030    2    1    2    0    0  0.00000000000E+00  0.00000000000E+00  0.14974293690E+04  0.15784487618E+04  0.49920514676E+03 0.  0.
        1    1    3    3  502    0 -0.18745292290E+02 -0.24877925240E+03  0.72443938337E+03  0.76619509435E+03  0.50400001928E-02 0.  1.
       -1    1    3    3    0  502  0.18745292290E+02  0.24877925240E+03  0.77298998559E+03  0.81225366744E+03  0.50400001928E-02 0. -1.
</event>
<event>
 5   0  0.1982847E-02  0.4998450E+03  0.7818609E-02  0.1013819E+00
       -2   -1    0    0    0  501  0.00000000000E+00  0.00000000000E+00  0.59232048556E+02  0.59232048611E+02  0.25500000920E-02 0. -1.
        2   -1    0    0  501    0  0.00000000000E+00  0.00000000000E+00 -0.10545179185E+04  0.10545179185E+04  0.25500000920E-02 0.  1.
    10030    2    1    2    0    0  0.00000000000E+00  0.00000000000E+00 -0.99528586998E+03  0.11137499671E+04  0.49984500232E+03 0.  0.
        2    1    3    3  502    0 -0.94501448778E+02  0.36649043604E+02 -0.10066642058E+04  0.10117541694E+04  0.25500000920E-02 0.  1.
       -2    1    3    3    0  502  0.94501448778E+02 -0.36649043604E+02  0.11378335781E+02  0.10199579771E+03  0.25500000920E-02 0. -1.
</event>
<event>
 5   0  0.1217270E-02  0.4985526E+03  0.7818609E-02  0.1014157E+00
       -1   -1    0    0    0  501  0.00000000000E+00  0.00000000000E+00  0.12874443974E+03  0.12874443984E+03  0.50400001928E-02 0. -1.
        1   -1    0    0  501    0  0.00000000000E+00  0.00000000000E+00 -0.48265132142E+03  0.48265132144E+03  0.50400001928E-02 0.  1.
    10030    2    1    2    0    0  0.00000000000E+00  0.00000000000E+00 -0.35390688168E+03  0.61139576128E+03  0.49855260105E+03 0.  0.
        2    1    3    3  502    0  0.23834548925E+03  0.33065107612E+02 -0.97130000819E+02  0.25949202425E+03  0.25500000920E-02 0.  1.
       -2    1    3    3    0  502 -0.23834548925E+03 -0.33065107612E+02 -0.25677688086E+03  0.35190373703E+03  0.25500000920E-02 0. -1.
</event>
<event>
 5   0  0.1225989E-02  0.5019723E+03  0.7818609E-02  0.1013265E+00
        1   -1    0    0  501    0  0.00000000000E+00  0.00000000000E+00  0.10527820955E+03  0.10527820968E+03  0.50400001928E-02 0.  1.
       -1   -1    0    0    0  501  0.00000000000E+00  0.00000000000E+00 -0.59835790426E+03  0.59835790428E+03  0.50400001928E-02 0. -1.
    10030    2    1    2    0    0  0.00000000000E+00  0.00000000000E+00 -0.49307969470E+03  0.70363611395E+03  0.50197230554E+03 0.  0.
        3    1    3    3  502    0 -0.13170779954E+02 -0.24222311556E+03 -0.15625485586E+03  0.28854999105E+03  0.10100000352E+00 0.  1.
       -3    1    3    3    0  502  0.13170779954E+02  0.24222311556E+03 -0.33682483884E+03  0.41508612290E+03  0.10100000352E+00 0. -1.
</event>
<event>
 5   0  0.1855407E-02  0.5001157E+03  0.7818609E-02  0.1013749E+00
        2   -1    0    0  501    0  0.00000000000E+00  0.00000000000E+00  0.43397788791E+03  0.43397788792E+03  0.25500000920E-02 0. -1.
       -2   -1    0    0    0  501  0.00000000000E+00  0.00000000000E+00 -0.14408324054E+03  0.14408324056E+03  0.25500000920E-02 0.  1.
    10030    2    1    2    0    0  0.00000000000E+00  0.00000000000E+00  0.28989464737E+03  0.57806112848E+03  0.50011574828E+03 0.  0.
        1    1    3    3  502    0 -0.14791684588E+03  0.14303601618E+03  0.30918546911E+03  0.37139513938E+03  0.50400001928E-02 0. -1.
       -1    1    3    3    0  502  0.14791684588E+03 -0.14303601618E+03 -0.19290821739E+02  0.20666598910E+03  0.50400001928E-02 0.  1.
</event>
<event>
 5   0  0.1982847E-02  0.4999342E+03  0.7818609E-02  0.1013796E+00
        2   -1    0    0  501    0  0.00000000000E+00  0.00000000000E+00  0.19848350732E+04  0.19848350732E+04  0.25500000920E-02 0. -1.
       -2   -1    0    0    0  501  0.00000000000E+00  0.00000000000E+00 -0.31480470084E+02  0.31480470187E+02  0.25500000920E-02 0.  1.
    10030    2    1    2    0    0  0.00000000000E+00  0.00000000000E+00  0.19533546031E+04  0.20163155434E+04  0.49993416066E+03 0.  0.
        2    1    3    3  502    0  0.17997554022E+03  0.13539691945E+03  0.14140480378E+04  0.14318712841E+04  0.25500000920E-02 0. -1.
       -2    1    3    3    0  502 -0.17997554022E+03 -0.13539691945E+03  0.53930656529E+03  0.58444425931E+03  0.25500000920E-02 0.  1.
</event>
<event>
 5   0  0.1941387E-02  0.5003988E+03  0.7818609E-02  0.1013675E+00
       -2   -1    0    0    0  501  0.00000000000E+00  0.00000000000E+00  0.65583491122E+02  0.65583491172E+02  0.25500000920E-02 0. -1.
        2   -1    0    0  501    0  0.00000000000E+00  0.00000000000E+00 -0.95450445230E+03  0.95450445230E+03  0.25500000920E-02 0.  1.
    10030    2    1    2    0    0  0.00000000000E+00  0.00000000000E+00 -0.88892096118E+03  0.10200879435E+04  0.50039877818E+03 0.  0.
        4    1    3    3  502    0  0.16989987818E+03  0.14423862392E+03 -0.67624076951E+03  0.71202102531E+03  0.12699999809E+01 0.  1.
       -4    1    3    3    0  502 -0.16989987818E+03 -0.14423862392E+03 -0.21268019166E+03  0.30806691816E+03  0.12699999809E+01 0. -1.
</event>
<event>
 5   0  0.1967813E-02  0.4998799E+03  0.7818609E-02  0.1013810E+00
       -2   -1    0    0    0  501  0.00000000000E+00  0.00000000000E+00  0.11230909193E+03  0.11230909196E+03  0.25500000920E-02 0. -1.
        2   -1    0    0  501    0  0.00000000000E+00  0.00000000000E+00 -0.55623260789E+03  0.55623260790E+03  0.25500000920E-02 0.  1.
    10030    2    1    2    0    0  0.00000000000E+00  0.00000000000E+00 -0.44392351596E+03  0.66854169986E+03  0.49987990201E+03 0.  0.
        5    1    3    3  502    0  0.23390927861E+03 -0.64856291375E+02 -0.14252397573E+03  0.28152275717E+03  0.46999998093E+01 0. -1.
       -5    1    3    3    0  502 -0.23390927861E+03  0.64856291375E+02 -0.30139954023E+03  0.38701894269E+03  0.46999998093E+01 0.  1.
</event>
<event>
 5   0  0.1941387E-02  0.4981069E+03  0.7818609E-02  0.1014274E+00
       -2   -1    0    0    0  501  0.00000000000E+00  0.00000000000E+00  0.40551064006E+02  0.40551064087E+02  0.25500000920E-02 0. -1.
        2   -1    0    0  501    0  0.00000000000E+00  0.00000000000E+00 -0.15296174947E+04  0.15296174947E+04  0.25500000920E-02 0.  1.
    10030    2    1    2    0    0  0.00000000000E+00  0.00000000000E+00 -0.14890664306E+04  0.15701685587E+04  0.49810688410E+03 0.  0.
        4    1    3    3  502    0 -0.22856762699E+03  0.51112006535E+02 -0.47760429506E+03  0.53194273458E+03  0.12699999809E+01 0. -1.
       -4    1    3    3    0  502  0.22856762699E+03 -0.51112006535E+02 -0.10114621356E+04  0.10382258242E+04  0.12699999809E+01 0.  1.
</event>
<event>
 5   0  0.1855407E-02  0.5011785E+03  0.7818609E-02  0.1013472E+00
        2   -1    0    0  501    0  0.00000000000E+00  0.00000000000E+00  0.21920694100E+03  0.21920694101E+03  0.25500000920E-02 0. -1.
       -2   -1    0    0    0  501  0.00000000000E+00  0.00000000000E+00 -0.28646437121E+03  0.28646437122E+03  0.25500000920E-02 0.  1.
    10030    2    1    2    0    0  0.00000000000E+00  0.00000000000E+00 -0.67257430209E+02  0.50567131223E+03  0.50117852517E+03 0.  0.
        1    1    3    3  502    0  0.28137728610E+02 -0.22359959644E+03  0.76927581280E+02  0.23813098095E+03  0.50400001928E-02 0. -1.
       -1    1    3    3    0  502 -0.28137728610E+02  0.22359959644E+03 -0.14418501149E+03  0.26754033128E+03  0.50400001928E-02 0.  1.
</event>
<event>
 5   0  0.1217270E-02  0.5015078E+03  0.7818609E-02  0.1013386E+00
       -1   -1    0    0    0  501  0.00000000000E+00  0.00000000000E+00  0.88218553438E+02  0.88218553582E+02  0.50400001928E-02 0. -1.
        1   -1    0    0  501    0  0.00000000000E+00  0.00000000000E+00 -0.71274714884E+03  0.71274714885E+03  0.50400001928E-02 0.  1.
    10030    2    1    2    0    0  0.00000000000E+00  0.00000000000E+00 -0.62452859540E+03  0.80096570244E+03  0.50150781650E+03 0.  0.
        2    1    3    3  502    0 -0.62419715141E+02 -0.65314769686E+01 -0.70000043024E+03  0.70280828351E+03  0.25500000920E-02 0.  1.
       -2    1    3    3    0  502  0.62419715141E+02  0.65314769686E+01  0.75471834840E+02  0.98157418926E+02  0.25500000920E-02 0. -1.
</event>
<event>
 5   0  0.1982847E-02  0.4995875E+03  0.7818609E-02  0.1013887E+00
       -2   -1    0    0    0  501  0.00000000000E+00  0.00000000000E+00  0.10380342976E+03  0.10380342979E+03  0.25500000920E-02 0.  1.
        2   -1    0    0  501    0  0.00000000000E+00  0.00000000000E+00 -0.60110652254E+03  0.60110652254E+03  0.25500000920E-02 0. -1.
    10030    2    1    2    0    0  0.00000000000E+00  0.00000000000E+00 -0.49730309278E+03  0.70490995233E+03  0.49958750466E+03 0.  0.
        2    1    3    3  502    0 -0.13812883406E+02 -0.16644703956E+03 -0.51073590383E+03  0.53735144570E+03  0.25500000920E-02 0. -1.
       -2    1    3    3    0  502  0.13812883406E+02  0.16644703956E+03  0.13432811057E+02  0.16755850663E+03  0.25500000920E-02 0.  1.
</event>
<event>
 5   0  0.1923706E-02  0.4989246E+03  0.7818609E-02  0.1014060E+00
        2   -1    0    0  501    0  0.00000000000E+00  0.00000000000E+00  0.13202567995E+03  0.13202567997E+03  0.25500000920E-02 0.  1.
       -2   -1    0    0    0  501  0.00000000000E+00  0.00000000000E+00 -0.47135862795E+03  0.47135862795E+03  0.25500000920E-02 0. -1.
    10030    2    1    2    0    0  0.00000000000E+00  0.00000000000E+00 -0.33933294800E+03  0.60338430793E+03  0.49892461700E+03 0.  0.
        3    1    3    3  502    0 -0.11439306663E+03 -0.13202917754E+03 -0.38503601710E+03  0.42281227759E+03  0.10100000352E+00 0. -1.
       -3    1    3    3    0  502  0.11439306663E+03  0.13202917754E+03  0.45703069098E+02  0.18057203034E+03  0.10100000352E+00 0.  1.
</event>
<event>
 5   0  0.1967813E-02  0.5010421E+03  0.7818609E-02  0.1013507E+00
       -2   -1    0    0    0  501  0.00000000000E+00  0.00000000000E+00  0.62771105907E+02  0.62771105959E+02  0.25500000920E-02 0.  1.
        2   -1    0    0  501    0  0.00000000000E+00  0.00000000000E+00 -0.99983559146E+03  0.99983559146E+03  0.25500000920E-02 0. -1.
    10030    2    1    2    0    0  0.00000000000E+00  0.00000000000E+00 -0.93706448555E+03  0.10626066974E+04  0.50104205744E+03 0.  0.
        5    1    3    3  502    0 -0.45590017557E+02 -0.10728558779E+03  0.16436343586E+01  0.11667664111E+03  0.46999998093E+01 0.  1.
       -5    1    3    3    0  502  0.45590017557E+02  0.10728558779E+03 -0.93870811991E+03  0.94593005631E+03  0.46999998093E+01 0. -1.
</event>
<event>
 5   0  0.1855407E-02  0.4989043E+03  0.7818609E-02  0.1014065E+00
       -2   -1    0    0    0  501  0.00000000000E+00  0.00000000000E+00  0.32579711975E+02  0.32579712075E+02  0.25500000920E-02 0. -1.
        2   -1    0    0  501    0  0.00000000000E+00  0.00000000000E+00 -0.19099732659E+04  0.19099732659E+04  0.25500000920E-02 0.  1.
    10030    2    1    2    0    0  0.00000000000E+00  0.00000000000E+00 -0.18773935539E+04  0.19425529780E+04  0.49890431540E+03 0.  0.
        1    1    3    3  502    0 -0.11012280069E+03  0.13498987263E+03 -0.16338729706E+04  0.16431342553E+04  0.50400001928E-02 0.  1.
       -1    1    3    3    0  502  0.11012280069E+03 -0.13498987263E+03 -0.24352058332E+03  0.29941872265E+03  0.50400001928E-02 0. -1.
</event>
<event>
 5   0  0.1209831E-02  0.4999376E+03  0.7818609E-02  0.1013795E+00
       -1   -1    0    0    0  501  0.00000000000E+00  0.00000000000E+00  0.37930908463E+02  0.37930908798E+02  0.50400001928E-02 0. -1.
        1   -1    0    0  501    0  0.00000000000E+00  0.00000000000E+00 -0.16473217911E+04  0.16473217911E+04  0.50400001928E-02 0.  1.
    10030    2    1    2    0    0  0.00000000000E+00  0.00000000000E+00 -0.16093908826E+04  0.16852526999E+04  0.49993764554E+03 0.  0.
        4    1    3    3  502    0 -0.45381673921E+02 -0.98431987923E+01  0.23252342806E+02  0.51948717369E+02  0.12699999809E+01 0. -1.
       -4    1    3    3    0  502  0.45381673921E+02  0.98431987923E+01 -0.16326432254E+04  0.16333039825E+04  0.12699999809E+01 0.  1.
</event>
<event>
 5   0  0.1982847E-02  0.5007684E+03  0.7818609E-02  0.1013579E+00
        2   -1    0    0  501    0  0.00000000000E+00  0.00000000000E+00  0.25010748705E+03  0.25010748707E+03  0.25500000920E-02 0. -1.
       -2   -1    0    0    0  501  0.00000000000E+00  0.00000000000E+00 -0.25066122238E+03  0.25066122240E+03  0.25500000920E-02 0.  1.
    10030    2    1    2    0    0  0.00000000000E+00  0.00000000000E+00 -0.55373532999E+00  0.50076870947E+03  0.50076840331E+03 0.  0.
        2    1    3    3  502    0 -0.12185392387E+03 -0.21097608208E+03 -0.58008717924E+02  0.25044819292E+03  0.25500000920E-02 0. -1.
       -2    1    3    3    0  502  0.12185392387E+03  0.21097608208E+03  0.57454982594E+02  0.25032051655E+03  0.25500000920E-02 0.  1.
</event>
<event>
 5   0  0.1225989E-02  0.4992946E+03  0.7818609E-02  0.1013963E+00
       -1   -1    0    0    0  501  0.00000000000E+00  0.00000000000E+00  0.16275313029E+03  0.16275313037E+03  0.50400001928E-02 0.  1.
        1   -1    0    0  501    0  0.00000000000E+00  0.00000000000E+00 -0.38293444176E+03  0.38293444180E+03  0.50400001928E-02 0. -1.
    10030    2    1    2    0    0  0.00000000000E+00  0.00000000000E+00 -0.22018131147E+03  0.54568757217E+03  0.49929461893E+03 0.  0.
        3    1    3    3  502    0 -0.66324280154E+02  0.24026507065E+03 -0.94729257093E+02  0.26664556375E+03  0.10100000352E+00 0.  1.
       -3    1    3    3    0  502  0.66324280154E+02 -0.24026507065E+03 -0.12545205438E+03  0.27904200842E+03  0.10100000352E+00 0. -1.
</event>
<event>
 5   0  0.1967813E-02  0.5003266E+03  0.7818609E-02  0.1013694E+00
       -2   -1    0    0    0  501  0.00000000000E+00  0.00000000000E+00  0.12936974957E+03  0.12936974959E+03  0.25500000920E-02 0. -1.
        2   -1    0    0  501    0  0.00000000000E+00  0.00000000000E+00 -0.48374270802E+03  0.48374270803E+03  0.25500000920E-02 0.  1.
    10030    2    1    2    0    0  0.00000000000E+00  0.00000000000E+00 -0.35437295846E+03  0.61311245762E+03  0.50032658534E+03 0.  0.
        5    1    3    3  502    0 -0.18598830314E+03  0.42815531335E+02  0.20918711405E+02  0.19205338089E+03  0.46999998093E+01 0. -1.
       -5    1    3    3    0  502  0.18598830314E+03 -0.42815531335E+02 -0.37529166986E+03  0.42105907673E+03  0.46999998093E+01 0.  1.
</event>
<event>
 5   0  0.1217270E-02  0.4994471E+03  0.7818609E-02  0.1013923E+00
       -1   -1    0    0    0  501  0.00000000000E+00  0.00000000000E+00  0.39765088290E+02  0.39765088609E+02  0.50400001928E-02 0. -1.
        1   -1    0    0  501    0  0.00000000000E+00  0.00000000000E+00 -0.15682565088E+04  0.15682565088E+04  0.50400001928E-02 0.  1.
    10030    2    1    2    0    0  0.00000000000E+00  0.00000000000E+00 -0.15284914205E+04  0.16080215974E+04  0.49944712952E+03 0.  0.
        2    1    3    3  502    0  0.18455344625E+02 -0.12294156784E+03 -0.14615453999E+04  0.14668231607E+04  0.25500000920E-02 0.  1.
       -2    1    3    3    0  502 -0.18455344625E+02  0.12294156784E+03 -0.66946020635E+02  0.14119843672E+03  0.25500000920E-02 0. -1.
</event>
<event>
 5   0  0.1941387E-02  0.5003783E+03  0.7818609E-02  0.1013680E+00
       -2   -1    0    0    0  501  0.00000000000E+00  0.00000000000E+00  0.66951693068E+02  0.66951693117E+02  0.25500000920E-02 0. -1.
        2   -1    0    0  501    0  0.00000000000E+00  0.00000000000E+00 -0.93492192360E+03  0.93492192360E+03  0.25500000920E-02 0.  1.
    10030    2    1    2    0    0  0.00000000000E+00  0.00000000000E+00 -0.86797023053E+03  0.10018736167E+04  0.50037827970E+03 0.  0.
        4    1    3    3  502    0  0.17842699720E+03  0.60743471828E+02 -0.76339360912E+03  0.78631887809E+03  0.12699999809E+01 0.  1.
       -4    1    3    3    0  502 -0.17842699720E+03 -0.60743471828E+02 -0.10457662141E+03  0.21555473863E+03  0.12699999809E+01 0. -1.
</event>
<event>
 5   0  0.1180937E-02  0.4997881E+03  0.7818609E-02  0.1013834E+00
       -1   -1    0    0    0  501  0.00000000000E+00  0.00000000000E+00  0.15278297586E+03  0.15278297594E+03  0.50400001928E-02 0.  1.
        1   -1    0    0  501    0  0.00000000000E+00  0.00000000000E+00 -0.40873036637E+03  0.40873036640E+03  0.50400001928E-02 0. -1.
    10030    2    1    2    0    0  0.00000000000E+00  0.00000000000E+00 -0.25594739052E+03  0.56151334234E+03  0.49978812202E+03 0.  0.
        1    1    3    3  502    0 -0.63392991605E+02 -0.61424327554E+02 -0.39063178225E+03  0.40048072204E+03  0.50400001928E-02 0. -1.
       -1    1    3    3    0  502  0.63392991605E+02  0.61424327554E+02  0.13468439173E+03  0.16103262030E+03  0.50400001928E-02 0.  1.
</event>
<event>
 5   0  0.1855407E-02  0.4961329E+03  0.7818609E-02  0.1014793E+00
        2   -1    0    0  501    0  0.00000000000E+00  0.00000000000E+00  0.16099839403E+04  0.16099839403E+04  0.25500000920E-02 0. -1.
       -2   -1    0    0    0  501  0.00000000000E+00  0.00000000000E+00 -0.38222095773E+02  0.38222095858E+02  0.25500000920E-02 0.  1.
    10030    2    1    2    0    0  0.00000000000E+00  0.00000000000E+00  0.15717618446E+04  0.16482060362E+04  0.49613288717E+03 0.  0.
        1    1    3    3  502    0 -0.18794377657E+03  0.19994213141E+02  0.13196383136E+04  0.13331046135E+04  0.50400001928E-02 0. -1.
       -1    1    3    3    0  502  0.18794377657E+03 -0.19994213141E+02  0.25212353095E+03  0.31510142271E+03  0.50400001928E-02 0.  1.
</event>
<event>
 5   0  0.1217270E-02  0.5003057E+03  0.7818609E-02  0.1013699E+00
       -1   -1    0    0    0  501  0.00000000000E+00  0.00000000000E+00  0.14380048004E+03  0.14380048013E+03  0.50400001928E-02 0. -1.
        1   -1    0    0  501    0  0.00000000000E+00  0.00000000000E+00 -0.43516156262E+03  0.43516156265E+03  0.50400001928E-02 0.  1.
    10030    2    1    2    0    0  0.00000000000E+00  0.00000000000E+00 -0.29136108258E+03  0.57896204277E+03  0.50030567310E+03 0.  0.
        2    1    3    3  502    0 -0.58869114427E+02 -0.20795535752E+03  0.80244648850E-01  0.21612729999E+03  0.25500000920E-02 0.  1.
       -2    1    3    3    0  502  0.58869114427E+02  0.20795535752E+03 -0.29144132722E+03  0.36283474279E+03  0.25500000920E-02 0. -1.
</event>
<event>
 5   0  0.1227864E-02  0.4994087E+03  0.7818609E-02  0.1013933E+00
       -1   -1    0    0    0  501  0.00000000000E+00  0.00000000000E+00  0.12664962120E+03  0.12664962130E+03  0.50400001928E-02 0.  1.
        1   -1    0    0  501    0  0.00000000000E+00  0.00000000000E+00 -0.49232097568E+03  0.49232097570E+03  0.50400001928E-02 0. -1.
    10030    2    1    2    0    0  0.00000000000E+00  0.00000000000E+00 -0.36567135448E+03  0.61897059700E+03  0.49940871084E+03 0.  0.
        5    1    3    3  502    0 -0.13116513230E+03 -0.18329682466E+03 -0.49761480911E+02  0.23086860515E+03  0.46999998093E+01 0.  1.
       -5    1    3    3    0  502  0.13116513230E+03  0.18329682466E+03 -0.31590987357E+03  0.38810199185E+03  0.46999998093E+01 0. -1.
</event>
<event>
 5   0  0.1923706E-02  0.4981553E+03  0.7818609E-02  0.1014262E+00
        2   -1    0    0  501    0  0.00000000000E+00  0.00000000000E+00  0.12085640691E+04  0.12085640691E+04  0.25500000920E-02 0. -1.
       -2   -1    0    0    0  501  0.00000000000E+00  0.00000000000E+00 -0.51333378370E+02  0.51333378433E+02  0.25500000920E-02 0.  1.
    10030    2    1    2    0    0  0.00000000000E+00  0.00000000000E+00  0.11572306907E+04  0.12598974475E+04  0.49815530384E+03 0.  0.
        3    1    3    3  502    0 -0.11273208861E+02  0.22698118935E+03  0.83643886531E+03  0.86676267292E+03  0.10100000352E+00 0. -1.
       -3    1    3    3    0  502  0.11273208861E+02 -0.22698118935E+03  0.32079182542E+03  0.39313477462E+03  0.10100000352E+00 0.  1.
</event>
<event>
 5   0  0.1225989E-02  0.5000906E+03  0.7818609E-02  0.1013755E+00
       -1   -1    0    0    0  501  0.00000000000E+00  0.00000000000E+00  0.88580663444E+02  0.88580663587E+02  0.50400001928E-02 0.  1.
        1   -1    0    0  501    0  0.00000000000E+00  0.00000000000E+00 -0.70582742763E+03  0.70582742765E+03  0.50400001928E-02 0. -1.
    10030    2    1    2    0    0  0.00000000000E+00  0.00000000000E+00 -0.61724676419E+03  0.79440809124E+03  0.50009063931E+03 0.  0.
        3    1    3    3  502    0 -0.50826287056E+02 -0.20932343445E+03 -0.51032918807E+03  0.55392734367E+03  0.10100000352E+00 0. -1.
       -3    1    3    3    0  502  0.50826287056E+02  0.20932343445E+03 -0.10691757612E+03  0.24048074757E+03  0.10100000352E+00 0.  1.
</event>
<event>
 5   0  0.1855407E-02  0.4989480E+03  0.7818609E-02  0.1014054E+00
       -2   -1    0    0    0  501  0.00000000000E+00  0.00000000000E+00  0.18234017255E+03  0.18234017257E+03  0.25500000920E-02 0.  1.
        2   -1    0    0  501    0  0.00000000000E+00  0.00000000000E+00 -0.34132515132E+03  0.34132515133E+03  0.25500000920E-02 0. -1.
    10030    2    1    2    0    0  0.00000000000E+00  0.00000000000E+00 -0.15898497877E+03  0.52366532390E+03  0.49894804137E+03 0.  0.
        1    1    3    3  502    0  0.17621786574E+03 -0.15693645643E+03 -0.16446948760E+03  0.28763170886E+03  0.50400001928E-02 0. -1.
       -1    1    3    3    0  502 -0.17621786574E+03  0.15693645643E+03  0.54845088354E+01  0.23603361504E+03  0.50400001928E-02 0.  1.
</event>
<event>
 5   0  0.1209831E-02  0.5002081E+03  0.7818609E-02  0.1013725E+00
        1   -1    0    0  501    0  0.00000000000E+00  0.00000000000E+00  0.14626203670E+03  0.14626203679E+03  0.50400001928E-02 0.  1.
       -1   -1    0    0    0  501  0.00000000000E+00  0.00000000000E+00 -0.42767105071E+03  0.42767105074E+03  0.50400001928E-02 0. -1.
    10030    2    1    2    0    0  0.00000000000E+00  0.00000000000E+00 -0.28140901401E+03  0.57393308753E+03  0.50020811248E+03 0.  0.
        4    1    3    3  502    0  0.21444516748E+03 -0.26775334323E+02  0.37333426483E+01  0.21614624478E+03  0.12699999809E+01 0. -1.
       -4    1    3    3    0  502 -0.21444516748E+03  0.26775334323E+02 -0.28514235666E+03  0.35778684275E+03  0.12699999809E+01 0.  1.
</event>
<event>
 5   0  0.1923706E-02  0.4987661E+03  0.7818609E-02  0.1014101E+00
       -2   -1    0    0    0  501  0.00000000000E+00  0.00000000000E+00  0.35566884176E+03  0.35566884177E+03  0.25500000920E-02 0.  1.
        2   -1    0    0  501    0  0.00000000000E+00  0.00000000000E+00 -0.17485901251E+03  0.17485901252E+03  0.25500000920E-02 0. -1.
    10030    2    1    2    0    0  0.00000000000E+00  0.00000000000E+00  0.18080982925E+03  0.53052785429E+03  0.49876608728E+03 0.  0.
        3    1    3    3  502    0 -0.11811836516E+03 -0.20636360798E+03  0.10423444583E+02  0.23800534718E+03  0.10100000352E+00 0. -1.
       -3    1    3    3    0  502  0.11811836516E+03  0.20636360798E+03  0.17038638467E+03  0.29252250711E+03  0.10100000352E+00 0.  1.
</event>
<event>
 5   0  0.1209831E-02  0.5002258E+03  0.7818609E-02  0.1013720E+00
        1   -1    0    0  501    0  0.00000000000E+00  0.00000000000E+00  0.50932743999E+03  0.50932744001E+03  0.50400001928E-02 0.  1.
       -1   -1    0    0    0  501  0.00000000000E+00  0.00000000000E+00 -0.12282170535E+03  0.12282170545E+03  0.50400001928E-02 0. -1.
    10030    2    1    2    0    0  0.00000000000E+00  0.00000000000E+00  0.38650573464E+03  0.63214914546E+03  0.50022580821E+03 0.  0.
        4    1    3    3  502    0  0.14015927233E+03 -0.87465105732E+02 -0.44045713841E+02  0.17098656131E+03  0.12699999809E+01 0. -1.
       -4    1    3    3    0  502 -0.14015927233E+03  0.87465105732E+02  0.43055144848E+03  0.46116258416E+03  0.12699999809E+01 0.  1.
</event>
<event>
 5   0  0.1227864E-02  0.5000121E+03  0.7818609E-02  0.1013776E+00
        1   -1    0    0  501    0  0.00000000000E+00  0.00000000000E+00  0.94103027554E+03  0.94103027555E+03  0.50400001928E-02 0.  1.
       -1   -1    0    0    0  501  0.00000000000E+00  0.00000000000E+00 -0.66419769440E+02  0.66419769631E+02  0.50400001928E-02 0. -1.
    10030    2    1    2    0    0  0.00000000000E+00  0.00000000000E+00  0.87461050610E+03  0.10074500452E+04  0.50001205602E+03 0.  0.
        5    1    3    3  502    0  0.13033907368E+03 -0.14462142759E+03  0.12143402805E+03  0.22950369193E+03  0.46999998093E+01 0. -1.
       -5    1    3    3    0  502 -0.13033907368E+03  0.14462142759E+03  0.75317647805E+03  0.77794635325E+03  0.46999998093E+01 0.  1.
</event>
<event>
 5   0  0.1217270E-02  0.4998174E+03  0.7818609E-02  0.1013827E+00
        1   -1    0    0  501    0  0.00000000000E+00  0.00000000000E+00  0.23588290938E+03  0.23588290943E+03  0.50400001928E-02 0. -1.
       -1   -1    0    0    0  501  0.00000000000E+00  0.00000000000E+00 -0.26476850806E+03  0.26476850811E+03  0.50400001928E-02 0.  1.
    10030    2    1    2    0    0  0.00000000000E+00  0.00000000000E+00 -0.28885598688E+02  0.50065141754E+03  0.49981743074E+03 0.  0.
        2    1    3    3  502    0 -0.75158411471E+02  0.17746672664E+03  0.14491741550E+03  0.24113125720E+03  0.25500000920E-02 0. -1.
       -2    1    3    3    0  502  0.75158411471E+02 -0.17746672664E+03 -0.17380301418E+03  0.25952016034E+03  0.25500000920E-02 0.  1.
</event>
<event>
 5   0  0.1225989E-02  0.4991322E+03  0.7818609E-02  0.1014006E+00
        1   -1    0    0  501    0  0.00000000000E+00  0.00000000000E+00  0.19733974277E+03  0.19733974283E+03  0.50400001928E-02 0. -1.
       -1   -1    0    0    0  501  0.00000000000E+00  0.00000000000E+00 -0.31561432631E+03  0.31561432635E+03  0.50400001928E-02 0.  1.
    10030    2    1    2    0    0  0.00000000000E+00  0.00000000000E+00 -0.11827458354E+03  0.51295406919E+03  0.49913224699E+03 0.  0.
        3    1    3    3  502    0 -0.84507376111E+02  0.10839885644E+03  0.15493715851E+03  0.20711673515E+03  0.10100000352E+00 0. -1.
       -3    1    3    3    0  502  0.84507376111E+02 -0.10839885644E+03 -0.27321174205E+03  0.30583733403E+03  0.10100000352E+00 0.  1.
</event>
<event>
 5   0  0.1982847E-02  0.4985604E+03  0.7818609E-02  0.1014155E+00
        2   -1    0    0  501    0  0.00000000000E+00  0.00000000000E+00  0.50536615454E+03  0.50536615454E+03  0.25500000920E-02 0.  1.
       -2   -1    0    0    0  501  0.00000000000E+00  0.00000000000E+00 -0.12296157687E+03  0.12296157689E+03  0.25500000920E-02 0. -1.
    10030    2    1    2    0    0  0.00000000000E+00  0.00000000000E+00  0.38240457767E+03  0.62832773144E+03  0.49856040464E+03 0.  0.
        2    1    3    3  502    0  0.24675625777E+03 -0.32733640334E+02  0.20813317691E+03  0.32446812062E+03  0.25500000920E-02 0.  1.
       -2    1    3    3    0  502 -0.24675625777E+03  0.32733640334E+02  0.17427140076E+03  0.30385961082E+03  0.25500000920E-02 0. -1.
</event>
<event>
 5   0  0.1941387E-02  0.5009540E+03  0.7818609E-02  0.1013530E+00
       -2   -1    0    0    0  501  0.00000000000E+00  0.00000000000E+00  0.41214598620E+02  0.41214598698E+02  0.25500000920E-02 0.  1.
        2   -1    0    0  501    0  0.00000000000E+00  0.00000000000E+00 -0.15222451104E+04  0.15222451104E+04  0.25500000920E-02 0. -1.
    10030    2    1    2    0    0  0.00000000000E+00  0.00000000000E+00 -0.14810305118E+04  0.15634597091E+04  0.50095397509E+03 0.  0.
        4    1    3    3  502    0 -0.86666831376E+01 -0.19943324012E+03 -0.26834742855E+03  0.33445580272E+03  0.12699999809E+01 0.  1.
       -4    1    3    3    0  502  0.86666831376E+01  0.19943324012E+03 -0.12126830833E+04  0.12290039064E+04  0.12699999809E+01 0. -1.
</event>
<event>
 5   0  0.1923706E-02  0.5009522E+03  0.7818609E-02  0.1013531E+00
        2   -1    0    0  501    0  0.00000000000E+00  0.00000000000E+00  0.28451910173E+03  0.28451910174E+03  0.25500000920E-02 0. -1.
       -2   -1    0    0    0  501  0.00000000000E+00  0.00000000000E+00 -0.22050635467E+03  0.22050635468E+03  0.25500000920E-02 0.  1.
    10030    2    1    2    0    0  0.00000000000E+00  0.00000000000E+00  0.64012747067E+02  0.50502545642E+03  0.50095217322E+03 0.  0.
        3    1    3    3  502    0 -0.12333778409E+03 -0.30791616262E+02  0.24958041728E+03  0.28009057019E+03  0.10100000352E+00 0. -1.
       -3    1    3    3    0  502  0.12333778409E+03  0.30791616262E+02 -0.18556767022E+03  0.22493488624E+03  0.10100000352E+00 0.  1.
</event>
<event>
 5   0  0.1967813E-02  0.4997908E+03  0.7818609E-02  0.1013834E+00
        2   -1    0    0  501    0  0.00000000000E+00  0.00000000000E+00  0.48237642024E+03  0.48237642024E+03  0.25500000920E-02 0.  1.
       -2   -1    0    0    0  501  0.00000000000E+00  0.00000000000E+00 -0.12945845423E+03  0.12945845425E+03  0.25500000920E-02 0. -1.
    10030    2    1    2    0    0  0.00000000000E+00  0.00000000000E+00  0.35291796601E+03  0.61183487450E+03  0.49979077915E+03 0.  0.
        5    1    3    3  502    0  0.13670648726E+03 -0.63500723295E+02 -0.67471714218E+02  0.16521358217E+03  0.46999998093E+01 0. -1.
       -5    1    3    3    0  502 -0.13670648726E+03  0.63500723295E+02  0.42038968023E+03  0.44662129232E+03  0.46999998093E+01 0.  1.
</event>
<event>
 5   0  0.1217270E-02  0.4991532E+03  0.7818609E-02  0.1014000E+00
        1   -1    0    0  501    0  0.00000000000E+00  0.00000000000E+00  0.31152063956E+03  0.31152063960E+03  0.50400001928E-02 0. -1.
       -1   -1    0    0    0  501  0.00000000000E+00  0.00000000000E+00 -0.19994973966E+03  0.19994973973E+03  0.50400001928E-02 0.  1.
    10030    2    1    2    0    0  0.00000000000E+00  0.00000000000E+00  0.11157089990E+03  0.51147037933E+03  0.49915316610E+03 0.  0.
        2    1    3    3  502    0  0.88170585722E+02 -0.21364861885E+03 -0.40712103731E+02  0.23468544888E+03  0.25500000920E-02 0.  1.
       -2    1    3    3    0  502 -0.88170585722E+02  0.21364861885E+03  0.15228300363E+03  0.27678493045E+03  0.25500000920E-02 0. -1.
</event>
<event>
 5   0  0.1209831E-02  0.4994093E+03  0.7818609E-02  0.1013933E+00
        1   -1    0    0  501    0  0.00000000000E+00  0.00000000000E+00  0.65115825294E+03  0.65115825296E+03  0.50400001928E-02 0. -1.
       -1   -1    0    0    0  501  0.00000000000E+00  0.00000000000E+00 -0.95756165043E+02  0.95756165175E+02  0.50400001928E-02 0.  1.
    10030    2    1    2    0    0  0.00000000000E+00  0.00000000000E+00  0.55540208790E+03  0.74691441814E+03  0.49940931987E+03 0.  0.
        4    1    3    3  502    0  0.20719526176E+03  0.61892613249E+02  0.46444239317E+03  0.51231720794E+03  0.12699999809E+01 0. -1.
       -4    1    3    3    0  502 -0.20719526176E+03 -0.61892613249E+02  0.90959694727E+02  0.23459721020E+03  0.12699999809E+01 0.  1.
</event>
<event>
 5   0  0.1923706E-02  0.5001374E+03  0.7818609E-02  0.1013743E+00
       -2   -1    0    0    0  501  0.00000000000E+00  0.00000000000E+00  0.13889481551E+03  0.13889481553E+03  0.25500000920E-02 0. -1.
        2   -1    0    0  501    0  0.00000000000E+00  0.00000000000E+00 -0.45022814153E+03  0.45022814154E+03  0.25500000920E-02 0.  1.
    10030    2    1    2    0    0  0.00000000000E+00  0.00000000000E+00 -0.31133332603E+03  0.58912295707E+03  0.50013739977E+03 0.  0.
        3    1    3    3  502    0 -0.13256052656E+03 -0.21100094703E+03 -0.18039325685E+03  0.30762872130E+03  0.10100000352E+00 0.  1.
       -3    1    3    3    0  502  0.13256052656E+03  0.21100094703E+03 -0.13094006918E+03  0.28149423577E+03  0.10100000352E+00 0. -1.
</event>
<event>
 5   0  0.1855407E-02  0.5002170E+03  0.7818609E-02  0.1013722E+00
        2   -1    0    0  501    0  0.00000000000E+00  0.00000000000E+00  0.66547558487E+03  0.66547558487E+03  0.25500000920E-02 0. -1.
       -2   -1    0    0    0  501  0.00000000000E+00  0.00000000000E+00 -0.93999339953E+02  0.93999339988E+02  0.25500000920E-02 0.  1.
    10030    2    1    2    0    0  0.00000000000E+00  0.00000000000E+00  0.57147624491E+03  0.75947492486E+03  0.50021701589E+03 0.  0.
        1    1    3    3  502    0 -0.13118252560E+03 -0.23062087594E+02  0.60714832383E+03  0.62158652018E+03  0.50400001928E-02 0. -1.
       -1    1    3    3    0  502  0.13118252560E+03  0.23062087594E+02 -0.35672078919E+02  0.13788840468E+03  0.50400001928E-02 0.  1.
</event>
<event>
 5   0  0.1227864E-02  0.4999980E+03  0.7818609E-02  0.1013779E+00
       -1   -1    0    0    0  501  0.00000000000E+00  0.00000000000E+00  0.53301338888E+02  0.53301339127E+02  0.50400001928E-02 0. -1.
        1   -1    0    0  501    0  0.00000000000E+00  0.00000000000E+00 -0.11725688575E+04  0.11725688575E+04  0.50400001928E-02 0.  1.
    10030    2    1    2    0    0  0.00000000000E+00  0.00000000000E+00 -0.11192675186E+04  0.12258701966E+04  0.49999796078E+03 0.  0.
        5    1    3    3  502    0 -0.70693315778E+02  0.54914916368E+02  0.12545151800E+02  0.90513334749E+02  0.46999998093E+01 0. -1.
       -5    1    3    3    0  502  0.70693315778E+02 -0.54914916368E+02 -0.11318126704E+04  0.11353568619E+04  0.46999998093E+01 0.  1.
</event>
<event>
 5   0  0.1923706E-02  0.4879697E+03  0.7818609E-02  0.1016968E+00
       -2   -1    0    0    0  501  0.00000000000E+00  0.00000000000E+00  0.28752677272E+03  0.28752677273E+03  0.25500000920E-02 0. -1.
        2   -1    0    0  501    0  0.00000000000E+00  0.00000000000E+00 -0.20703671864E+03  0.20703671866E+03  0.25500000920E-02 0.  1.
    10030    2    1    2    0    0  0.00000000000E+00  0.00000000000E+00  0.80490054075E+02  0.49456349139E+03  0.48796966935E+03 0.  0.
        3    1    3    3  502    0  0.19667289844E+02 -0.23868950318E+03 -0.69579974694E+01  0.23959946817E+03  0.10100000352E+00 0. -1.
       -3    1    3    3    0  502 -0.19667289844E+02  0.23868950318E+03  0.87448051544E+02  0.25496402322E+03  0.10100000352E+00 0.  1.
</event>
<event>
 5   0  0.1225989E-02  0.4967237E+03  0.7818609E-02  0.1014638E+00
       -1   -1    0    0    0  501  0.00000000000E+00  0.00000000000E+00  0.32372812406E+03  0.32372812410E+03  0.50400001928E-02 0.  1.
        1   -1    0    0  501    0  0.00000000000E+00  0.00000000000E+00 -0.19054136177E+03  0.19054136184E+03  0.50400001928E-02 0. -1.
    10030    2    1    2    0    0  0.00000000000E+00  0.00000000000E+00  0.13318676229E+03  0.51426948593E+03  0.49672365608E+03 0.  0.
        3    1    3    3  502    0  0.13271528832E+03 -0.20674965508E+02  0.28288124111E+03  0.31314949900E+03  0.10100000352E+00 0.  1.
       -3    1    3    3    0  502 -0.13271528832E+03  0.20674965508E+02 -0.14969447882E+03  0.20111998693E+03  0.10100000352E+00 0. -1.
</event>
<event>
 5   0  0.1227864E-02  0.4998397E+03  0.7818609E-02  0.1013821E+00
       -1   -1    0    0    0  501  0.00000000000E+00  0.00000000000E+00  0.14064771902E+03  0.14064771911E+03  0.50400001928E-02 0. -1.
        1   -1    0    0  501    0  0.00000000000E+00  0.00000000000E+00 -0.44408769468E+03  0.44408769471E+03  0.50400001928E-02 0.  1.
    10030    2    1    2    0    0  0.00000000000E+00  0.00000000000E+00 -0.30343997566E+03  0.58473541383E+03  0.49983965965E+03 0.  0.
        5    1    3    3  502    0 -0.21624272286E+03 -0.64175633498E+02 -0.27749015096E+03  0.35763431183E+03  0.46999998093E+01 0.  1.
       -5    1    3    3    0  502  0.21624272286E+03  0.64175633498E+02 -0.25949824704E+02  0.22710110199E+03  0.46999998093E+01 0. -1.
</event>
<event>
 5   0  0.1982847E-02  0.5013003E+03  0.7818609E-02  0.1013440E+00
        2   -1    0    0  501    0  0.00000000000E+00  0.00000000000E+00  0.77943496069E+03  0.77943496069E+03  0.25500000920E-02 0.  1.
       -2   -1    0    0    0  501  0.00000000000E+00  0.00000000000E+00 -0.80603897536E+02  0.80603897576E+02  0.25500000920E-02 0. -1.
    10030    2    1    2    0    0  0.00000000000E+00  0.00000000000E+00  0.69883106315E+03  0.86003885827E+03  0.50130029215E+03 0.  0.
        2    1    3    3  502    0 -0.81985118068E+02  0.13201568829E+03  0.68681138160E+03  0.70417297268E+03  0.25500000920E-02 0.  1.
       -2    1    3    3    0  502  0.81985118068E+02 -0.13201568829E+03  0.12019681546E+02  0.15586588559E+03  0.25500000920E-02 0. -1.
</event>
<event>
 5   0  0.1180937E-02  0.5000330E+03  0.7818609E-02  0.1013770E+00
        1   -1    0    0  501    0  0.00000000000E+00  0.00000000000E+00  0.63643131476E+03  0.63643131478E+03  0.50400001928E-02 0. -1.
       -1   -1    0    0    0  501  0.00000000000E+00  0.00000000000E+00 -0.98216799639E+02  0.98216799769E+02  0.50400001928E-02 0.  1.
    10030    2    1    2    0    0  0.00000000000E+00  0.00000000000E+00  0.53821451512E+03  0.73464811454E+03  0.50003298683E+03 0.  0.
        1    1    3    3  502    0  0.55135358610E+02  0.21413830710E+03  0.97687994762E+02  0.24173966717E+03  0.50400001928E-02 0.  1.
       -1    1    3    3    0  502 -0.55135358610E+02 -0.21413830710E+03  0.44052652035E+03  0.49290844738E+03  0.50400001928E-02 0. -1.
</event>
<event>
 5   0  0.1923706E-02  0.5003531E+03  0.7818609E-02  0.1013687E+00
        2   -1    0    0  501    0  0.00000000000E+00  0.00000000000E+00  0.52832738369E+03  0.52832738369E+03  0.25500000920E-02 0.  1.
       -2   -1    0    0    0  501  0.00000000000E+00  0.00000000000E+00 -0.11846501078E+03  0.11846501080E+03  0.25500000920E-02 0. -1.
    10030    2    1    2    0    0  0.00000000000E+00  0.00000000000E+00  0.40986237291E+03  0.64679239450E+03  0.50035311216E+03 0.  0.
        3    1    3    3  502    0 -0.13334450988E+03 -0.65017252066E+02  0.46533414436E+03  0.48840953870E+03  0.10100000352E+00 0.  1.
       -3    1    3    3    0  502  0.13334450988E+03  0.65017252066E+02 -0.55471771453E+02  0.15838285580E+03  0.10100000352E+00 0. -1.
</event>
<event>
 5   0  0.1982847E-02  0.4997850E+03  0.7818609E-02  0.1013835E+00
       -2   -1    0    0    0  501  0.00000000000E+00  0.00000000000E+00  0.52535892005E+02  0.52535892067E+02  0.25500000920E-02 0. -1.
        2   -1    0    0  501    0  0.00000000000E+00  0.00000000000E+00 -0.11886400737E+04  0.11886400737E+04  0.25500000920E-02 0.  1.
    10030    2    1    2    0    0  0.00000000000E+00  0.00000000000E+00 -0.11361041817E+04  0.12411759658E+04  0.49978502013E+03 0.  0.
        2    1    3    3  502    0  0.12342300061E+03  0.11231870580E+03 -0.10612576006E+03  0.19776603780E+03  0.25500000920E-02 0. -1.
       -2    1    3    3    0  502 -0.12342300061E+03 -0.11231870580E+03 -0.10299784217E+04  0.10434099280E+04  0.25500000920E-02 0.  1.
</event>
<event>
 5   0  0.1180937E-02  0.4995503E+03  0.7818609E-02  0.1013896E+00
       -1   -1    0    0    0  501  0.00000000000E+00  0.00000000000E+00  0.19237510191E+03  0.19237510198E+03  0.50400001928E-02 0. -1.
        1   -1    0    0  501    0  0.00000000000E+00  0.00000000000E+00 -0.32430196420E+03  0.32430196424E+03  0.50400001928E-02 0.  1.
    10030    2    1    2    0    0  0.00000000000E+00  0.00000000000E+00 -0.13192686229E+03  0.51667706622E+03  0.49955029153E+03 0.  0.
        1    1    3    3  502    0 -0.14913308651E+03  0.19169941082E+03 -0.56700465341E+01  0.24294339063E+03  0.50400001928E-02 0.  1.
       -1    1    3    3    0  502  0.14913308651E+03 -0.19169941082E+03 -0.12625681576E+03  0.27373367559E+03  0.50400001928E-02 0. -1.
</event>
<event>
 5   0  0.1967813E-02  0.4982098E+03  0.7818609E-02  0.1014247E+00
        2   -1    0    0  501    0  0.00000000000E+00  0.00000000000E+00  0.41140325178E+03  0.41140325179E+03  0.25500000920E-02 0.  1.
       -2   -1    0    0    0  501  0.00000000000E+00  0.00000000000E+00 -0.15083313788E+03  0.15083313790E+03  0.25500000920E-02 0. -1.
    10030    2    1    2    0    0  0.00000000000E+00  0.00000000000E+00  0.26057011390E+03  0.56223638969E+03  0.49820976870E+03 0.  0.
        5    1    3    3  502    0 -0.94089214067E+02 -0.77228740114E+02 -0.11492741005E+03  0.16747375342E+03  0.46999998093E+01 0. -1.
       -5    1    3    3    0  502  0.94089214067E+02  0.77228740114E+02  0.37549752395E+03  0.39476263627E+03  0.46999998093E+01 0.  1.
</event>
<event>
 5   0  0.1982847E-02  0.5001276E+03  0.7818609E-02  0.1013746E+00
        2   -1    0    0  501    0  0.00000000000E+00  0.00000000000E+00  0.13087004452E+03  0.13087004455E+03  0.25500000920E-02 0.  1.
       -2   -1    0    0    0  501  0.00000000000E+00  0.00000000000E+00 -0.47781687261E+03  0.47781687262E+03  0.25500000920E-02 0. -1.
    10030    2    1    2    0    0  0.00000000000E+00  0.00000000000E+00 -0.34694682809E+03  0.60868691716E+03  0.50012764531E+03 0.  0.
        2    1    3    3  502    0  0.13591041950E+03  0.23304604328E+02  0.80415315027E+02  0.15962884955E+03  0.25500000920E-02 0.  1.
       -2    1    3    3    0  502 -0.13591041950E+03 -0.23304604328E+02 -0.42736214312E+03  0.44905806761E+03  0.25500000920E-02 0. -1.
</event>
<event>
 5   0  0.1967813E-02  0.4993471E+03  0.7818609E-02  0.1013949E+00
       -2   -1    0    0    0  501  0.00000000000E+00  0.00000000000E+00  0.10233184993E+04  0.10233184993E+04  0.25500000920E-02 0. -1.
        2   -1    0    0  501    0  0.00000000000E+00  0.00000000000E+00 -0.60916399830E+02  0.60916399883E+02  0.25500000920E-02 0.  1.
    10030    2    1    2    0    0  0.00000000000E+00  0.00000000000E+00  0.96240209951E+03  0.10842348992E+04  0.49934708927E+03 0.  0.
        5    1    3    3  502    0  0.12992909944E+03  0.19529413690E+03  0.66663378946E+03  0.70671357001E+03  0.46999998093E+01 0. -1.
       -5    1    3    3    0  502 -0.12992909944E+03 -0.19529413690E+03  0.29576831005E+03  0.37752132922E+03  0.46999998093E+01 0.  1.
</event>
<event>
 5   0  0.1209831E-02  0.5005508E+03  0.7818609E-02  0.1013635E+00
       -1   -1    0    0    0  501  0.00000000000E+00  0.00000000000E+00  0.87387763209E+02  0.87387763354E+02  0.50400001928E-02 0.  1.
        1   -1    0    0  501    0  0.00000000000E+00  0.00000000000E+00 -0.71677962479E+03  0.71677962481E+03  0.50400001928E-02 0. -1.
    10030    2    1    2    0    0  0.00000000000E+00  0.00000000000E+00 -0.62939186159E+03  0.80416738817E+03  0.50055076941E+03 0.  0.
        4    1    3    3  502    0  0.12129456618E+03  0.11570962056E+02  0.36513660698E+02  0.12720502846E+03  0.12699999809E+01 0.  1.
       -4    1    3    3    0  502 -0.12129456618E+03 -0.11570962056E+02 -0.66590552228E+03  0.67696235971E+03  0.12699999809E+01 0. -1.
</event>
<event>
 5   0  0.1941387E-02  0.4998128E+03  0.7818609E-02  0.1013828E+00
        2   -1    0    0  501    0  0.00000000000E+00  0.00000000000E+00  0.82600095410E+03  0.82600095411E+03  0.25500000920E-02 0.  1.
       -2   -1    0    0    0  501  0.00000000000E+00  0.00000000000E+00 -0.75609126878E+02  0.75609126921E+02  0.25500000920E-02 0. -1.
    10030    2    1    2    0    0  0.00000000000E+00  0.00000000000E+00  0.75039182723E+03  0.90161008103E+03  0.49981280880E+03 0.  0.
        4    1    3    3  502    0 -0.14967290308E+03 -0.42447929884E+02  0.22407291895E+02  0.15718620900E+03  0.12699999809E+01 0. -1.
       -4    1    3    3    0  502  0.14967290308E+03  0.42447929884E+02  0.72798453533E+03  0.74442387203E+03  0.12699999809E+01 0.  1.
</event>
<event>
 5   0  0.1923706E-02  0.5001993E+03  0.7818609E-02  0.1013727E+00
        2   -1    0    0  501    0  0.00000000000E+00  0.00000000000E+00  0.15184849537E+04  0.15184849537E+04  0.25500000920E-02 0. -1.
       -2   -1    0    0    0  501  0.00000000000E+00  0.00000000000E+00 -0.41192260044E+02  0.41192260123E+02  0.25500000920E-02 0.  1.
    10030    2    1    2    0    0  0.00000000000E+00  0.00000000000E+00  0.14772926936E+04  0.15596772138E+04  0.50019926888E+03 0.  0.
        3    1    3    3  502    0  0.10019256455E+03  0.18045925095E+03  0.11790152017E+04  0.11969465098E+04  0.10100000352E+00 0. -1.
       -3    1    3    3    0  502 -0.10019256455E+03 -0.18045925095E+03  0.29827749195E+03  0.36273070404E+03  0.10100000352E+00 0.  1.
</event>
<event>
 5   0  0.1967813E-02  0.5016926E+03  0.7818609E-02  0.1013338E+00
        2   -1    0    0  501    0  0.00000000000E+00  0.00000000000E+00  0.28386727475E+03  0.28386727477E+03  0.25500000920E-02 0.  1.
       -2   -1    0    0    0  501  0.00000000000E+00  0.00000000000E+00 -0.22166652599E+03  0.22166652601E+03  0.25500000920E-02 0. -1.
    10030    2    1    2    0    0  0.00000000000E+00  0.00000000000E+00  0.62200748762E+02  0.50553380077E+03  0.50169262560E+03 0.  0.
        5    1    3    3  502    0 -0.15401942536E+03 -0.18142898375E+03  0.11084747266E+03  0.26257896284E+03  0.46999998093E+01 0.  1.
       -5    1    3    3    0  502  0.15401942536E+03  0.18142898375E+03 -0.48646723896E+02  0.24295483794E+03  0.46999998093E+01 0. -1.
</event>
<event>
 5   0  0.1923706E-02  0.4988787E+03  0.7818609E-02  0.1014072E+00
        2   -1    0    0  501    0  0.00000000000E+00  0.00000000000E+00  0.18091056117E+03  0.18091056119E+03  0.25500000920E-02 0. -1.
       -2   -1    0    0    0  501  0.00000000000E+00  0.00000000000E+00 -0.34392682076E+03  0.34392682077E+03  0.25500000920E-02 0.  1.
    10030    2    1    2    0    0  0.00000000000E+00  0.00000000000E+00 -0.16301625959E+03  0.52483738195E+03  0.49887871934E+03 0.  0.
        3    1    3    3  502    0 -0.14737854988E+03  0.25277569223E+02  0.12853169686E+03  0.19717961296E+03  0.10100000352E+00 0. -1.
       -3    1    3    3    0  502  0.14737854988E+03 -0.25277569223E+02 -0.29154795645E+03  0.32765776899E+03  0.10100000352E+00 0.  1.
</event>
<event>
 5   0  0.1180937E-02  0.5006569E+03  0.7818609E-02  0.1013608E+00
       -1   -1    0    0    0  501  0.00000000000E+00  0.00000000000E+00  0.73655517015E+02  0.73655517187E+02  0.50400001928E-02 0. -1.
        1   -1    0    0  501    0  0.00000000000E+00  0.00000000000E+00 -0.85077598108E+03  0.85077598110E+03  0.50400001928E-02 0.  1.
    10030    2    1    2    0    0  0.00000000000E+00  0.00000000000E+00 -0.77712046407E+03  0.92443149828E+03  0.50065694777E+03 0.  0.
        1    1    3    3  502    0  0.13877893289E+03  0.19882278894E+03 -0.50348890055E+03  0.55883017691E+03  0.50400001928E-02 0.  1.
       -1    1    3    3    0  502 -0.13877893289E+03 -0.19882278894E+03 -0.27363156351E+03  0.36560132138E+03  0.50400001928E-02 0. -1.
</event>
<event>
 5   0  0.1225989E-02  0.5012218E+03  0.7818609E-02  0.1013461E+00
        1   -1    0    0  501    0  0.00000000000E+00  0.00000000000E+00  0.48905346624E+03  0.48905346626E+03  0.50400001928E-02 0.  1.
       -1   -1    0    0    0  501  0.00000000000E+00  0.00000000000E+00 -0.12842320133E+03  0.12842320143E+03  0.50400001928E-02 0. -1.
    10030    2    1    2    0    0  0.00000000000E+00  0.00000000000E+00  0.36063026490E+03  0.61747666769E+03  0.50122175449E+03 0.  0.
        3    1    3    3  502    0 -0.87169290199E+01 -0.12292819389E+03  0.44914553654E+03  0.46574569123E+03  0.10100000352E+00 0.  1.
       -3    1    3    3    0  502  0.87169290199E+01  0.12292819389E+03 -0.88515271635E+02  0.15173097646E+03  0.10100000352E+00 0. -1.
</event>
<event>
 5   0  0.1941387E-02  0.4998724E+03  0.7818609E-02  0.1013812E+00
       -2   -1    0    0    0  501  0.00000000000E+00  0.00000000000E+00  0.57232079881E+02  0.57232079938E+02  0.25500000920E-02 0.  1.
        2   -1    0    0  501    0  0.00000000000E+00  0.00000000000E+00 -0.10914876521E+04  0.10914876521E+04  0.25500000920E-02 0. -1.
    10030    2    1    2    0    0  0.00000000000E+00  0.00000000000E+00 -0.10342555722E+04  0.11487197320E+04  0.49987241783E+03 0.  0.
        4    1    3    3  502    0  0.27702257643E+02  0.18178392610E+03 -0.90612379611E+03  0.92459437465E+03  0.12699999809E+01 0. -1.
       -4    1    3    3    0  502 -0.27702257643E+02 -0.18178392610E+03 -0.12813177607E+03  0.22412535735E+03  0.12699999809E+01 0.  1.
</event>
<event>
 5   0  0.1227864E-02  0.5005458E+03  0.7818609E-02  0.1013637E+00
        1   -1    0    0  501    0  0.00000000000E+00  0.00000000000E+00  0.96064703282E+03  0.96064703283E+03  0.50400001928E-02 0. -1.
       -1   -1    0    0    0  501  0.00000000000E+00  0.00000000000E+00 -0.65202420749E+02  0.65202420944E+02  0.50400001928E-02 0.  1.
    10030    2    1    2    0    0  0.00000000000E+00  0.00000000000E+00  0.89544461207E+03  0.10258494538E+04  0.50054575069E+03 0.  0.
        5    1    3    3  502    0 -0.22479753970E+03 -0.50657547189E+02  0.24781516852E+03  0.33842956237E+03  0.46999998093E+01 0.  1.
       -5    1    3    3    0  502  0.22479753970E+03  0.50657547189E+02  0.64762944356E+03  0.68741989141E+03  0.46999998093E+01 0. -1.
</event>
<event>
 5   0  0.1227864E-02  0.4995274E+03  0.7818609E-02  0.1013902E+00
        1   -1    0    0  501    0  0.00000000000E+00  0.00000000000E+00  0.22160987676E+03  0.22160987682E+03  0.50400001928E-02 0.  1.
       -1   -1    0    0    0  501  0.00000000000E+00  0.00000000000E+00 -0.28149420918E+03  0.28149420923E+03  0.50400001928E-02 0. -1.
    10030    2    1    2    0    0  0.00000000000E+00  0.00000000000E+00 -0.59884332422E+02  0.50310408605E+03  0.49952736474E+03 0.  0.
        5    1    3    3  502    0 -0.21784435586E+03 -0.72967893332E+01  0.92792612389E+02  0.23694295817E+03  0.46999998093E+01 0.  1.
       -5    1    3    3    0  502  0.21784435586E+03  0.72967893332E+01 -0.15267694481E+03  0.26616112787E+03  0.46999998093E+01 0. -1.
</event>
<event>
 5   0  0.1225989E-02  0.5004118E+03  0.7818609E-02  0.1013671E+00
       -1   -1    0    0    0  501  0.00000000000E+00  0.00000000000E+00  0.23683733331E+03  0.23683733337E+03  0.50400001928E-02 0.  1.
        1   -1    0    0  501    0  0.00000000000E+00  0.00000000000E+00 -0.26432909473E+03  0.26432909478E+03  0.50400001928E-02 0. -1.
    10030    2    1    2    0    0  0.00000000000E+00  0.00000000000E+00 -0.27491761419E+02  0.50116642815E+03  0.50041182216E+03 0.  0.
        3    1    3    3  502    0  0.20536377198E+03 -0.11521656440E+03 -0.98453873491E+02  0.25522991784E+03  0.10100000352E+00 0.  1.
       -3    1    3    3    0  502 -0.20536377198E+03  0.11521656440E+03  0.70962112072E+02  0.24593651031E+03  0.10100000352E+00 0. -1.
</event>
<event>
 5   0  0.8012875E-03  0.5047015E+03  0.7818609E-02  0.1012559E+00
       -3   -1    0    0    0  501  0.00000000000E+00  0.00000000000E+00  0.64100231109E+03  0.64100231905E+03  0.10100000352E+00 0. -1.
        3   -1    0    0  501    0  0.00000000000E+00  0.00000000000E+00 -0.99345798945E+02  0.99345850286E+02  0.10100000352E+00 0.  1.
    10030    2    1    2    0    0  0.00000000000E+00  0.00000000000E+00  0.54165651215E+03  0.74034816934E+03  0.50470153030E+03 0.  0.
        3    1    3    3  502    0 -0.23232070481E+02 -0.27444206247E+02  0.63722521848E+03  0.63823890733E+03  0.10100000352E+00 0. -1.
       -3    1    3    3    0  502  0.23232070481E+02  0.27444206247E+02 -0.95568706337E+02  0.10210926201E+03  0.10100000352E+00 0.  1.
</event>
<event>
 5   0  0.1227864E-02  0.5005961E+03  0.7818609E-02  0.1013623E+00
       -1   -1    0    0    0  501  0.00000000000E+00  0.00000000000E+00  0.59860108208E+03  0.59860108210E+03  0.50400001928E-02 0.  1.
        1   -1    0    0  501    0  0.00000000000E+00  0.00000000000E+00 -0.10465922458E+03  0.10465922470E+03  0.50400001928E-02 0. -1.
    10030    2    1    2    0    0  0.00000000000E+00  0.00000000000E+00  0.49394185750E+03  0.70326030680E+03  0.50059614513E+03 0.  0.
        5    1    3    3  502    0 -0.13875741804E+03 -0.15893692231E+01  0.53953956128E+03  0.55711863669E+03  0.46999998093E+01 0.  1.
       -5    1    3    3    0  502  0.13875741804E+03  0.15893692231E+01 -0.45597703777E+02  0.14614167011E+03  0.46999998093E+01 0. -1.
</event>
<event>
 5   0  0.1180937E-02  0.5002104E+03  0.7818609E-02  0.1013724E+00
        1   -1    0    0  501    0  0.00000000000E+00  0.00000000000E+00  0.70845673462E+03  0.70845673464E+03  0.50400001928E-02 0. -1.
       -1   -1    0    0    0  501  0.00000000000E+00  0.00000000000E+00 -0.88294200127E+02  0.88294200271E+02  0.50400001928E-02 0.  1.
    10030    2    1    2    0    0  0.00000000000E+00  0.00000000000E+00  0.62016253449E+03  0.79675093491E+03  0.50021043881E+03 0.  0.
        1    1    3    3  502    0  0.13564633715E+03  0.17127671100E+03  0.50396870964E+03  0.54929054318E+03  0.50400001928E-02 0. -1.
       -1    1    3    3    0  502 -0.13564633715E+03 -0.17127671100E+03  0.11619382486E+03  0.24746039173E+03  0.50400001928E-02 0.  1.
</event>
<event>
 5   0  0.1855407E-02  0.5012959E+03  0.7818609E-02  0.1013441E+00
       -2   -1    0    0    0  501  0.00000000000E+00  0.00000000000E+00  0.83091011566E+02  0.83091011606E+02  0.25500000920E-02 0.  1.
        2   -1    0    0  501    0  0.00000000000E+00  0.00000000000E+00 -0.75609138814E+03  0.75609138814E+03  0.25500000920E-02 0. -1.
    10030    2    1    2    0    0  0.00000000000E+00  0.00000000000E+00 -0.67300037657E+03  0.83918239975E+03  0.50129591379E+03 0.  0.
        1    1    3    3  502    0  0.61134332064E+01 -0.21050095807E+03 -0.10895349033E+03  0.23710523084E+03  0.50400001928E-02 0.  1.
       -1    1    3    3    0  502 -0.61134332064E+01  0.21050095807E+03 -0.56404688624E+03  0.60207716890E+03  0.50400001928E-02 0. -1.
</event>
<event>
 5   0  0.1217270E-02  0.5011946E+03  0.7818609E-02  0.1013468E+00
       -1   -1    0    0    0  501  0.00000000000E+00  0.00000000000E+00  0.88428768563E+02  0.88428768707E+02  0.50400001928E-02 0. -1.
        1   -1    0    0  501    0  0.00000000000E+00  0.00000000000E+00 -0.71016483613E+03  0.71016483614E+03  0.50400001928E-02 0.  1.
    10030    2    1    2    0    0  0.00000000000E+00  0.00000000000E+00 -0.62173606756E+03  0.79859360485E+03  0.50119458098E+03 0.  0.
        2    1    3    3  502    0 -0.11752690290E+03  0.44490549186E+02  0.34594394962E+02  0.13034091468E+03  0.25500000920E-02 0. -1.
       -2    1    3    3    0  502  0.11752690290E+03 -0.44490549186E+02 -0.65633046252E+03  0.66825269017E+03  0.25500000920E-02 0.  1.
</event>
<event>
 5   0  0.1225989E-02  0.5002026E+03  0.7818609E-02  0.1013726E+00
       -1   -1    0    0    0  501  0.00000000000E+00  0.00000000000E+00  0.72282900918E+02  0.72282901094E+02  0.50400001928E-02 0.  1.
        1   -1    0    0  501    0  0.00000000000E+00  0.00000000000E+00 -0.86535918079E+03  0.86535918081E+03  0.50400001928E-02 0. -1.
    10030    2    1    2    0    0  0.00000000000E+00  0.00000000000E+00 -0.79307627987E+03  0.93764208190E+03  0.50020264699E+03 0.  0.
        3    1    3    3  502    0 -0.17360567811E+03  0.17688358229E+03 -0.45938165615E+03  0.52197533406E+03  0.10100000352E+00 0.  1.
       -3    1    3    3    0  502  0.17360567811E+03 -0.17688358229E+03 -0.33369462373E+03  0.41566674784E+03  0.10100000352E+00 0. -1.
</event>
<event>
 5   0  0.8012875E-03  0.4997750E+03  0.7818609E-02  0.1013838E+00
        3   -1    0    0  501    0  0.00000000000E+00  0.00000000000E+00  0.52486900091E+03  0.52486901063E+03  0.10100000352E+00 0. -1.
       -3   -1    0    0    0  501  0.00000000000E+00  0.00000000000E+00 -0.11897013416E+03  0.11897017703E+03  0.10100000352E+00 0.  1.
    10030    2    1    2    0    0  0.00000000000E+00  0.00000000000E+00  0.40589886676E+03  0.64383918766E+03  0.49977495889E+03 0.  0.
        1    1    3    3  502    0  0.70790208223E+02 -0.23906889849E+03  0.18144823211E+03  0.30836448039E+03  0.50400001928E-02 0.  1.
       -1    1    3    3    0  502 -0.70790208223E+02  0.23906889849E+03  0.22445063464E+03  0.33547470727E+03  0.50400001928E-02 0. -1.
</event>
<event>
 5   0  0.1217270E-02  0.5001843E+03  0.7818609E-02  0.1013731E+00
        1   -1    0    0  501    0  0.00000000000E+00  0.00000000000E+00  0.87576745730E+02  0.87576745875E+02  0.50400001928E-02 0.  1.
       -1   -1    0    0    0  501  0.00000000000E+00  0.00000000000E+00 -0.71418590469E+03  0.71418590471E+03  0.50400001928E-02 0. -1.
    10030    2    1    2    0    0  0.00000000000E+00  0.00000000000E+00 -0.62660915896E+03  0.80176265059E+03  0.50018427582E+03 0.  0.
        2    1    3    3  502    0 -0.14871701868E+03 -0.19969320618E+03 -0.35096328097E+03  0.43031308699E+03  0.25500000920E-02 0. -1.
       -2    1    3    3    0  502  0.14871701868E+03  0.19969320618E+03 -0.27564587799E+03  0.37144956360E+03  0.25500000920E-02 0.  1.
</event>
<event>
 5   0  0.1225989E-02  0.5000492E+03  0.7818609E-02  0.1013766E+00
        1   -1    0    0  501    0  0.00000000000E+00  0.00000000000E+00  0.53883688179E+03  0.53883688181E+03  0.50400001928E-02 0. -1.
       -1   -1    0    0    0  501  0.00000000000E+00  0.00000000000E+00 -0.11601340532E+03  0.11601340543E+03  0.50400001928E-02 0.  1.
    10030    2    1    2    0    0  0.00000000000E+00  0.00000000000E+00  0.42282347647E+03  0.65485028724E+03  0.50004920402E+03 0.  0.
        3    1    3    3  502    0 -0.64383470517E+02 -0.15250007310E+03 -0.33974141982E+02  0.16898448478E+03  0.10100000352E+00 0.  1.
       -3    1    3    3    0  502  0.64383470517E+02  0.15250007310E+03  0.45679761845E+03  0.48586580246E+03  0.10100000352E+00 0. -1.
</event>
<event>
 5   0  0.1967813E-02  0.4981798E+03  0.7818609E-02  0.1014255E+00
       -2   -1    0    0    0  501  0.00000000000E+00  0.00000000000E+00  0.97494338730E+02  0.97494338763E+02  0.25500000920E-02 0. -1.
        2   -1    0    0  501    0  0.00000000000E+00  0.00000000000E+00 -0.63640394272E+03  0.63640394273E+03  0.25500000920E-02 0.  1.
    10030    2    1    2    0    0  0.00000000000E+00  0.00000000000E+00 -0.53890960399E+03  0.73389828149E+03  0.49817981322E+03 0.  0.
        5    1    3    3  502    0 -0.16990318888E+03 -0.12852311892E+03 -0.45947755360E+03  0.50648494345E+03  0.46999998093E+01 0.  1.
       -5    1    3    3    0  502  0.16990318888E+03  0.12852311892E+03 -0.79432050396E+02  0.22741333804E+03  0.46999998093E+01 0. -1.
</event>
<event>
 5   0  0.1855407E-02  0.5006160E+03  0.7818609E-02  0.1013618E+00
       -2   -1    0    0    0  501  0.00000000000E+00  0.00000000000E+00  0.63376475115E+02  0.63376475166E+02  0.25500000920E-02 0.  1.
        2   -1    0    0  501    0  0.00000000000E+00  0.00000000000E+00 -0.98860165031E+03  0.98860165031E+03  0.25500000920E-02 0. -1.
    10030    2    1    2    0    0  0.00000000000E+00  0.00000000000E+00 -0.92522517520E+03  0.10519781255E+04  0.50061597225E+03 0.  0.
        1    1    3    3  502    0  0.13255112641E+03  0.63699089393E+02 -0.88824566208E+03  0.90033756521E+03  0.50400001928E-02 0. -1.
       -1    1    3    3    0  502 -0.13255112641E+03 -0.63699089393E+02 -0.36979513116E+02  0.15164056027E+03  0.50400001928E-02 0.  1.
</event>
<event>
 5   0  0.1180937E-02  0.5002803E+03  0.7818609E-02  0.1013706E+00
       -1   -1    0    0    0  501  0.00000000000E+00  0.00000000000E+00  0.12084852021E+03  0.12084852032E+03  0.50400001928E-02 0. -1.
        1   -1    0    0  501    0  0.00000000000E+00  0.00000000000E+00 -0.51775647705E+03  0.51775647708E+03  0.50400001928E-02 0.  1.
    10030    2    1    2    0    0  0.00000000000E+00  0.00000000000E+00 -0.39690795684E+03  0.63860499739E+03  0.50028033790E+03 0.  0.
        1    1    3    3  502    0 -0.99931622737E+02  0.12378795344E+02 -0.49074201831E+03  0.50096635851E+03  0.50400001928E-02 0.  1.
       -1    1    3    3    0  502  0.99931622737E+02 -0.12378795344E+02  0.93834061469E+02  0.13763863889E+03  0.50400001928E-02 0. -1.
</event>
<event>
 5   0  0.1982847E-02  0.5005721E+03  0.7818609E-02  0.1013630E+00
       -2   -1    0    0    0  501  0.00000000000E+00  0.00000000000E+00  0.68361835041E+02  0.68361835089E+02  0.25500000920E-02 0.  1.
        2   -1    0    0  501    0  0.00000000000E+00  0.00000000000E+00 -0.91634619492E+03  0.91634619493E+03  0.25500000920E-02 0. -1.
    10030    2    1    2    0    0  0.00000000000E+00  0.00000000000E+00 -0.84798435988E+03  0.98470803001E+03  0.50057210247E+03 0.  0.
        2    1    3    3  502    0  0.82215612822E+02  0.78022382828E+02 -0.86296635814E+03  0.87037798369E+03  0.25500000920E-02 0. -1.
       -2    1    3    3    0  502 -0.82215612822E+02 -0.78022382828E+02  0.14981998256E+02  0.11433004632E+03  0.25500000920E-02 0.  1.
</event>
<event>
 5   0  0.1967813E-02  0.5001816E+03  0.7818609E-02  0.1013732E+00
       -2   -1    0    0    0  501  0.00000000000E+00  0.00000000000E+00  0.17307473776E+03  0.17307473778E+03  0.25500000920E-02 0. -1.
        2   -1    0    0  501    0  0.00000000000E+00  0.00000000000E+00 -0.36137810433E+03  0.36137810434E+03  0.25500000920E-02 0.  1.
    10030    2    1    2    0    0  0.00000000000E+00  0.00000000000E+00 -0.18830336657E+03  0.53445284212E+03  0.50018164959E+03 0.  0.
        5    1    3    3  502    0  0.59316731753E+02 -0.22113977167E+03  0.13243932279E+02  0.22938780487E+03  0.46999998093E+01 0. -1.
       -5    1    3    3    0  502 -0.59316731753E+02  0.22113977167E+03 -0.20154729885E+03  0.30506503725E+03  0.46999998093E+01 0.  1.
</event>
<event>
 5   0  0.8012875E-03  0.4998618E+03  0.7818609E-02  0.1013815E+00
       -4   -1    0    0    0  501  0.00000000000E+00  0.00000000000E+00  0.74860044971E+02  0.74870816965E+02  0.12699999809E+01 0. -1.
        4   -1    0    0  501    0  0.00000000000E+00  0.00000000000E+00 -0.83435839448E+03  0.83435936103E+03  0.12699999809E+01 0.  1.
    10030    2    1    2    0    0  0.00000000000E+00  0.00000000000E+00 -0.75949834951E+03  0.90923017799E+03  0.49986175456E+03 0.  0.
        3    1    3    3  502    0  0.10653927148E+03 -0.64879467664E+02  0.14195909521E+02  0.12554479575E+03  0.10100000352E+00 0. -1.
       -3    1    3    3    0  502 -0.10653927148E+03  0.64879467664E+02 -0.77369425903E+03  0.78368538225E+03  0.10100000352E+00 0.  1.
</event>
<event>
 5   0  0.1982847E-02  0.5002974E+03  0.7818609E-02  0.1013701E+00
        2   -1    0    0  501    0  0.00000000000E+00  0.00000000000E+00  0.34011570947E+03  0.34011570948E+03  0.25500000920E-02 0. -1.
       -2   -1    0    0    0  501  0.00000000000E+00  0.00000000000E+00 -0.18397969534E+03  0.18397969535E+03  0.25500000920E-02 0.  1.
    10030    2    1    2    0    0  0.00000000000E+00  0.00000000000E+00  0.15613601413E+03  0.52409540483E+03  0.50029744998E+03 0.  0.
        2    1    3    3  502    0  0.78319885317E+02 -0.10753571193E+03  0.29998538573E+03  0.32816027400E+03  0.25500000920E-02 0. -1.
       -2    1    3    3    0  502 -0.78319885317E+02  0.10753571193E+03 -0.14384937160E+03  0.19593513083E+03  0.25500000920E-02 0.  1.
</event>
<event>
 5   0  0.1923706E-02  0.4994109E+03  0.7818609E-02  0.1013933E+00
       -2   -1    0    0    0  501  0.00000000000E+00  0.00000000000E+00  0.90318335455E+02  0.90318335491E+02  0.25500000920E-02 0. -1.
        2   -1    0    0  501    0  0.00000000000E+00  0.00000000000E+00 -0.69036712144E+03  0.69036712145E+03  0.25500000920E-02 0.  1.
    10030    2    1    2    0    0  0.00000000000E+00  0.00000000000E+00 -0.60004878599E+03  0.78068545694E+03  0.49941089006E+03 0.  0.
        3    1    3    3  502    0  0.92526361023E+00 -0.79408032444E+02 -0.67010095675E+03  0.67479018529E+03  0.10100000352E+00 0.  1.
       -3    1    3    3    0  502 -0.92526361023E+00  0.79408032444E+02  0.70052170756E+02  0.10589527165E+03  0.10100000352E+00 0. -1.
</event>
<event>
 5   0  0.1227864E-02  0.4996111E+03  0.7818609E-02  0.1013880E+00
       -1   -1    0    0    0  501  0.00000000000E+00  0.00000000000E+00  0.23895835591E+03  0.23895835597E+03  0.50400001928E-02 0.  1.
        1   -1    0    0  501    0  0.00000000000E+00  0.00000000000E+00 -0.26114514702E+03  0.26114514706E+03  0.50400001928E-02 0. -1.
    10030    2    1    2    0    0  0.00000000000E+00  0.00000000000E+00 -0.22186791101E+02  0.50010350303E+03  0.49961110881E+03 0.  0.
        5    1    3    3  502    0 -0.12231613650E+03  0.18213348021E+03 -0.13057133980E+03  0.25535231865E+03  0.46999998093E+01 0. -1.
       -5    1    3    3    0  502  0.12231613650E+03 -0.18213348021E+03  0.10838454870E+03  0.24475118438E+03  0.46999998093E+01 0.  1.
</event>
<event>
 5   0  0.1225989E-02  0.5002764E+03  0.7818609E-02  0.1013707E+00
        1   -1    0    0  501    0  0.00000000000E+00  0.00000000000E+00  0.63301224675E+03  0.63301224677E+03  0.50400001928E-02 0. -1.
       -1   -1    0    0    0  501  0.00000000000E+00  0.00000000000E+00 -0.98843476056E+02  0.98843476184E+02  0.50400001928E-02 0.  1.
    10030    2    1    2    0    0  0.00000000000E+00  0.00000000000E+00  0.53416877069E+03  0.73185572295E+03  0.50027644721E+03 0.  0.
        3    1    3    3  502    0 -0.10455019349E+02  0.11930750456E+03 -0.54173600939E+02  0.13144724156E+03  0.10100000352E+00 0.  1.
       -3    1    3    3    0  502  0.10455019349E+02 -0.11930750456E+03  0.58834237163E+03  0.60040848140E+03  0.10100000352E+00 0. -1.
</event>
<event>
 5   0  0.1855407E-02  0.5003914E+03  0.7818609E-02  0.1013677E+00
        2   -1    0    0  501    0  0.00000000000E+00  0.00000000000E+00  0.28228340311E+03  0.28228340312E+03  0.25500000920E-02 0. -1.
       -2   -1    0    0    0  501  0.00000000000E+00  0.00000000000E+00 -0.22175550184E+03  0.22175550185E+03  0.25500000920E-02 0.  1.
    10030    2    1    2    0    0  0.00000000000E+00  0.00000000000E+00  0.60527901271E+02  0.50403890498E+03  0.50039143767E+03 0.  0.
        1    1    3    3  502    0 -0.16023745854E+03 -0.19065716431E+03  0.61794086606E+01  0.24912724166E+03  0.50400001928E-02 0. -1.
       -1    1    3    3    0  502  0.16023745854E+03  0.19065716431E+03  0.54348492611E+02  0.25491166332E+03  0.50400001928E-02 0.  1.
</event>
<event>
 5   0  0.1217270E-02  0.4989317E+03  0.7818609E-02  0.1014058E+00
        1   -1    0    0  501    0  0.00000000000E+00  0.00000000000E+00  0.75039320458E+03  0.75039320460E+03  0.50400001928E-02 0. -1.
       -1   -1    0    0    0  501  0.00000000000E+00  0.00000000000E+00 -0.82934136537E+02  0.82934136690E+02  0.50400001928E-02 0.  1.
    10030    2    1    2    0    0  0.00000000000E+00  0.00000000000E+00  0.66745906804E+03  0.83332734129E+03  0.49893170898E+03 0.  0.
        2    1    3    3  502    0  0.17823311610E+03 -0.10528415410E+03  0.10120580758E+03  0.23042224779E+03  0.25500000920E-02 0.  1.
       -2    1    3    3    0  502 -0.17823311610E+03  0.10528415410E+03  0.56625326046E+03  0.60290509350E+03  0.25500000920E-02 0. -1.
</event>
<event>
 5   0  0.1217270E-02  0.4983400E+03  0.7818609E-02  0.1014213E+00
       -1   -1    0    0    0  501  0.00000000000E+00  0.00000000000E+00  0.46448290288E+02  0.46448290561E+02  0.50400001928E-02 0. -1.
        1   -1    0    0  501    0  0.00000000000E+00  0.00000000000E+00 -0.13366623591E+04  0.13366623591E+04  0.50400001928E-02 0.  1.
    10030    2    1    2    0    0  0.00000000000E+00  0.00000000000E+00 -0.12902140688E+04  0.13831106497E+04  0.49833997017E+03 0.  0.
        2    1    3    3  502    0 -0.23118671966E+02 -0.59963398324E+02 -0.13132646212E+04  0.13148361295E+04  0.25500000920E-02 0.  1.
       -2    1    3    3    0  502  0.23118671966E+02  0.59963398324E+02  0.23050552393E+02  0.68274520168E+02  0.25500000920E-02 0. -1.
</event>
<event>
 5   0  0.1941387E-02  0.5002152E+03  0.7818609E-02  0.1013723E+00
       -2   -1    0    0    0  501  0.00000000000E+00  0.00000000000E+00  0.93179156016E+02  0.93179156051E+02  0.25500000920E-02 0. -1.
        2   -1    0    0  501    0  0.00000000000E+00  0.00000000000E+00 -0.67132825711E+03  0.67132825712E+03  0.25500000920E-02 0.  1.
    10030    2    1    2    0    0  0.00000000000E+00  0.00000000000E+00 -0.57814910110E+03  0.76450741317E+03  0.50021515540E+03 0.  0.
        4    1    3    3  502    0 -0.40138401851E+01 -0.24998485821E+03 -0.27897729319E+03  0.37461778290E+03  0.12699999809E+01 0.  1.
       -4    1    3    3    0  502  0.40138401851E+01  0.24998485821E+03 -0.29917180790E+03  0.38988963027E+03  0.12699999809E+01 0. -1.
</event>
<event>
 5   0  0.1982847E-02  0.5002159E+03  0.7818609E-02  0.1013723E+00
        2   -1    0    0  501    0  0.00000000000E+00  0.00000000000E+00  0.16588555441E+04  0.16588555441E+04  0.25500000920E-02 0.  1.
       -2   -1    0    0    0  501  0.00000000000E+00  0.00000000000E+00 -0.37709122143E+02  0.37709122229E+02  0.25500000920E-02 0. -1.
    10030    2    1    2    0    0  0.00000000000E+00  0.00000000000E+00  0.16211464220E+04  0.16965646663E+04  0.50021589900E+03 0.  0.
        2    1    3    3  502    0  0.18259659258E+03 -0.40791739442E+02  0.13735129954E+04  0.13861974716E+04  0.25500000920E-02 0.  1.
       -2    1    3    3    0  502 -0.18259659258E+03  0.40791739442E+02  0.24763342651E+03  0.31036719472E+03  0.25500000920E-02 0. -1.
</event>
<event>
 5   0  0.1923706E-02  0.4933057E+03  0.7818609E-02  0.1015541E+00
       -2   -1    0    0    0  501  0.00000000000E+00  0.00000000000E+00  0.11029122938E+04  0.11029122938E+04  0.25500000920E-02 0. -1.
        2   -1    0    0  501    0  0.00000000000E+00  0.00000000000E+00 -0.55160901854E+02  0.55160901913E+02  0.25500000920E-02 0.  1.
    10030    2    1    2    0    0  0.00000000000E+00  0.00000000000E+00  0.10477513920E+04  0.11580731957E+04  0.49330573412E+03 0.  0.
        3    1    3    3  502    0 -0.11151988888E+03 -0.32371614765E+02  0.13025358003E+02  0.11685151779E+03  0.10100000352E+00 0.  1.
       -3    1    3    3    0  502  0.11151988888E+03  0.32371614765E+02  0.10347260340E+04  0.10412216779E+04  0.10100000352E+00 0. -1.
</event>
<event>
 5   0  0.1967813E-02  0.5021931E+03  0.7818609E-02  0.1013208E+00
        2   -1    0    0  501    0  0.00000000000E+00  0.00000000000E+00  0.29540005891E+03  0.29540005892E+03  0.25500000920E-02 0.  1.
       -2   -1    0    0    0  501  0.00000000000E+00  0.00000000000E+00 -0.21343756849E+03  0.21343756850E+03  0.25500000920E-02 0. -1.
    10030    2    1    2    0    0  0.00000000000E+00  0.00000000000E+00  0.81962490419E+02  0.50883762742E+03  0.50219307168E+03 0.  0.
        5    1    3    3  502    0  0.13688768181E+03 -0.20102161505E+03  0.10409060266E+03  0.26458433573E+03  0.46999998093E+01 0. -1.
       -5    1    3    3    0  502 -0.13688768181E+03  0.20102161505E+03 -0.22128112243E+02  0.24425329169E+03  0.46999998093E+01 0.  1.
</event>
<event>
 5   0  0.1941387E-02  0.4980773E+03  0.7818609E-02  0.1014282E+00
        2   -1    0    0  501    0  0.00000000000E+00  0.00000000000E+00  0.12288285945E+04  0.12288285945E+04  0.25500000920E-02 0. -1.
       -2   -1    0    0    0  501  0.00000000000E+00  0.00000000000E+00 -0.50471028897E+02  0.50471028961E+02  0.25500000920E-02 0.  1.
    10030    2    1    2    0    0  0.00000000000E+00  0.00000000000E+00  0.11783575656E+04  0.12792996234E+04  0.49807727731E+03 0.  0.
        4    1    3    3  502    0  0.85799263977E+02 -0.12150765025E+03  0.11021865423E+04  0.11121791266E+04  0.12699999809E+01 0. -1.
       -4    1    3    3    0  502 -0.85799263977E+02  0.12150765025E+03  0.76171023273E+02  0.16712049681E+03  0.12699999809E+01 0.  1.
</event>
<event>
 5   0  0.1923706E-02  0.5010922E+03  0.7818609E-02  0.1013494E+00
       -2   -1    0    0    0  501  0.00000000000E+00  0.00000000000E+00  0.51707348493E+02  0.51707348556E+02  0.25500000920E-02 0. -1.
        2   -1    0    0  501    0  0.00000000000E+00  0.00000000000E+00 -0.12140122004E+04  0.12140122004E+04  0.25500000920E-02 0.  1.
    10030    2    1    2    0    0  0.00000000000E+00  0.00000000000E+00 -0.11623048519E+04  0.12657195490E+04  0.50109221492E+03 0.  0.
        3    1    3    3  502    0 -0.16399765343E+03 -0.78805155644E+02 -0.14607862241E+03  0.23333336026E+03  0.10100000352E+00 0. -1.
       -3    1    3    3    0  502  0.16399765343E+03  0.78805155644E+02 -0.10162262295E+04  0.10323861887E+04  0.10100000352E+00 0.  1.
</event>
<event>
 5   0  0.1225989E-02  0.5002573E+03  0.7818609E-02  0.1013712E+00
       -1   -1    0    0    0  501  0.00000000000E+00  0.00000000000E+00  0.98939718363E+02  0.98939718491E+02  0.50400001928E-02 0. -1.
        1   -1    0    0  501    0  0.00000000000E+00  0.00000000000E+00 -0.63234806665E+03  0.63234806667E+03  0.50400001928E-02 0.  1.
    10030    2    1    2    0    0  0.00000000000E+00  0.00000000000E+00 -0.53340834829E+03  0.73128778516E+03  0.50025729250E+03 0.  0.
        3    1    3    3  502    0 -0.18006916718E+03  0.42797708069E+02 -0.20753621781E+02  0.18624519270E+03  0.10100000352E+00 0. -1.
       -3    1    3    3    0  502  0.18006916718E+03 -0.42797708069E+02 -0.51265472650E+03  0.54504259246E+03  0.10100000352E+00 0.  1.
</event>
<event>
 5   0  0.1855407E-02  0.5001696E+03  0.7818609E-02  0.1013735E+00
        2   -1    0    0  501    0  0.00000000000E+00  0.00000000000E+00  0.43700149249E+03  0.43700149250E+03  0.25500000920E-02 0.  1.
       -2   -1    0    0    0  501  0.00000000000E+00  0.00000000000E+00 -0.14311713405E+03  0.14311713407E+03  0.25500000920E-02 0. -1.
    10030    2    1    2    0    0  0.00000000000E+00  0.00000000000E+00  0.29388435845E+03  0.58011862657E+03  0.50016957600E+03 0.  0.
        1    1    3    3  502    0  0.14928937085E+03  0.18052517928E+03  0.24849142698E+03  0.34150350790E+03  0.50400001928E-02 0.  1.
       -1    1    3    3    0  502 -0.14928937085E+03 -0.18052517928E+03  0.45392931466E+02  0.23861511866E+03  0.50400001928E-02 0. -1.
</event>
<event>
 5   0  0.1217270E-02  0.4989681E+03  0.7818609E-02  0.1014049E+00
        1   -1    0    0  501    0  0.00000000000E+00  0.00000000000E+00  0.41459042634E+03  0.41459042637E+03  0.50400001928E-02 0. -1.
       -1   -1    0    0    0  501  0.00000000000E+00  0.00000000000E+00 -0.15012956911E+03  0.15012956919E+03  0.50400001928E-02 0.  1.
    10030    2    1    2    0    0  0.00000000000E+00  0.00000000000E+00  0.26446085724E+03  0.56471999557E+03  0.49896806349E+03 0.  0.
        2    1    3    3  502    0  0.14664878275E+03 -0.16413742211E+03 -0.70059744116E+00  0.22010781373E+03  0.25500000920E-02 0.  1.
       -2    1    3    3    0  502 -0.14664878275E+03  0.16413742211E+03  0.26516145468E+03  0.34461218184E+03  0.25500000920E-02 0. -1.
</event>
<event>
 5   0  0.8012875E-03  0.5008772E+03  0.7818609E-02  0.1013550E+00
        3   -1    0    0  501    0  0.00000000000E+00  0.00000000000E+00  0.24188680795E+03  0.24188682904E+03  0.10100000352E+00 0.  1.
       -3   -1    0    0    0  501  0.00000000000E+00  0.00000000000E+00 -0.25929268091E+03  0.25929270058E+03  0.10100000352E+00 0. -1.
    10030    2    1    2    0    0  0.00000000000E+00  0.00000000000E+00 -0.17405872958E+02  0.50117952962E+03  0.50087718704E+03 0.  0.
        5    1    3    3  502    0 -0.17167897339E+03 -0.35933264263E+01  0.17364542015E+03  0.24425683990E+03  0.46999998093E+01 0.  1.
       -5    1    3    3    0  502  0.17167897339E+03  0.35933264263E+01 -0.19105129311E+03  0.25692268972E+03  0.46999998093E+01 0. -1.
</event>
<event>
 5   0  0.1180937E-02  0.4985283E+03  0.7818609E-02  0.1014164E+00
       -1   -1    0    0    0  501  0.00000000000E+00  0.00000000000E+00  0.32814167096E+02  0.32814167483E+02  0.50400001928E-02 0.  1.
        1   -1    0    0  501    0  0.00000000000E+00  0.00000000000E+00 -0.18934688773E+04  0.18934688773E+04  0.50400001928E-02 0. -1.
    10030    2    1    2    0    0  0.00000000000E+00  0.00000000000E+00 -0.18606547102E+04  0.19262830447E+04  0.49852825199E+03 0.  0.
        1    1    3    3  502    0 -0.14893584451E+03 -0.26377068301E+02 -0.16477015392E+03  0.22366680389E+03  0.50400001928E-02 0.  1.
       -1    1    3    3    0  502  0.14893584451E+03  0.26377068301E+02 -0.16958845562E+04  0.17026162409E+04  0.50400001928E-02 0. -1.
</event>
<event>
 5   0  0.1941387E-02  0.5005629E+03  0.7818609E-02  0.1013632E+00
        2   -1    0    0  501    0  0.00000000000E+00  0.00000000000E+00  0.14924443191E+04  0.14924443191E+04  0.25500000920E-02 0. -1.
       -2   -1    0    0    0  501  0.00000000000E+00  0.00000000000E+00 -0.41971951646E+02  0.41971951723E+02  0.25500000920E-02 0.  1.
    10030    2    1    2    0    0  0.00000000000E+00  0.00000000000E+00  0.14504723674E+04  0.15344162708E+04  0.50056288658E+03 0.  0.
        4    1    3    3  502    0 -0.11749010665E+03  0.90171030046E+02  0.13436874515E+04  0.13518255509E+04  0.12699999809E+01 0. -1.
       -4    1    3    3    0  502  0.11749010665E+03 -0.90171030046E+02  0.10678491589E+03  0.18259071987E+03  0.12699999809E+01 0.  1.
</event>
<event>
 5   0  0.1941387E-02  0.4995223E+03  0.7818609E-02  0.1013904E+00
       -2   -1    0    0    0  501  0.00000000000E+00  0.00000000000E+00  0.94263002469E+02  0.94263002503E+02  0.25500000920E-02 0. -1.
        2   -1    0    0  501    0  0.00000000000E+00  0.00000000000E+00 -0.66177221213E+03  0.66177221213E+03  0.25500000920E-02 0.  1.
    10030    2    1    2    0    0  0.00000000000E+00  0.00000000000E+00 -0.56750920966E+03  0.75603521463E+03  0.49952231454E+03 0.  0.
        4    1    3    3  502    0 -0.57734921758E+02 -0.67338772813E+02 -0.63712484151E+03  0.64327094453E+03  0.12699999809E+01 0.  1.
       -4    1    3    3    0  502  0.57734921758E+02  0.67338772813E+02  0.69615631848E+02  0.11276427010E+03  0.12699999809E+01 0. -1.
</event>
<event>
 5   0  0.1941387E-02  0.5012240E+03  0.7818609E-02  0.1013460E+00
        2   -1    0    0  501    0  0.00000000000E+00  0.00000000000E+00  0.25104399198E+03  0.25104399199E+03  0.25500000920E-02 0. -1.
       -2   -1    0    0    0  501  0.00000000000E+00  0.00000000000E+00 -0.25018077806E+03  0.25018077807E+03  0.25500000920E-02 0.  1.
    10030    2    1    2    0    0  0.00000000000E+00  0.00000000000E+00  0.86321391869E+00  0.50122477006E+03  0.50122402674E+03 0.  0.
        4    1    3    3  502    0 -0.62893809804E+02 -0.60124876176E+02  0.23545139362E+03  0.25101713827E+03  0.12699999809E+01 0. -1.
       -4    1    3    3    0  502  0.62893809804E+02  0.60124876176E+02 -0.23458817970E+03  0.25020763179E+03  0.12699999809E+01 0.  1.
</event>
<event>
 5   0  0.1227864E-02  0.5018148E+03  0.7818609E-02  0.1013306E+00
       -1   -1    0    0    0  501  0.00000000000E+00  0.00000000000E+00  0.10203458718E+03  0.10203458730E+03  0.50400001928E-02 0.  1.
        1   -1    0    0  501    0  0.00000000000E+00  0.00000000000E+00 -0.61699206170E+03  0.61699206172E+03  0.50400001928E-02 0. -1.
    10030    2    1    2    0    0  0.00000000000E+00  0.00000000000E+00 -0.51495747452E+03  0.71902664903E+03  0.50181482784E+03 0.  0.
        5    1    3    3  502    0 -0.49650957707E+02 -0.16690594144E+03 -0.51622520453E+03  0.54482415758E+03  0.46999998093E+01 0. -1.
       -5    1    3    3    0  502  0.49650957707E+02  0.16690594144E+03  0.12677300126E+01  0.17420249145E+03  0.46999998093E+01 0.  1.
</event>
<event>
 5   0  0.1180937E-02  0.4967452E+03  0.7818609E-02  0.1014632E+00
       -1   -1    0    0    0  501  0.00000000000E+00  0.00000000000E+00  0.68483674978E+02  0.68483675164E+02  0.50400001928E-02 0. -1.
        1   -1    0    0  501    0  0.00000000000E+00  0.00000000000E+00 -0.90078318869E+03  0.90078318870E+03  0.50400001928E-02 0.  1.
    10030    2    1    2    0    0  0.00000000000E+00  0.00000000000E+00 -0.83229951371E+03  0.96926686386E+03  0.49674517901E+03 0.  0.
        1    1    3    3  502    0  0.57850820398E+02  0.23896822370E+03 -0.34753909129E+03  0.42571815719E+03  0.50400001928E-02 0.  1.
       -1    1    3    3    0  502 -0.57850820398E+02 -0.23896822370E+03 -0.48476042242E+03  0.54354870667E+03  0.50400001928E-02 0. -1.
</event>
<event>
 5   0  0.1227864E-02  0.5003396E+03  0.7818609E-02  0.1013690E+00
        1   -1    0    0  501    0  0.00000000000E+00  0.00000000000E+00  0.43129880782E+03  0.43129880785E+03  0.50400001928E-02 0.  1.
       -1   -1    0    0    0  501  0.00000000000E+00  0.00000000000E+00 -0.14510807634E+03  0.14510807643E+03  0.50400001928E-02 0. -1.
    10030    2    1    2    0    0  0.00000000000E+00  0.00000000000E+00  0.28619073148E+03  0.57640688428E+03  0.50033964610E+03 0.  0.
        5    1    3    3  502    0  0.14174483266E+03  0.10794817196E+03 -0.59145819910E+02  0.18778903969E+03  0.46999998093E+01 0. -1.
       -5    1    3    3    0  502 -0.14174483266E+03 -0.10794817196E+03  0.34533655139E+03  0.38861784460E+03  0.46999998093E+01 0.  1.
</event>
<event>
 5   0  0.1923706E-02  0.5005081E+03  0.7818609E-02  0.1013646E+00
        2   -1    0    0  501    0  0.00000000000E+00  0.00000000000E+00  0.46656186403E+03  0.46656186403E+03  0.25500000920E-02 0.  1.
       -2   -1    0    0    0  501  0.00000000000E+00  0.00000000000E+00 -0.13423105435E+03  0.13423105437E+03  0.25500000920E-02 0. -1.
    10030    2    1    2    0    0  0.00000000000E+00  0.00000000000E+00  0.33233080968E+03  0.60079291841E+03  0.50050810557E+03 0.  0.
        3    1    3    3  502    0  0.21463357540E+03 -0.10803580698E+03  0.25008612926E+03  0.34681751618E+03  0.10100000352E+00 0.  1.
       -3    1    3    3    0  502 -0.21463357540E+03  0.10803580698E+03  0.82244680424E+02  0.25397540223E+03  0.10100000352E+00 0. -1.
</event>
<event>
 5   0  0.8012875E-03  0.4890321E+03  0.7818609E-02  0.1016682E+00
       -3   -1    0    0    0  501  0.00000000000E+00  0.00000000000E+00  0.99095241435E+02  0.99095292905E+02  0.10100000352E+00 0.  1.
        3   -1    0    0  501    0  0.00000000000E+00  0.00000000000E+00 -0.60333949270E+03  0.60333950116E+03  0.10100000352E+00 0. -1.
    10030    2    1    2    0    0  0.00000000000E+00  0.00000000000E+00 -0.50424425127E+03  0.70243479406E+03  0.48903207970E+03 0.  0.
        3    1    3    3  502    0 -0.11095281905E+03  0.20800690696E+03 -0.34532834572E+03  0.41812567244E+03  0.10100000352E+00 0. -1.
       -3    1    3    3    0  502  0.11095281905E+03 -0.20800690696E+03 -0.15891590555E+03  0.28430912162E+03  0.10100000352E+00 0.  1.
</event>
<event>
 5   0  0.8012875E-03  0.5000649E+03  0.7818609E-02  0.1013762E+00
        3   -1    0    0  501    0  0.00000000000E+00  0.00000000000E+00  0.15397276165E+03  0.15397279478E+03  0.10100000352E+00 0.  1.
       -3   -1    0    0    0  501  0.00000000000E+00  0.00000000000E+00 -0.40602123388E+03  0.40602124644E+03  0.10100000352E+00 0. -1.
    10030    2    1    2    0    0  0.00000000000E+00  0.00000000000E+00 -0.25204847223E+03  0.55999404122E+03  0.50006488964E+03 0.  0.
        2    1    3    3  502    0  0.15199333307E+03 -0.15811827731E+02  0.95592152556E+02  0.18024940175E+03  0.25500000920E-02 0.  1.
       -2    1    3    3    0  502 -0.15199333307E+03  0.15811827731E+02 -0.34764062479E+03  0.37974463947E+03  0.25500000920E-02 0. -1.
</event>
<event>
 5   0  0.1855407E-02  0.4996817E+03  0.7818609E-02  0.1013862E+00
        2   -1    0    0  501    0  0.00000000000E+00  0.00000000000E+00  0.28512734924E+03  0.28512734925E+03  0.25500000920E-02 0.  1.
       -2   -1    0    0    0  501  0.00000000000E+00  0.00000000000E+00 -0.21892128612E+03  0.21892128613E+03  0.25500000920E-02 0. -1.
    10030    2    1    2    0    0  0.00000000000E+00  0.00000000000E+00  0.66206063124E+02  0.50404863538E+03  0.49968168271E+03 0.  0.
        1    1    3    3  502    0 -0.59891755931E+02  0.18180529903E+03  0.19506857535E+03  0.27329825886E+03  0.50400001928E-02 0.  1.
       -1    1    3    3    0  502  0.59891755931E+02 -0.18180529903E+03 -0.12886251222E+03  0.23075037652E+03  0.50400001928E-02 0. -1.
</event>
<event>
 5   0  0.8012875E-03  0.4998572E+03  0.7818609E-02  0.1013816E+00
        4   -1    0    0  501    0  0.00000000000E+00  0.00000000000E+00  0.11480781299E+03  0.11481483712E+03  0.12699999809E+01 0.  1.
       -4   -1    0    0    0  501  0.00000000000E+00  0.00000000000E+00 -0.54405274481E+03  0.54405422711E+03  0.12699999809E+01 0. -1.
    10030    2    1    2    0    0  0.00000000000E+00  0.00000000000E+00 -0.42924493182E+03  0.65886906423E+03  0.49985721192E+03 0.  0.
        2    1    3    3  502    0 -0.50031955267E+02 -0.21579435868E+03 -0.36717055866E+03  0.42881770129E+03  0.25500000920E-02 0. -1.
       -2    1    3    3    0  502  0.50031955267E+02  0.21579435868E+03 -0.62074373161E+02  0.23005136295E+03  0.25500000920E-02 0.  1.
</event>
<event>
 5   0  0.1180937E-02  0.5002400E+03  0.7818609E-02  0.1013716E+00
        1   -1    0    0  501    0  0.00000000000E+00  0.00000000000E+00  0.26912429437E+03  0.26912429441E+03  0.50400001928E-02 0. -1.
       -1   -1    0    0    0  501  0.00000000000E+00  0.00000000000E+00 -0.23245774065E+03  0.23245774070E+03  0.50400001928E-02 0.  1.
    10030    2    1    2    0    0  0.00000000000E+00  0.00000000000E+00  0.36666553722E+02  0.50158203512E+03  0.50024004417E+03 0.  0.
        1    1    3    3  502    0  0.79840133107E+02  0.22884320670E+03 -0.43609188880E+02  0.24626291131E+03  0.50400001928E-02 0. -1.
       -1    1    3    3    0  502 -0.79840133107E+02 -0.22884320670E+03  0.80275742602E+02  0.25531912381E+03  0.50400001928E-02 0.  1.
</event>
<event>
 5   0  0.8012875E-03  0.4993324E+03  0.7818609E-02  0.1013953E+00
        4   -1    0    0  501    0  0.00000000000E+00  0.00000000000E+00  0.12134744076E+03  0.12135408637E+03  0.12699999809E+01 0. -1.
       -4   -1    0    0    0  501  0.00000000000E+00  0.00000000000E+00 -0.51365409699E+03  0.51365566701E+03  0.12699999809E+01 0.  1.
    10030    2    1    2    0    0  0.00000000000E+00  0.00000000000E+00 -0.39230665623E+03  0.63500975338E+03  0.49933242872E+03 0.  0.
        1    1    3    3  502    0  0.15236780122E+03  0.17722643082E+03 -0.30780449806E+03  0.38648255288E+03  0.50400001928E-02 0.  1.
       -1    1    3    3    0  502 -0.15236780122E+03 -0.17722643082E+03 -0.84502158168E+02  0.24852720050E+03  0.50400001928E-02 0. -1.
</event>
<event>
 5   0  0.1923706E-02  0.5001916E+03  0.7818609E-02  0.1013729E+00
       -2   -1    0    0    0  501  0.00000000000E+00  0.00000000000E+00  0.14179757182E+03  0.14179757184E+03  0.25500000920E-02 0.  1.
        2   -1    0    0  501    0  0.00000000000E+00  0.00000000000E+00 -0.44110712621E+03  0.44110712622E+03  0.25500000920E-02 0. -1.
    10030    2    1    2    0    0  0.00000000000E+00  0.00000000000E+00 -0.29930955440E+03  0.58290469806E+03  0.50019164094E+03 0.  0.
        3    1    3    3  502    0 -0.20809234446E+03 -0.98577296821E+02 -0.26340756384E+03  0.34986206162E+03  0.10100000352E+00 0. -1.
       -3    1    3    3    0  502  0.20809234446E+03  0.98577296821E+02 -0.35901990556E+02  0.23304263644E+03  0.10100000352E+00 0.  1.
</event>
<event>
 5   0  0.8012875E-03  0.5010895E+03  0.7818609E-02  0.1013495E+00
       -4   -1    0    0    0  501  0.00000000000E+00  0.00000000000E+00  0.57565432752E+03  0.57565572845E+03  0.12699999809E+01 0. -1.
        4   -1    0    0  501    0  0.00000000000E+00  0.00000000000E+00 -0.10904054968E+03  0.10904794530E+03  0.12699999809E+01 0.  1.
    10030    2    1    2    0    0  0.00000000000E+00  0.00000000000E+00  0.46661377785E+03  0.68470367375E+03  0.50108951612E+03 0.  0.
        3    1    3    3  502    0  0.15201622421E+03  0.13503774640E+03  0.33282185665E+02  0.20603844171E+03  0.10100000352E+00 0.  1.
       -3    1    3    3    0  502 -0.15201622421E+03 -0.13503774640E+03  0.43333159218E+03  0.47866523204E+03  0.10100000352E+00 0. -1.
</event>
<event>
 5   0  0.1941387E-02  0.5002514E+03  0.7818609E-02  0.1013713E+00
       -2   -1    0    0    0  501  0.00000000000E+00  0.00000000000E+00  0.59402284968E+02  0.59402285022E+02  0.25500000920E-02 0. -1.
        2   -1    0    0  501    0  0.00000000000E+00  0.00000000000E+00 -0.10532065577E+04  0.10532065577E+04  0.25500000920E-02 0.  1.
    10030    2    1    2    0    0  0.00000000000E+00  0.00000000000E+00 -0.99380427272E+03  0.11126088427E+04  0.50025144118E+03 0.  0.
        4    1    3    3  502    0 -0.53680694783E+02 -0.13180689216E+03 -0.39436826582E+02  0.14768733867E+03  0.12699999809E+01 0. -1.
       -4    1    3    3    0  502  0.53680694783E+02  0.13180689216E+03 -0.95436744614E+03  0.96492150404E+03  0.12699999809E+01 0.  1.
</event>
<event>
 5   0  0.1225989E-02  0.4995822E+03  0.7818609E-02  0.1013888E+00
       -1   -1    0    0    0  501  0.00000000000E+00  0.00000000000E+00  0.22017432737E+03  0.22017432743E+03  0.50400001928E-02 0. -1.
        1   -1    0    0  501    0  0.00000000000E+00  0.00000000000E+00 -0.28339172119E+03  0.28339172123E+03  0.50400001928E-02 0.  1.
    10030    2    1    2    0    0  0.00000000000E+00  0.00000000000E+00 -0.63217393816E+02  0.50356604866E+03  0.49958215189E+03 0.  0.
        3    1    3    3  502    0  0.39583607627E+02  0.23523971649E+03  0.43083402109E+02  0.24240622093E+03  0.10100000352E+00 0. -1.
       -3    1    3    3    0  502 -0.39583607627E+02 -0.23523971649E+03 -0.10630079592E+03  0.26115982773E+03  0.10100000352E+00 0.  1.
</event>
<event>
 5   0  0.1209831E-02  0.4997398E+03  0.7818609E-02  0.1013847E+00
       -1   -1    0    0    0  501  0.00000000000E+00  0.00000000000E+00  0.10016573513E+03  0.10016573525E+03  0.50400001928E-02 0. -1.
        1   -1    0    0  501    0  0.00000000000E+00  0.00000000000E+00 -0.62331654676E+03  0.62331654678E+03  0.50400001928E-02 0.  1.
    10030    2    1    2    0    0  0.00000000000E+00  0.00000000000E+00 -0.52315081163E+03  0.72348228203E+03  0.49973977299E+03 0.  0.
        4    1    3    3  502    0  0.18779229161E+03 -0.34581374979E+02 -0.49488508709E+03  0.53044762098E+03  0.12699999809E+01 0.  1.
       -4    1    3    3    0  502 -0.18779229161E+03  0.34581374979E+02 -0.28265724541E+02  0.19303466105E+03  0.12699999809E+01 0. -1.
</event>
<event>
 5   0  0.1941387E-02  0.4994116E+03  0.7818609E-02  0.1013933E+00
        2   -1    0    0  501    0  0.00000000000E+00  0.00000000000E+00  0.43568827503E+03  0.43568827504E+03  0.25500000920E-02 0. -1.
       -2   -1    0    0    0  501  0.00000000000E+00  0.00000000000E+00 -0.14311376948E+03  0.14311376950E+03  0.25500000920E-02 0.  1.
    10030    2    1    2    0    0  0.00000000000E+00  0.00000000000E+00  0.29257450555E+03  0.57880204454E+03  0.49941161927E+03 0.  0.
        4    1    3    3  502    0  0.84337300249E+02  0.21042881575E+03  0.24964225060E+02  0.22807431277E+03  0.12699999809E+01 0.  1.
       -4    1    3    3    0  502 -0.84337300249E+02 -0.21042881575E+03  0.26761028049E+03  0.35072773177E+03  0.12699999809E+01 0. -1.
</event>
<event>
 5   0  0.1967813E-02  0.4971676E+03  0.7818609E-02  0.1014521E+00
        2   -1    0    0  501    0  0.00000000000E+00  0.00000000000E+00  0.71129216279E+03  0.71129216279E+03  0.25500000920E-02 0.  1.
       -2   -1    0    0    0  501  0.00000000000E+00  0.00000000000E+00 -0.86875549868E+02  0.86875549905E+02  0.25500000920E-02 0. -1.
    10030    2    1    2    0    0  0.00000000000E+00  0.00000000000E+00  0.62441661292E+03  0.79816771270E+03  0.49716756843E+03 0.  0.
        5    1    3    3  502    0  0.24228990995E+03  0.44235579404E+02  0.25870578223E+03  0.35722816057E+03  0.46999998093E+01 0. -1.
       -5    1    3    3    0  502 -0.24228990995E+03 -0.44235579404E+02  0.36571083069E+03  0.44093955213E+03  0.46999998093E+01 0.  1.
</event>
<event>
 5   0  0.8012875E-03  0.4998651E+03  0.7818609E-02  0.1013814E+00
       -4   -1    0    0    0  501  0.00000000000E+00  0.00000000000E+00  0.75987736747E+03  0.75987842876E+03  0.12699999809E+01 0.  1.
        4   -1    0    0  501    0  0.00000000000E+00  0.00000000000E+00 -0.82199728588E+02  0.82209538862E+02  0.12699999809E+01 0. -1.
    10030    2    1    2    0    0  0.00000000000E+00  0.00000000000E+00  0.67767763888E+03  0.84208796762E+03  0.49986514479E+03 0.  0.
        1    1    3    3  502    0  0.22655816874E+03 -0.70364384422E+02  0.20633495937E+03  0.31441034636E+03  0.50400001928E-02 0.  1.
       -1    1    3    3    0  502 -0.22655816874E+03  0.70364384422E+02  0.47134267952E+03  0.52767762126E+03  0.50400001928E-02 0. -1.
</event>
<event>
 5   0  0.1217270E-02  0.5017356E+03  0.7818609E-02  0.1013327E+00
       -1   -1    0    0    0  501  0.00000000000E+00  0.00000000000E+00  0.10453974433E+03  0.10453974445E+03  0.50400001928E-02 0. -1.
        1   -1    0    0  501    0  0.00000000000E+00  0.00000000000E+00 -0.60201655386E+03  0.60201655388E+03  0.50400001928E-02 0.  1.
    10030    2    1    2    0    0  0.00000000000E+00  0.00000000000E+00 -0.49747680953E+03  0.70655629834E+03  0.50173561434E+03 0.  0.
        2    1    3    3  502    0 -0.47213543532E+02 -0.19390094920E+03 -0.34669964294E+02  0.20255543247E+03  0.25500000920E-02 0. -1.
       -2    1    3    3    0  502  0.47213543532E+02  0.19390094920E+03 -0.46280684524E+03  0.50400086587E+03  0.25500000920E-02 0.  1.
</event>
<event>
 5   0  0.1209831E-02  0.4983020E+03  0.7818609E-02  0.1014223E+00
        1   -1    0    0  501    0  0.00000000000E+00  0.00000000000E+00  0.14277050909E+04  0.14277050910E+04  0.50400001928E-02 0. -1.
       -1   -1    0    0    0  501  0.00000000000E+00  0.00000000000E+00 -0.43479730591E+02  0.43479730883E+02  0.50400001928E-02 0.  1.
    10030    2    1    2    0    0  0.00000000000E+00  0.00000000000E+00  0.13842253604E+04  0.14711848218E+04  0.49830204872E+03 0.  0.
        4    1    3    3  502    0 -0.20604904561E+03  0.13298582311E+03  0.82192350208E+03  0.85773031573E+03  0.12699999809E+01 0. -1.
       -4    1    3    3    0  502  0.20604904561E+03 -0.13298582311E+03  0.56230185827E+03  0.61345450611E+03  0.12699999809E+01 0.  1.
</event>
<event>
 5   0  0.1227864E-02  0.5003067E+03  0.7818609E-02  0.1013699E+00
        1   -1    0    0  501    0  0.00000000000E+00  0.00000000000E+00  0.40352614658E+03  0.40352614661E+03  0.50400001928E-02 0.  1.
       -1   -1    0    0    0  501  0.00000000000E+00  0.00000000000E+00 -0.15507470777E+03  0.15507470786E+03  0.50400001928E-02 0. -1.
    10030    2    1    2    0    0  0.00000000000E+00  0.00000000000E+00  0.24845143881E+03  0.55860085447E+03  0.50030670310E+03 0.  0.
        5    1    3    3  502    0  0.21972122631E+03 -0.27214727501E+02 -0.56773101827E+01  0.22152286684E+03  0.46999998093E+01 0.  1.
       -5    1    3    3    0  502 -0.21972122631E+03  0.27214727501E+02  0.25412874899E+03  0.33707798763E+03  0.46999998093E+01 0. -1.
</event>
<event>
 5   0  0.1225989E-02  0.5000591E+03  0.7818609E-02  0.1013764E+00
       -1   -1    0    0    0  501  0.00000000000E+00  0.00000000000E+00  0.57119012608E+03  0.57119012611E+03  0.50400001928E-02 0. -1.
        1   -1    0    0  501    0  0.00000000000E+00  0.00000000000E+00 -0.10944650868E+03  0.10944650880E+03  0.50400001928E-02 0.  1.
    10030    2    1    2    0    0  0.00000000000E+00  0.00000000000E+00  0.46174361740E+03  0.68063663491E+03  0.50005905708E+03 0.  0.
        3    1    3    3  502    0 -0.13415372179E+03 -0.13307803719E+03  0.45372782704E+03  0.49150375002E+03  0.10100000352E+00 0. -1.
       -3    1    3    3    0  502  0.13415372179E+03  0.13307803719E+03  0.80157903639E+01  0.18913288489E+03  0.10100000352E+00 0.  1.
</event>
<event>
 5   0  0.1855407E-02  0.5006111E+03  0.7818609E-02  0.1013620E+00
       -2   -1    0    0    0  501  0.00000000000E+00  0.00000000000E+00  0.49610870139E+02  0.49610870204E+02  0.25500000920E-02 0. -1.
        2   -1    0    0  501    0  0.00000000000E+00  0.00000000000E+00 -0.12628859094E+04  0.12628859094E+04  0.25500000920E-02 0.  1.
    10030    2    1    2    0    0  0.00000000000E+00  0.00000000000E+00 -0.12132750393E+04  0.13124967796E+04  0.50061110214E+03 0.  0.
        1    1    3    3  502    0  0.10231710460E+03  0.12662925509E+03 -0.10815885050E+03  0.19545356252E+03  0.50400001928E-02 0. -1.
       -1    1    3    3    0  502 -0.10231710460E+03 -0.12662925509E+03 -0.11051161888E+04  0.11170432171E+04  0.50400001928E-02 0.  1.
</event>
<event>
 5   0  0.1225989E-02  0.4990963E+03  0.7818609E-02  0.1014015E+00
        1   -1    0    0  501    0  0.00000000000E+00  0.00000000000E+00  0.54033839188E+03  0.54033839190E+03  0.50400001928E-02 0.  1.
       -1   -1    0    0    0  501  0.00000000000E+00  0.00000000000E+00 -0.11525049802E+03  0.11525049813E+03  0.50400001928E-02 0. -1.
    10030    2    1    2    0    0  0.00000000000E+00  0.00000000000E+00  0.42508789386E+03  0.65558889003E+03  0.49909625848E+03 0.  0.
        3    1    3    3  502    0 -0.12682038160E+03 -0.13868836156E+02 -0.69176992885E+02  0.14512484402E+03  0.10100000352E+00 0. -1.
       -3    1    3    3    0  502  0.12682038160E+03  0.13868836156E+02  0.49426488674E+03  0.51046404601E+03  0.10100000352E+00 0.  1.
</event>
<event>
 5   0  0.1180937E-02  0.4998869E+03  0.7818609E-02  0.1013808E+00
       -1   -1    0    0    0  501  0.00000000000E+00  0.00000000000E+00  0.44287284460E+02  0.44287284747E+02  0.50400001928E-02 0. -1.
        1   -1    0    0  501    0  0.00000000000E+00  0.00000000000E+00 -0.14106019408E+04  0.14106019409E+04  0.50400001928E-02 0.  1.
    10030    2    1    2    0    0  0.00000000000E+00  0.00000000000E+00 -0.13663146564E+04  0.14548892256E+04  0.49988690573E+03 0.  0.
        1    1    3    3  502    0  0.10977584003E+01 -0.14574977661E+03 -0.12741087883E+04  0.12824185771E+04  0.50400001928E-02 0.  1.
       -1    1    3    3    0  502 -0.10977584003E+01  0.14574977661E+03 -0.92205868079E+02  0.17247064849E+03  0.50400001928E-02 0. -1.
</event>
<event>
 5   0  0.1180937E-02  0.4990561E+03  0.7818609E-02  0.1014026E+00
       -1   -1    0    0    0  501  0.00000000000E+00  0.00000000000E+00  0.35714622317E+03  0.35714622320E+03  0.50400001928E-02 0. -1.
        1   -1    0    0  501    0  0.00000000000E+00  0.00000000000E+00 -0.17433827230E+03  0.17433827237E+03  0.50400001928E-02 0.  1.
    10030    2    1    2    0    0  0.00000000000E+00  0.00000000000E+00  0.18280795087E+03  0.53148449557E+03  0.49905613125E+03 0.  0.
        1    1    3    3  502    0 -0.71877907940E+02  0.23454221704E+03  0.42742803908E+02  0.24900488456E+03  0.50400001928E-02 0. -1.
       -1    1    3    3    0  502  0.71877907940E+02 -0.23454221704E+03  0.14006514696E+03  0.28247961102E+03  0.50400001928E-02 0.  1.
</event>
<event>
 5   0  0.1217270E-02  0.5005142E+03  0.7818609E-02  0.1013645E+00
        1   -1    0    0  501    0  0.00000000000E+00  0.00000000000E+00  0.11890857218E+04  0.11890857218E+04  0.50400001928E-02 0. -1.
       -1   -1    0    0    0  501  0.00000000000E+00  0.00000000000E+00 -0.52669558045E+02  0.52669558286E+02  0.50400001928E-02 0.  1.
    10030    2    1    2    0    0  0.00000000000E+00  0.00000000000E+00  0.11364161637E+04  0.12417552800E+04  0.50051421398E+03 0.  0.
        2    1    3    3  502    0  0.70531501225E+02  0.11970648254E+03  0.10846069739E+04  0.10934699916E+04  0.25500000920E-02 0. -1.
       -2    1    3    3    0  502 -0.70531501225E+02 -0.11970648254E+03  0.51809189818E+02  0.14828528849E+03  0.25500000920E-02 0.  1.
</event>
<event>
 5   0  0.1225989E-02  0.4996360E+03  0.7818609E-02  0.1013874E+00
        1   -1    0    0  501    0  0.00000000000E+00  0.00000000000E+00  0.51925578710E+03  0.51925578712E+03  0.50400001928E-02 0. -1.
       -1   -1    0    0    0  501  0.00000000000E+00  0.00000000000E+00 -0.12018937684E+03  0.12018937694E+03  0.50400001928E-02 0.  1.
    10030    2    1    2    0    0  0.00000000000E+00  0.00000000000E+00  0.39906641026E+03  0.63944516407E+03  0.49963598554E+03 0.  0.
        3    1    3    3  502    0 -0.33756411923E+02  0.20674067411E+03  0.25327757937E+02  0.21100404546E+03  0.10100000352E+00 0. -1.
       -3    1    3    3    0  502  0.33756411923E+02 -0.20674067411E+03  0.37373865232E+03  0.42844111861E+03  0.10100000352E+00 0.  1.
</event>
<event>
 5   0  0.1855407E-02  0.5004423E+03  0.7818609E-02  0.1013664E+00
       -2   -1    0    0    0  501  0.00000000000E+00  0.00000000000E+00  0.28228022010E+03  0.28228022011E+03  0.25500000920E-02 0. -1.
        2   -1    0    0  501    0  0.00000000000E+00  0.00000000000E+00 -0.22180305297E+03  0.22180305298E+03  0.25500000920E-02 0.  1.
    10030    2    1    2    0    0  0.00000000000E+00  0.00000000000E+00  0.60477167133E+02  0.50408327310E+03  0.50044226287E+03 0.  0.
        1    1    3    3  502    0 -0.56995094286E+02  0.20252083275E+03 -0.10619980810E+03  0.23567250102E+03  0.50400001928E-02 0.  1.
       -1    1    3    3    0  502  0.56995094286E+02 -0.20252083275E+03  0.16667697523E+03  0.26841077208E+03  0.50400001928E-02 0. -1.
</event>
<event>
 5   0  0.1923706E-02  0.5003394E+03  0.7818609E-02  0.1013690E+00
        2   -1    0    0  501    0  0.00000000000E+00  0.00000000000E+00  0.38273304985E+03  0.38273304986E+03  0.25500000920E-02 0. -1.
       -2   -1    0    0    0  501  0.00000000000E+00  0.00000000000E+00 -0.16352094167E+03  0.16352094169E+03  0.25500000920E-02 0.  1.
    10030    2    1    2    0    0  0.00000000000E+00  0.00000000000E+00  0.21921210818E+03  0.54625399155E+03  0.50033935975E+03 0.  0.
        3    1    3    3  502    0 -0.15149069588E+01  0.12455836580E+03  0.34646609446E+03  0.36817909534E+03  0.10100000352E+00 0. -1.
       -3    1    3    3    0  502  0.15149069588E+01 -0.12455836580E+03 -0.12725398628E+03  0.17807489621E+03  0.10100000352E+00 0.  1.
</event>
<event>
 5   0  0.1180937E-02  0.4999079E+03  0.7818609E-02  0.1013803E+00
       -1   -1    0    0    0  501  0.00000000000E+00  0.00000000000E+00  0.63580804614E+03  0.63580804616E+03  0.50400001928E-02 0. -1.
        1   -1    0    0  501    0  0.00000000000E+00  0.00000000000E+00 -0.98263893196E+02  0.98263893325E+02  0.50400001928E-02 0.  1.
    10030    2    1    2    0    0  0.00000000000E+00  0.00000000000E+00  0.53754415294E+03  0.73407193948E+03  0.49990788749E+03 0.  0.
        1    1    3    3  502    0  0.61901542581E+02 -0.38958923262E+02 -0.82198548896E+02  0.11002817885E+03  0.50400001928E-02 0.  1.
       -1    1    3    3    0  502 -0.61901542581E+02  0.38958923262E+02  0.61974270184E+03  0.62404376063E+03  0.50400001928E-02 0. -1.
</event>
<event>
 5   0  0.1967813E-02  0.4999871E+03  0.7818609E-02  0.1013782E+00
        2   -1    0    0  501    0  0.00000000000E+00  0.00000000000E+00  0.38523916527E+03  0.38523916528E+03  0.25500000920E-02 0. -1.
       -2   -1    0    0    0  501  0.00000000000E+00  0.00000000000E+00 -0.16222849596E+03  0.16222849598E+03  0.25500000920E-02 0.  1.
    10030    2    1    2    0    0  0.00000000000E+00  0.00000000000E+00  0.22301066931E+03  0.54746766126E+03  0.49998708134E+03 0.  0.
        5    1    3    3  502    0 -0.46562729603E+02 -0.67766962719E+02  0.36995903776E+03  0.37901481322E+03  0.46999998093E+01 0. -1.
       -5    1    3    3    0  502  0.46562729603E+02  0.67766962719E+02 -0.14694836845E+03  0.16845284804E+03  0.46999998093E+01 0.  1.
</event>
<event>
 5   0  0.1217270E-02  0.4992751E+03  0.7818609E-02  0.1013968E+00
        1   -1    0    0  501    0  0.00000000000E+00  0.00000000000E+00  0.36653957872E+03  0.36653957875E+03  0.50400001928E-02 0.  1.
       -1   -1    0    0    0  501  0.00000000000E+00  0.00000000000E+00 -0.17001959523E+03  0.17001959531E+03  0.50400001928E-02 0. -1.
    10030    2    1    2    0    0  0.00000000000E+00  0.00000000000E+00  0.19651998348E+03  0.53655917406E+03  0.49927511790E+03 0.  0.
        2    1    3    3  502    0 -0.13181604015E+03 -0.12791470485E+03  0.27994473870E+03  0.33482338163E+03  0.25500000920E-02 0.  1.
       -2    1    3    3    0  502  0.13181604015E+03  0.12791470485E+03 -0.83424755212E+02  0.20173579243E+03  0.25500000920E-02 0. -1.
</event>
<event>
 5   0  0.1217270E-02  0.5001743E+03  0.7818609E-02  0.1013733E+00
        1   -1    0    0  501    0  0.00000000000E+00  0.00000000000E+00  0.79062537169E+03  0.79062537171E+03  0.50400001928E-02 0. -1.
       -1   -1    0    0    0  501  0.00000000000E+00  0.00000000000E+00 -0.79106481379E+02  0.79106481539E+02  0.50400001928E-02 0.  1.
    10030    2    1    2    0    0  0.00000000000E+00  0.00000000000E+00  0.71151889031E+03  0.86973185325E+03  0.50017433489E+03 0.  0.
        2    1    3    3  502    0 -0.14050973105E+03 -0.19369537905E+03  0.22937540582E+03  0.33147241391E+03  0.25500000920E-02 0.  1.
       -2    1    3    3    0  502  0.14050973105E+03  0.19369537905E+03  0.48214348450E+03  0.53825943934E+03  0.25500000920E-02 0. -1.
</event>
<event>
 5   0  0.1180937E-02  0.5000426E+03  0.7818609E-02  0.1013768E+00
       -1   -1    0    0    0  501  0.00000000000E+00  0.00000000000E+00  0.83586644400E+02  0.83586644552E+02  0.50400001928E-02 0. -1.
        1   -1    0    0  501    0  0.00000000000E+00  0.00000000000E+00 -0.74785439516E+03  0.74785439517E+03  0.50400001928E-02 0.  1.
    10030    2    1    2    0    0  0.00000000000E+00  0.00000000000E+00 -0.66426775076E+03  0.83144103973E+03  0.50004255603E+03 0.  0.
        1    1    3    3  502    0  0.13222037541E+03 -0.42778209811E+02 -0.67772175715E+03  0.69182294197E+03  0.50400001928E-02 0.  1.
       -1    1    3    3    0  502 -0.13222037541E+03  0.42778209811E+02  0.13454006388E+02  0.13961809775E+03  0.50400001928E-02 0. -1.
</event>
<event>
 5   0  0.1225989E-02  0.5004350E+03  0.7818609E-02  0.1013665E+00
        1   -1    0    0  501    0  0.00000000000E+00  0.00000000000E+00  0.12025440497E+04  0.12025440497E+04  0.50400001928E-02 0. -1.
       -1   -1    0    0    0  501  0.00000000000E+00  0.00000000000E+00 -0.52063629177E+02  0.52063629421E+02  0.50400001928E-02 0.  1.
    10030    2    1    2    0    0  0.00000000000E+00  0.00000000000E+00  0.11504804205E+04  0.12546076791E+04  0.50043504127E+03 0.  0.
        3    1    3    3  502    0 -0.39063414576E+02  0.16752421287E+02  0.11934272395E+04  0.11941838971E+04  0.10100000352E+00 0. -1.
       -3    1    3    3    0  502  0.39063414576E+02 -0.16752421287E+02 -0.42946818944E+02  0.60423782037E+02  0.10100000352E+00 0.  1.
</event>
<event>
 5   0  0.1967813E-02  0.4993020E+03  0.7818609E-02  0.1013961E+00
       -2   -1    0    0    0  501  0.00000000000E+00  0.00000000000E+00  0.97009135768E+02  0.97009135802E+02  0.25500000920E-02 0. -1.
        2   -1    0    0  501    0  0.00000000000E+00  0.00000000000E+00 -0.64247159582E+03  0.64247159582E+03  0.25500000920E-02 0.  1.
    10030    2    1    2    0    0  0.00000000000E+00  0.00000000000E+00 -0.54546246005E+03  0.73948073162E+03  0.49930196987E+03 0.  0.
        5    1    3    3  502    0 -0.18930030475E+03 -0.11391624280E+03 -0.10070214227E+03  0.24284671546E+03  0.46999998093E+01 0. -1.
       -5    1    3    3    0  502  0.18930030475E+03  0.11391624280E+03 -0.44476031778E+03  0.49663401617E+03  0.46999998093E+01 0.  1.
</event>
<event>
 5   0  0.1941387E-02  0.5007951E+03  0.7818609E-02  0.1013572E+00
        2   -1    0    0  501    0  0.00000000000E+00  0.00000000000E+00  0.14860007245E+03  0.14860007247E+03  0.25500000920E-02 0. -1.
       -2   -1    0    0    0  501  0.00000000000E+00  0.00000000000E+00 -0.42193071578E+03  0.42193071579E+03  0.25500000920E-02 0.  1.
    10030    2    1    2    0    0  0.00000000000E+00  0.00000000000E+00 -0.27333064334E+03  0.57053078826E+03  0.50079510757E+03 0.  0.
        4    1    3    3  502    0  0.10184504911E+03  0.32667209866E+02  0.12126287749E+03  0.16169681192E+03  0.12699999809E+01 0. -1.
       -4    1    3    3    0  502 -0.10184504911E+03 -0.32667209866E+02 -0.39459352083E+03  0.40883397634E+03  0.12699999809E+01 0.  1.
</event>
<event>
 5   0  0.1227864E-02  0.5000057E+03  0.7818609E-02  0.1013777E+00
        1   -1    0    0  501    0  0.00000000000E+00  0.00000000000E+00  0.56600852725E+03  0.56600852727E+03  0.50400001928E-02 0.  1.
       -1   -1    0    0    0  501  0.00000000000E+00  0.00000000000E+00 -0.11042486526E+03  0.11042486537E+03  0.50400001928E-02 0. -1.
    10030    2    1    2    0    0  0.00000000000E+00  0.00000000000E+00  0.45558366200E+03  0.67643339265E+03  0.50000566158E+03 0.  0.
        5    1    3    3  502    0 -0.58012254720E+02 -0.13279759483E+03 -0.47734239397E+02  0.15264753683E+03  0.46999998093E+01 0. -1.
       -5    1    3    3    0  502  0.58012254720E+02  0.13279759483E+03  0.50331790139E+03  0.52378585582E+03  0.46999998093E+01 0.  1.
</event>
<event>
 5   0  0.1227864E-02  0.5000030E+03  0.7818609E-02  0.1013778E+00
       -1   -1    0    0    0  501  0.00000000000E+00  0.00000000000E+00  0.16138676575E+03  0.16138676583E+03  0.50400001928E-02 0. -1.
        1   -1    0    0  501    0  0.00000000000E+00  0.00000000000E+00 -0.38727312618E+03  0.38727312622E+03  0.50400001928E-02 0.  1.
    10030    2    1    2    0    0  0.00000000000E+00  0.00000000000E+00 -0.22588636043E+03  0.54865989205E+03  0.50000302931E+03 0.  0.
        5    1    3    3  502    0  0.46462953053E+02 -0.20230403186E+03 -0.26575340171E+03  0.33724277284E+03  0.46999998093E+01 0.  1.
       -5    1    3    3    0  502 -0.46462953053E+02  0.20230403186E+03  0.39867041283E+02  0.21141711921E+03  0.46999998093E+01 0. -1.
</event>
<event>
 5   0  0.1855407E-02  0.5005061E+03  0.7818609E-02  0.1013647E+00
       -2   -1    0    0    0  501  0.00000000000E+00  0.00000000000E+00  0.76108716273E+02  0.76108716316E+02  0.25500000920E-02 0.  1.
        2   -1    0    0  501    0  0.00000000000E+00  0.00000000000E+00 -0.82285703726E+03  0.82285703726E+03  0.25500000920E-02 0. -1.
    10030    2    1    2    0    0  0.00000000000E+00  0.00000000000E+00 -0.74674832098E+03  0.89896575357E+03  0.50050611506E+03 0.  0.
        1    1    3    3  502    0 -0.41009552510E+02 -0.75151831754E+02 -0.79573591968E+03  0.80032820462E+03  0.50400001928E-02 0. -1.
       -1    1    3    3    0  502  0.41009552510E+02  0.75151831754E+02  0.48987598696E+02  0.98637548958E+02  0.50400001928E-02 0.  1.
</event>
<event>
 5   0  0.1941387E-02  0.5005828E+03  0.7818609E-02  0.1013627E+00
       -2   -1    0    0    0  501  0.00000000000E+00  0.00000000000E+00  0.28722992928E+02  0.28722993041E+02  0.25500000920E-02 0. -1.
        2   -1    0    0  501    0  0.00000000000E+00  0.00000000000E+00 -0.21810329489E+04  0.21810329489E+04  0.25500000920E-02 0.  1.
    10030    2    1    2    0    0  0.00000000000E+00  0.00000000000E+00 -0.21523099560E+04  0.22097559420E+04  0.50058283668E+03 0.  0.
        4    1    3    3  502    0  0.13874726132E+03 -0.20823883048E+03 -0.11003206198E+04  0.11284153900E+04  0.12699999809E+01 0. -1.
       -4    1    3    3    0  502 -0.13874726132E+03  0.20823883048E+03 -0.10519893362E+04  0.10813405520E+04  0.12699999809E+01 0.  1.
</event>
<event>
 5   0  0.1941387E-02  0.5011422E+03  0.7818609E-02  0.1013481E+00
        2   -1    0    0  501    0  0.00000000000E+00  0.00000000000E+00  0.83435943785E+03  0.83435943785E+03  0.25500000920E-02 0. -1.
       -2   -1    0    0    0  501  0.00000000000E+00  0.00000000000E+00 -0.75250392952E+02  0.75250392995E+02  0.25500000920E-02 0.  1.
    10030    2    1    2    0    0  0.00000000000E+00  0.00000000000E+00  0.75910904490E+03  0.90960983085E+03  0.50114219771E+03 0.  0.
        4    1    3    3  502    0  0.23612763375E+03 -0.82107550040E+02  0.34883988380E+03  0.42917221092E+03  0.12699999809E+01 0. -1.
       -4    1    3    3    0  502 -0.23612763375E+03  0.82107550040E+02  0.41026916110E+03  0.48043761993E+03  0.12699999809E+01 0.  1.
</event>
<event>
 5   0  0.1209831E-02  0.4995929E+03  0.7818609E-02  0.1013885E+00
        1   -1    0    0  501    0  0.00000000000E+00  0.00000000000E+00  0.13315525823E+03  0.13315525833E+03  0.50400001928E-02 0.  1.
       -1   -1    0    0    0  501  0.00000000000E+00  0.00000000000E+00 -0.46861283984E+03  0.46861283987E+03  0.50400001928E-02 0. -1.
    10030    2    1    2    0    0  0.00000000000E+00  0.00000000000E+00 -0.33545758161E+03  0.60176809820E+03  0.49959288921E+03 0.  0.
        4    1    3    3  502    0  0.13936760332E+03  0.20622110488E+03 -0.14228587201E+03  0.28670081135E+03  0.12699999809E+01 0. -1.
       -4    1    3    3    0  502 -0.13936760332E+03 -0.20622110488E+03 -0.19317170960E+03  0.31506728685E+03  0.12699999809E+01 0.  1.
</event>
<event>
 5   0  0.1225989E-02  0.5003079E+03  0.7818609E-02  0.1013699E+00
        1   -1    0    0  501    0  0.00000000000E+00  0.00000000000E+00  0.71485700765E+03  0.71485700767E+03  0.50400001928E-02 0. -1.
       -1   -1    0    0    0  501  0.00000000000E+00  0.00000000000E+00 -0.87537768796E+02  0.87537768941E+02  0.50400001928E-02 0.  1.
    10030    2    1    2    0    0  0.00000000000E+00  0.00000000000E+00  0.62731923886E+03  0.80239477661E+03  0.50030785532E+03 0.  0.
        3    1    3    3  502    0  0.23462950668E+03 -0.82582730847E+02  0.35627564597E+03  0.43451496976E+03  0.10100000352E+00 0.  1.
       -3    1    3    3    0  502 -0.23462950668E+03  0.82582730847E+02  0.27104359289E+03  0.36787980685E+03  0.10100000352E+00 0. -1.
</event>
<event>
 5   0  0.1180937E-02  0.4991756E+03  0.7818609E-02  0.1013994E+00
        1   -1    0    0  501    0  0.00000000000E+00  0.00000000000E+00  0.30738099975E+03  0.30738099980E+03  0.50400001928E-02 0. -1.
       -1   -1    0    0    0  501  0.00000000000E+00  0.00000000000E+00 -0.20266077798E+03  0.20266077805E+03  0.50400001928E-02 0.  1.
    10030    2    1    2    0    0  0.00000000000E+00  0.00000000000E+00  0.10472022177E+03  0.51004177784E+03  0.49917561068E+03 0.  0.
        1    1    3    3  502    0 -0.52221710292E+02 -0.64281089321E+02  0.29293154376E+03  0.30441428157E+03  0.50400001928E-02 0. -1.
       -1    1    3    3    0  502  0.52221710292E+02  0.64281089321E+02 -0.18821132199E+03  0.20562749627E+03  0.50400001928E-02 0.  1.
</event>
<event>
 5   0  0.1941387E-02  0.5000302E+03  0.7818609E-02  0.1013771E+00
       -2   -1    0    0    0  501  0.00000000000E+00  0.00000000000E+00  0.61091192310E+02  0.61091192363E+02  0.25500000920E-02 0. -1.
        2   -1    0    0  501    0  0.00000000000E+00  0.00000000000E+00 -0.10231844380E+04  0.10231844380E+04  0.25500000920E-02 0.  1.
    10030    2    1    2    0    0  0.00000000000E+00  0.00000000000E+00 -0.96209324566E+03  0.10842756303E+04  0.50003022828E+03 0.  0.
        4    1    3    3  502    0  0.27993024082E+02 -0.11517560063E+01  0.57669463622E+02  0.64127341076E+02  0.12699999809E+01 0. -1.
       -4    1    3    3    0  502 -0.27993024082E+02  0.11517560063E+01 -0.10197627093E+04  0.10201482893E+04  0.12699999809E+01 0.  1.
</event>
<event>
 5   0  0.1209831E-02  0.5007735E+03  0.7818609E-02  0.1013577E+00
       -1   -1    0    0    0  501  0.00000000000E+00  0.00000000000E+00  0.24439797337E+03  0.24439797342E+03  0.50400001928E-02 0. -1.
        1   -1    0    0  501    0  0.00000000000E+00  0.00000000000E+00 -0.25652225942E+03  0.25652225947E+03  0.50400001928E-02 0.  1.
    10030    2    1    2    0    0  0.00000000000E+00  0.00000000000E+00 -0.12124286051E+02  0.50092023289E+03  0.50077348313E+03 0.  0.
        4    1    3    3  502    0 -0.56833951975E+02 -0.10708358319E+03  0.21307947589E+03  0.24515600713E+03  0.12699999809E+01 0. -1.
       -4    1    3    3    0  502  0.56833951975E+02  0.10708358319E+03 -0.22520376194E+03  0.25576422576E+03  0.12699999809E+01 0.  1.
</event>
<event>
 5   0  0.8012875E-03  0.4989252E+03  0.7818609E-02  0.1014060E+00
        3   -1    0    0  501    0  0.00000000000E+00  0.00000000000E+00  0.65368812158E+03  0.65368812938E+03  0.10100000352E+00 0.  1.
       -3   -1    0    0    0  501  0.00000000000E+00  0.00000000000E+00 -0.95200685284E+02  0.95200738860E+02  0.10100000352E+00 0. -1.
    10030    2    1    2    0    0  0.00000000000E+00  0.00000000000E+00  0.55848743630E+03  0.74888886824E+03  0.49892516521E+03 0.  0.
        4    1    3    3  502    0 -0.18362906264E+03 -0.14594783855E+03  0.15179471711E+03  0.27939873526E+03  0.12699999809E+01 0. -1.
       -4    1    3    3    0  502  0.18362906264E+03  0.14594783855E+03  0.40669271919E+03  0.46949013298E+03  0.12699999809E+01 0.  1.
</event>
<event>
 5   0  0.1855407E-02  0.5004564E+03  0.7818609E-02  0.1013660E+00
       -2   -1    0    0    0  501  0.00000000000E+00  0.00000000000E+00  0.68211428286E+02  0.68211428334E+02  0.25500000920E-02 0. -1.
        2   -1    0    0  501    0  0.00000000000E+00  0.00000000000E+00 -0.91794210998E+03  0.91794210999E+03  0.25500000920E-02 0.  1.
    10030    2    1    2    0    0  0.00000000000E+00  0.00000000000E+00 -0.84973068170E+03  0.98615353832E+03  0.50045636146E+03 0.  0.
        1    1    3    3  502    0  0.22341943020E+03  0.27315894543E+01 -0.20288390985E+03  0.30180388379E+03  0.50400001928E-02 0. -1.
       -1    1    3    3    0  502 -0.22341943020E+03 -0.27315894543E+01 -0.64684677185E+03  0.68434965453E+03  0.50400001928E-02 0.  1.
</event>
<event>
 5   0  0.1225989E-02  0.4994258E+03  0.7818609E-02  0.1013929E+00
       -1   -1    0    0    0  501  0.00000000000E+00  0.00000000000E+00  0.34898472727E+03  0.34898472731E+03  0.50400001928E-02 0.  1.
        1   -1    0    0  501    0  0.00000000000E+00  0.00000000000E+00 -0.17867984305E+03  0.17867984312E+03  0.50400001928E-02 0. -1.
    10030    2    1    2    0    0  0.00000000000E+00  0.00000000000E+00  0.17030488422E+03  0.52766457043E+03  0.49942581561E+03 0.  0.
        3    1    3    3  502    0 -0.70281839523E+02  0.11932084534E+03  0.30469861842E+03  0.33469128966E+03  0.10100000352E+00 0.  1.
       -3    1    3    3    0  502  0.70281839523E+02 -0.11932084534E+03 -0.13439373420E+03  0.19297328078E+03  0.10100000352E+00 0. -1.
</event>
<event>
 5   0  0.1923706E-02  0.5002728E+03  0.7818609E-02  0.1013708E+00
       -2   -1    0    0    0  501  0.00000000000E+00  0.00000000000E+00  0.15275924972E+03  0.15275924975E+03  0.25500000920E-02 0.  1.
        2   -1    0    0  501    0  0.00000000000E+00  0.00000000000E+00 -0.40958717336E+03  0.40958717337E+03  0.25500000920E-02 0. -1.
    10030    2    1    2    0    0  0.00000000000E+00  0.00000000000E+00 -0.25682792364E+03  0.56234642312E+03  0.50027284279E+03 0.  0.
        3    1    3    3  502    0  0.25854661030E+02  0.20544823656E+03 -0.28614909755E+03  0.35321205759E+03  0.10100000352E+00 0.  1.
       -3    1    3    3    0  502 -0.25854661030E+02 -0.20544823656E+03  0.29321173909E+02  0.20913436552E+03  0.10100000352E+00 0. -1.
</event>
<event>
 5   0  0.1855407E-02  0.5002831E+03  0.7818609E-02  0.1013705E+00
       -2   -1    0    0    0  501  0.00000000000E+00  0.00000000000E+00  0.12367384992E+03  0.12367384995E+03  0.25500000920E-02 0.  1.
        2   -1    0    0  501    0  0.00000000000E+00  0.00000000000E+00 -0.50593384589E+03  0.50593384590E+03  0.25500000920E-02 0. -1.
    10030    2    1    2    0    0  0.00000000000E+00  0.00000000000E+00 -0.38225999597E+03  0.62960769584E+03  0.50028306602E+03 0.  0.
        1    1    3    3  502    0 -0.18875217427E+02 -0.20961707505E+03 -0.20998302811E+02  0.21151009605E+03  0.50400001928E-02 0.  1.
       -1    1    3    3    0  502  0.18875217427E+02  0.20961707505E+03 -0.36126169316E+03  0.41809759979E+03  0.50400001928E-02 0. -1.
</event>
<event>
 5   0  0.1225989E-02  0.5001333E+03  0.7818609E-02  0.1013744E+00
        1   -1    0    0  501    0  0.00000000000E+00  0.00000000000E+00  0.58835561028E+03  0.58835561030E+03  0.50400001928E-02 0. -1.
       -1   -1    0    0    0  501  0.00000000000E+00  0.00000000000E+00 -0.10628490349E+03  0.10628490361E+03  0.50400001928E-02 0.  1.
    10030    2    1    2    0    0  0.00000000000E+00  0.00000000000E+00  0.48207070680E+03  0.69464051391E+03  0.50013325946E+03 0.  0.
        3    1    3    3  502    0  0.40715704499E+02 -0.64626573299E+02  0.57175642585E+03  0.57683601072E+03  0.10100000352E+00 0. -1.
       -3    1    3    3    0  502 -0.40715704499E+02  0.64626573299E+02 -0.89685719048E+02  0.11780450319E+03  0.10100000352E+00 0.  1.
</event>
<event>
 5   0  0.1217270E-02  0.5004482E+03  0.7818609E-02  0.1013662E+00
       -1   -1    0    0    0  501  0.00000000000E+00  0.00000000000E+00  0.15876814358E+03  0.15876814366E+03  0.50400001928E-02 0. -1.
        1   -1    0    0  501    0  0.00000000000E+00  0.00000000000E+00 -0.39436188009E+03  0.39436188012E+03  0.50400001928E-02 0.  1.
    10030    2    1    2    0    0  0.00000000000E+00  0.00000000000E+00 -0.23559373651E+03  0.55313002378E+03  0.50044821363E+03 0.  0.
        2    1    3    3  502    0  0.32002311462E+02  0.11821364185E+03  0.12337858292E+03  0.17384155944E+03  0.25500000920E-02 0. -1.
       -2    1    3    3    0  502 -0.32002311462E+02 -0.11821364185E+03 -0.35897231943E+03  0.37928846434E+03  0.25500000920E-02 0.  1.
</event>
<event>
 5   0  0.1982847E-02  0.4997112E+03  0.7818609E-02  0.1013854E+00
        2   -1    0    0  501    0  0.00000000000E+00  0.00000000000E+00  0.66264644380E+03  0.66264644381E+03  0.25500000920E-02 0. -1.
       -2   -1    0    0    0  501  0.00000000000E+00  0.00000000000E+00 -0.94209841905E+02  0.94209841939E+02  0.25500000920E-02 0.  1.
    10030    2    1    2    0    0  0.00000000000E+00  0.00000000000E+00  0.56843660190E+03  0.75685628574E+03  0.49971118348E+03 0.  0.
        2    1    3    3  502    0  0.34611981254E+02 -0.19727573339E+02  0.65780488938E+03  0.65901019635E+03  0.25500000920E-02 0. -1.
       -2    1    3    3    0  502 -0.34611981254E+02  0.19727573339E+02 -0.89368287482E+02  0.97846089396E+02  0.25500000920E-02 0.  1.
</event>
<event>
 5   0  0.1982847E-02  0.4971744E+03  0.7818609E-02  0.1014519E+00
        2   -1    0    0  501    0  0.00000000000E+00  0.00000000000E+00  0.35691031030E+03  0.35691031031E+03  0.25500000920E-02 0. -1.
       -2   -1    0    0    0  501  0.00000000000E+00  0.00000000000E+00 -0.17314040727E+03  0.17314040729E+03  0.25500000920E-02 0.  1.
    10030    2    1    2    0    0  0.00000000000E+00  0.00000000000E+00  0.18376990303E+03  0.53005071760E+03  0.49717440196E+03 0.  0.
        2    1    3    3  502    0 -0.22239860762E+03 -0.10871514541E+03  0.11609031539E+03  0.27341741870E+03  0.25500000920E-02 0. -1.
       -2    1    3    3    0  502  0.22239860762E+03  0.10871514541E+03  0.67679587647E+02  0.25663329890E+03  0.25500000920E-02 0.  1.
</event>
<event>
 5   0  0.1180937E-02  0.4993763E+03  0.7818609E-02  0.1013942E+00
       -1   -1    0    0    0  501  0.00000000000E+00  0.00000000000E+00  0.13324991864E+03  0.13324991874E+03  0.50400001928E-02 0.  1.
        1   -1    0    0  501    0  0.00000000000E+00  0.00000000000E+00 -0.46787395893E+03  0.46787395896E+03  0.50400001928E-02 0. -1.
    10030    2    1    2    0    0  0.00000000000E+00  0.00000000000E+00 -0.33462404029E+03  0.60112387770E+03  0.49937627897E+03 0.  0.
        1    1    3    3  502    0 -0.21466892634E+03 -0.85123871323E+02 -0.53017012893E+02  0.23693801950E+03  0.50400001928E-02 0.  1.
       -1    1    3    3    0  502  0.21466892634E+03  0.85123871323E+02 -0.28160702740E+03  0.36418585819E+03  0.50400001928E-02 0. -1.
</event>
<event>
 5   0  0.8012875E-03  0.5002334E+03  0.7818609E-02  0.1013718E+00
       -4   -1    0    0    0  501  0.00000000000E+00  0.00000000000E+00  0.13720004275E+03  0.13720592054E+03  0.12699999809E+01 0. -1.
        4   -1    0    0  501    0  0.00000000000E+00  0.00000000000E+00 -0.45594799965E+03  0.45594976838E+03  0.12699999809E+01 0.  1.
    10030    2    1    2    0    0  0.00000000000E+00  0.00000000000E+00 -0.31874795690E+03  0.59315568891E+03  0.50023335681E+03 0.  0.
        3    1    3    3  502    0 -0.53663312952E+02 -0.21377629449E+03 -0.19182042144E+02  0.22124198558E+03  0.10100000352E+00 0. -1.
       -3    1    3    3    0  502  0.53663312952E+02  0.21377629449E+03 -0.29956591476E+03  0.37191370333E+03  0.10100000352E+00 0.  1.
</event>
<event>
 5   0  0.1855407E-02  0.4982099E+03  0.7818609E-02  0.1014247E+00
        2   -1    0    0  501    0  0.00000000000E+00  0.00000000000E+00  0.81852370559E+03  0.81852370559E+03  0.25500000920E-02 0.  1.
       -2   -1    0    0    0  501  0.00000000000E+00  0.00000000000E+00 -0.75811210138E+02  0.75811210181E+02  0.25500000920E-02 0. -1.
    10030    2    1    2    0    0  0.00000000000E+00  0.00000000000E+00  0.74271249545E+03  0.89433491577E+03  0.49820988617E+03 0.  0.
        1    1    3    3  502    0  0.18043485724E+03 -0.15890475476E+03  0.25438790949E+03  0.35002952348E+03  0.50400001928E-02 0. -1.
       -1    1    3    3    0  502 -0.18043485724E+03  0.15890475476E+03  0.48832458596E+03  0.54430539229E+03  0.50400001928E-02 0.  1.
</event>
<event>
 5   0  0.1209831E-02  0.4999747E+03  0.7818609E-02  0.1013786E+00
       -1   -1    0    0    0  501  0.00000000000E+00  0.00000000000E+00  0.20173174770E+03  0.20173174776E+03  0.50400001928E-02 0.  1.
        1   -1    0    0  501    0  0.00000000000E+00  0.00000000000E+00 -0.30978601757E+03  0.30978601761E+03  0.50400001928E-02 0. -1.
    10030    2    1    2    0    0  0.00000000000E+00  0.00000000000E+00 -0.10805426987E+03  0.51151776537E+03  0.49997469841E+03 0.  0.
        4    1    3    3  502    0 -0.12875190954E+03  0.90256267246E+02  0.14480169995E+03  0.21375779096E+03  0.12699999809E+01 0.  1.
       -4    1    3    3    0  502  0.12875190954E+03 -0.90256267246E+02 -0.25285596982E+03  0.29775997441E+03  0.12699999809E+01 0. -1.
</event>
<event>
 5   0  0.1855407E-02  0.4997102E+03  0.7818609E-02  0.1013855E+00
        2   -1    0    0  501    0  0.00000000000E+00  0.00000000000E+00  0.50120051183E+03  0.50120051184E+03  0.25500000920E-02 0. -1.
       -2   -1    0    0    0  501  0.00000000000E+00  0.00000000000E+00 -0.12455608733E+03  0.12455608736E+03  0.25500000920E-02 0.  1.
    10030    2    1    2    0    0  0.00000000000E+00  0.00000000000E+00  0.37664442450E+03  0.62575659920E+03  0.49971021495E+03 0.  0.
        1    1    3    3  502    0 -0.93079220512E+02  0.19468552931E+03  0.30612779405E+02  0.21795260701E+03  0.50400001928E-02 0.  1.
       -1    1    3    3    0  502  0.93079220512E+02 -0.19468552931E+03  0.34603164510E+03  0.40780399219E+03  0.50400001928E-02 0. -1.
</event>
<event>
 5   0  0.1180937E-02  0.5051271E+03  0.7818609E-02  0.1012449E+00
       -1   -1    0    0    0  501  0.00000000000E+00  0.00000000000E+00  0.45230578234E+02  0.45230578515E+02  0.50400001928E-02 0.  1.
        1   -1    0    0  501    0  0.00000000000E+00  0.00000000000E+00 -0.14102924245E+04  0.14102924245E+04  0.50400001928E-02 0. -1.
    10030    2    1    2    0    0  0.00000000000E+00  0.00000000000E+00 -0.13650618463E+04  0.14555230030E+04  0.50512708124E+03 0.  0.
        1    1    3    3  502    0 -0.25055132173E+03  0.28749060975E+02 -0.64324639417E+03  0.69091851688E+03  0.50400001928E-02 0. -1.
       -1    1    3    3    0  502  0.25055132173E+03 -0.28749060975E+02 -0.72181545212E+03  0.76460448617E+03  0.50400001928E-02 0.  1.
</event>
<event>
 5   0  0.1941387E-02  0.4998377E+03  0.7818609E-02  0.1013821E+00
        2   -1    0    0  501    0  0.00000000000E+00  0.00000000000E+00  0.57516500939E+03  0.57516500940E+03  0.25500000920E-02 0. -1.
       -2   -1    0    0    0  501  0.00000000000E+00  0.00000000000E+00 -0.10859393970E+03  0.10859393973E+03  0.25500000920E-02 0.  1.
    10030    2    1    2    0    0  0.00000000000E+00  0.00000000000E+00  0.46657106969E+03  0.68375894913E+03  0.49983771111E+03 0.  0.
        4    1    3    3  502    0  0.37802724242E+02  0.24220074917E+03  0.29984742672E+03  0.38729877494E+03  0.12699999809E+01 0.  1.
       -4    1    3    3    0  502 -0.37802724242E+02 -0.24220074917E+03  0.16672364297E+03  0.29646017419E+03  0.12699999809E+01 0. -1.
</event>
<event>
 5   0  0.1227864E-02  0.4998769E+03  0.7818609E-02  0.1013811E+00
       -1   -1    0    0    0  501  0.00000000000E+00  0.00000000000E+00  0.27070453508E+03  0.27070453513E+03  0.50400001928E-02 0. -1.
        1   -1    0    0  501    0  0.00000000000E+00  0.00000000000E+00 -0.23076535920E+03  0.23076535926E+03  0.50400001928E-02 0.  1.
    10030    2    1    2    0    0  0.00000000000E+00  0.00000000000E+00  0.39939175877E+02  0.50146989439E+03  0.49987690205E+03 0.  0.
        5    1    3    3  502    0  0.17662473285E+01  0.23515798477E+03  0.10476552959E+03  0.25748845337E+03  0.46999998093E+01 0. -1.
       -5    1    3    3    0  502 -0.17662473285E+01 -0.23515798477E+03 -0.64826353709E+02  0.24398144102E+03  0.46999998093E+01 0.  1.
</event>
<event>
 5   0  0.1923706E-02  0.4999969E+03  0.7818609E-02  0.1013780E+00
        2   -1    0    0  501    0  0.00000000000E+00  0.00000000000E+00  0.10901559973E+04  0.10901559973E+04  0.25500000920E-02 0. -1.
       -2   -1    0    0    0  501  0.00000000000E+00  0.00000000000E+00 -0.57330543013E+02  0.57330543070E+02  0.25500000920E-02 0.  1.
    10030    2    1    2    0    0  0.00000000000E+00  0.00000000000E+00  0.10328254543E+04  0.11474865404E+04  0.49999694131E+03 0.  0.
        3    1    3    3  502    0  0.15069643340E+03  0.78622304766E+02  0.93714304148E+03  0.95243266022E+03  0.10100000352E+00 0. -1.
       -3    1    3    3    0  502 -0.15069643340E+03 -0.78622304766E+02  0.95682412828E+02  0.19505388018E+03  0.10100000352E+00 0.  1.
</event>
<event>
 5   0  0.1982847E-02  0.5010597E+03  0.7818609E-02  0.1013503E+00
       -2   -1    0    0    0  501  0.00000000000E+00  0.00000000000E+00  0.25913828672E+03  0.25913828673E+03  0.25500000920E-02 0.  1.
        2   -1    0    0  501    0  0.00000000000E+00  0.00000000000E+00 -0.24220737169E+03  0.24220737170E+03  0.25500000920E-02 0. -1.
    10030    2    1    2    0    0  0.00000000000E+00  0.00000000000E+00  0.16930915028E+02  0.50134565843E+03  0.50105969040E+03 0.  0.
        2    1    3    3  502    0 -0.20290528563E+03  0.35498940763E+02 -0.13421492329E+03  0.24585437839E+03  0.25500000920E-02 0. -1.
       -2    1    3    3    0  502  0.20290528563E+03 -0.35498940763E+02  0.15114583832E+03  0.25549128005E+03  0.25500000920E-02 0.  1.
</event>
<event>
 5   0  0.1855407E-02  0.4999192E+03  0.7818609E-02  0.1013800E+00
        2   -1    0    0  501    0  0.00000000000E+00  0.00000000000E+00  0.67567997244E+03  0.67567997244E+03  0.25500000920E-02 0.  1.
       -2   -1    0    0    0  501  0.00000000000E+00  0.00000000000E+00 -0.92469535512E+02  0.92469535548E+02  0.25500000920E-02 0. -1.
    10030    2    1    2    0    0  0.00000000000E+00  0.00000000000E+00  0.58321043693E+03  0.76814950799E+03  0.49991924637E+03 0.  0.
        1    1    3    3  502    0 -0.22803224350E+03  0.61704318870E+00  0.13430054241E+03  0.26464262796E+03  0.50400001928E-02 0. -1.
       -1    1    3    3    0  502  0.22803224350E+03 -0.61704318870E+00  0.44890989451E+03  0.50350688003E+03  0.50400001928E-02 0.  1.
</event>
<event>
 5   0  0.1217270E-02  0.4998091E+03  0.7818609E-02  0.1013829E+00
       -1   -1    0    0    0  501  0.00000000000E+00  0.00000000000E+00  0.74802427260E+02  0.74802427430E+02  0.50400001928E-02 0.  1.
        1   -1    0    0  501    0  0.00000000000E+00  0.00000000000E+00 -0.83489639911E+03  0.83489639912E+03  0.50400001928E-02 0. -1.
    10030    2    1    2    0    0  0.00000000000E+00  0.00000000000E+00 -0.76009397185E+03  0.90969882655E+03  0.49980907254E+03 0.  0.
        2    1    3    3  502    0  0.22322379010E+03 -0.83927429614E+01 -0.58397030646E+03  0.62523644923E+03  0.25500000920E-02 0. -1.
       -2    1    3    3    0  502 -0.22322379010E+03  0.83927429614E+01 -0.17612366538E+03  0.28446237733E+03  0.25500000920E-02 0.  1.
</event>
<event>
 5   0  0.1982847E-02  0.4996190E+03  0.7818609E-02  0.1013878E+00
        2   -1    0    0  501    0  0.00000000000E+00  0.00000000000E+00  0.12394642111E+04  0.12394642111E+04  0.25500000920E-02 0. -1.
       -2   -1    0    0    0  501  0.00000000000E+00  0.00000000000E+00 -0.50348191006E+02  0.50348191070E+02  0.25500000920E-02 0.  1.
    10030    2    1    2    0    0  0.00000000000E+00  0.00000000000E+00  0.11891160201E+04  0.12898124022E+04  0.49961897837E+03 0.  0.
        2    1    3    3  502    0  0.19325614793E+03 -0.15446028900E+03  0.50517147757E+03  0.56249812564E+03  0.25500000920E-02 0. -1.
       -2    1    3    3    0  502 -0.19325614793E+03  0.15446028900E+03  0.68394454250E+03  0.72731427651E+03  0.25500000920E-02 0.  1.
</event>
<event>
 5   0  0.1225989E-02  0.4999066E+03  0.7818609E-02  0.1013803E+00
        1   -1    0    0  501    0  0.00000000000E+00  0.00000000000E+00  0.47358921431E+03  0.47358921434E+03  0.50400001928E-02 0.  1.
       -1   -1    0    0    0  501  0.00000000000E+00  0.00000000000E+00 -0.13192162888E+03  0.13192162898E+03  0.50400001928E-02 0. -1.
    10030    2    1    2    0    0  0.00000000000E+00  0.00000000000E+00  0.34166758543E+03  0.60551084332E+03  0.49990663372E+03 0.  0.
        3    1    3    3  502    0 -0.53692737510E+02  0.23366111436E+03  0.85217981743E+02  0.25444555614E+03  0.10100000352E+00 0. -1.
       -3    1    3    3    0  502  0.53692737510E+02 -0.23366111436E+03  0.25644960369E+03  0.35106528718E+03  0.10100000352E+00 0.  1.
</event>
<event>
 5   0  0.1217270E-02  0.4998482E+03  0.7818609E-02  0.1013819E+00
       -1   -1    0    0    0  501  0.00000000000E+00  0.00000000000E+00  0.76370954924E+02  0.76370955091E+02  0.50400001928E-02 0. -1.
        1   -1    0    0  501    0  0.00000000000E+00  0.00000000000E+00 -0.81787722133E+03  0.81787722134E+03  0.50400001928E-02 0.  1.
    10030    2    1    2    0    0  0.00000000000E+00  0.00000000000E+00 -0.74150626640E+03  0.89424817643E+03  0.49984823491E+03 0.  0.
        2    1    3    3  502    0 -0.13993284379E+03  0.18741786243E+03 -0.52830452384E+03  0.57776493996E+03  0.25500000920E-02 0.  1.
       -2    1    3    3    0  502  0.13993284379E+03 -0.18741786243E+03 -0.21320174257E+03  0.31648323648E+03  0.25500000920E-02 0. -1.
</event>
<event>
 5   0  0.1217270E-02  0.4977514E+03  0.7818609E-02  0.1014367E+00
        1   -1    0    0  501    0  0.00000000000E+00  0.00000000000E+00  0.14187914136E+03  0.14187914145E+03  0.50400001928E-02 0.  1.
       -1   -1    0    0    0  501  0.00000000000E+00  0.00000000000E+00 -0.43656257138E+03  0.43656257141E+03  0.50400001928E-02 0. -1.
    10030    2    1    2    0    0  0.00000000000E+00  0.00000000000E+00 -0.29468343002E+03  0.57844171286E+03  0.49775143520E+03 0.  0.
        2    1    3    3  502    0  0.13236254994E+03  0.18415088939E+03 -0.26646632615E+03  0.34990812747E+03  0.25500000920E-02 0. -1.
       -2    1    3    3    0  502 -0.13236254994E+03 -0.18415088939E+03 -0.28217103871E+02  0.22853358538E+03  0.25500000920E-02 0.  1.
</event>
<event>
 5   0  0.1227864E-02  0.4996612E+03  0.7818609E-02  0.1013867E+00
       -1   -1    0    0    0  501  0.00000000000E+00  0.00000000000E+00  0.10967791981E+03  0.10967791992E+03  0.50400001928E-02 0. -1.
        1   -1    0    0  501    0  0.00000000000E+00  0.00000000000E+00 -0.56907841915E+03  0.56907841918E+03  0.50400001928E-02 0.  1.
    10030    2    1    2    0    0  0.00000000000E+00  0.00000000000E+00 -0.45940049935E+03  0.67875633910E+03  0.49966123431E+03 0.  0.
        5    1    3    3  502    0 -0.11920789145E+03 -0.83013912529E+02 -0.50573777889E+03  0.52620777460E+03  0.46999998093E+01 0.  1.
       -5    1    3    3    0  502  0.11920789145E+03  0.83013912529E+02  0.46337279546E+02  0.15254856450E+03  0.46999998093E+01 0. -1.
</event>
<event>
 5   0  0.1855407E-02  0.4999718E+03  0.7818609E-02  0.1013786E+00
       -2   -1    0    0    0  501  0.00000000000E+00  0.00000000000E+00  0.30624349858E+02  0.30624349964E+02  0.25500000920E-02 0. -1.
        2   -1    0    0  501    0  0.00000000000E+00  0.00000000000E+00 -0.20406296942E+04  0.20406296942E+04  0.25500000920E-02 0.  1.
    10030    2    1    2    0    0  0.00000000000E+00  0.00000000000E+00 -0.20100053443E+04  0.20712540441E+04  0.49997183039E+03 0.  0.
        1    1    3    3  502    0 -0.14578401878E+03  0.24593899243E+02 -0.18401028860E+04  0.18460326300E+04  0.50400001928E-02 0.  1.
       -1    1    3    3    0  502  0.14578401878E+03 -0.24593899243E+02 -0.16990245832E+03  0.22522141412E+03  0.50400001928E-02 0. -1.
</event>
<event>
 5   0  0.1941387E-02  0.5002444E+03  0.7818609E-02  0.1013715E+00
        2   -1    0    0  501    0  0.00000000000E+00  0.00000000000E+00  0.63814369948E+03  0.63814369948E+03  0.25500000920E-02 0. -1.
       -2   -1    0    0    0  501  0.00000000000E+00  0.00000000000E+00 -0.98036109684E+02  0.98036109717E+02  0.25500000920E-02 0.  1.
    10030    2    1    2    0    0  0.00000000000E+00  0.00000000000E+00  0.54010758979E+03  0.73617980920E+03  0.50024444317E+03 0.  0.
        4    1    3    3  502    0 -0.11639059531E+02 -0.51652039154E+02  0.62979716200E+03  0.63202015713E+03  0.12699999809E+01 0. -1.
       -4    1    3    3    0  502  0.11639059531E+02  0.51652039154E+02 -0.89689572209E+02  0.10415965207E+03  0.12699999809E+01 0.  1.
</event>
<event>
 5   0  0.1923706E-02  0.4998402E+03  0.7818609E-02  0.1013821E+00
        2   -1    0    0  501    0  0.00000000000E+00  0.00000000000E+00  0.41626067045E+03  0.41626067046E+03  0.25500000920E-02 0.  1.
       -2   -1    0    0    0  501  0.00000000000E+00  0.00000000000E+00 -0.15005037189E+03  0.15005037191E+03  0.25500000920E-02 0. -1.
    10030    2    1    2    0    0  0.00000000000E+00  0.00000000000E+00  0.26621029856E+03  0.56631104237E+03  0.49984024813E+03 0.  0.
        3    1    3    3  502    0  0.14291335116E+03 -0.14588605426E+03 -0.30111781287E+02  0.20643085123E+03  0.10100000352E+00 0.  1.
       -3    1    3    3    0  502 -0.14291335116E+03  0.14588605426E+03  0.29632207985E+03  0.35988019114E+03  0.10100000352E+00 0. -1.
</event>
<event>
 5   0  0.8012875E-03  0.5004267E+03  0.7818609E-02  0.1013668E+00
       -4   -1    0    0    0  501  0.00000000000E+00  0.00000000000E+00  0.16687863947E+03  0.16688347196E+03  0.12699999809E+01 0. -1.
        4   -1    0    0  501    0  0.00000000000E+00  0.00000000000E+00 -0.37515183425E+03  0.37515398391E+03  0.12699999809E+01 0.  1.
    10030    2    1    2    0    0  0.00000000000E+00  0.00000000000E+00 -0.20827319478E+03  0.54203745586E+03  0.50042669783E+03 0.  0.
        1    1    3    3  502    0  0.14456028786E+03  0.86178542084E+02 -0.30468712789E+03  0.34807853118E+03  0.50400001928E-02 0.  1.
       -1    1    3    3    0  502 -0.14456028786E+03 -0.86178542084E+02  0.96413933113E+02  0.19395892468E+03  0.50400001928E-02 0. -1.
</event>
<event>
 5   0  0.8012875E-03  0.5003996E+03  0.7818609E-02  0.1013675E+00
        4   -1    0    0  501    0  0.00000000000E+00  0.00000000000E+00  0.52726764606E+03  0.52726917554E+03  0.12699999809E+01 0.  1.
       -4   -1    0    0    0  501  0.00000000000E+00  0.00000000000E+00 -0.11872008536E+03  0.11872687803E+03  0.12699999809E+01 0. -1.
    10030    2    1    2    0    0  0.00000000000E+00  0.00000000000E+00  0.40854756070E+03  0.64599605358E+03  0.50039963218E+03 0.  0.
        2    1    3    3  502    0  0.36340656123E+02 -0.20474578749E+03  0.24656396578E+02  0.20940252788E+03  0.25500000920E-02 0. -1.
       -2    1    3    3    0  502 -0.36340656123E+02  0.20474578749E+03  0.38389116412E+03  0.43659352570E+03  0.25500000920E-02 0.  1.
</event>
<event>
 5   0  0.1227864E-02  0.5001754E+03  0.7818609E-02  0.1013733E+00
        1   -1    0    0  501    0  0.00000000000E+00  0.00000000000E+00  0.13403542657E+03  0.13403542667E+03  0.50400001928E-02 0.  1.
       -1   -1    0    0    0  501  0.00000000000E+00  0.00000000000E+00 -0.46662191022E+03  0.46662191025E+03  0.50400001928E-02 0. -1.
    10030    2    1    2    0    0  0.00000000000E+00  0.00000000000E+00 -0.33258648365E+03  0.60065733691E+03  0.50017543650E+03 0.  0.
        5    1    3    3  502    0 -0.66067925459E+02 -0.23782075398E+03 -0.11828611375E+03  0.27374692053E+03  0.46999998093E+01 0.  1.
       -5    1    3    3    0  502  0.66067925459E+02  0.23782075398E+03 -0.21430036990E+03  0.32691041638E+03  0.46999998093E+01 0. -1.
</event>
<event>
 5   0  0.1227864E-02  0.4955061E+03  0.7818609E-02  0.1014959E+00
        1   -1    0    0  501    0  0.00000000000E+00  0.00000000000E+00  0.45728853917E+03  0.45728853919E+03  0.50400001928E-02 0. -1.
       -1   -1    0    0    0  501  0.00000000000E+00  0.00000000000E+00 -0.13422938975E+03  0.13422938984E+03  0.50400001928E-02 0.  1.
    10030    2    1    2    0    0  0.00000000000E+00  0.00000000000E+00  0.32305914942E+03  0.59151792904E+03  0.49550605077E+03 0.  0.
        5    1    3    3  502    0 -0.19630411380E+03 -0.91913015850E+02  0.18396348626E+02  0.21758635807E+03  0.46999998093E+01 0.  1.
       -5    1    3    3    0  502  0.19630411380E+03  0.91913015850E+02  0.30466280079E+03  0.37393157096E+03  0.46999998093E+01 0. -1.
</event>
<event>
 5   0  0.1209831E-02  0.4960222E+03  0.7818609E-02  0.1014822E+00
        1   -1    0    0  501    0  0.00000000000E+00  0.00000000000E+00  0.27259399756E+03  0.27259399761E+03  0.50400001928E-02 0.  1.
       -1   -1    0    0    0  501  0.00000000000E+00  0.00000000000E+00 -0.22564507632E+03  0.22564507638E+03  0.50400001928E-02 0. -1.
    10030    2    1    2    0    0  0.00000000000E+00  0.00000000000E+00  0.46948921244E+02  0.49823907399E+03  0.49602215035E+03 0.  0.
        4    1    3    3  502    0  0.31270563993E+02 -0.21590008217E+03 -0.95023927291E+02  0.23795346879E+03  0.12699999809E+01 0. -1.
       -4    1    3    3    0  502 -0.31270563993E+02  0.21590008217E+03  0.14197284853E+03  0.26028560520E+03  0.12699999809E+01 0.  1.
</event>
<event>
 5   0  0.1180937E-02  0.4991201E+03  0.7818609E-02  0.1014009E+00
        1   -1    0    0  501    0  0.00000000000E+00  0.00000000000E+00  0.29470438814E+03  0.29470438818E+03  0.50400001928E-02 0. -1.
       -1   -1    0    0    0  501  0.00000000000E+00  0.00000000000E+00 -0.21133116331E+03  0.21133116337E+03  0.50400001928E-02 0.  1.
    10030    2    1    2    0    0  0.00000000000E+00  0.00000000000E+00  0.83373224826E+02  0.50603555156E+03  0.49912011062E+03 0.  0.
        1    1    3    3  502    0 -0.18744794784E+02  0.23859492359E+03 -0.30013216715E+02  0.24120468092E+03  0.50400001928E-02 0.  1.
       -1    1    3    3    0  502  0.18744794784E+02 -0.23859492359E+03  0.11338644154E+03  0.26483087064E+03  0.50400001928E-02 0. -1.
</event>
<event>
 5   0  0.1941387E-02  0.5002898E+03  0.7818609E-02  0.1013703E+00
       -2   -1    0    0    0  501  0.00000000000E+00  0.00000000000E+00  0.24578120514E+03  0.24578120515E+03  0.25500000920E-02 0.  1.
        2   -1    0    0  501    0  0.00000000000E+00  0.00000000000E+00 -0.25458605457E+03  0.25458605458E+03  0.25500000920E-02 0. -1.
    10030    2    1    2    0    0  0.00000000000E+00  0.00000000000E+00 -0.88048494273E+01  0.50036725973E+03  0.50028978526E+03 0.  0.
        4    1    3    3  502    0 -0.11311666176E+03 -0.20452278613E+03  0.84751186436E+02  0.24861481395E+03  0.12699999809E+01 0.  1.
       -4    1    3    3    0  502  0.11311666176E+03  0.20452278613E+03 -0.93556035864E+02  0.25175244578E+03  0.12699999809E+01 0. -1.
</event>
<event>
 5   0  0.1967813E-02  0.4923563E+03  0.7818609E-02  0.1015794E+00
        2   -1    0    0  501    0  0.00000000000E+00  0.00000000000E+00  0.56658086006E+03  0.56658086007E+03  0.25500000920E-02 0.  1.
       -2   -1    0    0    0  501  0.00000000000E+00  0.00000000000E+00 -0.10696385103E+03  0.10696385106E+03  0.25500000920E-02 0. -1.
    10030    2    1    2    0    0  0.00000000000E+00  0.00000000000E+00  0.45961700903E+03  0.67354471113E+03  0.49235625608E+03 0.  0.
        5    1    3    3  502    0  0.16549225221E+03 -0.15418542948E+03  0.36258759060E+03  0.42737885191E+03  0.46999998093E+01 0.  1.
       -5    1    3    3    0  502 -0.16549225221E+03  0.15418542948E+03  0.97029418429E+02  0.24616585922E+03  0.46999998093E+01 0. -1.
</event>
<event>
 5   0  0.1227864E-02  0.5005057E+03  0.7818609E-02  0.1013647E+00
        1   -1    0    0  501    0  0.00000000000E+00  0.00000000000E+00  0.71759027262E+03  0.71759027264E+03  0.50400001928E-02 0.  1.
       -1   -1    0    0    0  501  0.00000000000E+00  0.00000000000E+00 -0.87273331860E+02  0.87273332006E+02  0.50400001928E-02 0. -1.
    10030    2    1    2    0    0  0.00000000000E+00  0.00000000000E+00  0.63031694076E+03  0.80486360465E+03  0.50050572052E+03 0.  0.
        5    1    3    3  502    0 -0.61806707571E+00 -0.23222609737E+03  0.46493698921E+03  0.51972861788E+03  0.46999998093E+01 0. -1.
       -5    1    3    3    0  502  0.61806707571E+00  0.23222609737E+03  0.16537995155E+03  0.28513498677E+03  0.46999998093E+01 0.  1.
</event>
<event>
 5   0  0.1855407E-02  0.4999190E+03  0.7818609E-02  0.1013800E+00
       -2   -1    0    0    0  501  0.00000000000E+00  0.00000000000E+00  0.43793656425E+02  0.43793656499E+02  0.25500000920E-02 0. -1.
        2   -1    0    0  501    0  0.00000000000E+00  0.00000000000E+00 -0.14266851295E+04  0.14266851295E+04  0.25500000920E-02 0.  1.
    10030    2    1    2    0    0  0.00000000000E+00  0.00000000000E+00 -0.13828914731E+04  0.14704787860E+04  0.49991902722E+03 0.  0.
        1    1    3    3  502    0 -0.24014998764E+03  0.44185325660E+02 -0.84862400029E+03  0.88305552117E+03  0.50400001928E-02 0. -1.
       -1    1    3    3    0  502  0.24014998764E+03 -0.44185325660E+02 -0.53426747279E+03  0.58742326484E+03  0.50400001928E-02 0.  1.
</event>
<event>
 5   0  0.1982847E-02  0.5003919E+03  0.7818609E-02  0.1013677E+00
       -2   -1    0    0    0  501  0.00000000000E+00  0.00000000000E+00  0.14749404271E+03  0.14749404274E+03  0.25500000920E-02 0.  1.
        2   -1    0    0  501    0  0.00000000000E+00  0.00000000000E+00 -0.42441049734E+03  0.42441049735E+03  0.25500000920E-02 0. -1.
    10030    2    1    2    0    0  0.00000000000E+00  0.00000000000E+00 -0.27691645463E+03  0.57190454009E+03  0.50039192652E+03 0.  0.
        2    1    3    3  502    0 -0.21388187089E+03 -0.16833608596E+01  0.98993539518E+01  0.21411745751E+03  0.25500000920E-02 0.  1.
       -2    1    3    3    0  502  0.21388187089E+03  0.16833608596E+01 -0.28681580858E+03  0.35778708257E+03  0.25500000920E-02 0. -1.
</event>
<event>
 5   0  0.1982847E-02  0.4996970E+03  0.7818609E-02  0.1013858E+00
       -2   -1    0    0    0  501  0.00000000000E+00  0.00000000000E+00  0.86413143545E+02  0.86413143583E+02  0.25500000920E-02 0. -1.
        2   -1    0    0  501    0  0.00000000000E+00  0.00000000000E+00 -0.72239326675E+03  0.72239326676E+03  0.25500000920E-02 0.  1.
    10030    2    1    2    0    0  0.00000000000E+00  0.00000000000E+00 -0.63598012321E+03  0.80880641034E+03  0.49969700048E+03 0.  0.
        2    1    3    3  502    0  0.11124991052E+03 -0.10980608150E+03 -0.25081107426E+01  0.15633364562E+03  0.25500000920E-02 0. -1.
       -2    1    3    3    0  502 -0.11124991052E+03  0.10980608150E+03 -0.63347201246E+03  0.65247276472E+03  0.25500000920E-02 0.  1.
</event>
<event>
 5   0  0.1209831E-02  0.4996749E+03  0.7818609E-02  0.1013864E+00
        1   -1    0    0  501    0  0.00000000000E+00  0.00000000000E+00  0.12072523793E+03  0.12072523804E+03  0.50400001928E-02 0.  1.
       -1   -1    0    0    0  501  0.00000000000E+00  0.00000000000E+00 -0.51703155485E+03  0.51703155487E+03  0.50400001928E-02 0. -1.
    10030    2    1    2    0    0  0.00000000000E+00  0.00000000000E+00 -0.39630631691E+03  0.63775679291E+03  0.49967492440E+03 0.  0.
        4    1    3    3  502    0 -0.16500721011E+02 -0.11518264552E+03 -0.48033137969E+03  0.49422582170E+03  0.12699999809E+01 0. -1.
       -4    1    3    3    0  502  0.16500721011E+02  0.11518264552E+03  0.84025062776E+02  0.14353097121E+03  0.12699999809E+01 0.  1.
</event>
<event>
 5   0  0.1180937E-02  0.5003793E+03  0.7818609E-02  0.1013680E+00
       -1   -1    0    0    0  501  0.00000000000E+00  0.00000000000E+00  0.40217973324E+02  0.40217973640E+02  0.50400001928E-02 0.  1.
        1   -1    0    0  501    0  0.00000000000E+00  0.00000000000E+00 -0.15563903334E+04  0.15563903334E+04  0.50400001928E-02 0. -1.
    10030    2    1    2    0    0  0.00000000000E+00  0.00000000000E+00 -0.15161723601E+04  0.15966083071E+04  0.50037931680E+03 0.  0.
        1    1    3    3  502    0 -0.13578171072E+03  0.20310900367E+03 -0.93006164107E+03  0.96161561788E+03  0.50400001928E-02 0. -1.
       -1    1    3    3    0  502  0.13578171072E+03 -0.20310900367E+03 -0.58611071903E+03  0.63499268919E+03  0.50400001928E-02 0.  1.
</event>
<event>
 5   0  0.1967813E-02  0.4985189E+03  0.7818609E-02  0.1014166E+00
       -2   -1    0    0    0  501  0.00000000000E+00  0.00000000000E+00  0.94035628193E+02  0.94035628228E+02  0.25500000920E-02 0. -1.
        2   -1    0    0  501    0  0.00000000000E+00  0.00000000000E+00 -0.66070981495E+03  0.66070981495E+03  0.25500000920E-02 0.  1.
    10030    2    1    2    0    0  0.00000000000E+00  0.00000000000E+00 -0.56667418676E+03  0.75474544318E+03  0.49851885628E+03 0.  0.
        5    1    3    3  502    0  0.10596900267E+03  0.19387674329E+03 -0.10879892689E+03  0.24632685117E+03  0.46999998093E+01 0. -1.
       -5    1    3    3    0  502 -0.10596900267E+03 -0.19387674329E+03 -0.45787525986E+03  0.50841859202E+03  0.46999998093E+01 0.  1.
</event>
<event>
 5   0  0.1227864E-02  0.4988674E+03  0.7818609E-02  0.1014075E+00
       -1   -1    0    0    0  501  0.00000000000E+00  0.00000000000E+00  0.25808169863E+03  0.25808169868E+03  0.50400001928E-02 0.  1.
        1   -1    0    0  501    0  0.00000000000E+00  0.00000000000E+00 -0.24107550795E+03  0.24107550800E+03  0.50400001928E-02 0. -1.
    10030    2    1    2    0    0  0.00000000000E+00  0.00000000000E+00  0.17006190683E+02  0.49915720669E+03  0.49886742374E+03 0.  0.
        5    1    3    3  502    0  0.64078088733E+02  0.23515738222E+03 -0.44348897209E+02  0.24777794605E+03  0.46999998093E+01 0. -1.
       -5    1    3    3    0  502 -0.64078088733E+02 -0.23515738222E+03  0.61355087892E+02  0.25137926063E+03  0.46999998093E+01 0.  1.
</event>
<event>
 5   0  0.1982847E-02  0.4968761E+03  0.7818609E-02  0.1014598E+00
       -2   -1    0    0    0  501  0.00000000000E+00  0.00000000000E+00  0.26071512417E+03  0.26071512418E+03  0.25500000920E-02 0.  1.
        2   -1    0    0  501    0  0.00000000000E+00  0.00000000000E+00 -0.23673914571E+03  0.23673914573E+03  0.25500000920E-02 0. -1.
    10030    2    1    2    0    0  0.00000000000E+00  0.00000000000E+00  0.23975978459E+02  0.49745426991E+03  0.49687614464E+03 0.  0.
        2    1    3    3  502    0 -0.46904945798E+02  0.96043318544E+01  0.25605259770E+03  0.26049040276E+03  0.25500000920E-02 0.  1.
       -2    1    3    3    0  502  0.46904945798E+02 -0.96043318544E+01 -0.23207661924E+03  0.23696386715E+03  0.25500000920E-02 0. -1.
</event>
<event>
 5   0  0.1941387E-02  0.5001287E+03  0.7818609E-02  0.1013745E+00
       -2   -1    0    0    0  501  0.00000000000E+00  0.00000000000E+00  0.29804722767E+03  0.29804722768E+03  0.25500000920E-02 0. -1.
        2   -1    0    0  501    0  0.00000000000E+00  0.00000000000E+00 -0.20980627378E+03  0.20980627380E+03  0.25500000920E-02 0.  1.
    10030    2    1    2    0    0  0.00000000000E+00  0.00000000000E+00  0.88240953884E+02  0.50785350148E+03  0.50012869646E+03 0.  0.
        4    1    3    3  502    0 -0.39900491288E+02 -0.20645293810E+03 -0.93305376742E+02  0.23004862766E+03  0.12699999809E+01 0.  1.
       -4    1    3    3    0  502  0.39900491288E+02  0.20645293810E+03  0.18154633063E+03  0.27780487382E+03  0.12699999809E+01 0. -1.
</event>
<event>
 5   0  0.1209831E-02  0.5000792E+03  0.7818609E-02  0.1013758E+00
       -1   -1    0    0    0  501  0.00000000000E+00  0.00000000000E+00  0.49064072968E+02  0.49064073227E+02  0.50400001928E-02 0. -1.
        1   -1    0    0  501    0  0.00000000000E+00  0.00000000000E+00 -0.12742481847E+04  0.12742481847E+04  0.50400001928E-02 0.  1.
    10030    2    1    2    0    0  0.00000000000E+00  0.00000000000E+00 -0.12251841117E+04  0.13233122579E+04  0.50007921809E+03 0.  0.
        4    1    3    3  502    0  0.19109337826E+03  0.12379628443E+02 -0.10380328935E+04  0.10555490681E+04  0.12699999809E+01 0.  1.
       -4    1    3    3    0  502 -0.19109337826E+03 -0.12379628443E+02 -0.18715121825E+03  0.26776318979E+03  0.12699999809E+01 0. -1.
</event>
<event>
 5   0  0.1967813E-02  0.5015769E+03  0.7818609E-02  0.1013368E+00
       -2   -1    0    0    0  501  0.00000000000E+00  0.00000000000E+00  0.28393456898E+03  0.28393456899E+03  0.25500000920E-02 0.  1.
        2   -1    0    0  501    0  0.00000000000E+00  0.00000000000E+00 -0.22151171899E+03  0.22151171901E+03  0.25500000920E-02 0. -1.
    10030    2    1    2    0    0  0.00000000000E+00  0.00000000000E+00  0.62422849989E+02  0.50544628800E+03  0.50157685139E+03 0.  0.
        5    1    3    3  502    0  0.14454883061E+02  0.20651746211E+02  0.28261006273E+03  0.28377099186E+03  0.46999998093E+01 0.  1.
       -5    1    3    3    0  502 -0.14454883061E+02 -0.20651746211E+02 -0.22018721274E+03  0.22167529614E+03  0.46999998093E+01 0. -1.
</event>
<event>
 5   0  0.1923706E-02  0.4998059E+03  0.7818609E-02  0.1013830E+00
        2   -1    0    0  501    0  0.00000000000E+00  0.00000000000E+00  0.44596330588E+02  0.44596330661E+02  0.25500000920E-02 0. -1.
       -2   -1    0    0    0  501  0.00000000000E+00  0.00000000000E+00 -0.14003727631E+04  0.14003727631E+04  0.25500000920E-02 0.  1.
    10030    2    1    2    0    0  0.00000000000E+00  0.00000000000E+00 -0.13557764325E+04  0.14449690938E+04  0.49980590930E+03 0.  0.
        3    1    3    3  502    0  0.20067888464E+03  0.10211174310E+02 -0.11074339731E+04  0.11255160140E+04  0.10100000352E+00 0.  1.
       -3    1    3    3    0  502 -0.20067888464E+03 -0.10211174310E+02 -0.24834245947E+03  0.31945307980E+03  0.10100000352E+00 0. -1.
</event>
<event>
 5   0  0.1941387E-02  0.5027262E+03  0.7818609E-02  0.1013070E+00
       -2   -1    0    0    0  501  0.00000000000E+00  0.00000000000E+00  0.35112635125E+02  0.35112635218E+02  0.25500000920E-02 0. -1.
        2   -1    0    0  501    0  0.00000000000E+00  0.00000000000E+00 -0.17994494199E+04  0.17994494199E+04  0.25500000920E-02 0.  1.
    10030    2    1    2    0    0  0.00000000000E+00  0.00000000000E+00 -0.17643367848E+04  0.18345620551E+04  0.50272621174E+03 0.  0.
        4    1    3    3  502    0  0.21163722047E+02  0.11116688294E+03 -0.63115520615E+02  0.12958071167E+03  0.12699999809E+01 0. -1.
       -4    1    3    3    0  502 -0.21163722047E+02 -0.11116688294E+03 -0.17012212641E+04  0.17049813434E+04  0.12699999809E+01 0.  1.
</event>
<event>
 5   0  0.1217270E-02  0.5019801E+03  0.7818609E-02  0.1013263E+00
       -1   -1    0    0    0  501  0.00000000000E+00  0.00000000000E+00  0.27949252486E+03  0.27949252491E+03  0.50400001928E-02 0.  1.
        1   -1    0    0  501    0  0.00000000000E+00  0.00000000000E+00 -0.22539420084E+03  0.22539420090E+03  0.50400001928E-02 0. -1.
    10030    2    1    2    0    0  0.00000000000E+00  0.00000000000E+00  0.54098324019E+02  0.50488672580E+03  0.50198005661E+03 0.  0.
        2    1    3    3  502    0 -0.12149647166E+03 -0.15559078034E+02  0.24738962216E+03  0.27605271723E+03  0.25500000920E-02 0.  1.
       -2    1    3    3    0  502  0.12149647166E+03  0.15559078034E+02 -0.19329129814E+03  0.22883400857E+03  0.25500000920E-02 0. -1.
</event>
<event>
 5   0  0.1923706E-02  0.4975908E+03  0.7818609E-02  0.1014410E+00
       -2   -1    0    0    0  501  0.00000000000E+00  0.00000000000E+00  0.53170418967E+02  0.53170419028E+02  0.25500000920E-02 0.  1.
        2   -1    0    0  501    0  0.00000000000E+00  0.00000000000E+00 -0.11641652675E+04  0.11641652675E+04  0.25500000920E-02 0. -1.
    10030    2    1    2    0    0  0.00000000000E+00  0.00000000000E+00 -0.11109948486E+04  0.12173356866E+04  0.49759081607E+03 0.  0.
        3    1    3    3  502    0 -0.14320220214E+03  0.12660410528E+03 -0.16587487395E+03  0.25308092418E+03  0.10100000352E+00 0.  1.
       -3    1    3    3    0  502  0.14320220214E+03 -0.12660410528E+03 -0.94511997461E+03  0.96425476238E+03  0.10100000352E+00 0. -1.
</event>
<event>
 5   0  0.1225989E-02  0.5002162E+03  0.7818609E-02  0.1013723E+00
       -1   -1    0    0    0  501  0.00000000000E+00  0.00000000000E+00  0.66333697271E+03  0.66333697273E+03  0.50400001928E-02 0. -1.
        1   -1    0    0  501    0  0.00000000000E+00  0.00000000000E+00 -0.94302072604E+02  0.94302072739E+02  0.50400001928E-02 0.  1.
    10030    2    1    2    0    0  0.00000000000E+00  0.00000000000E+00  0.56903490010E+03  0.75763904547E+03  0.50021615895E+03 0.  0.
        3    1    3    3  502    0 -0.64860081967E+02  0.59049813395E+02  0.63927679239E+03  0.64526625371E+03  0.10100000352E+00 0. -1.
       -3    1    3    3    0  502  0.64860081967E+02 -0.59049813395E+02 -0.70241892281E+02  0.11237279176E+03  0.10100000352E+00 0.  1.
</event>
<event>
 5   0  0.1941387E-02  0.5000038E+03  0.7818609E-02  0.1013778E+00
        2   -1    0    0  501    0  0.00000000000E+00  0.00000000000E+00  0.92579700706E+03  0.92579700706E+03  0.25500000920E-02 0. -1.
       -2   -1    0    0    0  501  0.00000000000E+00  0.00000000000E+00 -0.67510429238E+02  0.67510429286E+02  0.25500000920E-02 0.  1.
    10030    2    1    2    0    0  0.00000000000E+00  0.00000000000E+00  0.85828657782E+03  0.99330743635E+03  0.50000381342E+03 0.  0.
        4    1    3    3  502    0 -0.13183220323E+03 -0.72630704262E+02  0.32596927513E+02  0.15401013471E+03  0.12699999809E+01 0.  1.
       -4    1    3    3    0  502  0.13183220323E+03  0.72630704262E+02  0.82568965031E+03  0.83929730164E+03  0.12699999809E+01 0. -1.
</event>
<event>
 5   0  0.8012875E-03  0.4995328E+03  0.7818609E-02  0.1013901E+00
        3   -1    0    0  501    0  0.00000000000E+00  0.00000000000E+00  0.59655917602E+02  0.59656003101E+02  0.10100000352E+00 0. -1.
       -3   -1    0    0    0  501  0.00000000000E+00  0.00000000000E+00 -0.10457169269E+04  0.10457169317E+04  0.10100000352E+00 0.  1.
    10030    2    1    2    0    0  0.00000000000E+00  0.00000000000E+00 -0.98606100926E+03  0.11053729348E+04  0.49953279281E+03 0.  0.
        5    1    3    3  502    0 -0.85204227413E+02 -0.39764876620E+02  0.18891163540E+02  0.96020684437E+02  0.46999998093E+01 0. -1.
       -5    1    3    3    0  502  0.85204227413E+02  0.39764876620E+02 -0.10049521728E+04  0.10093522504E+04  0.46999998093E+01 0.  1.
</event>
<event>
 5   0  0.1180937E-02  0.5000942E+03  0.7818609E-02  0.1013754E+00
       -1   -1    0    0    0  501  0.00000000000E+00  0.00000000000E+00  0.14756700559E+03  0.14756700568E+03  0.50400001928E-02 0.  1.
        1   -1    0    0  501    0  0.00000000000E+00  0.00000000000E+00 -0.42369604480E+03  0.42369604483E+03  0.50400001928E-02 0. -1.
    10030    2    1    2    0    0  0.00000000000E+00  0.00000000000E+00 -0.27612903921E+03  0.57126305051E+03  0.50009421770E+03 0.  0.
        1    1    3    3  502    0  0.16605938271E+03 -0.14409336233E+03 -0.20146694132E+01  0.21986967634E+03  0.50400001928E-02 0.  1.
       -1    1    3    3    0  502 -0.16605938271E+03  0.14409336233E+03 -0.27411436980E+03  0.35139337417E+03  0.50400001928E-02 0. -1.
</event>
<event>
 5   0  0.1967813E-02  0.4995559E+03  0.7818609E-02  0.1013895E+00
       -2   -1    0    0    0  501  0.00000000000E+00  0.00000000000E+00  0.98395464904E+03  0.98395464904E+03  0.25500000920E-02 0.  1.
        2   -1    0    0  501    0  0.00000000000E+00  0.00000000000E+00 -0.63406406617E+02  0.63406406668E+02  0.25500000920E-02 0. -1.
    10030    2    1    2    0    0  0.00000000000E+00  0.00000000000E+00  0.92054824242E+03  0.10473610557E+04  0.49955591718E+03 0.  0.
        5    1    3    3  502    0 -0.54256189428E+02  0.24176847303E+03  0.52561257865E+03  0.58110790863E+03  0.46999998093E+01 0.  1.
       -5    1    3    3    0  502  0.54256189428E+02 -0.24176847303E+03  0.39493566377E+03  0.46625314708E+03  0.46999998093E+01 0. -1.
</event>
<event>
 5   0  0.1225989E-02  0.5018130E+03  0.7818609E-02  0.1013307E+00
        1   -1    0    0  501    0  0.00000000000E+00  0.00000000000E+00  0.55077280291E+02  0.55077280521E+02  0.50400001928E-02 0. -1.
       -1   -1    0    0    0  501  0.00000000000E+00  0.00000000000E+00 -0.11430135742E+04  0.11430135742E+04  0.50400001928E-02 0.  1.
    10030    2    1    2    0    0  0.00000000000E+00  0.00000000000E+00 -0.10879362939E+04  0.11980908547E+04  0.50181302951E+03 0.  0.
        3    1    3    3  502    0 -0.19164413189E+03  0.37698067305E+01 -0.93051405671E+03  0.95005163263E+03  0.10100000352E+00 0.  1.
       -3    1    3    3    0  502  0.19164413189E+03 -0.37698067305E+01 -0.15742223717E+03  0.24803922207E+03  0.10100000352E+00 0. -1.
</event>
<event>
 5   0  0.1227864E-02  0.4998727E+03  0.7818609E-02  0.1013812E+00
       -1   -1    0    0    0  501  0.00000000000E+00  0.00000000000E+00  0.58118666011E+02  0.58118666230E+02  0.50400001928E-02 0. -1.
        1   -1    0    0  501    0  0.00000000000E+00  0.00000000000E+00 -0.10748383834E+04  0.10748383834E+04  0.50400001928E-02 0.  1.
    10030    2    1    2    0    0  0.00000000000E+00  0.00000000000E+00 -0.10167197174E+04  0.11329570496E+04  0.49987267639E+03 0.  0.
        5    1    3    3  502    0 -0.15826238674E+03 -0.36901529401E+02 -0.78100192824E+02  0.18036195842E+03  0.46999998093E+01 0. -1.
       -5    1    3    3    0  502  0.15826238674E+03  0.36901529401E+02 -0.93861952454E+03  0.95259509119E+03  0.46999998093E+01 0.  1.
</event>
<event>
 5   0  0.1967813E-02  0.4975933E+03  0.7818609E-02  0.1014409E+00
        2   -1    0    0  501    0  0.00000000000E+00  0.00000000000E+00  0.15754439032E+04  0.15754439032E+04  0.25500000920E-02 0. -1.
       -2   -1    0    0    0  501  0.00000000000E+00  0.00000000000E+00 -0.39290364507E+02  0.39290364590E+02  0.25500000920E-02 0.  1.
    10030    2    1    2    0    0  0.00000000000E+00  0.00000000000E+00  0.15361535387E+04  0.16147342678E+04  0.49759326879E+03 0.  0.
        5    1    3    3  502    0 -0.23881708754E+03 -0.10041013333E+02  0.54458338810E+03  0.59475001458E+03  0.46999998093E+01 0.  1.
       -5    1    3    3    0  502  0.23881708754E+03  0.10041013333E+02  0.99157015060E+03  0.10199842532E+04  0.46999998093E+01 0. -1.
</event>
<event>
 5   0  0.1209831E-02  0.5000554E+03  0.7818609E-02  0.1013764E+00
        1   -1    0    0  501    0  0.00000000000E+00  0.00000000000E+00  0.12271114950E+03  0.12271114960E+03  0.50400001928E-02 0.  1.
       -1   -1    0    0    0  501  0.00000000000E+00  0.00000000000E+00 -0.50943904963E+03  0.50943904965E+03  0.50400001928E-02 0. -1.
    10030    2    1    2    0    0  0.00000000000E+00  0.00000000000E+00 -0.38672790013E+03  0.63215019925E+03  0.50005540261E+03 0.  0.
        4    1    3    3  502    0  0.18317177617E+02  0.33994126642E+02 -0.50564256085E+03  0.50711648749E+03  0.12699999809E+01 0. -1.
       -4    1    3    3    0  502 -0.18317177617E+02 -0.33994126642E+02  0.11891466072E+03  0.12503371176E+03  0.12699999809E+01 0.  1.
</event>
<event>
 5   0  0.1209831E-02  0.4999565E+03  0.7818609E-02  0.1013790E+00
       -1   -1    0    0    0  501  0.00000000000E+00  0.00000000000E+00  0.59487657125E+03  0.59487657127E+03  0.50400001928E-02 0.  1.
        1   -1    0    0  501    0  0.00000000000E+00  0.00000000000E+00 -0.10504551755E+03  0.10504551767E+03  0.50400001928E-02 0. -1.
    10030    2    1    2    0    0  0.00000000000E+00  0.00000000000E+00  0.48983105370E+03  0.69992208894E+03  0.49995646752E+03 0.  0.
        4    1    3    3  502    0 -0.22378239560E+03 -0.76436602163E+02  0.35835934536E+03  0.42935317401E+03  0.12699999809E+01 0.  1.
       -4    1    3    3    0  502  0.22378239560E+03  0.76436602163E+02  0.13147170835E+03  0.27056891493E+03  0.12699999809E+01 0. -1.
</event>
<event>
 5   0  0.1225989E-02  0.4998065E+03  0.7818609E-02  0.1013829E+00
        1   -1    0    0  501    0  0.00000000000E+00  0.00000000000E+00  0.15693203520E+03  0.15693203528E+03  0.50400001928E-02 0. -1.
       -1   -1    0    0    0  501  0.00000000000E+00  0.00000000000E+00 -0.39795345682E+03  0.39795345685E+03  0.50400001928E-02 0.  1.
    10030    2    1    2    0    0  0.00000000000E+00  0.00000000000E+00 -0.24102142162E+03  0.55488549213E+03  0.49980654628E+03 0.  0.
        3    1    3    3  502    0  0.16414834420E+03 -0.13140359048E+03 -0.27044966614E+03  0.34257059800E+03  0.10100000352E+00 0.  1.
       -3    1    3    3    0  502 -0.16414834420E+03  0.13140359048E+03  0.29428244522E+02  0.21231489414E+03  0.10100000352E+00 0. -1.
</event>
<event>
 5   0  0.1217270E-02  0.4941702E+03  0.7818609E-02  0.1015312E+00
        1   -1    0    0  501    0  0.00000000000E+00  0.00000000000E+00  0.17699432324E+03  0.17699432331E+03  0.50400001928E-02 0. -1.
       -1   -1    0    0    0  501  0.00000000000E+00  0.00000000000E+00 -0.34493219811E+03  0.34493219815E+03  0.50400001928E-02 0.  1.
    10030    2    1    2    0    0  0.00000000000E+00  0.00000000000E+00 -0.16793787487E+03  0.52192652146E+03  0.49417017715E+03 0.  0.
        2    1    3    3  502    0  0.48898555263E+02 -0.12482269738E+03  0.13524440474E+03  0.19042800085E+03  0.25500000920E-02 0. -1.
       -2    1    3    3    0  502 -0.48898555263E+02  0.12482269738E+03 -0.30318227961E+03  0.33149852061E+03  0.25500000920E-02 0.  1.
</event>
<event>
 5   0  0.1217270E-02  0.5004916E+03  0.7818609E-02  0.1013651E+00
       -1   -1    0    0    0  501  0.00000000000E+00  0.00000000000E+00  0.37807408721E+03  0.37807408724E+03  0.50400001928E-02 0. -1.
        1   -1    0    0  501    0  0.00000000000E+00  0.00000000000E+00 -0.16563675101E+03  0.16563675108E+03  0.50400001928E-02 0.  1.
    10030    2    1    2    0    0  0.00000000000E+00  0.00000000000E+00  0.21243733620E+03  0.54371083833E+03  0.50049161222E+03 0.  0.
        2    1    3    3  502    0  0.24245496755E+03  0.61674629389E+02  0.99810814762E+02  0.26935175877E+03  0.25500000920E-02 0. -1.
       -2    1    3    3    0  502 -0.24245496755E+03 -0.61674629389E+02  0.11262652144E+03  0.27435907956E+03  0.25500000920E-02 0.  1.
</event>
<event>
 5   0  0.1209831E-02  0.4996450E+03  0.7818609E-02  0.1013872E+00
       -1   -1    0    0    0  501  0.00000000000E+00  0.00000000000E+00  0.22181358178E+03  0.22181358184E+03  0.50400001928E-02 0.  1.
        1   -1    0    0  501    0  0.00000000000E+00  0.00000000000E+00 -0.28136812463E+03  0.28136812467E+03  0.50400001928E-02 0. -1.
    10030    2    1    2    0    0  0.00000000000E+00  0.00000000000E+00 -0.59554542845E+02  0.50318170651E+03  0.49964496014E+03 0.  0.
        4    1    3    3  502    0  0.12219961660E+02 -0.14924102734E+03 -0.23116136797E+03  0.27542585690E+03  0.12699999809E+01 0. -1.
       -4    1    3    3    0  502 -0.12219961660E+02  0.14924102734E+03  0.17160682513E+03  0.22775584962E+03  0.12699999809E+01 0.  1.
</event>
<event>
 5   0  0.1180937E-02  0.5000407E+03  0.7818609E-02  0.1013768E+00
        1   -1    0    0  501    0  0.00000000000E+00  0.00000000000E+00  0.21723805607E+03  0.21723805613E+03  0.50400001928E-02 0.  1.
       -1   -1    0    0    0  501  0.00000000000E+00  0.00000000000E+00 -0.28774960604E+03  0.28774960608E+03  0.50400001928E-02 0. -1.
    10030    2    1    2    0    0  0.00000000000E+00  0.00000000000E+00 -0.70511549973E+02  0.50498766221E+03  0.50004065865E+03 0.  0.
        1    1    3    3  502    0  0.45693867686E+02  0.32911683711E-01  0.21298541236E+03  0.21783185380E+03  0.50400001928E-02 0.  1.
       -1    1    3    3    0  502 -0.45693867686E+02 -0.32911683711E-01 -0.28349696233E+03  0.28715580841E+03  0.50400001928E-02 0. -1.
</event>
<event>
 5   0  0.1982847E-02  0.5019513E+03  0.7818609E-02  0.1013271E+00
       -2   -1    0    0    0  501  0.00000000000E+00  0.00000000000E+00  0.61749501778E+02  0.61749501830E+02  0.25500000920E-02 0.  1.
        2   -1    0    0  501    0  0.00000000000E+00  0.00000000000E+00 -0.10200692269E+04  0.10200692269E+04  0.25500000920E-02 0. -1.
    10030    2    1    2    0    0  0.00000000000E+00  0.00000000000E+00 -0.95831972510E+03  0.10818187287E+04  0.50195125886E+03 0.  0.
        2    1    3    3  502    0  0.10060359583E+03  0.19912216860E+03 -0.23137397851E+03  0.32141039103E+03  0.25500000920E-02 0.  1.
       -2    1    3    3    0  502 -0.10060359583E+03 -0.19912216860E+03 -0.72694574659E+03  0.76040833768E+03  0.25500000920E-02 0. -1.
</event>
<event>
 5   0  0.1180937E-02  0.5003323E+03  0.7818609E-02  0.1013692E+00
        1   -1    0    0  501    0  0.00000000000E+00  0.00000000000E+00  0.45661632292E+03  0.45661632295E+03  0.50400001928E-02 0.  1.
       -1   -1    0    0    0  501  0.00000000000E+00  0.00000000000E+00 -0.13705838359E+03  0.13705838368E+03  0.50400001928E-02 0. -1.
    10030    2    1    2    0    0  0.00000000000E+00  0.00000000000E+00  0.31955793933E+03  0.59367470663E+03  0.50033227030E+03 0.  0.
        1    1    3    3  502    0  0.71125001145E+02  0.20117219297E+03  0.48244829551E+01  0.21342983079E+03  0.50400001928E-02 0. -1.
       -1    1    3    3    0  502 -0.71125001145E+02 -0.20117219297E+03  0.31473345638E+03  0.38024487584E+03  0.50400001928E-02 0.  1.
</event>
<event>
 5   0  0.8012875E-03  0.5000925E+03  0.7818609E-02  0.1013755E+00
       -3   -1    0    0    0  501  0.00000000000E+00  0.00000000000E+00  0.23002892067E+03  0.23002894285E+03  0.10100000352E+00 0.  1.
        3   -1    0    0  501    0  0.00000000000E+00  0.00000000000E+00 -0.27180541663E+03  0.27180543539E+03  0.10100000352E+00 0. -1.
    10030    2    1    2    0    0  0.00000000000E+00  0.00000000000E+00 -0.41776495954E+02  0.50183437824E+03  0.50009245902E+03 0.  0.
        3    1    3    3  502    0 -0.23690105627E+03 -0.70148066787E+02  0.17719715898E+02  0.24770316968E+03  0.10100000352E+00 0.  1.
       -3    1    3    3    0  502  0.23690105627E+03  0.70148066787E+02 -0.59496211852E+02  0.25413120856E+03  0.10100000352E+00 0. -1.
</event>
<event>
 5   0  0.1209831E-02  0.5001665E+03  0.7818609E-02  0.1013735E+00
       -1   -1    0    0    0  501  0.00000000000E+00  0.00000000000E+00  0.11548691188E+04  0.11548691188E+04  0.50400001928E-02 0.  1.
        1   -1    0    0  501    0  0.00000000000E+00  0.00000000000E+00 -0.54154725769E+02  0.54154726003E+02  0.50400001928E-02 0. -1.
    10030    2    1    2    0    0  0.00000000000E+00  0.00000000000E+00  0.11007143930E+04  0.12090238448E+04  0.50016645459E+03 0.  0.
        4    1    3    3  502    0 -0.22442145009E+02 -0.14271080125E+03  0.10437944985E+04  0.10537450312E+04  0.12699999809E+01 0.  1.
       -4    1    3    3    0  502  0.22442145009E+02  0.14271080125E+03  0.56919894450E+02  0.15527881359E+03  0.12699999809E+01 0. -1.
</event>
<event>
 5   0  0.8012875E-03  0.4993223E+03  0.7818609E-02  0.1013956E+00
        3   -1    0    0  501    0  0.00000000000E+00  0.00000000000E+00  0.81998346590E+02  0.81998408792E+02  0.10100000352E+00 0. -1.
       -3   -1    0    0    0  501  0.00000000000E+00  0.00000000000E+00 -0.76014520818E+03  0.76014521489E+03  0.10100000352E+00 0.  1.
    10030    2    1    2    0    0  0.00000000000E+00  0.00000000000E+00 -0.67814686159E+03  0.84214362368E+03  0.49932225769E+03 0.  0.
        3    1    3    3  502    0  0.14468927924E+03  0.10545794912E+03 -0.45617891164E+02  0.18476300700E+03  0.10100000352E+00 0. -1.
       -3    1    3    3    0  502 -0.14468927924E+03 -0.10545794912E+03 -0.63252897042E+03  0.65738061668E+03  0.10100000352E+00 0.  1.
</event>
<event>
 5   0  0.1967813E-02  0.4999815E+03  0.7818609E-02  0.1013784E+00
        2   -1    0    0  501    0  0.00000000000E+00  0.00000000000E+00  0.47329524631E+03  0.47329524632E+03  0.25500000920E-02 0. -1.
       -2   -1    0    0    0  501  0.00000000000E+00  0.00000000000E+00 -0.13204309528E+03  0.13204309530E+03  0.25500000920E-02 0.  1.
    10030    2    1    2    0    0  0.00000000000E+00  0.00000000000E+00  0.34125215103E+03  0.60533834162E+03  0.49998147691E+03 0.  0.
        5    1    3    3  502    0 -0.18455481705E+03 -0.81489013639E+02 -0.80213722833E+01  0.20195883801E+03  0.46999998093E+01 0.  1.
       -5    1    3    3    0  502  0.18455481705E+03  0.81489013639E+02  0.34927352332E+03  0.40337950361E+03  0.46999998093E+01 0. -1.
</event>
<event>
 5   0  0.8012875E-03  0.5001481E+03  0.7818609E-02  0.1013740E+00
       -3   -1    0    0    0  501  0.00000000000E+00  0.00000000000E+00  0.24485414984E+03  0.24485417067E+03  0.10100000352E+00 0. -1.
        3   -1    0    0  501    0  0.00000000000E+00  0.00000000000E+00 -0.25540518618E+03  0.25540520615E+03  0.10100000352E+00 0.  1.
    10030    2    1    2    0    0  0.00000000000E+00  0.00000000000E+00 -0.10551036335E+02  0.50025937682E+03  0.50014809780E+03 0.  0.
        5    1    3    3  502    0  0.49950813830E+02 -0.23903806586E+03 -0.58959232563E+02  0.25126193869E+03  0.46999998093E+01 0.  1.
       -5    1    3    3    0  502 -0.49950813830E+02  0.23903806586E+03  0.48408196228E+02  0.24899743813E+03  0.46999998093E+01 0. -1.
</event>
<event>
 5   0  0.1967813E-02  0.5009938E+03  0.7818609E-02  0.1013520E+00
        2   -1    0    0  501    0  0.00000000000E+00  0.00000000000E+00  0.15099415935E+03  0.15099415937E+03  0.25500000920E-02 0.  1.
       -2   -1    0    0    0  501  0.00000000000E+00  0.00000000000E+00 -0.41557029602E+03  0.41557029603E+03  0.25500000920E-02 0. -1.
    10030    2    1    2    0    0  0.00000000000E+00  0.00000000000E+00 -0.26457613667E+03  0.56656445540E+03  0.50099376247E+03 0.  0.
        5    1    3    3  502    0 -0.95747537988E+02  0.19382594069E+03  0.10715929800E+02  0.21650174934E+03  0.46999998093E+01 0. -1.
       -5    1    3    3    0  502  0.95747537988E+02 -0.19382594069E+03 -0.27529206647E+03  0.35006270606E+03  0.46999998093E+01 0.  1.
</event>
<event>
 5   0  0.1225989E-02  0.5007844E+03  0.7818609E-02  0.1013574E+00
        1   -1    0    0  501    0  0.00000000000E+00  0.00000000000E+00  0.32563488648E+03  0.32563488652E+03  0.50400001928E-02 0.  1.
       -1   -1    0    0    0  501  0.00000000000E+00  0.00000000000E+00 -0.19253541795E+03  0.19253541802E+03  0.50400001928E-02 0. -1.
    10030    2    1    2    0    0  0.00000000000E+00  0.00000000000E+00  0.13309946853E+03  0.51817030453E+03  0.50078438073E+03 0.  0.
        3    1    3    3  502    0 -0.11639868877E+03  0.52986500503E+02 -0.15619109381E+03  0.20187097852E+03  0.10100000352E+00 0. -1.
       -3    1    3    3    0  502  0.11639868877E+03 -0.52986500503E+02  0.28929056233E+03  0.31629932602E+03  0.10100000352E+00 0.  1.
</event>
<event>
 5   0  0.1209831E-02  0.4998347E+03  0.7818609E-02  0.1013822E+00
       -1   -1    0    0    0  501  0.00000000000E+00  0.00000000000E+00  0.63383119749E+02  0.63383119950E+02  0.50400001928E-02 0. -1.
        1   -1    0    0  501    0  0.00000000000E+00  0.00000000000E+00 -0.98541511698E+03  0.98541511700E+03  0.50400001928E-02 0.  1.
    10030    2    1    2    0    0  0.00000000000E+00  0.00000000000E+00 -0.92203199723E+03  0.10487982369E+04  0.49983471058E+03 0.  0.
        4    1    3    3  502    0  0.13078216442E+03 -0.21262074072E+03 -0.48632781965E+03  0.54665154804E+03  0.12699999809E+01 0. -1.
       -4    1    3    3    0  502 -0.13078216442E+03  0.21262074072E+03 -0.43570417759E+03  0.50214668891E+03  0.12699999809E+01 0.  1.
</event>
<event>
 5   0  0.1217270E-02  0.4999120E+03  0.7818609E-02  0.1013802E+00
        1   -1    0    0  501    0  0.00000000000E+00  0.00000000000E+00  0.37456851623E+03  0.37456851626E+03  0.50400001928E-02 0.  1.
       -1   -1    0    0    0  501  0.00000000000E+00  0.00000000000E+00 -0.16679991716E+03  0.16679991724E+03  0.50400001928E-02 0. -1.
    10030    2    1    2    0    0  0.00000000000E+00  0.00000000000E+00  0.20776859907E+03  0.54136843350E+03  0.49991198228E+03 0.  0.
        2    1    3    3  502    0 -0.18928432893E+03  0.28563305183E+02  0.27794136709E+03  0.33748455243E+03  0.25500000920E-02 0.  1.
       -2    1    3    3    0  502  0.18928432893E+03 -0.28563305183E+02 -0.70172768025E+02  0.20388388107E+03  0.25500000920E-02 0. -1.
</event>
<event>
 5   0  0.1941387E-02  0.5013661E+03  0.7818609E-02  0.1013423E+00
        2   -1    0    0  501    0  0.00000000000E+00  0.00000000000E+00  0.46701108319E+03  0.46701108320E+03  0.25500000920E-02 0. -1.
       -2   -1    0    0    0  501  0.00000000000E+00  0.00000000000E+00 -0.13456208748E+03  0.13456208750E+03  0.25500000920E-02 0.  1.
    10030    2    1    2    0    0  0.00000000000E+00  0.00000000000E+00  0.33244899572E+03  0.60157317070E+03  0.50136607878E+03 0.  0.
        4    1    3    3  502    0  0.23433475697E+03  0.76469479827E+02  0.11150191265E+03  0.27054509623E+03  0.12699999809E+01 0. -1.
       -4    1    3    3    0  502 -0.23433475697E+03 -0.76469479827E+02  0.22094708307E+03  0.33102807447E+03  0.12699999809E+01 0.  1.
</event>
<event>
 5   0  0.1227864E-02  0.4992825E+03  0.7818609E-02  0.1013966E+00
       -1   -1    0    0    0  501  0.00000000000E+00  0.00000000000E+00  0.12041641441E+03  0.12041641451E+03  0.50400001928E-02 0.  1.
        1   -1    0    0  501    0  0.00000000000E+00  0.00000000000E+00 -0.51754357865E+03  0.51754357867E+03  0.50400001928E-02 0. -1.
    10030    2    1    2    0    0  0.00000000000E+00  0.00000000000E+00 -0.39712716424E+03  0.63795999319E+03  0.49928245346E+03 0.  0.
        5    1    3    3  502    0  0.25001721706E+02  0.93411068061E+02 -0.49258005839E+03  0.50200390202E+03  0.46999998093E+01 0. -1.
       -5    1    3    3    0  502 -0.25001721706E+02 -0.93411068061E+02  0.95452894150E+02  0.13595609116E+03  0.46999998093E+01 0.  1.
</event>
<event>
 5   0  0.1225989E-02  0.5001613E+03  0.7818609E-02  0.1013737E+00
        1   -1    0    0  501    0  0.00000000000E+00  0.00000000000E+00  0.74921961722E+03  0.74921961723E+03  0.50400001928E-02 0.  1.
       -1   -1    0    0    0  501  0.00000000000E+00  0.00000000000E+00 -0.83473975715E+02  0.83473975867E+02  0.50400001928E-02 0. -1.
    10030    2    1    2    0    0  0.00000000000E+00  0.00000000000E+00  0.66574564150E+03  0.83269359310E+03  0.50016133478E+03 0.  0.
        3    1    3    3  502    0  0.20279971581E+03  0.14054442743E+03  0.26504434788E+03  0.36211735303E+03  0.10100000352E+00 0. -1.
       -3    1    3    3    0  502 -0.20279971581E+03 -0.14054442743E+03  0.40070129362E+03  0.47057624007E+03  0.10100000352E+00 0.  1.
</event>
<event>
 5   0  0.1982847E-02  0.4996317E+03  0.7818609E-02  0.1013875E+00
       -2   -1    0    0    0  501  0.00000000000E+00  0.00000000000E+00  0.10394386677E+03  0.10394386680E+03  0.25500000920E-02 0. -1.
        2   -1    0    0  501    0  0.00000000000E+00  0.00000000000E+00 -0.60040070188E+03  0.60040070189E+03  0.25500000920E-02 0.  1.
    10030    2    1    2    0    0  0.00000000000E+00  0.00000000000E+00 -0.49645683511E+03  0.70434456869E+03  0.49963174671E+03 0.  0.
        2    1    3    3  502    0 -0.22471190300E+03  0.31983523898E+02 -0.10111888438E+03  0.24848222056E+03  0.25500000920E-02 0. -1.
       -2    1    3    3    0  502  0.22471190300E+03 -0.31983523898E+02 -0.39533795073E+03  0.45586234813E+03  0.25500000920E-02 0.  1.
</event>
<event>
 5   0  0.1967813E-02  0.5006265E+03  0.7818609E-02  0.1013616E+00
       -2   -1    0    0    0  501  0.00000000000E+00  0.00000000000E+00  0.16268024047E+03  0.16268024049E+03  0.25500000920E-02 0. -1.
        2   -1    0    0  501    0  0.00000000000E+00  0.00000000000E+00 -0.38515266663E+03  0.38515266664E+03  0.25500000920E-02 0.  1.
    10030    2    1    2    0    0  0.00000000000E+00  0.00000000000E+00 -0.22247242616E+03  0.54783290713E+03  0.50062652121E+03 0.  0.
        5    1    3    3  502    0  0.22733686419E+03  0.39119774924E+02 -0.50150247929E+01  0.23078051712E+03  0.46999998093E+01 0. -1.
       -5    1    3    3    0  502 -0.22733686419E+03 -0.39119774924E+02 -0.21745740136E+03  0.31705239001E+03  0.46999998093E+01 0.  1.
</event>
<event>
 5   0  0.1923706E-02  0.4997909E+03  0.7818609E-02  0.1013834E+00
        2   -1    0    0  501    0  0.00000000000E+00  0.00000000000E+00  0.36308461623E+03  0.36308461624E+03  0.25500000920E-02 0.  1.
       -2   -1    0    0    0  501  0.00000000000E+00  0.00000000000E+00 -0.17199220416E+03  0.17199220418E+03  0.25500000920E-02 0. -1.
    10030    2    1    2    0    0  0.00000000000E+00  0.00000000000E+00  0.19109241207E+03  0.53507682042E+03  0.49979085005E+03 0.  0.
        3    1    3    3  502    0 -0.20210184654E+03  0.14642574829E+03  0.10917513992E+03  0.27240572225E+03  0.10100000352E+00 0.  1.
       -3    1    3    3    0  502  0.20210184654E+03 -0.14642574829E+03  0.81917272152E+02  0.26267109817E+03  0.10100000352E+00 0. -1.
</event>
<event>
 5   0  0.8012875E-03  0.4995130E+03  0.7818609E-02  0.1013906E+00
        4   -1    0    0  501    0  0.00000000000E+00  0.00000000000E+00  0.25158601930E+03  0.25158922474E+03  0.12699999809E+01 0. -1.
       -4   -1    0    0    0  501  0.00000000000E+00  0.00000000000E+00 -0.24793388188E+03  0.24793713454E+03  0.12699999809E+01 0.  1.
    10030    2    1    2    0    0  0.00000000000E+00  0.00000000000E+00  0.36521374159E+01  0.49952635928E+03  0.49951300835E+03 0.  0.
        4    1    3    3  502    0 -0.18755179771E+03  0.64157389578E+02 -0.15011498911E+03  0.24865230809E+03  0.12699999809E+01 0.  1.
       -4    1    3    3    0  502  0.18755179771E+03 -0.64157389578E+02  0.15376712653E+03  0.25087405119E+03  0.12699999809E+01 0. -1.
</event>
<event>
 5   0  0.1923706E-02  0.4992458E+03  0.7818609E-02  0.1013976E+00
       -2   -1    0    0    0  501  0.00000000000E+00  0.00000000000E+00  0.65850949659E+02  0.65850949708E+02  0.25500000920E-02 0.  1.
        2   -1    0    0  501    0  0.00000000000E+00  0.00000000000E+00 -0.94625202588E+03  0.94625202588E+03  0.25500000920E-02 0. -1.
    10030    2    1    2    0    0  0.00000000000E+00  0.00000000000E+00 -0.88040107622E+03  0.10121029756E+04  0.49924580938E+03 0.  0.
        3    1    3    3  502    0  0.21847877362E+03  0.97605676979E+02 -0.29611153407E+03  0.38071235009E+03  0.10100000352E+00 0.  1.
       -3    1    3    3    0  502 -0.21847877362E+03 -0.97605676979E+02 -0.58428954214E+03  0.63139062549E+03  0.10100000352E+00 0. -1.
</event>
<event>
 5   0  0.1225989E-02  0.5000949E+03  0.7818609E-02  0.1013754E+00
       -1   -1    0    0    0  501  0.00000000000E+00  0.00000000000E+00  0.66197458329E+02  0.66197458521E+02  0.50400001928E-02 0.  1.
        1   -1    0    0  501    0  0.00000000000E+00  0.00000000000E+00 -0.94450346277E+03  0.94450346278E+03  0.50400001928E-02 0. -1.
    10030    2    1    2    0    0  0.00000000000E+00  0.00000000000E+00 -0.87830600444E+03  0.10107009213E+04  0.50009490588E+03 0.  0.
        3    1    3    3  502    0 -0.16237818875E+03 -0.11213185884E+03 -0.74951908506E+03  0.77506070667E+03  0.10100000352E+00 0.  1.
       -3    1    3    3    0  502  0.16237818875E+03  0.11213185884E+03 -0.12878691938E+03  0.23564021463E+03  0.10100000352E+00 0. -1.
</event>
<event>
 5   0  0.1225989E-02  0.5002806E+03  0.7818609E-02  0.1013706E+00
       -1   -1    0    0    0  501  0.00000000000E+00  0.00000000000E+00  0.74905616788E+02  0.74905616958E+02  0.50400001928E-02 0. -1.
        1   -1    0    0  501    0  0.00000000000E+00  0.00000000000E+00 -0.83532002652E+03  0.83532002653E+03  0.50400001928E-02 0.  1.
    10030    2    1    2    0    0  0.00000000000E+00  0.00000000000E+00 -0.76041440973E+03  0.91022564349E+03  0.50028056882E+03 0.  0.
        3    1    3    3  502    0 -0.22227825678E+03  0.81304665174E+02 -0.52748084330E+03  0.57814714586E+03  0.10100000352E+00 0.  1.
       -3    1    3    3    0  502  0.22227825678E+03 -0.81304665174E+02 -0.23293356643E+03  0.33207849763E+03  0.10100000352E+00 0. -1.
</event>
<event>
 5   0  0.8012875E-03  0.5012462E+03  0.7818609E-02  0.1013454E+00
        3   -1    0    0  501    0  0.00000000000E+00  0.00000000000E+00  0.41784063883E+03  0.41784065104E+03  0.10100000352E+00 0.  1.
       -3   -1    0    0    0  501  0.00000000000E+00  0.00000000000E+00 -0.15032505734E+03  0.15032509127E+03  0.10100000352E+00 0. -1.
    10030    2    1    2    0    0  0.00000000000E+00  0.00000000000E+00  0.26751558150E+03  0.56816574231E+03  0.50124617145E+03 0.  0.
        2    1    3    3  502    0 -0.15647988936E+03  0.39473577468E+02 -0.83591320667E+02  0.18174605357E+03  0.25500000920E-02 0. -1.
       -2    1    3    3    0  502  0.15647988936E+03 -0.39473577468E+02  0.35110690216E+03  0.38641968874E+03  0.25500000920E-02 0.  1.
</event>
<event>
 5   0  0.1209831E-02  0.4996127E+03  0.7818609E-02  0.1013880E+00
       -1   -1    0    0    0  501  0.00000000000E+00  0.00000000000E+00  0.86057626748E+02  0.86057626895E+02  0.50400001928E-02 0. -1.
        1   -1    0    0  501    0  0.00000000000E+00  0.00000000000E+00 -0.72513272618E+03  0.72513272620E+03  0.50400001928E-02 0.  1.
    10030    2    1    2    0    0  0.00000000000E+00  0.00000000000E+00 -0.63907509943E+03  0.81119035309E+03  0.49961265620E+03 0.  0.
        4    1    3    3  502    0  0.22749398302E+03 -0.94715262541E+02 -0.25304572846E+03  0.35321133455E+03  0.12699999809E+01 0. -1.
       -4    1    3    3    0  502 -0.22749398302E+03  0.94715262541E+02 -0.38602937097E+03  0.45797901854E+03  0.12699999809E+01 0.  1.
</event>
<event>
 5   0  0.1941387E-02  0.5002848E+03  0.7818609E-02  0.1013705E+00
        2   -1    0    0  501    0  0.00000000000E+00  0.00000000000E+00  0.37683336688E+03  0.37683336689E+03  0.25500000920E-02 0. -1.
       -2   -1    0    0    0  501  0.00000000000E+00  0.00000000000E+00 -0.16604482994E+03  0.16604482996E+03  0.25500000920E-02 0.  1.
    10030    2    1    2    0    0  0.00000000000E+00  0.00000000000E+00  0.21078853694E+03  0.54287819684E+03  0.50028484816E+03 0.  0.
        4    1    3    3  502    0 -0.14727715614E+03 -0.59537688004E+02  0.31506566448E+03  0.35285022722E+03  0.12699999809E+01 0. -1.
       -4    1    3    3    0  502  0.14727715614E+03  0.59537688004E+02 -0.10427712754E+03  0.19002796963E+03  0.12699999809E+01 0.  1.
</event>
<event>
 5   0  0.1209831E-02  0.5003541E+03  0.7818609E-02  0.1013687E+00
       -1   -1    0    0    0  501  0.00000000000E+00  0.00000000000E+00  0.11011585944E+03  0.11011585956E+03  0.50400001928E-02 0.  1.
        1   -1    0    0  501    0  0.00000000000E+00  0.00000000000E+00 -0.56838821939E+03  0.56838821941E+03  0.50400001928E-02 0. -1.
    10030    2    1    2    0    0  0.00000000000E+00  0.00000000000E+00 -0.45827235995E+03  0.67850407897E+03  0.50035410390E+03 0.  0.
        4    1    3    3  502    0 -0.15538462398E+03  0.19145418445E+03 -0.28647404860E+03  0.37797894060E+03  0.12699999809E+01 0. -1.
       -4    1    3    3    0  502  0.15538462398E+03 -0.19145418445E+03 -0.17179831134E+03  0.30052513837E+03  0.12699999809E+01 0.  1.
</event>
<event>
 5   0  0.1967813E-02  0.5014151E+03  0.7818609E-02  0.1013410E+00
       -2   -1    0    0    0  501  0.00000000000E+00  0.00000000000E+00  0.14879037463E+03  0.14879037465E+03  0.25500000920E-02 0. -1.
        2   -1    0    0  501    0  0.00000000000E+00  0.00000000000E+00 -0.42243505811E+03  0.42243505812E+03  0.25500000920E-02 0.  1.
    10030    2    1    2    0    0  0.00000000000E+00  0.00000000000E+00 -0.27364468349E+03  0.57122543277E+03  0.50141507979E+03 0.  0.
        5    1    3    3  502    0 -0.86566917978E+02  0.12195645772E+03 -0.36598812036E+03  0.39539423758E+03  0.46999998093E+01 0.  1.
       -5    1    3    3    0  502  0.86566917978E+02 -0.12195645772E+03  0.92343436874E+02  0.17583119519E+03  0.46999998093E+01 0. -1.
</event>
<event>
 5   0  0.1225989E-02  0.4969850E+03  0.7818609E-02  0.1014569E+00
       -1   -1    0    0    0  501  0.00000000000E+00  0.00000000000E+00  0.32130691706E+03  0.32130691710E+03  0.50400001928E-02 0. -1.
        1   -1    0    0  501    0  0.00000000000E+00  0.00000000000E+00 -0.19217923256E+03  0.19217923263E+03  0.50400001928E-02 0.  1.
    10030    2    1    2    0    0  0.00000000000E+00  0.00000000000E+00  0.12912768450E+03  0.51348614972E+03  0.49698497669E+03 0.  0.
        3    1    3    3  502    0  0.46540375714E+02  0.89509398954E+02  0.29919540240E+03  0.31574647756E+03  0.10100000352E+00 0. -1.
       -3    1    3    3    0  502 -0.46540375714E+02 -0.89509398954E+02 -0.17006771790E+03  0.19773967216E+03  0.10100000352E+00 0.  1.
</event>
<event>
 5   0  0.1982847E-02  0.5017734E+03  0.7818609E-02  0.1013317E+00
       -2   -1    0    0    0  501  0.00000000000E+00  0.00000000000E+00  0.15356527600E+03  0.15356527602E+03  0.25500000920E-02 0.  1.
        2   -1    0    0  501    0  0.00000000000E+00  0.00000000000E+00 -0.40988514614E+03  0.40988514615E+03  0.25500000920E-02 0. -1.
    10030    2    1    2    0    0  0.00000000000E+00  0.00000000000E+00 -0.25631987014E+03  0.56345042217E+03  0.50177335762E+03 0.  0.
        2    1    3    3  502    0  0.13444383477E+03 -0.89834352013E+02  0.87249520138E+02  0.18373305168E+03  0.25500000920E-02 0.  1.
       -2    1    3    3    0  502 -0.13444383477E+03  0.89834352013E+02 -0.34356939028E+03  0.37971737049E+03  0.25500000920E-02 0. -1.
</event>
<event>
 5   0  0.1941387E-02  0.5008589E+03  0.7818609E-02  0.1013555E+00
       -2   -1    0    0    0  501  0.00000000000E+00  0.00000000000E+00  0.14091242970E+03  0.14091242972E+03  0.25500000920E-02 0. -1.
        2   -1    0    0  501    0  0.00000000000E+00  0.00000000000E+00 -0.44506303614E+03  0.44506303614E+03  0.25500000920E-02 0.  1.
    10030    2    1    2    0    0  0.00000000000E+00  0.00000000000E+00 -0.30415060644E+03  0.58597546586E+03  0.50085891746E+03 0.  0.
        4    1    3    3  502    0 -0.19799946661E+03  0.51015151603E+02  0.17089315181E+02  0.20518282595E+03  0.12699999809E+01 0. -1.
       -4    1    3    3    0  502  0.19799946661E+03 -0.51015151603E+02 -0.32123992162E+03  0.38079263991E+03  0.12699999809E+01 0.  1.
</event>
<event>
 5   0  0.1982847E-02  0.4995145E+03  0.7818609E-02  0.1013906E+00
       -2   -1    0    0    0  501  0.00000000000E+00  0.00000000000E+00  0.24248635808E+03  0.24248635810E+03  0.25500000920E-02 0.  1.
        2   -1    0    0  501    0  0.00000000000E+00  0.00000000000E+00 -0.25724619485E+03  0.25724619486E+03  0.25500000920E-02 0. -1.
    10030    2    1    2    0    0  0.00000000000E+00  0.00000000000E+00 -0.14759836763E+02  0.49973255296E+03  0.49951453603E+03 0.  0.
        2    1    3    3  502    0 -0.12541734649E+03 -0.20962358155E+03 -0.59432774138E+02  0.25140368214E+03  0.25500000920E-02 0.  1.
       -2    1    3    3    0  502  0.12541734649E+03  0.20962358155E+03  0.44672937375E+02  0.24832887082E+03  0.25500000920E-02 0. -1.
</event>
<event>
 5   0  0.1209831E-02  0.4996910E+03  0.7818609E-02  0.1013860E+00
       -1   -1    0    0    0  501  0.00000000000E+00  0.00000000000E+00  0.11832062637E+03  0.11832062647E+03  0.50400001928E-02 0. -1.
        1   -1    0    0  501    0  0.00000000000E+00  0.00000000000E+00 -0.52757305756E+03  0.52757305758E+03  0.50400001928E-02 0.  1.
    10030    2    1    2    0    0  0.00000000000E+00  0.00000000000E+00 -0.40925243119E+03  0.64589368406E+03  0.49969100319E+03 0.  0.
        4    1    3    3  502    0  0.14280067507E+03 -0.20206233085E+02 -0.46832911996E+03  0.49003479688E+03  0.12699999809E+01 0.  1.
       -4    1    3    3    0  502 -0.14280067507E+03  0.20206233085E+02  0.59076688767E+02  0.15585888717E+03  0.12699999809E+01 0. -1.
</event>
<event>
 5   0  0.1967813E-02  0.4999999E+03  0.7818609E-02  0.1013779E+00
        2   -1    0    0  501    0  0.00000000000E+00  0.00000000000E+00  0.39144545842E+03  0.39144545843E+03  0.25500000920E-02 0.  1.
       -2   -1    0    0    0  501  0.00000000000E+00  0.00000000000E+00 -0.15966456196E+03  0.15966456198E+03  0.25500000920E-02 0. -1.
    10030    2    1    2    0    0  0.00000000000E+00  0.00000000000E+00  0.23178089646E+03  0.55111002041E+03  0.49999987063E+03 0.  0.
        5    1    3    3  502    0  0.34877367611E+02 -0.24750036132E+03  0.11342136738E+03  0.27451658639E+03  0.46999998093E+01 0. -1.
       -5    1    3    3    0  502 -0.34877367611E+02  0.24750036132E+03  0.11835952908E+03  0.27659343402E+03  0.46999998093E+01 0.  1.
</event>
<event>
 5   0  0.8012875E-03  0.4999746E+03  0.7818609E-02  0.1013786E+00
        4   -1    0    0  501    0  0.00000000000E+00  0.00000000000E+00  0.18885902043E+03  0.18886329049E+03  0.12699999809E+01 0.  1.
       -4   -1    0    0    0  501  0.00000000000E+00  0.00000000000E+00 -0.33089180127E+03  0.33089423846E+03  0.12699999809E+01 0. -1.
    10030    2    1    2    0    0  0.00000000000E+00  0.00000000000E+00 -0.14203278085E+03  0.51975752896E+03  0.49997457743E+03 0.  0.
        1    1    3    3  502    0  0.10730676246E+03 -0.17927414780E+02  0.16296148375E+03  0.19594024262E+03  0.50400001928E-02 0.  1.
       -1    1    3    3    0  502 -0.10730676246E+03  0.17927414780E+02 -0.30499426459E+03  0.32381728633E+03  0.50400001928E-02 0. -1.
</event>
<event>
 5   0  0.1209831E-02  0.5000335E+03  0.7818609E-02  0.1013770E+00
        1   -1    0    0  501    0  0.00000000000E+00  0.00000000000E+00  0.18314804480E+03  0.18314804486E+03  0.50400001928E-02 0.  1.
       -1   -1    0    0    0  501  0.00000000000E+00  0.00000000000E+00 -0.34129974934E+03  0.34129974938E+03  0.50400001928E-02 0. -1.
    10030    2    1    2    0    0  0.00000000000E+00  0.00000000000E+00 -0.15815170455E+03  0.52444779424E+03  0.50003352611E+03 0.  0.
        4    1    3    3  502    0  0.21828675119E+03  0.51158579607E+02 -0.19511434002E+03  0.29721629261E+03  0.12699999809E+01 0. -1.
       -4    1    3    3    0  502 -0.21828675119E+03 -0.51158579607E+02  0.36962635477E+02  0.22723150163E+03  0.12699999809E+01 0.  1.
</event>
<event>
 5   0  0.1225989E-02  0.4977453E+03  0.7818609E-02  0.1014369E+00
        1   -1    0    0  501    0  0.00000000000E+00  0.00000000000E+00  0.56141262898E+03  0.56141262901E+03  0.50400001928E-02 0.  1.
       -1   -1    0    0    0  501  0.00000000000E+00  0.00000000000E+00 -0.11032456769E+03  0.11032456780E+03  0.50400001928E-02 0. -1.
    10030    2    1    2    0    0  0.00000000000E+00  0.00000000000E+00  0.45108806129E+03  0.67173719681E+03  0.49774533904E+03 0.  0.
        3    1    3    3  502    0 -0.12671053856E+03  0.19244690144E+03  0.98612012311E+02  0.25063062388E+03  0.10100000352E+00 0. -1.
       -3    1    3    3    0  502  0.12671053856E+03 -0.19244690144E+03  0.35247604898E+03  0.42110657293E+03  0.10100000352E+00 0.  1.
</event>
<event>
 5   0  0.1217270E-02  0.5033487E+03  0.7818609E-02  0.1012909E+00
       -1   -1    0    0    0  501  0.00000000000E+00  0.00000000000E+00  0.19850231168E+03  0.19850231175E+03  0.50400001928E-02 0. -1.
        1   -1    0    0  501    0  0.00000000000E+00  0.00000000000E+00 -0.31908938388E+03  0.31908938392E+03  0.50400001928E-02 0.  1.
    10030    2    1    2    0    0  0.00000000000E+00  0.00000000000E+00 -0.12058707220E+03  0.51759169567E+03  0.50334870760E+03 0.  0.
        2    1    3    3  502    0 -0.20221639636E+01 -0.22158849132E+03 -0.18297767210E+03  0.28737845627E+03  0.25500000920E-02 0.  1.
       -2    1    3    3    0  502  0.20221639636E+01  0.22158849132E+03  0.62390599908E+02  0.23021323940E+03  0.25500000920E-02 0. -1.
</event>
<event>
 5   0  0.1855407E-02  0.5001072E+03  0.7818609E-02  0.1013751E+00
       -2   -1    0    0    0  501  0.00000000000E+00  0.00000000000E+00  0.80954644219E+02  0.80954644259E+02  0.25500000920E-02 0. -1.
        2   -1    0    0  501    0  0.00000000000E+00  0.00000000000E+00 -0.77236827607E+03  0.77236827607E+03  0.25500000920E-02 0.  1.
    10030    2    1    2    0    0  0.00000000000E+00  0.00000000000E+00 -0.69141363185E+03  0.85332292033E+03  0.50010718457E+03 0.  0.
        1    1    3    3  502    0  0.13720625850E+03 -0.13464794163E+02  0.10247666233E+02  0.13824569701E+03  0.50400001928E-02 0. -1.
       -1    1    3    3    0  502 -0.13720625850E+03  0.13464794163E+02 -0.70166129808E+03  0.71507722331E+03  0.50400001928E-02 0.  1.
</event>
<event>
 5   0  0.1209831E-02  0.4900058E+03  0.7818609E-02  0.1016421E+00
        1   -1    0    0  501    0  0.00000000000E+00  0.00000000000E+00  0.11697011586E+03  0.11697011597E+03  0.50400001928E-02 0. -1.
       -1   -1    0    0    0  501  0.00000000000E+00  0.00000000000E+00 -0.51317732622E+03  0.51317732624E+03  0.50400001928E-02 0.  1.
    10030    2    1    2    0    0  0.00000000000E+00  0.00000000000E+00 -0.39620721035E+03  0.63014744221E+03  0.49000576057E+03 0.  0.
        4    1    3    3  502    0 -0.32475997209E+02  0.24169374275E+03 -0.16782812713E+03  0.29603791790E+03  0.12699999809E+01 0. -1.
       -4    1    3    3    0  502  0.32475997209E+02 -0.24169374275E+03 -0.22837908323E+03  0.33410952431E+03  0.12699999809E+01 0.  1.
</event>
<event>
 5   0  0.1923706E-02  0.4972144E+03  0.7818609E-02  0.1014509E+00
        2   -1    0    0  501    0  0.00000000000E+00  0.00000000000E+00  0.94336546396E+03  0.94336546397E+03  0.25500000920E-02 0.  1.
       -2   -1    0    0    0  501  0.00000000000E+00  0.00000000000E+00 -0.65516012634E+02  0.65516012684E+02  0.25500000920E-02 0. -1.
    10030    2    1    2    0    0  0.00000000000E+00  0.00000000000E+00  0.87784945133E+03  0.10088814767E+04  0.49721441525E+03 0.  0.
        3    1    3    3  502    0 -0.89240494370E+02  0.22340523732E+03  0.56615496845E+03  0.61514650646E+03  0.10100000352E+00 0. -1.
       -3    1    3    3    0  502  0.89240494370E+02 -0.22340523732E+03  0.31169448288E+03  0.39373497020E+03  0.10100000352E+00 0.  1.
</event>
<event>
 5   0  0.1855407E-02  0.4989761E+03  0.7818609E-02  0.1014047E+00
       -2   -1    0    0    0  501  0.00000000000E+00  0.00000000000E+00  0.36555040668E+02  0.36555040757E+02  0.25500000920E-02 0.  1.
        2   -1    0    0  501    0  0.00000000000E+00  0.00000000000E+00 -0.17027549507E+04  0.17027549507E+04  0.25500000920E-02 0. -1.
    10030    2    1    2    0    0  0.00000000000E+00  0.00000000000E+00 -0.16661999101E+04  0.17393099915E+04  0.49897605775E+03 0.  0.
        1    1    3    3  502    0 -0.58151928355E+01  0.24679913313E+03 -0.95881207885E+03  0.99008294155E+03  0.50400001928E-02 0. -1.
       -1    1    3    3    0  502  0.58151928355E+01 -0.24679913313E+03 -0.70738783121E+03  0.74922704993E+03  0.50400001928E-02 0.  1.
</event>
<event>
 5   0  0.1855407E-02  0.5010099E+03  0.7818609E-02  0.1013516E+00
        2   -1    0    0  501    0  0.00000000000E+00  0.00000000000E+00  0.10682131936E+03  0.10682131939E+03  0.25500000920E-02 0.  1.
       -2   -1    0    0    0  501  0.00000000000E+00  0.00000000000E+00 -0.58745507597E+03  0.58745507598E+03  0.25500000920E-02 0. -1.
    10030    2    1    2    0    0  0.00000000000E+00  0.00000000000E+00 -0.48063375661E+03  0.69427639537E+03  0.50100988531E+03 0.  0.
        1    1    3    3  502    0 -0.89535661496E+02 -0.21959217342E+03 -0.12846182417E+03  0.26970316573E+03  0.50400001928E-02 0.  1.
       -1    1    3    3    0  502  0.89535661496E+02  0.21959217342E+03 -0.35217193244E+03  0.42457322964E+03  0.50400001928E-02 0. -1.
</event>
<event>
 5   0  0.1967813E-02  0.5011519E+03  0.7818609E-02  0.1013479E+00
        2   -1    0    0  501    0  0.00000000000E+00  0.00000000000E+00  0.12013753157E+04  0.12013753157E+04  0.25500000920E-02 0.  1.
       -2   -1    0    0    0  501  0.00000000000E+00  0.00000000000E+00 -0.52263680289E+02  0.52263680351E+02  0.25500000920E-02 0. -1.
    10030    2    1    2    0    0  0.00000000000E+00  0.00000000000E+00  0.11491116354E+04  0.12536389960E+04  0.50115185502E+03 0.  0.
        5    1    3    3  502    0 -0.58810417982E+02  0.15643737532E+03  0.10767034743E+03  0.19886254392E+03  0.46999998093E+01 0. -1.
       -5    1    3    3    0  502  0.58810417982E+02 -0.15643737532E+03  0.10414412880E+04  0.10547764521E+04  0.46999998093E+01 0.  1.
</event>
<event>
 5   0  0.1227864E-02  0.5004441E+03  0.7818609E-02  0.1013663E+00
        1   -1    0    0  501    0  0.00000000000E+00  0.00000000000E+00  0.41625258708E+03  0.41625258711E+03  0.50400001928E-02 0.  1.
       -1   -1    0    0    0  501  0.00000000000E+00  0.00000000000E+00 -0.15041608053E+03  0.15041608061E+03  0.50400001928E-02 0. -1.
    10030    2    1    2    0    0  0.00000000000E+00  0.00000000000E+00  0.26583650656E+03  0.56666866772E+03  0.50044413351E+03 0.  0.
        5    1    3    3  502    0 -0.97778735677E+01 -0.16079592507E+03  0.34965862353E+03  0.38501192103E+03  0.46999998093E+01 0.  1.
       -5    1    3    3    0  502  0.97778735677E+01  0.16079592507E+03 -0.83822116967E+02  0.18165674670E+03  0.46999998093E+01 0. -1.
</event>
<event>
 5   0  0.1923706E-02  0.5000274E+03  0.7818609E-02  0.1013772E+00
        2   -1    0    0  501    0  0.00000000000E+00  0.00000000000E+00  0.13548506891E+04  0.13548506891E+04  0.25500000920E-02 0. -1.
       -2   -1    0    0    0  501  0.00000000000E+00  0.00000000000E+00 -0.46135597298E+02  0.46135597369E+02  0.25500000920E-02 0.  1.
    10030    2    1    2    0    0  0.00000000000E+00  0.00000000000E+00  0.13087150918E+04  0.14009862864E+04  0.50002738261E+03 0.  0.
        3    1    3    3  502    0  0.13355206922E+03  0.20738344846E+03  0.76860808105E+03  0.80721895564E+03  0.10100000352E+00 0.  1.
       -3    1    3    3    0  502 -0.13355206922E+03 -0.20738344846E+03  0.54010701071E+03  0.59376733078E+03  0.10100000352E+00 0. -1.
</event>
<event>
 5   0  0.1217270E-02  0.5004470E+03  0.7818609E-02  0.1013662E+00
       -1   -1    0    0    0  501  0.00000000000E+00  0.00000000000E+00  0.51116713455E+02  0.51116713703E+02  0.50400001928E-02 0.  1.
        1   -1    0    0  501    0  0.00000000000E+00  0.00000000000E+00 -0.12248790119E+04  0.12248790119E+04  0.50400001928E-02 0. -1.
    10030    2    1    2    0    0  0.00000000000E+00  0.00000000000E+00 -0.11737622984E+04  0.12759957256E+04  0.50044695875E+03 0.  0.
        2    1    3    3  502    0 -0.16599046317E+03  0.10735293151E+03 -0.19573249223E+03  0.27818823535E+03  0.25500000920E-02 0.  1.
       -2    1    3    3    0  502  0.16599046317E+03 -0.10735293151E+03 -0.97802980617E+03  0.99780749022E+03  0.25500000920E-02 0. -1.
</event>
<event>
 5   0  0.1180937E-02  0.5022981E+03  0.7818609E-02  0.1013181E+00
        1   -1    0    0  501    0  0.00000000000E+00  0.00000000000E+00  0.69482877938E+03  0.69482877940E+03  0.50400001928E-02 0. -1.
       -1   -1    0    0    0  501  0.00000000000E+00  0.00000000000E+00 -0.90778981780E+02  0.90778981920E+02  0.50400001928E-02 0.  1.
    10030    2    1    2    0    0  0.00000000000E+00  0.00000000000E+00  0.60404979760E+03  0.78560776132E+03  0.50229811533E+03 0.  0.
        1    1    3    3  502    0  0.94275504685E+02 -0.14859799381E+03  0.21777574938E+02  0.17732314384E+03  0.50400001928E-02 0.  1.
       -1    1    3    3    0  502 -0.94275504685E+02  0.14859799381E+03  0.58227222267E+03  0.60828461748E+03  0.50400001928E-02 0. -1.
</event>
<event>
 5   0  0.1180937E-02  0.4998115E+03  0.7818609E-02  0.1013828E+00
       -1   -1    0    0    0  501  0.00000000000E+00  0.00000000000E+00  0.60972140596E+03  0.60972140599E+03  0.50400001928E-02 0.  1.
        1   -1    0    0  501    0  0.00000000000E+00  0.00000000000E+00 -0.10242857058E+03  0.10242857070E+03  0.50400001928E-02 0. -1.
    10030    2    1    2    0    0  0.00000000000E+00  0.00000000000E+00  0.50729283538E+03  0.71214997669E+03  0.49981153295E+03 0.  0.
        1    1    3    3  502    0  0.61985756220E+02  0.24076699660E+03  0.21754678706E+03  0.33035978146E+03  0.50400001928E-02 0. -1.
       -1    1    3    3    0  502 -0.61985756220E+02 -0.24076699660E+03  0.28974604833E+03  0.38179019523E+03  0.50400001928E-02 0.  1.
</event>
<event>
 5   0  0.1225989E-02  0.5031062E+03  0.7818609E-02  0.1012971E+00
        1   -1    0    0  501    0  0.00000000000E+00  0.00000000000E+00  0.55826254601E+03  0.55826254603E+03  0.50400001928E-02 0.  1.
       -1   -1    0    0    0  501  0.00000000000E+00  0.00000000000E+00 -0.11334980672E+03  0.11334980684E+03  0.50400001928E-02 0. -1.
    10030    2    1    2    0    0  0.00000000000E+00  0.00000000000E+00  0.44491273929E+03  0.67161235287E+03  0.50310615872E+03 0.  0.
        3    1    3    3  502    0 -0.40940111673E+02 -0.23929008405E+03  0.13448138908E+03  0.27752673976E+03  0.10100000352E+00 0. -1.
       -3    1    3    3    0  502  0.40940111673E+02  0.23929008405E+03  0.31043135020E+03  0.39408561311E+03  0.10100000352E+00 0.  1.
</event>
<event>
 5   0  0.1982847E-02  0.5000379E+03  0.7818609E-02  0.1013769E+00
        2   -1    0    0  501    0  0.00000000000E+00  0.00000000000E+00  0.19259879235E+03  0.19259879237E+03  0.25500000920E-02 0.  1.
       -2   -1    0    0    0  501  0.00000000000E+00  0.00000000000E+00 -0.32455797965E+03  0.32455797966E+03  0.25500000920E-02 0. -1.
    10030    2    1    2    0    0  0.00000000000E+00  0.00000000000E+00 -0.13195918729E+03  0.51715677203E+03  0.50003789831E+03 0.  0.
        2    1    3    3  502    0  0.10847632962E+03 -0.83151448819E+02  0.15053944962E+03  0.20333077344E+03  0.25500000920E-02 0.  1.
       -2    1    3    3    0  502 -0.10847632962E+03  0.83151448819E+02 -0.28249863691E+03  0.31382599859E+03  0.25500000920E-02 0. -1.
</event>
<event>
 5   0  0.1227864E-02  0.5005913E+03  0.7818609E-02  0.1013625E+00
        1   -1    0    0  501    0  0.00000000000E+00  0.00000000000E+00  0.22372678572E+04  0.22372678572E+04  0.50400001928E-02 0.  1.
       -1   -1    0    0    0  501  0.00000000000E+00  0.00000000000E+00 -0.28001975007E+02  0.28001975461E+02  0.50400001928E-02 0. -1.
    10030    2    1    2    0    0  0.00000000000E+00  0.00000000000E+00  0.22092658822E+04  0.22652698327E+04  0.50059132690E+03 0.  0.
        5    1    3    3  502    0 -0.19257950893E+03 -0.13883002442E+03  0.74645106083E+03  0.78330831679E+03  0.46999998093E+01 0.  1.
       -5    1    3    3    0  502  0.19257950893E+03  0.13883002442E+03  0.14628148214E+04  0.14819615159E+04  0.46999998093E+01 0. -1.
</event>
<event>
 5   0  0.1967813E-02  0.5110333E+03  0.7818609E-02  0.1010939E+00
        2   -1    0    0  501    0  0.00000000000E+00  0.00000000000E+00  0.88302411305E+03  0.88302411306E+03  0.25500000920E-02 0. -1.
       -2   -1    0    0    0  501  0.00000000000E+00  0.00000000000E+00 -0.73937684484E+02  0.73937684528E+02  0.25500000920E-02 0.  1.
    10030    2    1    2    0    0  0.00000000000E+00  0.00000000000E+00  0.80908642857E+03  0.95696179759E+03  0.51103329945E+03 0.  0.
        5    1    3    3  502    0 -0.15247477098E+03  0.59954748065E+02  0.37477271285E+02  0.16813614562E+03  0.46999998093E+01 0.  1.
       -5    1    3    3    0  502  0.15247477098E+03 -0.59954748065E+02  0.77160915728E+03  0.78882565197E+03  0.46999998093E+01 0. -1.
</event>
<event>
 5   0  0.8012875E-03  0.4996583E+03  0.7818609E-02  0.1013868E+00
        4   -1    0    0  501    0  0.00000000000E+00  0.00000000000E+00  0.19000209064E+03  0.19000633502E+03  0.12699999809E+01 0. -1.
       -4   -1    0    0    0  501  0.00000000000E+00  0.00000000000E+00 -0.32848512560E+03  0.32848758065E+03  0.12699999809E+01 0.  1.
    10030    2    1    2    0    0  0.00000000000E+00  0.00000000000E+00 -0.13848303496E+03  0.51849391567E+03  0.49965827284E+03 0.  0.
        4    1    3    3  502    0 -0.16546789566E+03 -0.33062709283E+02 -0.26041510544E+03  0.31030695655E+03  0.12699999809E+01 0.  1.
       -4    1    3    3    0  502  0.16546789566E+03  0.33062709283E+02  0.12193207048E+03  0.20818695913E+03  0.12699999809E+01 0. -1.
</event>
<event>
 5   0  0.1967813E-02  0.4967269E+03  0.7818609E-02  0.1014637E+00
       -2   -1    0    0    0  501  0.00000000000E+00  0.00000000000E+00  0.58092536322E+02  0.58092536378E+02  0.25500000920E-02 0.  1.
        2   -1    0    0  501    0  0.00000000000E+00  0.00000000000E+00 -0.10618302470E+04  0.10618302470E+04  0.25500000920E-02 0. -1.
    10030    2    1    2    0    0  0.00000000000E+00  0.00000000000E+00 -0.10037377107E+04  0.11199227834E+04  0.49672693596E+03 0.  0.
        5    1    3    3  502    0  0.10273198237E+03 -0.14111640400E+03 -0.10366062098E+03  0.20306480251E+03  0.46999998093E+01 0.  1.
       -5    1    3    3    0  502 -0.10273198237E+03  0.14111640400E+03 -0.90007708975E+03  0.91685798091E+03  0.46999998093E+01 0. -1.
</event>
<event>
 5   0  0.1180937E-02  0.5001018E+03  0.7818609E-02  0.1013752E+00
        1   -1    0    0  501    0  0.00000000000E+00  0.00000000000E+00  0.11725716283E+04  0.11725716283E+04  0.50400001928E-02 0.  1.
       -1   -1    0    0    0  501  0.00000000000E+00  0.00000000000E+00 -0.53323348086E+02  0.53323348324E+02  0.50400001928E-02 0. -1.
    10030    2    1    2    0    0  0.00000000000E+00  0.00000000000E+00  0.11192482802E+04  0.12258949766E+04  0.50010177061E+03 0.  0.
        1    1    3    3  502    0  0.15659521809E+03 -0.18970923622E+03  0.44962182880E+03  0.51251482475E+03  0.50400001928E-02 0. -1.
       -1    1    3    3    0  502 -0.15659521809E+03  0.18970923622E+03  0.66962645138E+03  0.71338015184E+03  0.50400001928E-02 0.  1.
</event>
<event>
 5   0  0.1217270E-02  0.5003766E+03  0.7818609E-02  0.1013681E+00
       -1   -1    0    0    0  501  0.00000000000E+00  0.00000000000E+00  0.15088992429E+03  0.15088992438E+03  0.50400001928E-02 0. -1.
        1   -1    0    0  501    0  0.00000000000E+00  0.00000000000E+00 -0.41483338270E+03  0.41483338273E+03  0.50400001928E-02 0.  1.
    10030    2    1    2    0    0  0.00000000000E+00  0.00000000000E+00 -0.26394345840E+03  0.56572330710E+03  0.50037656916E+03 0.  0.
        2    1    3    3  502    0  0.11652076146E+01 -0.46495220854E+02 -0.40990276688E+03  0.41253295817E+03  0.25500000920E-02 0.  1.
       -2    1    3    3    0  502 -0.11652076146E+01  0.46495220854E+02  0.14595930848E+03  0.15319034894E+03  0.25500000920E-02 0. -1.
</event>
<event>
 5   0  0.1855407E-02  0.4993753E+03  0.7818609E-02  0.1013942E+00
        2   -1    0    0  501    0  0.00000000000E+00  0.00000000000E+00  0.15781623550E+04  0.15781623550E+04  0.25500000920E-02 0. -1.
       -2   -1    0    0    0  501  0.00000000000E+00  0.00000000000E+00 -0.39504132262E+02  0.39504132345E+02  0.25500000920E-02 0.  1.
    10030    2    1    2    0    0  0.00000000000E+00  0.00000000000E+00  0.15386582228E+04  0.16176664874E+04  0.49937534770E+03 0.  0.
        1    1    3    3  502    0  0.41881309210E+02 -0.20438284508E+03  0.32496052669E+03  0.38616801441E+03  0.50400001928E-02 0.  1.
       -1    1    3    3    0  502 -0.41881309210E+02  0.20438284508E+03  0.12136976961E+04  0.12314984730E+04  0.50400001928E-02 0. -1.
</event>
<event>
 5   0  0.1855407E-02  0.4949391E+03  0.7818609E-02  0.1015108E+00
       -2   -1    0    0    0  501  0.00000000000E+00  0.00000000000E+00  0.60976609576E+03  0.60976609577E+03  0.25500000920E-02 0. -1.
        2   -1    0    0  501    0  0.00000000000E+00  0.00000000000E+00 -0.10043388277E+03  0.10043388281E+03  0.25500000920E-02 0.  1.
    10030    2    1    2    0    0  0.00000000000E+00  0.00000000000E+00  0.50933221299E+03  0.71019997857E+03  0.49493909360E+03 0.  0.
        1    1    3    3  502    0 -0.43508478025E+02 -0.39246963009E+02 -0.90336487525E+02  0.10767540466E+03  0.50400001928E-02 0.  1.
       -1    1    3    3    0  502  0.43508478025E+02  0.39246963009E+02  0.59966870051E+03  0.60252457391E+03  0.50400001928E-02 0. -1.
</event>
<event>
 5   0  0.1227864E-02  0.4989845E+03  0.7818609E-02  0.1014044E+00
       -1   -1    0    0    0  501  0.00000000000E+00  0.00000000000E+00  0.36627086929E+02  0.36627087276E+02  0.50400001928E-02 0. -1.
        1   -1    0    0  501    0  0.00000000000E+00  0.00000000000E+00 -0.16994631796E+04  0.16994631796E+04  0.50400001928E-02 0.  1.
    10030    2    1    2    0    0  0.00000000000E+00  0.00000000000E+00 -0.16628360927E+04  0.17360902669E+04  0.49898451247E+03 0.  0.
        5    1    3    3  502    0  0.13624957497E+03  0.20532861416E+03 -0.96619157633E+03  0.99713190634E+03  0.46999998093E+01 0.  1.
       -5    1    3    3    0  502 -0.13624957497E+03 -0.20532861416E+03 -0.69664451636E+03  0.73895836056E+03  0.46999998093E+01 0. -1.
</event>
<event>
 5   0  0.1217270E-02  0.5008304E+03  0.7818609E-02  0.1013562E+00
       -1   -1    0    0    0  501  0.00000000000E+00  0.00000000000E+00  0.18350487994E+03  0.18350488001E+03  0.50400001928E-02 0. -1.
        1   -1    0    0  501    0  0.00000000000E+00  0.00000000000E+00 -0.34172260719E+03  0.34172260722E+03  0.50400001928E-02 0.  1.
    10030    2    1    2    0    0  0.00000000000E+00  0.00000000000E+00 -0.15821772725E+03  0.52522748723E+03  0.50083037460E+03 0.  0.
        2    1    3    3  502    0  0.11298643500E+03  0.43445550167E+02 -0.30900040105E+03  0.33186548205E+03  0.25500000920E-02 0.  1.
       -2    1    3    3    0  502 -0.11298643500E+03 -0.43445550167E+02  0.15078267380E+03  0.19336200518E+03  0.25500000920E-02 0. -1.
</event>
<event>
 5   0  0.1967813E-02  0.4998789E+03  0.7818609E-02  0.1013811E+00
        2   -1    0    0  501    0  0.00000000000E+00  0.00000000000E+00  0.69641479311E+03  0.69641479311E+03  0.25500000920E-02 0. -1.
       -2   -1    0    0    0  501  0.00000000000E+00  0.00000000000E+00 -0.89701883047E+02  0.89701883083E+02  0.25500000920E-02 0.  1.
    10030    2    1    2    0    0  0.00000000000E+00  0.00000000000E+00  0.60671291006E+03  0.78611667620E+03  0.49987885868E+03 0.  0.
        5    1    3    3  502    0 -0.12148984268E+03 -0.89939904090E+02  0.61629746888E+03  0.63458145921E+03  0.46999998093E+01 0. -1.
       -5    1    3    3    0  502  0.12148984268E+03  0.89939904090E+02 -0.95845588179E+01  0.15153521699E+03  0.46999998093E+01 0.  1.
</event>
<event>
 5   0  0.1225989E-02  0.4993779E+03  0.7818609E-02  0.1013941E+00
        1   -1    0    0  501    0  0.00000000000E+00  0.00000000000E+00  0.64543248543E+03  0.64543248545E+03  0.50400001928E-02 0. -1.
       -1   -1    0    0    0  501  0.00000000000E+00  0.00000000000E+00 -0.96593471974E+02  0.96593472105E+02  0.50400001928E-02 0.  1.
    10030    2    1    2    0    0  0.00000000000E+00  0.00000000000E+00  0.54883901345E+03  0.74202595755E+03  0.49937787195E+03 0.  0.
        3    1    3    3  502    0 -0.21569841212E+03  0.12516893820E+03  0.25613106430E+03  0.35748594431E+03  0.10100000352E+00 0.  1.
       -3    1    3    3    0  502  0.21569841212E+03 -0.12516893820E+03  0.29270794915E+03  0.38454001324E+03  0.10100000352E+00 0. -1.
</event>
<event>
 5   0  0.8012875E-03  0.5005118E+03  0.7818609E-02  0.1013645E+00
        4   -1    0    0  501    0  0.00000000000E+00  0.00000000000E+00  0.45059025306E+03  0.45059204282E+03  0.12699999809E+01 0. -1.
       -4   -1    0    0    0  501  0.00000000000E+00  0.00000000000E+00 -0.13898609081E+03  0.13899189306E+03  0.12699999809E+01 0.  1.
    10030    2    1    2    0    0  0.00000000000E+00  0.00000000000E+00  0.31160416226E+03  0.58958393589E+03  0.50051180158E+03 0.  0.
        5    1    3    3  502    0 -0.25019851814E+03  0.11118848410E+00  0.15277239625E+03  0.29319073297E+03  0.46999998093E+01 0.  1.
       -5    1    3    3    0  502  0.25019851814E+03 -0.11118848410E+00  0.15883176601E+03  0.29639320292E+03  0.46999998093E+01 0. -1.
</event>
<event>
 5   0  0.1967813E-02  0.5005228E+03  0.7818609E-02  0.1013643E+00
        2   -1    0    0  501    0  0.00000000000E+00  0.00000000000E+00  0.38653929625E+03  0.38653929626E+03  0.25500000920E-02 0.  1.
       -2   -1    0    0    0  501  0.00000000000E+00  0.00000000000E+00 -0.16202949915E+03  0.16202949917E+03  0.25500000920E-02 0. -1.
    10030    2    1    2    0    0  0.00000000000E+00  0.00000000000E+00  0.22450979711E+03  0.54856879543E+03  0.50052280100E+03 0.  0.
        5    1    3    3  502    0  0.12235782567E+03  0.21804139675E+03  0.10156179514E+03  0.26990808886E+03  0.46999998093E+01 0. -1.
       -5    1    3    3    0  502 -0.12235782567E+03 -0.21804139675E+03  0.12294800196E+03  0.27866070657E+03  0.46999998093E+01 0.  1.
</event>
<event>
 5   0  0.1855407E-02  0.4866983E+03  0.7818609E-02  0.1017310E+00
       -2   -1    0    0    0  501  0.00000000000E+00  0.00000000000E+00  0.14673939419E+03  0.14673939421E+03  0.25500000920E-02 0.  1.
        2   -1    0    0  501    0  0.00000000000E+00  0.00000000000E+00 -0.40356442383E+03  0.40356442384E+03  0.25500000920E-02 0. -1.
    10030    2    1    2    0    0  0.00000000000E+00  0.00000000000E+00 -0.25682502964E+03  0.55030381804E+03  0.48669826002E+03 0.  0.
        1    1    3    3  502    0 -0.89470083990E+02 -0.21576728257E+03 -0.51240413894E+02  0.23913593665E+03  0.50400001928E-02 0. -1.
       -1    1    3    3    0  502  0.89470083990E+02  0.21576728257E+03 -0.20558461575E+03  0.31116788140E+03  0.50400001928E-02 0.  1.
</event>
<event>
 5   0  0.1217270E-02  0.4997670E+03  0.7818609E-02  0.1013840E+00
        1   -1    0    0  501    0  0.00000000000E+00  0.00000000000E+00  0.32019550033E+03  0.32019550037E+03  0.50400001928E-02 0.  1.
       -1   -1    0    0    0  501  0.00000000000E+00  0.00000000000E+00 -0.19501140366E+03  0.19501140373E+03  0.50400001928E-02 0. -1.
    10030    2    1    2    0    0  0.00000000000E+00  0.00000000000E+00  0.12518409667E+03  0.51520690410E+03  0.49976704170E+03 0.  0.
        2    1    3    3  502    0 -0.20928179997E+03 -0.12939226333E+03  0.10753411811E+03  0.26852339967E+03  0.25500000920E-02 0. -1.
       -2    1    3    3    0  502  0.20928179997E+03  0.12939226333E+03  0.17649978563E+02  0.24668350443E+03  0.25500000920E-02 0.  1.
</event>
<event>
 5   0  0.8012875E-03  0.4993805E+03  0.7818609E-02  0.1013941E+00
       -3   -1    0    0    0  501  0.00000000000E+00  0.00000000000E+00  0.38110945937E+03  0.38110947276E+03  0.10100000352E+00 0.  1.
        3   -1    0    0  501    0  0.00000000000E+00  0.00000000000E+00 -0.16358873525E+03  0.16358876642E+03  0.10100000352E+00 0. -1.
    10030    2    1    2    0    0  0.00000000000E+00  0.00000000000E+00  0.21752072413E+03  0.54469823918E+03  0.49938052259E+03 0.  0.
        3    1    3    3  502    0  0.20443243964E+03 -0.74164517851E+02  0.24258147146E+03  0.32578946973E+03  0.10100000352E+00 0.  1.
       -3    1    3    3    0  502 -0.20443243964E+03  0.74164517851E+02 -0.25060747337E+02  0.21890876945E+03  0.10100000352E+00 0. -1.
</event>
<event>
 5   0  0.1227864E-02  0.4998991E+03  0.7818609E-02  0.1013805E+00
        1   -1    0    0  501    0  0.00000000000E+00  0.00000000000E+00  0.96956634627E+03  0.96956634628E+03  0.50400001928E-02 0. -1.
       -1   -1    0    0    0  501  0.00000000000E+00  0.00000000000E+00 -0.64435790443E+02  0.64435790641E+02  0.50400001928E-02 0.  1.
    10030    2    1    2    0    0  0.00000000000E+00  0.00000000000E+00  0.90513055583E+03  0.10340021369E+04  0.49989908589E+03 0.  0.
        5    1    3    3  502    0  0.21462284339E+03 -0.89648493052E+02  0.26352390100E+03  0.35152063041E+03  0.46999998093E+01 0.  1.
       -5    1    3    3    0  502 -0.21462284339E+03  0.89648493052E+02  0.64160665483E+03  0.68248150651E+03  0.46999998093E+01 0. -1.
</event>
<event>
 5   0  0.1225989E-02  0.5009890E+03  0.7818609E-02  0.1013521E+00
        1   -1    0    0  501    0  0.00000000000E+00  0.00000000000E+00  0.48944614542E+03  0.48944614545E+03  0.50400001928E-02 0. -1.
       -1   -1    0    0    0  501  0.00000000000E+00  0.00000000000E+00 -0.12820102148E+03  0.12820102158E+03  0.50400001928E-02 0.  1.
    10030    2    1    2    0    0  0.00000000000E+00  0.00000000000E+00  0.36124512395E+03  0.61764716702E+03  0.50098900523E+03 0.  0.
        3    1    3    3  502    0 -0.20242985074E+02  0.12547588220E+03  0.44674100495E+03  0.46446906373E+03  0.10100000352E+00 0. -1.
       -3    1    3    3    0  502  0.20242985074E+02 -0.12547588220E+03 -0.85495881004E+02  0.15317810329E+03  0.10100000352E+00 0.  1.
</event>
<event>
 5   0  0.1180937E-02  0.5002587E+03  0.7818609E-02  0.1013711E+00
       -1   -1    0    0    0  501  0.00000000000E+00  0.00000000000E+00  0.62329961801E+02  0.62329962005E+02  0.50400001928E-02 0. -1.
        1   -1    0    0  501    0  0.00000000000E+00  0.00000000000E+00 -0.10037660304E+04  0.10037660304E+04  0.50400001928E-02 0.  1.
    10030    2    1    2    0    0  0.00000000000E+00  0.00000000000E+00 -0.94143606859E+03  0.10660959924E+04  0.50025872685E+03 0.  0.
        1    1    3    3  502    0 -0.95432092962E+02 -0.14338274528E+03 -0.85725557730E+03  0.87438722592E+03  0.50400001928E-02 0.  1.
       -1    1    3    3    0  502  0.95432092962E+02  0.14338274528E+03 -0.84180491296E+02  0.19170876650E+03  0.50400001928E-02 0. -1.
</event>
<event>
 5   0  0.1227864E-02  0.5023951E+03  0.7818609E-02  0.1013156E+00
        1   -1    0    0  501    0  0.00000000000E+00  0.00000000000E+00  0.98588876575E+02  0.98588876704E+02  0.50400001928E-02 0.  1.
       -1   -1    0    0    0  501  0.00000000000E+00  0.00000000000E+00 -0.64003376499E+03  0.64003376501E+03  0.50400001928E-02 0. -1.
    10030    2    1    2    0    0  0.00000000000E+00  0.00000000000E+00 -0.54144488841E+03  0.73862264171E+03  0.50239510314E+03 0.  0.
        5    1    3    3  502    0  0.14494266150E+03  0.20450767389E+03 -0.29379835715E+03  0.38622704264E+03  0.46999998093E+01 0.  1.
       -5    1    3    3    0  502 -0.14494266150E+03 -0.20450767389E+03 -0.24764653126E+03  0.35239559907E+03  0.46999998093E+01 0. -1.
</event>
<event>
 5   0  0.1217270E-02  0.4997417E+03  0.7818609E-02  0.1013846E+00
       -1   -1    0    0    0  501  0.00000000000E+00  0.00000000000E+00  0.37487916380E+03  0.37487916383E+03  0.50400001928E-02 0.  1.
        1   -1    0    0  501    0  0.00000000000E+00  0.00000000000E+00 -0.16654817175E+03  0.16654817183E+03  0.50400001928E-02 0. -1.
    10030    2    1    2    0    0  0.00000000000E+00  0.00000000000E+00  0.20833099204E+03  0.54142733566E+03  0.49974169083E+03 0.  0.
        2    1    3    3  502    0 -0.31569028458E+02 -0.55816553056E+02  0.36581253295E+03  0.37139049587E+03  0.25500000920E-02 0.  1.
       -2    1    3    3    0  502  0.31569028458E+02  0.55816553056E+02 -0.15748154091E+03  0.17003683979E+03  0.25500000920E-02 0. -1.
</event>
<event>
 5   0  0.1225989E-02  0.4959124E+03  0.7818609E-02  0.1014851E+00
       -1   -1    0    0    0  501  0.00000000000E+00  0.00000000000E+00  0.59623399195E+02  0.59623399408E+02  0.50400001928E-02 0.  1.
        1   -1    0    0  501    0  0.00000000000E+00  0.00000000000E+00 -0.10311771565E+04  0.10311771565E+04  0.50400001928E-02 0. -1.
    10030    2    1    2    0    0  0.00000000000E+00  0.00000000000E+00 -0.97155375732E+03  0.10908005559E+04  0.49591244133E+03 0.  0.
        3    1    3    3  502    0  0.15928674543E+03  0.16422251844E+03 -0.69607558030E+03  0.73270903265E+03  0.10100000352E+00 0. -1.
       -3    1    3    3    0  502 -0.15928674543E+03 -0.16422251844E+03 -0.27547817702E+03  0.35809152328E+03  0.10100000352E+00 0.  1.
</event>
<event>
 5   0  0.1941387E-02  0.4997915E+03  0.7818609E-02  0.1013833E+00
        2   -1    0    0  501    0  0.00000000000E+00  0.00000000000E+00  0.47092220118E+03  0.47092220118E+03  0.25500000920E-02 0.  1.
       -2   -1    0    0    0  501  0.00000000000E+00  0.00000000000E+00 -0.13260765598E+03  0.13260765601E+03  0.25500000920E-02 0. -1.
    10030    2    1    2    0    0  0.00000000000E+00  0.00000000000E+00  0.33831454519E+03  0.60352985719E+03  0.49979151357E+03 0.  0.
        4    1    3    3  502    0 -0.14089449328E+03  0.10742759252E+03  0.38195695117E+03  0.42105186298E+03  0.12699999809E+01 0.  1.
       -4    1    3    3    0  502  0.14089449328E+03 -0.10742759252E+03 -0.43642405981E+02  0.18247799421E+03  0.12699999809E+01 0. -1.
</event>
<event>
 5   0  0.1225989E-02  0.4952451E+03  0.7818609E-02  0.1015028E+00
       -1   -1    0    0    0  501  0.00000000000E+00  0.00000000000E+00  0.13635109814E+03  0.13635109824E+03  0.50400001928E-02 0.  1.
        1   -1    0    0  501    0  0.00000000000E+00  0.00000000000E+00 -0.44969885647E+03  0.44969885649E+03  0.50400001928E-02 0. -1.
    10030    2    1    2    0    0  0.00000000000E+00  0.00000000000E+00 -0.31334775832E+03  0.58604995473E+03  0.49524512294E+03 0.  0.
        3    1    3    3  502    0  0.14945419231E+02 -0.19843851643E+03  0.17708046781E+02  0.19978687514E+03  0.10100000352E+00 0.  1.
       -3    1    3    3    0  502 -0.14945419231E+02  0.19843851643E+03 -0.33105580510E+03  0.38626307959E+03  0.10100000352E+00 0. -1.
</event>
<event>
 5   0  0.1923706E-02  0.4999095E+03  0.7818609E-02  0.1013803E+00
        2   -1    0    0  501    0  0.00000000000E+00  0.00000000000E+00  0.14046475410E+04  0.14046475410E+04  0.25500000920E-02 0. -1.
       -2   -1    0    0    0  501  0.00000000000E+00  0.00000000000E+00 -0.44479045574E+02  0.44479045647E+02  0.25500000920E-02 0.  1.
    10030    2    1    2    0    0  0.00000000000E+00  0.00000000000E+00  0.13601684954E+04  0.14491265866E+04  0.49990952000E+03 0.  0.
        3    1    3    3  502    0  0.52768741348E+02  0.11026187599E+03  0.48076570772E+02  0.13135291477E+03  0.10100000352E+00 0.  1.
       -3    1    3    3    0  502 -0.52768741348E+02 -0.11026187599E+03  0.13120919246E+04  0.13177736719E+04  0.10100000352E+00 0. -1.
</event>
<event>
 5   0  0.1923706E-02  0.4996358E+03  0.7818609E-02  0.1013874E+00
       -2   -1    0    0    0  501  0.00000000000E+00  0.00000000000E+00  0.47986356450E+02  0.47986356518E+02  0.25500000920E-02 0. -1.
        2   -1    0    0  501    0  0.00000000000E+00  0.00000000000E+00 -0.13005568076E+04  0.13005568076E+04  0.25500000920E-02 0.  1.
    10030    2    1    2    0    0  0.00000000000E+00  0.00000000000E+00 -0.12525704512E+04  0.13485431642E+04  0.49963579777E+03 0.  0.
        3    1    3    3  502    0 -0.18838088205E+03  0.12585755597E+03 -0.34215959706E+03  0.41036652054E+03  0.10100000352E+00 0. -1.
       -3    1    3    3    0  502  0.18838088205E+03 -0.12585755597E+03 -0.91041085413E+03  0.93817664362E+03  0.10100000352E+00 0.  1.
</event>
<event>
 5   0  0.1967813E-02  0.5010940E+03  0.7818609E-02  0.1013494E+00
        2   -1    0    0  501    0  0.00000000000E+00  0.00000000000E+00  0.10553153521E+04  0.10553153521E+04  0.25500000920E-02 0.  1.
       -2   -1    0    0    0  501  0.00000000000E+00  0.00000000000E+00 -0.59483439434E+02  0.59483439489E+02  0.25500000920E-02 0. -1.
    10030    2    1    2    0    0  0.00000000000E+00  0.00000000000E+00  0.99583191265E+03  0.11147987916E+04  0.50109395072E+03 0.  0.
        5    1    3    3  502    0 -0.16035651292E+02 -0.96476741635E+02 -0.15157127568E+02  0.99079424217E+02  0.46999998093E+01 0. -1.
       -5    1    3    3    0  502  0.16035651292E+02  0.96476741635E+02  0.10109890402E+04  0.10157193674E+04  0.46999998093E+01 0.  1.
</event>
<event>
 5   0  0.1967813E-02  0.4998508E+03  0.7818609E-02  0.1013818E+00
        2   -1    0    0  501    0  0.00000000000E+00  0.00000000000E+00  0.12902340392E+04  0.12902340392E+04  0.25500000920E-02 0. -1.
       -2   -1    0    0    0  501  0.00000000000E+00  0.00000000000E+00 -0.48411919821E+02  0.48411919888E+02  0.25500000920E-02 0.  1.
    10030    2    1    2    0    0  0.00000000000E+00  0.00000000000E+00  0.12418221193E+04  0.13386459590E+04  0.49985080534E+03 0.  0.
        5    1    3    3  502    0  0.16618663724E+03  0.96673524552E+02  0.19344839912E+03  0.27277855830E+03  0.46999998093E+01 0.  1.
       -5    1    3    3    0  502 -0.16618663724E+03 -0.96673524552E+02  0.10483737202E+04  0.10658674008E+04  0.46999998093E+01 0. -1.
</event>
<event>
 5   0  0.1227864E-02  0.4999403E+03  0.7818609E-02  0.1013795E+00
        1   -1    0    0  501    0  0.00000000000E+00  0.00000000000E+00  0.74036726041E+02  0.74036726213E+02  0.50400001928E-02 0.  1.
       -1   -1    0    0    0  501  0.00000000000E+00  0.00000000000E+00 -0.84397392511E+03  0.84397392512E+03  0.50400001928E-02 0. -1.
    10030    2    1    2    0    0  0.00000000000E+00  0.00000000000E+00 -0.76993719906E+03  0.91801065133E+03  0.49994026189E+03 0.  0.
        5    1    3    3  502    0 -0.16949288163E+03  0.16565941949E+03 -0.53062423188E+03  0.58116696882E+03  0.46999998093E+01 0.  1.
       -5    1    3    3    0  502  0.16949288163E+03 -0.16565941949E+03 -0.23931296718E+03  0.33684368251E+03  0.46999998093E+01 0. -1.
</event>
<event>
 5   0  0.1217270E-02  0.4991159E+03  0.7818609E-02  0.1014010E+00
       -1   -1    0    0    0  501  0.00000000000E+00  0.00000000000E+00  0.19200240046E+03  0.19200240052E+03  0.50400001928E-02 0. -1.
        1   -1    0    0  501    0  0.00000000000E+00  0.00000000000E+00 -0.32436667319E+03  0.32436667323E+03  0.50400001928E-02 0.  1.
    10030    2    1    2    0    0  0.00000000000E+00  0.00000000000E+00 -0.13236427273E+03  0.51636907375E+03  0.49911593807E+03 0.  0.
        2    1    3    3  502    0  0.11342947821E+03  0.80020872804E+01 -0.29600727124E+03  0.31709712165E+03  0.25500000920E-02 0.  1.
       -2    1    3    3    0  502 -0.11342947821E+03 -0.80020872804E+01  0.16364299851E+03  0.19927195210E+03  0.25500000920E-02 0. -1.
</event>
<event>
 5   0  0.1967813E-02  0.4999053E+03  0.7818609E-02  0.1013804E+00
        2   -1    0    0  501    0  0.00000000000E+00  0.00000000000E+00  0.81328721092E+03  0.81328721093E+03  0.25500000920E-02 0. -1.
       -2   -1    0    0    0  501  0.00000000000E+00  0.00000000000E+00 -0.76819510435E+02  0.76819510477E+02  0.25500000920E-02 0.  1.
    10030    2    1    2    0    0  0.00000000000E+00  0.00000000000E+00  0.73646770049E+03  0.89010672141E+03  0.49990529266E+03 0.  0.
        5    1    3    3  502    0 -0.12957569160E+03  0.98636776367E+02  0.30702475202E+02  0.16578240404E+03  0.46999998093E+01 0.  1.
       -5    1    3    3    0  502  0.12957569160E+03 -0.98636776367E+02  0.70576522529E+03  0.72432431737E+03  0.46999998093E+01 0. -1.
</event>
<event>
 5   0  0.1855407E-02  0.5070438E+03  0.7818609E-02  0.1011957E+00
        2   -1    0    0  501    0  0.00000000000E+00  0.00000000000E+00  0.16155209740E+04  0.16155209740E+04  0.25500000920E-02 0. -1.
       -2   -1    0    0    0  501  0.00000000000E+00  0.00000000000E+00 -0.39784910819E+02  0.39784910901E+02  0.25500000920E-02 0.  1.
    10030    2    1    2    0    0  0.00000000000E+00  0.00000000000E+00  0.15757360632E+04  0.16553058849E+04  0.50704381644E+03 0.  0.
        1    1    3    3  502    0 -0.68000362431E+02  0.16550720537E+03  0.13741986290E+04  0.13857988873E+04  0.50400001928E-02 0. -1.
       -1    1    3    3    0  502  0.68000362431E+02 -0.16550720537E+03  0.20153743427E+03  0.26950699760E+03  0.50400001928E-02 0.  1.
</event>
<event>
 5   0  0.1217270E-02  0.5000498E+03  0.7818609E-02  0.1013766E+00
       -1   -1    0    0    0  501  0.00000000000E+00  0.00000000000E+00  0.29284272208E+03  0.29284272212E+03  0.50400001928E-02 0.  1.
        1   -1    0    0  501    0  0.00000000000E+00  0.00000000000E+00 -0.21346767758E+03  0.21346767764E+03  0.50400001928E-02 0. -1.
    10030    2    1    2    0    0  0.00000000000E+00  0.00000000000E+00  0.79375044495E+02  0.50631039976E+03  0.50004982073E+03 0.  0.
        2    1    3    3  502    0  0.24249339255E+03  0.52987835027E+02  0.70091789120E+02  0.25792172262E+03  0.25500000920E-02 0.  1.
       -2    1    3    3    0  502 -0.24249339255E+03 -0.52987835027E+02  0.92832553748E+01  0.24838867714E+03  0.25500000920E-02 0. -1.
</event>
<event>
 5   0  0.1855407E-02  0.4997658E+03  0.7818609E-02  0.1013840E+00
       -2   -1    0    0    0  501  0.00000000000E+00  0.00000000000E+00  0.28690784318E+03  0.28690784320E+03  0.25500000920E-02 0.  1.
        2   -1    0    0  501    0  0.00000000000E+00  0.00000000000E+00 -0.21763592642E+03  0.21763592643E+03  0.25500000920E-02 0. -1.
    10030    2    1    2    0    0  0.00000000000E+00  0.00000000000E+00  0.69271916767E+02  0.50454376963E+03  0.49976576215E+03 0.  0.
        1    1    3    3  502    0 -0.76841171985E+02 -0.34627590308E+02  0.27212488506E+03  0.28487819997E+03  0.50400001928E-02 0.  1.
       -1    1    3    3    0  502  0.76841171985E+02  0.34627590308E+02 -0.20285296829E+03  0.21966556966E+03  0.50400001928E-02 0. -1.
</event>
<event>
 5   0  0.1209831E-02  0.4999415E+03  0.7818609E-02  0.1013794E+00
        1   -1    0    0  501    0  0.00000000000E+00  0.00000000000E+00  0.34211269845E+03  0.34211269848E+03  0.50400001928E-02 0. -1.
       -1   -1    0    0    0  501  0.00000000000E+00  0.00000000000E+00 -0.18264561259E+03  0.18264561266E+03  0.50400001928E-02 0.  1.
    10030    2    1    2    0    0  0.00000000000E+00  0.00000000000E+00  0.15946708586E+03  0.52475831114E+03  0.49994153022E+03 0.  0.
        4    1    3    3  502    0 -0.53697890981E+02 -0.14767197631E+03 -0.12432157224E+03  0.20036951441E+03  0.12699999809E+01 0.  1.
       -4    1    3    3    0  502  0.53697890981E+02  0.14767197631E+03  0.28378865809E+03  0.32438879673E+03  0.12699999809E+01 0. -1.
</event>
<event>
 5   0  0.8012875E-03  0.5012618E+03  0.7818609E-02  0.1013450E+00
       -3   -1    0    0    0  501  0.00000000000E+00  0.00000000000E+00  0.69626236961E+02  0.69626310216E+02  0.10100000352E+00 0. -1.
        3   -1    0    0  501    0  0.00000000000E+00  0.00000000000E+00 -0.90218603581E+03  0.90218604146E+03  0.10100000352E+00 0.  1.
    10030    2    1    2    0    0  0.00000000000E+00  0.00000000000E+00 -0.83255979884E+03  0.97181235167E+03  0.50126183599E+03 0.  0.
        2    1    3    3  502    0  0.10979410160E+03 -0.21870846708E+03 -0.31137821794E+03  0.39603602480E+03  0.25500000920E-02 0. -1.
       -2    1    3    3    0  502 -0.10979410160E+03  0.21870846708E+03 -0.52118158090E+03  0.57577632688E+03  0.25500000920E-02 0.  1.
</event>
<event>
 5   0  0.1923706E-02  0.4998486E+03  0.7818609E-02  0.1013818E+00
        2   -1    0    0  501    0  0.00000000000E+00  0.00000000000E+00  0.70283749645E+03  0.70283749645E+03  0.25500000920E-02 0. -1.
       -2   -1    0    0    0  501  0.00000000000E+00  0.00000000000E+00 -0.88871396182E+02  0.88871396218E+02  0.25500000920E-02 0.  1.
    10030    2    1    2    0    0  0.00000000000E+00  0.00000000000E+00  0.61396610027E+03  0.79170889267E+03  0.49984857553E+03 0.  0.
        3    1    3    3  502    0  0.13585309970E+03 -0.31890370392E+02  0.63538530823E+03  0.65052867773E+03  0.10100000352E+00 0. -1.
       -3    1    3    3    0  502 -0.13585309970E+03  0.31890370392E+02 -0.21419207968E+02  0.14118021495E+03  0.10100000352E+00 0.  1.
</event>
<event>
 5   0  0.1209831E-02  0.5016723E+03  0.7818609E-02  0.1013343E+00
       -1   -1    0    0    0  501  0.00000000000E+00  0.00000000000E+00  0.41021071100E+02  0.41021071410E+02  0.50400001928E-02 0.  1.
        1   -1    0    0  501    0  0.00000000000E+00  0.00000000000E+00 -0.15338159318E+04  0.15338159318E+04  0.50400001928E-02 0. -1.
    10030    2    1    2    0    0  0.00000000000E+00  0.00000000000E+00 -0.14927948607E+04  0.15748370032E+04  0.50167229401E+03 0.  0.
        4    1    3    3  502    0 -0.12758119493E+03 -0.15195231667E+03 -0.12281425562E+04  0.12440668066E+04  0.12699999809E+01 0. -1.
       -4    1    3    3    0  502  0.12758119493E+03  0.15195231667E+03 -0.26465230448E+03  0.33077019668E+03  0.12699999809E+01 0.  1.
</event>
<event>
 5   0  0.1923706E-02  0.4995814E+03  0.7818609E-02  0.1013888E+00
        2   -1    0    0  501    0  0.00000000000E+00  0.00000000000E+00  0.16639020850E+04  0.16639020850E+04  0.25500000920E-02 0. -1.
       -2   -1    0    0    0  501  0.00000000000E+00  0.00000000000E+00 -0.37499441776E+02  0.37499441863E+02  0.25500000920E-02 0.  1.
    10030    2    1    2    0    0  0.00000000000E+00  0.00000000000E+00  0.16264026432E+04  0.17014015268E+04  0.49958142252E+03 0.  0.
        3    1    3    3  502    0 -0.42464755759E+02  0.20823977304E+03  0.36618627960E+03  0.42339043462E+03  0.10100000352E+00 0.  1.
       -3    1    3    3    0  502  0.42464755759E+02 -0.20823977304E+03  0.12602163636E+04  0.12780110922E+04  0.10100000352E+00 0. -1.
</event>
<event>
 5   0  0.1941387E-02  0.5002161E+03  0.7818609E-02  0.1013723E+00
        2   -1    0    0  501    0  0.00000000000E+00  0.00000000000E+00  0.31836409998E+03  0.31836409999E+03  0.25500000920E-02 0.  1.
       -2   -1    0    0    0  501  0.00000000000E+00  0.00000000000E+00 -0.19648584912E+03  0.19648584914E+03  0.25500000920E-02 0. -1.
    10030    2    1    2    0    0  0.00000000000E+00  0.00000000000E+00  0.12187825086E+03  0.51484994913E+03  0.50021611538E+03 0.  0.
        4    1    3    3  502    0 -0.45690278615E+02 -0.21106712049E+03  0.19078647626E+03  0.28816318873E+03  0.12699999809E+01 0.  1.
       -4    1    3    3    0  502  0.45690278615E+02  0.21106712049E+03 -0.68908225405E+02  0.22668676040E+03  0.12699999809E+01 0. -1.
</event>
<event>
 5   0  0.1982847E-02  0.5001290E+03  0.7818609E-02  0.1013745E+00
       -2   -1    0    0    0  501  0.00000000000E+00  0.00000000000E+00  0.67356654921E+02  0.67356654969E+02  0.25500000920E-02 0. -1.
        2   -1    0    0  501    0  0.00000000000E+00  0.00000000000E+00 -0.92837523505E+03  0.92837523505E+03  0.25500000920E-02 0.  1.
    10030    2    1    2    0    0  0.00000000000E+00  0.00000000000E+00 -0.86101858013E+03  0.99573189002E+03  0.50012898484E+03 0.  0.
        2    1    3    3  502    0 -0.99258436885E+02  0.16881640209E+03 -0.12091150955E+03  0.23015387908E+03  0.25500000920E-02 0.  1.
       -2    1    3    3    0  502  0.99258436885E+02 -0.16881640209E+03 -0.74010707058E+03  0.76557801094E+03  0.25500000920E-02 0. -1.
</event>
<event>
 5   0  0.1982847E-02  0.4999927E+03  0.7818609E-02  0.1013781E+00
       -2   -1    0    0    0  501  0.00000000000E+00  0.00000000000E+00  0.38475130022E+02  0.38475130106E+02  0.25500000920E-02 0.  1.
        2   -1    0    0  501    0  0.00000000000E+00  0.00000000000E+00 -0.16243786938E+04  0.16243786938E+04  0.25500000920E-02 0. -1.
    10030    2    1    2    0    0  0.00000000000E+00  0.00000000000E+00 -0.15859035638E+04  0.16628538239E+04  0.49999272603E+03 0.  0.
        2    1    3    3  502    0 -0.53546493714E+02  0.16666153996E+03 -0.19937293975E+03  0.26531653737E+03  0.25500000920E-02 0.  1.
       -2    1    3    3    0  502  0.53546493714E+02 -0.16666153996E+03 -0.13865306240E+04  0.13975372866E+04  0.25500000920E-02 0. -1.
</event>
<event>
 5   0  0.1217270E-02  0.5002077E+03  0.7818609E-02  0.1013725E+00
        1   -1    0    0  501    0  0.00000000000E+00  0.00000000000E+00  0.16492239112E+03  0.16492239120E+03  0.50400001928E-02 0. -1.
       -1   -1    0    0    0  501  0.00000000000E+00  0.00000000000E+00 -0.37928109055E+03  0.37928109058E+03  0.50400001928E-02 0.  1.
    10030    2    1    2    0    0  0.00000000000E+00  0.00000000000E+00 -0.21435869942E+03  0.54420348178E+03  0.50020773441E+03 0.  0.
        2    1    3    3  502    0  0.11915193851E+03 -0.29359833761E+02 -0.34427556324E+03  0.36549260970E+03  0.25500000920E-02 0.  1.
       -2    1    3    3    0  502 -0.11915193851E+03  0.29359833761E+02  0.12991686382E+03  0.17871087208E+03  0.25500000920E-02 0. -1.
</event>
<event>
 5   0  0.1982847E-02  0.4993307E+03  0.7818609E-02  0.1013954E+00
       -2   -1    0    0    0  501  0.00000000000E+00  0.00000000000E+00  0.40490702600E+02  0.40490702680E+02  0.25500000920E-02 0. -1.
        2   -1    0    0  501    0  0.00000000000E+00  0.00000000000E+00 -0.15394345963E+04  0.15394345963E+04  0.25500000920E-02 0.  1.
    10030    2    1    2    0    0  0.00000000000E+00  0.00000000000E+00 -0.14989438937E+04  0.15799252990E+04  0.49933070594E+03 0.  0.
        2    1    3    3  502    0  0.17935648152E+03  0.15270247224E+03 -0.10112701128E+04  0.10383419637E+04  0.25500000920E-02 0.  1.
       -2    1    3    3    0  502 -0.17935648152E+03 -0.15270247224E+03 -0.48767378091E+03  0.54158333531E+03  0.25500000920E-02 0. -1.
</event>
<event>
 5   0  0.1967813E-02  0.5000931E+03  0.7818609E-02  0.1013755E+00
       -2   -1    0    0    0  501  0.00000000000E+00  0.00000000000E+00  0.86183536571E+02  0.86183536609E+02  0.25500000920E-02 0. -1.
        2   -1    0    0  501    0  0.00000000000E+00  0.00000000000E+00 -0.72546652969E+03  0.72546652969E+03  0.25500000920E-02 0.  1.
    10030    2    1    2    0    0  0.00000000000E+00  0.00000000000E+00 -0.63928299312E+03  0.81165006630E+03  0.50009307617E+03 0.  0.
        5    1    3    3  502    0  0.10779577849E+03 -0.34201408068E+02 -0.68150641874E+03  0.69084206224E+03  0.46999998093E+01 0.  1.
       -5    1    3    3    0  502 -0.10779577849E+03  0.34201408068E+02  0.42223425629E+02  0.12080800406E+03  0.46999998093E+01 0. -1.
</event>
<event>
 5   0  0.1967813E-02  0.4999617E+03  0.7818609E-02  0.1013789E+00
       -2   -1    0    0    0  501  0.00000000000E+00  0.00000000000E+00  0.18045985707E+03  0.18045985709E+03  0.25500000920E-02 0. -1.
        2   -1    0    0  501    0  0.00000000000E+00  0.00000000000E+00 -0.34628430298E+03  0.34628430299E+03  0.25500000920E-02 0.  1.
    10030    2    1    2    0    0  0.00000000000E+00  0.00000000000E+00 -0.16582444591E+03  0.52674416009E+03  0.49996166185E+03 0.  0.
        5    1    3    3  502    0 -0.77713614058E+02 -0.15809674557E+03 -0.26970719969E+03  0.32217704811E+03  0.46999998093E+01 0.  1.
       -5    1    3    3    0  502  0.77713614058E+02  0.15809674557E+03  0.10388275378E+03  0.20456711197E+03  0.46999998093E+01 0. -1.
</event>
<event>
 5   0  0.1923706E-02  0.4987638E+03  0.7818609E-02  0.1014102E+00
       -2   -1    0    0    0  501  0.00000000000E+00  0.00000000000E+00  0.11528975824E+03  0.11528975827E+03  0.25500000920E-02 0.  1.
        2   -1    0    0  501    0  0.00000000000E+00  0.00000000000E+00 -0.53943503882E+03  0.53943503882E+03  0.25500000920E-02 0. -1.
    10030    2    1    2    0    0  0.00000000000E+00  0.00000000000E+00 -0.42414528058E+03  0.65472479709E+03  0.49876381272E+03 0.  0.
        3    1    3    3  502    0 -0.79889197130E+02 -0.23623575516E+03 -0.21035647845E+03  0.32625063075E+03  0.10100000352E+00 0. -1.
       -3    1    3    3    0  502  0.79889197130E+02  0.23623575516E+03 -0.21378880213E+03  0.32847416634E+03  0.10100000352E+00 0.  1.
</event>
<event>
 5   0  0.1225989E-02  0.4999056E+03  0.7818609E-02  0.1013804E+00
        1   -1    0    0  501    0  0.00000000000E+00  0.00000000000E+00  0.10696434442E+04  0.10696434442E+04  0.50400001928E-02 0.  1.
       -1   -1    0    0    0  501  0.00000000000E+00  0.00000000000E+00 -0.58408618680E+02  0.58408618898E+02  0.50400001928E-02 0. -1.
    10030    2    1    2    0    0  0.00000000000E+00  0.00000000000E+00  0.10112348255E+04  0.11280520631E+04  0.49990557583E+03 0.  0.
        3    1    3    3  502    0 -0.10671512262E+03 -0.14148740071E+03  0.90336621708E+03  0.92058532158E+03  0.10100000352E+00 0.  1.
       -3    1    3    3    0  502  0.10671512262E+03  0.14148740071E+03  0.10786860847E+03  0.20746674155E+03  0.10100000352E+00 0. -1.
</event>
<event>
 5   0  0.8012875E-03  0.5010449E+03  0.7818609E-02  0.1013507E+00
        3   -1    0    0  501    0  0.00000000000E+00  0.00000000000E+00  0.75007738652E+03  0.75007739332E+03  0.10100000352E+00 0. -1.
       -3   -1    0    0    0  501  0.00000000000E+00  0.00000000000E+00 -0.83673321859E+02  0.83673382816E+02  0.10100000352E+00 0.  1.
    10030    2    1    2    0    0  0.00000000000E+00  0.00000000000E+00  0.66640406466E+03  0.83375077614E+03  0.50104488752E+03 0.  0.
        1    1    3    3  502    0  0.72361149948E+02  0.22214639388E+03  0.48366826474E+03  0.53714071404E+03  0.50400001928E-02 0. -1.
       -1    1    3    3    0  502 -0.72361149948E+02 -0.22214639388E+03  0.18273579992E+03  0.29661006209E+03  0.50400001928E-02 0.  1.
</event>
<event>
 5   0  0.1180937E-02  0.4999756E+03  0.7818609E-02  0.1013785E+00
        1   -1    0    0  501    0  0.00000000000E+00  0.00000000000E+00  0.61453303260E+03  0.61453303263E+03  0.50400001928E-02 0.  1.
       -1   -1    0    0    0  501  0.00000000000E+00  0.00000000000E+00 -0.10169330845E+03  0.10169330858E+03  0.50400001928E-02 0. -1.
    10030    2    1    2    0    0  0.00000000000E+00  0.00000000000E+00  0.51283972415E+03  0.71622634120E+03  0.49997558857E+03 0.  0.
        1    1    3    3  502    0  0.45190652348E+02 -0.23412583236E+03  0.36397166122E+03  0.43512351193E+03  0.50400001928E-02 0. -1.
       -1    1    3    3    0  502 -0.45190652348E+02  0.23412583236E+03  0.14886806293E+03  0.28110282927E+03  0.50400001928E-02 0.  1.
</event>
<event>
 5   0  0.1923706E-02  0.4995760E+03  0.7818609E-02  0.1013890E+00
       -2   -1    0    0    0  501  0.00000000000E+00  0.00000000000E+00  0.80400966695E+02  0.80400966736E+02  0.25500000920E-02 0.  1.
        2   -1    0    0  501    0  0.00000000000E+00  0.00000000000E+00 -0.77603597323E+03  0.77603597323E+03  0.25500000920E-02 0. -1.
    10030    2    1    2    0    0  0.00000000000E+00  0.00000000000E+00 -0.69563500653E+03  0.85643693997E+03  0.49957599004E+03 0.  0.
        3    1    3    3  502    0  0.13415752236E+03  0.22990963347E+02  0.11239850336E+02  0.13657660721E+03  0.10100000352E+00 0.  1.
       -3    1    3    3    0  502 -0.13415752236E+03 -0.22990963347E+02 -0.70687485687E+03  0.71986033275E+03  0.10100000352E+00 0. -1.
</event>
<event>
 5   0  0.8012875E-03  0.4999689E+03  0.7818609E-02  0.1013787E+00
        4   -1    0    0  501    0  0.00000000000E+00  0.00000000000E+00  0.13289356689E+03  0.13289963515E+03  0.12699999809E+01 0.  1.
       -4   -1    0    0    0  501  0.00000000000E+00  0.00000000000E+00 -0.47022507967E+03  0.47022679469E+03  0.12699999809E+01 0. -1.
    10030    2    1    2    0    0  0.00000000000E+00  0.00000000000E+00 -0.33733151277E+03  0.60312642984E+03  0.49996893990E+03 0.  0.
        2    1    3    3  502    0 -0.10881782039E+03  0.71333401525E+02  0.88829321487E+02  0.15754497952E+03  0.25500000920E-02 0.  1.
       -2    1    3    3    0  502  0.10881782039E+03 -0.71333401525E+02 -0.42616083426E+03  0.44558145032E+03  0.25500000920E-02 0. -1.
</event>
<event>
 5   0  0.1941387E-02  0.4991635E+03  0.7818609E-02  0.1013997E+00
       -2   -1    0    0    0  501  0.00000000000E+00  0.00000000000E+00  0.15723818985E+03  0.15723818987E+03  0.25500000920E-02 0. -1.
        2   -1    0    0  501    0  0.00000000000E+00  0.00000000000E+00 -0.39615733288E+03  0.39615733289E+03  0.25500000920E-02 0.  1.
    10030    2    1    2    0    0  0.00000000000E+00  0.00000000000E+00 -0.23891914303E+03  0.55339552276E+03  0.49916354805E+03 0.  0.
        4    1    3    3  502    0  0.85356619087E+02 -0.15036555331E+03  0.80077859497E+02  0.19055085549E+03  0.12699999809E+01 0. -1.
       -4    1    3    3    0  502 -0.85356619087E+02  0.15036555331E+03 -0.31899700253E+03  0.36284466727E+03  0.12699999809E+01 0.  1.
</event>
<event>
 5   0  0.1227864E-02  0.4999956E+03  0.7818609E-02  0.1013780E+00
        1   -1    0    0  501    0  0.00000000000E+00  0.00000000000E+00  0.14636052696E+03  0.14636052705E+03  0.50400001928E-02 0. -1.
       -1   -1    0    0    0  501  0.00000000000E+00  0.00000000000E+00 -0.42702013686E+03  0.42702013689E+03  0.50400001928E-02 0.  1.
    10030    2    1    2    0    0  0.00000000000E+00  0.00000000000E+00 -0.28065960990E+03  0.57338066394E+03  0.49999556913E+03 0.  0.
        5    1    3    3  502    0 -0.24678271963E+03 -0.31503125797E+02 -0.11264899673E+03  0.27314106997E+03  0.46999998093E+01 0. -1.
       -5    1    3    3    0  502  0.24678271963E+03  0.31503125797E+02 -0.16801061318E+03  0.30023959396E+03  0.46999998093E+01 0.  1.
</event>
<event>
 5   0  0.1209831E-02  0.5007137E+03  0.7818609E-02  0.1013593E+00
       -1   -1    0    0    0  501  0.00000000000E+00  0.00000000000E+00  0.12182520683E+03  0.12182520694E+03  0.50400001928E-02 0. -1.
        1   -1    0    0  501    0  0.00000000000E+00  0.00000000000E+00 -0.51449577136E+03  0.51449577138E+03  0.50400001928E-02 0.  1.
    10030    2    1    2    0    0  0.00000000000E+00  0.00000000000E+00 -0.39267056453E+03  0.63632097832E+03  0.50071370583E+03 0.  0.
        4    1    3    3  502    0  0.93283523182E+02  0.32339484238E+02  0.96036036953E+02  0.13773957758E+03  0.12699999809E+01 0. -1.
       -4    1    3    3    0  502 -0.93283523182E+02 -0.32339484238E+02 -0.48870660148E+03  0.49858140074E+03  0.12699999809E+01 0.  1.
</event>
<event>
 5   0  0.1941387E-02  0.5001386E+03  0.7818609E-02  0.1013743E+00
        2   -1    0    0  501    0  0.00000000000E+00  0.00000000000E+00  0.33539036370E+03  0.33539036371E+03  0.25500000920E-02 0. -1.
       -2   -1    0    0    0  501  0.00000000000E+00  0.00000000000E+00 -0.18645332308E+03  0.18645332310E+03  0.25500000920E-02 0.  1.
    10030    2    1    2    0    0  0.00000000000E+00  0.00000000000E+00  0.14893704062E+03  0.52184368681E+03  0.50013857220E+03 0.  0.
        4    1    3    3  502    0 -0.10665527445E+03 -0.16572637399E+03  0.23507206575E+03  0.30675897313E+03  0.12699999809E+01 0. -1.
       -4    1    3    3    0  502  0.10665527445E+03  0.16572637399E+03 -0.86135025126E+02  0.21508471368E+03  0.12699999809E+01 0.  1.
</event>
<event>
 5   0  0.1855407E-02  0.4943421E+03  0.7818609E-02  0.1015266E+00
        2   -1    0    0  501    0  0.00000000000E+00  0.00000000000E+00  0.13751468828E+04  0.13751468828E+04  0.25500000920E-02 0. -1.
       -2   -1    0    0    0  501  0.00000000000E+00  0.00000000000E+00 -0.44426909771E+02  0.44426909844E+02  0.25500000920E-02 0.  1.
    10030    2    1    2    0    0  0.00000000000E+00  0.00000000000E+00  0.13307199730E+04  0.14195737927E+04  0.49434209425E+03 0.  0.
        1    1    3    3  502    0  0.72744751675E+02 -0.16678229689E+02 -0.11297745287E+02  0.75482457006E+02  0.50400001928E-02 0.  1.
       -1    1    3    3    0  502 -0.72744751675E+02  0.16678229689E+02  0.13420177183E+04  0.13440913356E+04  0.50400001928E-02 0. -1.
</event>
<event>
 5   0  0.1982847E-02  0.4976882E+03  0.7818609E-02  0.1014384E+00
        2   -1    0    0  501    0  0.00000000000E+00  0.00000000000E+00  0.10138473259E+03  0.10138473263E+03  0.25500000920E-02 0. -1.
       -2   -1    0    0    0  501  0.00000000000E+00  0.00000000000E+00 -0.61077635331E+03  0.61077635331E+03  0.25500000920E-02 0.  1.
    10030    2    1    2    0    0  0.00000000000E+00  0.00000000000E+00 -0.50939162071E+03  0.71216108594E+03  0.49768824486E+03 0.  0.
        2    1    3    3  502    0 -0.22918827446E+03  0.83515510803E+02 -0.32510744078E+03  0.40644428124E+03  0.25500000920E-02 0. -1.
       -2    1    3    3    0  502  0.22918827446E+03 -0.83515510803E+02 -0.18428417993E+03  0.30571680470E+03  0.25500000920E-02 0.  1.
</event>
<event>
 5   0  0.1225989E-02  0.5000991E+03  0.7818609E-02  0.1013753E+00
        1   -1    0    0  501    0  0.00000000000E+00  0.00000000000E+00  0.77287763809E+03  0.77287763811E+03  0.50400001928E-02 0. -1.
       -1   -1    0    0    0  501  0.00000000000E+00  0.00000000000E+00 -0.80898679163E+02  0.80898679320E+02  0.50400001928E-02 0.  1.
    10030    2    1    2    0    0  0.00000000000E+00  0.00000000000E+00  0.69197895893E+03  0.85377631743E+03  0.50009911078E+03 0.  0.
        3    1    3    3  502    0 -0.89478721133E+02  0.12618569526E+02  0.74402712706E+03  0.74949452689E+03  0.10100000352E+00 0. -1.
       -3    1    3    3    0  502  0.89478721133E+02 -0.12618569526E+02 -0.52048168129E+02  0.10428179054E+03  0.10100000352E+00 0.  1.
</event>
<event>
 5   0  0.1227864E-02  0.5006516E+03  0.7818609E-02  0.1013609E+00
       -1   -1    0    0    0  501  0.00000000000E+00  0.00000000000E+00  0.89702938398E+02  0.89702938540E+02  0.50400001928E-02 0. -1.
        1   -1    0    0  501    0  0.00000000000E+00  0.00000000000E+00 -0.69856128681E+03  0.69856128683E+03  0.50400001928E-02 0.  1.
    10030    2    1    2    0    0  0.00000000000E+00  0.00000000000E+00 -0.60885834841E+03  0.78826422537E+03  0.50065157601E+03 0.  0.
        5    1    3    3  502    0  0.88523353735E+02  0.10519239200E+03  0.24855171221E+02  0.13979160570E+03  0.46999998093E+01 0. -1.
       -5    1    3    3    0  502 -0.88523353735E+02 -0.10519239200E+03 -0.63371351964E+03  0.64847261967E+03  0.46999998093E+01 0.  1.
</event>
<event>
 5   0  0.1209831E-02  0.4948228E+03  0.7818609E-02  0.1015139E+00
        1   -1    0    0  501    0  0.00000000000E+00  0.00000000000E+00  0.25308005051E+03  0.25308005056E+03  0.50400001928E-02 0.  1.
       -1   -1    0    0    0  501  0.00000000000E+00  0.00000000000E+00 -0.24186972274E+03  0.24186972279E+03  0.50400001928E-02 0. -1.
    10030    2    1    2    0    0  0.00000000000E+00  0.00000000000E+00  0.11210327774E+02  0.49494977336E+03  0.49482280333E+03 0.  0.
        4    1    3    3  502    0  0.62696357850E+02  0.19302499894E+03 -0.13592780542E+03  0.24426924630E+03  0.12699999809E+01 0. -1.
       -4    1    3    3    0  502 -0.62696357850E+02 -0.19302499894E+03  0.14713813319E+03  0.25068052705E+03  0.12699999809E+01 0.  1.
</event>
<event>
 5   0  0.1217270E-02  0.4985771E+03  0.7818609E-02  0.1014151E+00
       -1   -1    0    0    0  501  0.00000000000E+00  0.00000000000E+00  0.14615730708E+03  0.14615730716E+03  0.50400001928E-02 0.  1.
        1   -1    0    0  501    0  0.00000000000E+00  0.00000000000E+00 -0.42519110348E+03  0.42519110351E+03  0.50400001928E-02 0. -1.
    10030    2    1    2    0    0  0.00000000000E+00  0.00000000000E+00 -0.27903379641E+03  0.57134841067E+03  0.49857712226E+03 0.  0.
        2    1    3    3  502    0  0.10186377252E+03  0.22693815703E+03 -0.15826413388E+03  0.29482993631E+03  0.25500000920E-02 0.  1.
       -2    1    3    3    0  502 -0.10186377252E+03 -0.22693815703E+03 -0.12076966253E+03  0.27651847436E+03  0.25500000920E-02 0. -1.
</event>
<event>
 5   0  0.1982847E-02  0.4997481E+03  0.7818609E-02  0.1013845E+00
        2   -1    0    0  501    0  0.00000000000E+00  0.00000000000E+00  0.82290453446E+03  0.82290453446E+03  0.25500000920E-02 0.  1.
       -2   -1    0    0    0  501  0.00000000000E+00  0.00000000000E+00 -0.75873990610E+02  0.75873990653E+02  0.25500000920E-02 0. -1.
    10030    2    1    2    0    0  0.00000000000E+00  0.00000000000E+00  0.74703054385E+03  0.89877852511E+03  0.49974814033E+03 0.  0.
        2    1    3    3  502    0 -0.48624599152E+02 -0.24209389081E+02 -0.65127615244E+02  0.84805969343E+02  0.25500000920E-02 0. -1.
       -2    1    3    3    0  502  0.48624599152E+02  0.24209389081E+02  0.81215815909E+03  0.81397255577E+03  0.25500000920E-02 0.  1.
</event>
<event>
 5   0  0.1967813E-02  0.4998005E+03  0.7818609E-02  0.1013831E+00
        2   -1    0    0  501    0  0.00000000000E+00  0.00000000000E+00  0.13273057479E+03  0.13273057481E+03  0.25500000920E-02 0.  1.
       -2   -1    0    0    0  501  0.00000000000E+00  0.00000000000E+00 -0.47050308649E+03  0.47050308650E+03  0.25500000920E-02 0. -1.
    10030    2    1    2    0    0  0.00000000000E+00  0.00000000000E+00 -0.33777251170E+03  0.60323366131E+03  0.49980054069E+03 0.  0.
        5    1    3    3  502    0  0.21795146432E+03  0.51620414542E+02 -0.30252850365E+03  0.37644799576E+03  0.46999998093E+01 0. -1.
       -5    1    3    3    0  502 -0.21795146432E+03 -0.51620414542E+02 -0.35244008055E+02  0.22678566555E+03  0.46999998093E+01 0.  1.
</event>
<event>
 5   0  0.1180937E-02  0.5008046E+03  0.7818609E-02  0.1013569E+00
       -1   -1    0    0    0  501  0.00000000000E+00  0.00000000000E+00  0.22976654719E+03  0.22976654725E+03  0.50400001928E-02 0.  1.
        1   -1    0    0  501    0  0.00000000000E+00  0.00000000000E+00 -0.27289144016E+03  0.27289144021E+03  0.50400001928E-02 0. -1.
    10030    2    1    2    0    0  0.00000000000E+00  0.00000000000E+00 -0.43124892966E+02  0.50265798745E+03  0.50080464850E+03 0.  0.
        1    1    3    3  502    0  0.32009739057E+02  0.11320181885E+03  0.20030320591E+03  0.23229431657E+03  0.50400001928E-02 0.  1.
       -1    1    3    3    0  502 -0.32009739057E+02 -0.11320181885E+03 -0.24342809888E+03  0.27036367089E+03  0.50400001928E-02 0. -1.
</event>
<event>
 5   0  0.1855407E-02  0.4996264E+03  0.7818609E-02  0.1013876E+00
        2   -1    0    0  501    0  0.00000000000E+00  0.00000000000E+00  0.75138058910E+03  0.75138058910E+03  0.25500000920E-02 0.  1.
       -2   -1    0    0    0  501  0.00000000000E+00  0.00000000000E+00 -0.83055952796E+02  0.83055952835E+02  0.25500000920E-02 0. -1.
    10030    2    1    2    0    0  0.00000000000E+00  0.00000000000E+00  0.66832463630E+03  0.83443654194E+03  0.49962638344E+03 0.  0.
        1    1    3    3  502    0 -0.17014962638E+03  0.12036449102E+03  0.10414520496E+03  0.23299083630E+03  0.50400001928E-02 0. -1.
       -1    1    3    3    0  502  0.17014962638E+03 -0.12036449102E+03  0.56417943134E+03  0.60144570564E+03  0.50400001928E-02 0.  1.
</event>
<event>
 5   0  0.1209831E-02  0.5004616E+03  0.7818609E-02  0.1013659E+00
       -1   -1    0    0    0  501  0.00000000000E+00  0.00000000000E+00  0.42832710233E+02  0.42832710530E+02  0.50400001928E-02 0. -1.
        1   -1    0    0  501    0  0.00000000000E+00  0.00000000000E+00 -0.14618603986E+04  0.14618603986E+04  0.50400001928E-02 0.  1.
    10030    2    1    2    0    0  0.00000000000E+00  0.00000000000E+00 -0.14190276884E+04  0.15046931091E+04  0.50046155930E+03 0.  0.
        4    1    3    3  502    0 -0.22431578896E+03  0.10088688959E+03 -0.57114138148E+03  0.62185193431E+03  0.12699999809E+01 0.  1.
       -4    1    3    3    0  502  0.22431578896E+03 -0.10088688959E+03 -0.84788630689E+03  0.88284117484E+03  0.12699999809E+01 0. -1.
</event>
<event>
 5   0  0.1967813E-02  0.4999707E+03  0.7818609E-02  0.1013787E+00
        2   -1    0    0  501    0  0.00000000000E+00  0.00000000000E+00  0.70018317453E+03  0.70018317453E+03  0.25500000920E-02 0. -1.
       -2   -1    0    0    0  501  0.00000000000E+00  0.00000000000E+00 -0.89251883542E+02  0.89251883578E+02  0.25500000920E-02 0.  1.
    10030    2    1    2    0    0  0.00000000000E+00  0.00000000000E+00  0.61093129099E+03  0.78943505811E+03  0.49997066781E+03 0.  0.
        5    1    3    3  502    0  0.47360350913E+01  0.95964162027E+02 -0.58857646016E+02  0.11277350271E+03  0.46999998093E+01 0.  1.
       -5    1    3    3    0  502 -0.47360350913E+01 -0.95964162027E+02  0.66978893700E+03  0.67666155540E+03  0.46999998093E+01 0. -1.
</event>
<event>
 5   0  0.1855407E-02  0.4999934E+03  0.7818609E-02  0.1013781E+00
        2   -1    0    0  501    0  0.00000000000E+00  0.00000000000E+00  0.25671428676E+03  0.25671428677E+03  0.25500000920E-02 0. -1.
       -2   -1    0    0    0  501  0.00000000000E+00  0.00000000000E+00 -0.24345491853E+03  0.24345491855E+03  0.25500000920E-02 0.  1.
    10030    2    1    2    0    0  0.00000000000E+00  0.00000000000E+00  0.13259368225E+02  0.50016920532E+03  0.49999342306E+03 0.  0.
        1    1    3    3  502    0  0.81685518145E+02 -0.22755119945E+03  0.70262451632E+02  0.25177149239E+03  0.50400001928E-02 0. -1.
       -1    1    3    3    0  502 -0.81685518145E+02  0.22755119945E+03 -0.57003083407E+02  0.24839771293E+03  0.50400001928E-02 0.  1.
</event>
<event>
 5   0  0.1967813E-02  0.4951013E+03  0.7818609E-02  0.1015066E+00
        2   -1    0    0  501    0  0.00000000000E+00  0.00000000000E+00  0.29086772523E+03  0.29086772524E+03  0.25500000920E-02 0.  1.
       -2   -1    0    0    0  501  0.00000000000E+00  0.00000000000E+00 -0.21068454039E+03  0.21068454040E+03  0.25500000920E-02 0. -1.
    10030    2    1    2    0    0  0.00000000000E+00  0.00000000000E+00  0.80183184836E+02  0.50155226564E+03  0.49510133512E+03 0.  0.
        5    1    3    3  502    0  0.65527171650E+02  0.22828373341E+03  0.11065526007E+03  0.26205714976E+03  0.46999998093E+01 0.  1.
       -5    1    3    3    0  502 -0.65527171650E+02 -0.22828373341E+03 -0.30472075233E+02  0.23949511588E+03  0.46999998093E+01 0. -1.
</event>
<event>
 5   0  0.1967813E-02  0.5013641E+03  0.7818609E-02  0.1013423E+00
        2   -1    0    0  501    0  0.00000000000E+00  0.00000000000E+00  0.66475997660E+03  0.66475997661E+03  0.25500000920E-02 0. -1.
       -2   -1    0    0    0  501  0.00000000000E+00  0.00000000000E+00 -0.94532613365E+02  0.94532613400E+02  0.25500000920E-02 0.  1.
    10030    2    1    2    0    0  0.00000000000E+00  0.00000000000E+00  0.57022736324E+03  0.75929259001E+03  0.50136413060E+03 0.  0.
        5    1    3    3  502    0 -0.10419386464E+03 -0.52656714379E+02 -0.50775264645E+02  0.12739430323E+03  0.46999998093E+01 0.  1.
       -5    1    3    3    0  502  0.10419386464E+03  0.52656714379E+02  0.62100262788E+03  0.63189828678E+03  0.46999998093E+01 0. -1.
</event>
<event>
 5   0  0.1967813E-02  0.5005835E+03  0.7818609E-02  0.1013627E+00
       -2   -1    0    0    0  501  0.00000000000E+00  0.00000000000E+00  0.33283291854E+02  0.33283291951E+02  0.25500000920E-02 0. -1.
        2   -1    0    0  501    0  0.00000000000E+00  0.00000000000E+00 -0.18822044004E+04  0.18822044004E+04  0.25500000920E-02 0.  1.
    10030    2    1    2    0    0  0.00000000000E+00  0.00000000000E+00 -0.18489211085E+04  0.19154876924E+04  0.50058349346E+03 0.  0.
        5    1    3    3  502    0  0.10586915585E+03  0.33287561363E+02 -0.17827214634E+04  0.17861786713E+04  0.46999998093E+01 0.  1.
       -5    1    3    3    0  502 -0.10586915585E+03 -0.33287561363E+02 -0.66199645166E+02  0.12930902103E+03  0.46999998093E+01 0. -1.
</event>
<event>
 5   0  0.1855407E-02  0.5000187E+03  0.7818609E-02  0.1013774E+00
       -2   -1    0    0    0  501  0.00000000000E+00  0.00000000000E+00  0.39802845754E+03  0.39802845755E+03  0.25500000920E-02 0. -1.
        2   -1    0    0  501    0  0.00000000000E+00  0.00000000000E+00 -0.15703566677E+03  0.15703566679E+03  0.25500000920E-02 0.  1.
    10030    2    1    2    0    0  0.00000000000E+00  0.00000000000E+00  0.24099279077E+03  0.55506412434E+03  0.50001865658E+03 0.  0.
        1    1    3    3  502    0 -0.14261141345E+03 -0.20527115561E+03  0.11437563464E+03  0.27487460487E+03  0.50400001928E-02 0.  1.
       -1    1    3    3    0  502  0.14261141345E+03  0.20527115561E+03  0.12661715612E+03  0.28018951948E+03  0.50400001928E-02 0. -1.
</event>
<event>
 5   0  0.1217270E-02  0.5001960E+03  0.7818609E-02  0.1013728E+00
       -1   -1    0    0    0  501  0.00000000000E+00  0.00000000000E+00  0.67944860126E+03  0.67944860127E+03  0.50400001928E-02 0. -1.
        1   -1    0    0  501    0  0.00000000000E+00  0.00000000000E+00 -0.92058468615E+02  0.92058468753E+02  0.50400001928E-02 0.  1.
    10030    2    1    2    0    0  0.00000000000E+00  0.00000000000E+00  0.58739013264E+03  0.77150707003E+03  0.50019595278E+03 0.  0.
        2    1    3    3  502    0 -0.11339117109E+03 -0.13994346756E+03  0.56132543761E+03  0.58951503688E+03  0.25500000920E-02 0. -1.
       -2    1    3    3    0  502  0.11339117109E+03  0.13994346756E+03  0.26064695027E+02  0.18199203314E+03  0.25500000920E-02 0.  1.
</event>
<event>
 5   0  0.1941387E-02  0.5010319E+03  0.7818609E-02  0.1013510E+00
       -2   -1    0    0    0  501  0.00000000000E+00  0.00000000000E+00  0.17697765921E+03  0.17697765923E+03  0.25500000920E-02 0.  1.
        2   -1    0    0  501    0  0.00000000000E+00  0.00000000000E+00 -0.35461114446E+03  0.35461114446E+03  0.25500000920E-02 0. -1.
    10030    2    1    2    0    0  0.00000000000E+00  0.00000000000E+00 -0.17763348524E+03  0.53158880370E+03  0.50103193625E+03 0.  0.
        4    1    3    3  502    0 -0.13036935839E+03 -0.16420253612E+03  0.56650826011E+02  0.21718556918E+03  0.12699999809E+01 0.  1.
       -4    1    3    3    0  502  0.13036935839E+03  0.16420253612E+03 -0.23428431125E+03  0.31440323451E+03  0.12699999809E+01 0. -1.
</event>
<event>
 5   0  0.1225989E-02  0.5003158E+03  0.7818609E-02  0.1013697E+00
       -1   -1    0    0    0  501  0.00000000000E+00  0.00000000000E+00  0.15522770604E+03  0.15522770613E+03  0.50400001928E-02 0. -1.
        1   -1    0    0  501    0  0.00000000000E+00  0.00000000000E+00 -0.40314306006E+03  0.40314306009E+03  0.50400001928E-02 0.  1.
    10030    2    1    2    0    0  0.00000000000E+00  0.00000000000E+00 -0.24791535402E+03  0.55837076622E+03  0.50031579009E+03 0.  0.
        3    1    3    3  502    0  0.31608555180E+02 -0.15415919988E+03  0.93067131503E+02  0.18282686026E+03  0.10100000352E+00 0. -1.
       -3    1    3    3    0  502 -0.31608555180E+02  0.15415919988E+03 -0.34098248552E+03  0.37554390595E+03  0.10100000352E+00 0.  1.
</event>
<event>
 5   0  0.1923706E-02  0.4992865E+03  0.7818609E-02  0.1013965E+00
       -2   -1    0    0    0  501  0.00000000000E+00  0.00000000000E+00  0.48663239725E+02  0.48663239791E+02  0.25500000920E-02 0.  1.
        2   -1    0    0  501    0  0.00000000000E+00  0.00000000000E+00 -0.12806740364E+04  0.12806740364E+04  0.25500000920E-02 0. -1.
    10030    2    1    2    0    0  0.00000000000E+00  0.00000000000E+00 -0.12320107966E+04  0.13293372761E+04  0.49928648164E+03 0.  0.
        3    1    3    3  502    0 -0.15124628088E+03 -0.64468340697E+02 -0.11161689305E+04  0.11282130544E+04  0.10100000352E+00 0. -1.
       -3    1    3    3    0  502  0.15124628088E+03  0.64468340697E+02 -0.11584186611E+03  0.20112422176E+03  0.10100000352E+00 0.  1.
</event>
<event>
 5   0  0.1209831E-02  0.4989779E+03  0.7818609E-02  0.1014046E+00
        1   -1    0    0  501    0  0.00000000000E+00  0.00000000000E+00  0.12883525736E+04  0.12883525736E+04  0.50400001928E-02 0.  1.
       -1   -1    0    0    0  501  0.00000000000E+00  0.00000000000E+00 -0.48313428989E+02  0.48313429252E+02  0.50400001928E-02 0. -1.
    10030    2    1    2    0    0  0.00000000000E+00  0.00000000000E+00  0.12400391446E+04  0.13366660028E+04  0.49897787830E+03 0.  0.
        4    1    3    3  502    0 -0.16029304580E+03  0.70007515898E+02  0.14346114702E+03  0.22622472548E+03  0.12699999809E+01 0. -1.
       -4    1    3    3    0  502  0.16029304580E+03 -0.70007515898E+02  0.10965779976E+04  0.11104412774E+04  0.12699999809E+01 0.  1.
</event>
<event>
 5   0  0.1855407E-02  0.5008647E+03  0.7818609E-02  0.1013553E+00
       -2   -1    0    0    0  501  0.00000000000E+00  0.00000000000E+00  0.62600037342E+02  0.62600037393E+02  0.25500000920E-02 0.  1.
        2   -1    0    0  501    0  0.00000000000E+00  0.00000000000E+00 -0.10018583768E+04  0.10018583768E+04  0.25500000920E-02 0. -1.
    10030    2    1    2    0    0  0.00000000000E+00  0.00000000000E+00 -0.93925833945E+03  0.10644584142E+04  0.50086473954E+03 0.  0.
        1    1    3    3  502    0 -0.16166199093E+03  0.14204775182E+02 -0.87498793560E+03  0.88991025526E+03  0.50400001928E-02 0. -1.
       -1    1    3    3    0  502  0.16166199093E+03 -0.14204775182E+02 -0.64270403852E+02  0.17454815893E+03  0.50400001928E-02 0.  1.
</event>
<event>
 5   0  0.1225989E-02  0.4959679E+03  0.7818609E-02  0.1014837E+00
       -1   -1    0    0    0  501  0.00000000000E+00  0.00000000000E+00  0.60499057208E+03  0.60499057210E+03  0.50400001928E-02 0.  1.
        1   -1    0    0  501    0  0.00000000000E+00  0.00000000000E+00 -0.10164792417E+03  0.10164792430E+03  0.50400001928E-02 0. -1.
    10030    2    1    2    0    0  0.00000000000E+00  0.00000000000E+00  0.50334264791E+03  0.70663849640E+03  0.49596788544E+03 0.  0.
        3    1    3    3  502    0 -0.78219724625E+02 -0.16907515603E+03  0.18464869910E+02  0.18720495541E+03  0.10100000352E+00 0. -1.
       -3    1    3    3    0  502  0.78219724625E+02  0.16907515603E+03  0.48487777800E+03  0.51943354099E+03  0.10100000352E+00 0.  1.
</event>
<event>
 5   0  0.1209831E-02  0.4992725E+03  0.7818609E-02  0.1013969E+00
        1   -1    0    0  501    0  0.00000000000E+00  0.00000000000E+00  0.51034442563E+02  0.51034442812E+02  0.50400001928E-02 0.  1.
       -1   -1    0    0    0  501  0.00000000000E+00  0.00000000000E+00 -0.12211017441E+04  0.12211017442E+04  0.50400001928E-02 0. -1.
    10030    2    1    2    0    0  0.00000000000E+00  0.00000000000E+00 -0.11700673016E+04  0.12721361870E+04  0.49927245864E+03 0.  0.
        4    1    3    3  502    0  0.12338496005E+03 -0.12342561856E+03 -0.10398241691E+04  0.10543688383E+04  0.12699999809E+01 0. -1.
       -4    1    3    3    0  502 -0.12338496005E+03  0.12342561856E+03 -0.13024313252E+03  0.21776734868E+03  0.12699999809E+01 0.  1.
</event>
<event>
 5   0  0.1923706E-02  0.4999601E+03  0.7818609E-02  0.1013789E+00
        2   -1    0    0  501    0  0.00000000000E+00  0.00000000000E+00  0.33065153951E+03  0.33065153952E+03  0.25500000920E-02 0.  1.
       -2   -1    0    0    0  501  0.00000000000E+00  0.00000000000E+00 -0.18899061472E+03  0.18899061474E+03  0.25500000920E-02 0. -1.
    10030    2    1    2    0    0  0.00000000000E+00  0.00000000000E+00  0.14166092479E+03  0.51964215426E+03  0.49996014928E+03 0.  0.
        3    1    3    3  502    0 -0.20552438757E+03  0.58009263374E+02 -0.64226006171E+02  0.22300300131E+03  0.10100000352E+00 0. -1.
       -3    1    3    3    0  502  0.20552438757E+03 -0.58009263374E+02  0.20588693096E+03  0.29663915295E+03  0.10100000352E+00 0.  1.
</event>
<event>
 5   0  0.1227864E-02  0.4996829E+03  0.7818609E-02  0.1013862E+00
       -1   -1    0    0    0  501  0.00000000000E+00  0.00000000000E+00  0.90799515696E+02  0.90799515836E+02  0.50400001928E-02 0. -1.
        1   -1    0    0  501    0  0.00000000000E+00  0.00000000000E+00 -0.68745684120E+03  0.68745684122E+03  0.50400001928E-02 0.  1.
    10030    2    1    2    0    0  0.00000000000E+00  0.00000000000E+00 -0.59665732550E+03  0.77825635705E+03  0.49968289266E+03 0.  0.
        5    1    3    3  502    0  0.15892302134E+03 -0.74140675720E+02 -0.21262973263E+02  0.17671324381E+03  0.46999998093E+01 0. -1.
       -5    1    3    3    0  502 -0.15892302134E+03  0.74140675720E+02 -0.57539435224E+03  0.60154311324E+03  0.46999998093E+01 0.  1.
</event>
<event>
 5   0  0.1225989E-02  0.5011002E+03  0.7818609E-02  0.1013492E+00
        1   -1    0    0  501    0  0.00000000000E+00  0.00000000000E+00  0.10719943553E+04  0.10719943553E+04  0.50400001928E-02 0.  1.
       -1   -1    0    0    0  501  0.00000000000E+00  0.00000000000E+00 -0.58559405689E+02  0.58559405906E+02  0.50400001928E-02 0. -1.
    10030    2    1    2    0    0  0.00000000000E+00  0.00000000000E+00  0.10134349496E+04  0.11305537612E+04  0.50110019947E+03 0.  0.
        3    1    3    3  502    0  0.17309568198E+03  0.78637694221E+02  0.13854878960E+03  0.23524833554E+03  0.10100000352E+00 0. -1.
       -3    1    3    3    0  502 -0.17309568198E+03 -0.78637694221E+02  0.87488616001E+03  0.89530542568E+03  0.10100000352E+00 0.  1.
</event>
<event>
 5   0  0.1217270E-02  0.5054787E+03  0.7818609E-02  0.1012359E+00
        1   -1    0    0  501    0  0.00000000000E+00  0.00000000000E+00  0.12925745946E+03  0.12925745956E+03  0.50400001928E-02 0. -1.
       -1   -1    0    0    0  501  0.00000000000E+00  0.00000000000E+00 -0.49418570835E+03  0.49418570837E+03  0.50400001928E-02 0.  1.
    10030    2    1    2    0    0  0.00000000000E+00  0.00000000000E+00 -0.36492824889E+03  0.62344316793E+03  0.50547874021E+03 0.  0.
        2    1    3    3  502    0 -0.56077037873E+02  0.10589149566E+03  0.91997925986E+02  0.15106707590E+03  0.25500000920E-02 0. -1.
       -2    1    3    3    0  502  0.56077037873E+02 -0.10589149566E+03 -0.45692617487E+03  0.47237609203E+03  0.25500000920E-02 0.  1.
</event>
<event>
 5   0  0.1982847E-02  0.4998530E+03  0.7818609E-02  0.1013817E+00
       -2   -1    0    0    0  501  0.00000000000E+00  0.00000000000E+00  0.21788201902E+03  0.21788201903E+03  0.25500000920E-02 0. -1.
        2   -1    0    0  501    0  0.00000000000E+00  0.00000000000E+00 -0.28668381844E+03  0.28668381845E+03  0.25500000920E-02 0.  1.
    10030    2    1    2    0    0  0.00000000000E+00  0.00000000000E+00 -0.68801799419E+02  0.50456583748E+03  0.49985297514E+03 0.  0.
        2    1    3    3  502    0  0.15423245607E+03 -0.19412005578E+03 -0.66209954079E+02  0.25662035108E+03  0.25500000920E-02 0. -1.
       -2    1    3    3    0  502 -0.15423245607E+03  0.19412005578E+03 -0.25918453402E+01  0.24794548641E+03  0.25500000920E-02 0.  1.
</event>
<event>
 5   0  0.1217270E-02  0.4997458E+03  0.7818609E-02  0.1013845E+00
        1   -1    0    0  501    0  0.00000000000E+00  0.00000000000E+00  0.93585491796E+03  0.93585491797E+03  0.50400001928E-02 0.  1.
       -1   -1    0    0    0  501  0.00000000000E+00  0.00000000000E+00 -0.66715965270E+02  0.66715965460E+02  0.50400001928E-02 0. -1.
    10030    2    1    2    0    0  0.00000000000E+00  0.00000000000E+00  0.86913895269E+03  0.10025708834E+04  0.49974579260E+03 0.  0.
        2    1    3    3  502    0  0.21418155593E+03  0.19752076223E+02  0.68969599752E+03  0.72245723224E+03  0.25500000920E-02 0. -1.
       -2    1    3    3    0  502 -0.21418155593E+03 -0.19752076223E+02  0.17944295517E+03  0.28011365119E+03  0.25500000920E-02 0.  1.
</event>
<event>
 5   0  0.1217270E-02  0.5000911E+03  0.7818609E-02  0.1013755E+00
       -1   -1    0    0    0  501  0.00000000000E+00  0.00000000000E+00  0.30875009399E+03  0.30875009403E+03  0.50400001928E-02 0. -1.
        1   -1    0    0  501    0  0.00000000000E+00  0.00000000000E+00 -0.20250288240E+03  0.20250288247E+03  0.50400001928E-02 0.  1.
    10030    2    1    2    0    0  0.00000000000E+00  0.00000000000E+00  0.10624721158E+03  0.51125297650E+03  0.50009112770E+03 0.  0.
        2    1    3    3  502    0 -0.12810261585E+03  0.18145616522E+03 -0.64270403421E+02  0.23122998259E+03  0.25500000920E-02 0.  1.
       -2    1    3    3    0  502  0.12810261585E+03 -0.18145616522E+03  0.17051761501E+03  0.28002299391E+03  0.25500000920E-02 0. -1.
</event>
<event>
 5   0  0.1180937E-02  0.5013660E+03  0.7818609E-02  0.1013423E+00
        1   -1    0    0  501    0  0.00000000000E+00  0.00000000000E+00  0.99309221289E+03  0.99309221290E+03  0.50400001928E-02 0. -1.
       -1   -1    0    0    0  501  0.00000000000E+00  0.00000000000E+00 -0.63279082865E+02  0.63279083065E+02  0.50400001928E-02 0.  1.
    10030    2    1    2    0    0  0.00000000000E+00  0.00000000000E+00  0.92981313003E+03  0.10563712960E+04  0.50136599224E+03 0.  0.
        1    1    3    3  502    0 -0.22363691397E+03 -0.53240875050E+02  0.67554097283E+03  0.71358507977E+03  0.50400001928E-02 0.  1.
       -1    1    3    3    0  502  0.22363691397E+03  0.53240875050E+02  0.25427215720E+03  0.34278621620E+03  0.50400001928E-02 0. -1.
</event>
<event>
 5   0  0.8012875E-03  0.4998193E+03  0.7818609E-02  0.1013826E+00
        3   -1    0    0  501    0  0.00000000000E+00  0.00000000000E+00  0.10995589276E+03  0.10995593915E+03  0.10100000352E+00 0.  1.
       -3   -1    0    0    0  501  0.00000000000E+00  0.00000000000E+00 -0.56799873902E+03  0.56799874799E+03  0.10100000352E+00 0. -1.
    10030    2    1    2    0    0  0.00000000000E+00  0.00000000000E+00 -0.45804284625E+03  0.67795468714E+03  0.49981927616E+03 0.  0.
        5    1    3    3  502    0  0.15365935063E+03 -0.25716303146E+02 -0.49398919945E+03  0.51799608441E+03  0.46999998093E+01 0. -1.
       -5    1    3    3    0  502 -0.15365935063E+03  0.25716303146E+02  0.35946353201E+02  0.15995860274E+03  0.46999998093E+01 0.  1.
</event>
<event>
 5   0  0.1855407E-02  0.4994057E+03  0.7818609E-02  0.1013934E+00
        2   -1    0    0  501    0  0.00000000000E+00  0.00000000000E+00  0.41007597187E+03  0.41007597188E+03  0.25500000920E-02 0.  1.
       -2   -1    0    0    0  501  0.00000000000E+00  0.00000000000E+00 -0.15204865782E+03  0.15204865784E+03  0.25500000920E-02 0. -1.
    10030    2    1    2    0    0  0.00000000000E+00  0.00000000000E+00  0.25802731405E+03  0.56212462972E+03  0.49940565129E+03 0.  0.
        1    1    3    3  502    0  0.99100509453E+01  0.90500204968E+02  0.39072904133E+03  0.40119531400E+03  0.50400001928E-02 0.  1.
       -1    1    3    3    0  502 -0.99100509453E+01 -0.90500204968E+02 -0.13270172728E+03  0.16092931572E+03  0.50400001928E-02 0. -1.
</event>
<event>
 5   0  0.8012875E-03  0.4998711E+03  0.7818609E-02  0.1013813E+00
        3   -1    0    0  501    0  0.00000000000E+00  0.00000000000E+00  0.82940668486E+03  0.82940669101E+03  0.10100000352E+00 0.  1.
       -3   -1    0    0    0  501  0.00000000000E+00  0.00000000000E+00 -0.75316193692E+02  0.75316261413E+02  0.10100000352E+00 0. -1.
    10030    2    1    2    0    0  0.00000000000E+00  0.00000000000E+00  0.75409049117E+03  0.90472295242E+03  0.49987113516E+03 0.  0.
        2    1    3    3  502    0 -0.20434252251E+03  0.12652470773E+03  0.25291877158E+03  0.34890152364E+03  0.25500000920E-02 0. -1.
       -2    1    3    3    0  502  0.20434252251E+03 -0.12652470773E+03  0.50117171958E+03  0.55582142878E+03  0.25500000920E-02 0.  1.
</event>
<event>
 5   0  0.1941387E-02  0.4996525E+03  0.7818609E-02  0.1013870E+00
        2   -1    0    0  501    0  0.00000000000E+00  0.00000000000E+00  0.26323849337E+03  0.26323849338E+03  0.25500000920E-02 0.  1.
       -2   -1    0    0    0  501  0.00000000000E+00  0.00000000000E+00 -0.23709738373E+03  0.23709738374E+03  0.25500000920E-02 0. -1.
    10030    2    1    2    0    0  0.00000000000E+00  0.00000000000E+00  0.26141109640E+02  0.50033587712E+03  0.49965251158E+03 0.  0.
        4    1    3    3  502    0  0.53188024678E+02 -0.20407203696E+03  0.14718349680E+03  0.25717495381E+03  0.12699999809E+01 0.  1.
       -4    1    3    3    0  502 -0.53188024678E+02  0.20407203696E+03 -0.12104238716E+03  0.24316092331E+03  0.12699999809E+01 0. -1.
</event>
<event>
 5   0  0.1180937E-02  0.5003067E+03  0.7818609E-02  0.1013699E+00
        1   -1    0    0  501    0  0.00000000000E+00  0.00000000000E+00  0.42391164627E+03  0.42391164630E+03  0.50400001928E-02 0.  1.
       -1   -1    0    0    0  501  0.00000000000E+00  0.00000000000E+00 -0.14761733496E+03  0.14761733504E+03  0.50400001928E-02 0. -1.
    10030    2    1    2    0    0  0.00000000000E+00  0.00000000000E+00  0.27629431132E+03  0.57152898135E+03  0.50030673597E+03 0.  0.
        1    1    3    3  502    0  0.14373074157E+03  0.13374022336E+03  0.31523732872E+03  0.37137521035E+03  0.50400001928E-02 0.  1.
       -1    1    3    3    0  502 -0.14373074157E+03 -0.13374022336E+03 -0.38943017403E+02  0.20015377100E+03  0.50400001928E-02 0. -1.
</event>
<event>
 5   0  0.1855407E-02  0.4997400E+03  0.7818609E-02  0.1013847E+00
        2   -1    0    0  501    0  0.00000000000E+00  0.00000000000E+00  0.19288024957E+04  0.19288024957E+04  0.25500000920E-02 0.  1.
       -2   -1    0    0    0  501  0.00000000000E+00  0.00000000000E+00 -0.32369837485E+02  0.32369837585E+02  0.25500000920E-02 0. -1.
    10030    2    1    2    0    0  0.00000000000E+00  0.00000000000E+00  0.18964326582E+04  0.19611723333E+04  0.49974002612E+03 0.  0.
        1    1    3    3  502    0  0.70569475383E+02  0.15669529167E+03  0.23638048089E+03  0.29224851934E+03  0.50400001928E-02 0. -1.
       -1    1    3    3    0  502 -0.70569475383E+02 -0.15669529167E+03  0.16600521773E+04  0.16689238139E+04  0.50400001928E-02 0.  1.
</event>
<event>
 5   0  0.8012875E-03  0.4999990E+03  0.7818609E-02  0.1013779E+00
       -3   -1    0    0    0  501  0.00000000000E+00  0.00000000000E+00  0.17747514998E+03  0.17747517872E+03  0.10100000352E+00 0. -1.
        3   -1    0    0  501    0  0.00000000000E+00  0.00000000000E+00 -0.35216048067E+03  0.35216049515E+03  0.10100000352E+00 0.  1.
    10030    2    1    2    0    0  0.00000000000E+00  0.00000000000E+00 -0.17468533068E+03  0.52963567387E+03  0.49999898228E+03 0.  0.
        4    1    3    3  502    0  0.11589380257E+03  0.18006751327E+03  0.49309569236E+02  0.21974696659E+03  0.12699999809E+01 0. -1.
       -4    1    3    3    0  502 -0.11589380257E+03 -0.18006751327E+03 -0.22399489992E+03  0.30988870728E+03  0.12699999809E+01 0.  1.
</event>
<event>
 5   0  0.1941387E-02  0.4935854E+03  0.7818609E-02  0.1015467E+00
       -2   -1    0    0    0  501  0.00000000000E+00  0.00000000000E+00  0.15709398318E+03  0.15709398320E+03  0.25500000920E-02 0.  1.
        2   -1    0    0  501    0  0.00000000000E+00  0.00000000000E+00 -0.38770833590E+03  0.38770833591E+03  0.25500000920E-02 0. -1.
    10030    2    1    2    0    0  0.00000000000E+00  0.00000000000E+00 -0.23061435272E+03  0.54480231911E+03  0.49358544066E+03 0.  0.
        4    1    3    3  502    0  0.12378794751E+03 -0.13019235932E+03 -0.30207362737E+03  0.35145923750E+03  0.12699999809E+01 0. -1.
       -4    1    3    3    0  502 -0.12378794751E+03  0.13019235932E+03  0.71459274647E+02  0.19334308161E+03  0.12699999809E+01 0.  1.
</event>
<event>
 5   0  0.1967813E-02  0.4993133E+03  0.7818609E-02  0.1013958E+00
       -2   -1    0    0    0  501  0.00000000000E+00  0.00000000000E+00  0.11224821909E+03  0.11224821912E+03  0.25500000920E-02 0.  1.
        2   -1    0    0  501    0  0.00000000000E+00  0.00000000000E+00 -0.55527332783E+03  0.55527332784E+03  0.25500000920E-02 0. -1.
    10030    2    1    2    0    0  0.00000000000E+00  0.00000000000E+00 -0.44302510874E+03  0.66752154695E+03  0.49931329711E+03 0.  0.
        5    1    3    3  502    0  0.31155276982E+02  0.11540756442E+03  0.71434234041E+02  0.13933591425E+03  0.46999998093E+01 0.  1.
       -5    1    3    3    0  502 -0.31155276982E+02 -0.11540756442E+03 -0.51445934279E+03  0.52818563270E+03  0.46999998093E+01 0. -1.
</event>
<event>
 5   0  0.1855407E-02  0.5003342E+03  0.7818609E-02  0.1013692E+00
       -2   -1    0    0    0  501  0.00000000000E+00  0.00000000000E+00  0.64344078819E+02  0.64344078870E+02  0.25500000920E-02 0.  1.
        2   -1    0    0  501    0  0.00000000000E+00  0.00000000000E+00 -0.97263929963E+03  0.97263929964E+03  0.25500000920E-02 0. -1.
    10030    2    1    2    0    0  0.00000000000E+00  0.00000000000E+00 -0.90829522081E+03  0.10369833785E+04  0.50033420745E+03 0.  0.
        1    1    3    3  502    0 -0.13484634915E+03 -0.33087040373E+02 -0.88545020707E+03  0.89627024906E+03  0.50400001928E-02 0. -1.
       -1    1    3    3    0  502  0.13484634915E+03  0.33087040373E+02 -0.22845013741E+02  0.14071312945E+03  0.50400001928E-02 0.  1.
</event>
<event>
 5   0  0.1967813E-02  0.4996126E+03  0.7818609E-02  0.1013880E+00
       -2   -1    0    0    0  501  0.00000000000E+00  0.00000000000E+00  0.11205830480E+03  0.11205830483E+03  0.25500000920E-02 0. -1.
        2   -1    0    0  501    0  0.00000000000E+00  0.00000000000E+00 -0.55688140895E+03  0.55688140895E+03  0.25500000920E-02 0.  1.
    10030    2    1    2    0    0  0.00000000000E+00  0.00000000000E+00 -0.44482310415E+03  0.66893971378E+03  0.49961259661E+03 0.  0.
        5    1    3    3  502    0 -0.21565110026E+03 -0.51313464266E+02 -0.68333531524E+02  0.23201299573E+03  0.46999998093E+01 0. -1.
       -5    1    3    3    0  502  0.21565110026E+03  0.51313464266E+02 -0.37648957262E+03  0.43692671805E+03  0.46999998093E+01 0.  1.
</event>
<event>
 5   0  0.1855407E-02  0.5009075E+03  0.7818609E-02  0.1013542E+00
       -2   -1    0    0    0  501  0.00000000000E+00  0.00000000000E+00  0.13402186111E+03  0.13402186113E+03  0.25500000920E-02 0. -1.
        2   -1    0    0  501    0  0.00000000000E+00  0.00000000000E+00 -0.46803612784E+03  0.46803612785E+03  0.25500000920E-02 0.  1.
    10030    2    1    2    0    0  0.00000000000E+00  0.00000000000E+00 -0.33401426673E+03  0.60205798898E+03  0.50090746822E+03 0.  0.
        1    1    3    3  502    0  0.13187102047E+03  0.18429885689E+03 -0.38838758887E+02  0.22992277814E+03  0.50400001928E-02 0. -1.
       -1    1    3    3    0  502 -0.13187102047E+03 -0.18429885689E+03 -0.29517550785E+03  0.37213521084E+03  0.50400001928E-02 0.  1.
</event>
<event>
 5   0  0.1209831E-02  0.5009255E+03  0.7818609E-02  0.1013538E+00
       -1   -1    0    0    0  501  0.00000000000E+00  0.00000000000E+00  0.22870547610E+03  0.22870547616E+03  0.50400001928E-02 0. -1.
        1   -1    0    0  501    0  0.00000000000E+00  0.00000000000E+00 -0.27428985518E+03  0.27428985523E+03  0.50400001928E-02 0.  1.
    10030    2    1    2    0    0  0.00000000000E+00  0.00000000000E+00 -0.45584379081E+02  0.50299533139E+03  0.50092551121E+03 0.  0.
        4    1    3    3  502    0 -0.20349778013E+02  0.20192475507E+03  0.12458708834E+03  0.23814129347E+03  0.12699999809E+01 0. -1.
       -4    1    3    3    0  502  0.20349778013E+02 -0.20192475507E+03 -0.17017146742E+03  0.26485403792E+03  0.12699999809E+01 0.  1.
</event>
<event>
 5   0  0.1180937E-02  0.5007604E+03  0.7818609E-02  0.1013581E+00
       -1   -1    0    0    0  501  0.00000000000E+00  0.00000000000E+00  0.10654267750E+04  0.10654267750E+04  0.50400001928E-02 0. -1.
        1   -1    0    0  501    0  0.00000000000E+00  0.00000000000E+00 -0.58840498399E+02  0.58840498615E+02  0.50400001928E-02 0.  1.
    10030    2    1    2    0    0  0.00000000000E+00  0.00000000000E+00  0.10065862766E+04  0.11242672736E+04  0.50076039211E+03 0.  0.
        1    1    3    3  502    0 -0.16674583838E+03  0.14116937814E+03  0.77787119797E+03  0.80797064835E+03  0.50400001928E-02 0. -1.
       -1    1    3    3    0  502  0.16674583838E+03 -0.14116937814E+03  0.22871507862E+03  0.31629662527E+03  0.50400001928E-02 0.  1.
</event>
<event>
 5   0  0.1855407E-02  0.4990637E+03  0.7818609E-02  0.1014024E+00
        2   -1    0    0  501    0  0.00000000000E+00  0.00000000000E+00  0.36511537907E+03  0.36511537908E+03  0.25500000920E-02 0.  1.
       -2   -1    0    0    0  501  0.00000000000E+00  0.00000000000E+00 -0.17053829380E+03  0.17053829382E+03  0.25500000920E-02 0. -1.
    10030    2    1    2    0    0  0.00000000000E+00  0.00000000000E+00  0.19457708527E+03  0.53565367290E+03  0.49906373859E+03 0.  0.
        1    1    3    3  502    0  0.20269711473E+02  0.18428645231E+02  0.36349646599E+03  0.36452730622E+03  0.50400001928E-02 0.  1.
       -1    1    3    3    0  502 -0.20269711473E+02 -0.18428645231E+02 -0.16891938071E+03  0.17112636668E+03  0.50400001928E-02 0. -1.
</event>
<event>
 5   0  0.1217270E-02  0.5001042E+03  0.7818609E-02  0.1013752E+00
        1   -1    0    0  501    0  0.00000000000E+00  0.00000000000E+00  0.28602382607E+03  0.28602382612E+03  0.50400001928E-02 0. -1.
       -1   -1    0    0    0  501  0.00000000000E+00  0.00000000000E+00 -0.21860435853E+03  0.21860435858E+03  0.50400001928E-02 0.  1.
    10030    2    1    2    0    0  0.00000000000E+00  0.00000000000E+00  0.67419467546E+02  0.50462818470E+03  0.50010420933E+03 0.  0.
        2    1    3    3  502    0 -0.14616526025E+03 -0.17658631474E+03  0.13450856300E+03  0.26578104406E+03  0.25500000920E-02 0.  1.
       -2    1    3    3    0  502  0.14616526025E+03  0.17658631474E+03 -0.67089095457E+02  0.23884714064E+03  0.25500000920E-02 0. -1.
</event>
<event>
 5   0  0.1982847E-02  0.5003108E+03  0.7818609E-02  0.1013698E+00
       -2   -1    0    0    0  501  0.00000000000E+00  0.00000000000E+00  0.98742243489E+03  0.98742243489E+03  0.25500000920E-02 0.  1.
        2   -1    0    0  501    0  0.00000000000E+00  0.00000000000E+00 -0.63374814538E+02  0.63374814590E+02  0.25500000920E-02 0. -1.
    10030    2    1    2    0    0  0.00000000000E+00  0.00000000000E+00  0.92404762035E+03  0.10507972495E+04  0.50031075827E+03 0.  0.
        2    1    3    3  502    0 -0.11308012247E+03  0.14696743723E+03  0.10938049853E+03  0.21529197655E+03  0.25500000920E-02 0. -1.
       -2    1    3    3    0  502  0.11308012247E+03 -0.14696743723E+03  0.81466712182E+03  0.83550527293E+03  0.25500000920E-02 0.  1.
</event>
<event>
 5   0  0.1217270E-02  0.4989293E+03  0.7818609E-02  0.1014059E+00
       -1   -1    0    0    0  501  0.00000000000E+00  0.00000000000E+00  0.81076270763E+02  0.81076270920E+02  0.50400001928E-02 0. -1.
        1   -1    0    0  501    0  0.00000000000E+00  0.00000000000E+00 -0.76758120170E+03  0.76758120171E+03  0.50400001928E-02 0.  1.
    10030    2    1    2    0    0  0.00000000000E+00  0.00000000000E+00 -0.68650493093E+03  0.84865747263E+03  0.49892933935E+03 0.  0.
        2    1    3    3  502    0 -0.89216897896E+02 -0.14127977011E+03 -0.65833381568E+03  0.67920765690E+03  0.25500000920E-02 0.  1.
       -2    1    3    3    0  502  0.89216897896E+02  0.14127977011E+03 -0.28171115250E+02  0.16944981573E+03  0.25500000920E-02 0. -1.
</event>
<event>
 5   0  0.1967813E-02  0.4997866E+03  0.7818609E-02  0.1013835E+00
       -2   -1    0    0    0  501  0.00000000000E+00  0.00000000000E+00  0.34830847292E+03  0.34830847293E+03  0.25500000920E-02 0. -1.
        2   -1    0    0  501    0  0.00000000000E+00  0.00000000000E+00 -0.17928552068E+03  0.17928552070E+03  0.25500000920E-02 0.  1.
    10030    2    1    2    0    0  0.00000000000E+00  0.00000000000E+00  0.16902295224E+03  0.52759399362E+03  0.49978661819E+03 0.  0.
        5    1    3    3  502    0  0.44733761284E+02  0.64129553210E+02 -0.16599059782E+03  0.18354475628E+03  0.46999998093E+01 0.  1.
       -5    1    3    3    0  502 -0.44733761284E+02 -0.64129553210E+02  0.33501355006E+03  0.34404923734E+03  0.46999998093E+01 0. -1.
</event>
<event>
 5   0  0.1209831E-02  0.4992735E+03  0.7818609E-02  0.1013969E+00
        1   -1    0    0  501    0  0.00000000000E+00  0.00000000000E+00  0.57765793992E+03  0.57765793995E+03  0.50400001928E-02 0. -1.
       -1   -1    0    0    0  501  0.00000000000E+00  0.00000000000E+00 -0.10788135048E+03  0.10788135060E+03  0.50400001928E-02 0.  1.
    10030    2    1    2    0    0  0.00000000000E+00  0.00000000000E+00  0.46977658944E+03  0.68553929055E+03  0.49927354716E+03 0.  0.
        4    1    3    3  502    0  0.16494810474E+03  0.17055750904E+03  0.12836075261E+03  0.26976997027E+03  0.12699999809E+01 0.  1.
       -4    1    3    3    0  502 -0.16494810474E+03 -0.17055750904E+03  0.34141583683E+03  0.41576932028E+03  0.12699999809E+01 0. -1.
</event>
<event>
 5   0  0.1855407E-02  0.5007641E+03  0.7818609E-02  0.1013580E+00
       -2   -1    0    0    0  501  0.00000000000E+00  0.00000000000E+00  0.14384241606E+04  0.14384241606E+04  0.25500000920E-02 0.  1.
        2   -1    0    0  501    0  0.00000000000E+00  0.00000000000E+00 -0.43583229164E+02  0.43583229238E+02  0.25500000920E-02 0. -1.
    10030    2    1    2    0    0  0.00000000000E+00  0.00000000000E+00  0.13948409314E+04  0.14820073898E+04  0.50076409569E+03 0.  0.
        1    1    3    3  502    0 -0.23570771390E+02 -0.14287386451E+03  0.13019299450E+04  0.13099580543E+04  0.50400001928E-02 0.  1.
       -1    1    3    3    0  502  0.23570771390E+02  0.14287386451E+03  0.92910986474E+02  0.17204933553E+03  0.50400001928E-02 0. -1.
</event>
<event>
 5   0  0.1217270E-02  0.4990869E+03  0.7818609E-02  0.1014018E+00
        1   -1    0    0  501    0  0.00000000000E+00  0.00000000000E+00  0.94398140923E+03  0.94398140924E+03  0.50400001928E-02 0.  1.
       -1   -1    0    0    0  501  0.00000000000E+00  0.00000000000E+00 -0.65967340808E+02  0.65967341001E+02  0.50400001928E-02 0. -1.
    10030    2    1    2    0    0  0.00000000000E+00  0.00000000000E+00  0.87801406842E+03  0.10099487502E+04  0.49908694009E+03 0.  0.
        2    1    3    3  502    0 -0.24126207199E+03 -0.47997149239E+02  0.35409254323E+03  0.43115269093E+03  0.25500000920E-02 0.  1.
       -2    1    3    3    0  502  0.24126207199E+03  0.47997149239E+02  0.52392152519E+03  0.57879605932E+03  0.25500000920E-02 0. -1.
</event>
<event>
 5   0  0.8012875E-03  0.4994405E+03  0.7818609E-02  0.1013925E+00
        4   -1    0    0  501    0  0.00000000000E+00  0.00000000000E+00  0.28776587257E+03  0.28776867501E+03  0.12699999809E+01 0.  1.
       -4   -1    0    0    0  501  0.00000000000E+00  0.00000000000E+00 -0.21669896033E+03  0.21670268182E+03  0.12699999809E+01 0. -1.
    10030    2    1    2    0    0  0.00000000000E+00  0.00000000000E+00  0.71066912240E+02  0.50447135683E+03  0.49944053084E+03 0.  0.
        1    1    3    3  502    0 -0.15458374628E+03  0.48310291452E+02  0.22752754782E+03  0.27928265954E+03  0.50400001928E-02 0.  1.
       -1    1    3    3    0  502  0.15458374628E+03 -0.48310291452E+02 -0.15646063558E+03  0.22518869729E+03  0.50400001928E-02 0. -1.
</event>
<event>
 5   0  0.1225989E-02  0.4999095E+03  0.7818609E-02  0.1013803E+00
        1   -1    0    0  501    0  0.00000000000E+00  0.00000000000E+00  0.18556348108E+03  0.18556348115E+03  0.50400001928E-02 0. -1.
       -1   -1    0    0    0  501  0.00000000000E+00  0.00000000000E+00 -0.33669011193E+03  0.33669011197E+03  0.50400001928E-02 0.  1.
    10030    2    1    2    0    0  0.00000000000E+00  0.00000000000E+00 -0.15112663086E+03  0.52225359312E+03  0.49990954879E+03 0.  0.
        3    1    3    3  502    0  0.20787646309E+02 -0.16688081763E+03 -0.26875033727E+03  0.31703010507E+03  0.10100000352E+00 0.  1.
       -3    1    3    3    0  502 -0.20787646309E+02  0.16688081763E+03  0.11762370642E+03  0.20522348805E+03  0.10100000352E+00 0. -1.
</event>
<event>
 5   0  0.1227864E-02  0.4994982E+03  0.7818609E-02  0.1013910E+00
       -1   -1    0    0    0  501  0.00000000000E+00  0.00000000000E+00  0.64748336669E+03  0.64748336671E+03  0.50400001928E-02 0.  1.
        1   -1    0    0  501    0  0.00000000000E+00  0.00000000000E+00 -0.96333914851E+02  0.96333914983E+02  0.50400001928E-02 0. -1.
    10030    2    1    2    0    0  0.00000000000E+00  0.00000000000E+00  0.55114945184E+03  0.74381728170E+03  0.49949817846E+03 0.  0.
        5    1    3    3  502    0 -0.16701007764E+03  0.16534880387E+03  0.40122691316E+03  0.46501367595E+03  0.46999998093E+01 0.  1.
       -5    1    3    3    0  502  0.16701007764E+03 -0.16534880387E+03  0.14992253868E+03  0.27880360575E+03  0.46999998093E+01 0. -1.
</event>
<event>
 5   0  0.1217270E-02  0.4987449E+03  0.7818609E-02  0.1014107E+00
       -1   -1    0    0    0  501  0.00000000000E+00  0.00000000000E+00  0.10087607732E+03  0.10087607744E+03  0.50400001928E-02 0. -1.
        1   -1    0    0  501    0  0.00000000000E+00  0.00000000000E+00 -0.61646546440E+03  0.61646546442E+03  0.50400001928E-02 0.  1.
    10030    2    1    2    0    0  0.00000000000E+00  0.00000000000E+00 -0.51558938708E+03  0.71734154186E+03  0.49874489632E+03 0.  0.
        2    1    3    3  502    0  0.16094149612E+03 -0.38235408978E+02 -0.52619161473E+03  0.55158111561E+03  0.25500000920E-02 0.  1.
       -2    1    3    3    0  502 -0.16094149612E+03  0.38235408978E+02  0.10602227653E+02  0.16576042625E+03  0.25500000920E-02 0. -1.
</event>
<event>
 5   0  0.1941387E-02  0.4997725E+03  0.7818609E-02  0.1013838E+00
       -2   -1    0    0    0  501  0.00000000000E+00  0.00000000000E+00  0.25185792878E+03  0.25185792879E+03  0.25500000920E-02 0. -1.
        2   -1    0    0  501    0  0.00000000000E+00  0.00000000000E+00 -0.24793004406E+03  0.24793004407E+03  0.25500000920E-02 0.  1.
    10030    2    1    2    0    0  0.00000000000E+00  0.00000000000E+00  0.39278847212E+01  0.49978797287E+03  0.49977253780E+03 0.  0.
        4    1    3    3  502    0  0.15999159447E+03  0.55646357272E+01  0.19383768456E+03  0.25140194177E+03  0.12699999809E+01 0. -1.
       -4    1    3    3    0  502 -0.15999159447E+03 -0.55646357272E+01 -0.18990979984E+03  0.24838603110E+03  0.12699999809E+01 0.  1.
</event>
<event>
 5   0  0.1855407E-02  0.5026706E+03  0.7818609E-02  0.1013084E+00
        2   -1    0    0  501    0  0.00000000000E+00  0.00000000000E+00  0.80981396388E+03  0.80981396389E+03  0.25500000920E-02 0. -1.
       -2   -1    0    0    0  501  0.00000000000E+00  0.00000000000E+00 -0.78004859477E+02  0.78004859518E+02  0.25500000920E-02 0.  1.
    10030    2    1    2    0    0  0.00000000000E+00  0.00000000000E+00  0.73180910441E+03  0.88781882341E+03  0.50267056598E+03 0.  0.
        1    1    3    3  502    0  0.15302375387E+02  0.22972162271E+03  0.54396068508E+03  0.59067708063E+03  0.50400001928E-02 0. -1.
       -1    1    3    3    0  502 -0.15302375387E+02 -0.22972162271E+03  0.18784841932E+03  0.29714174278E+03  0.50400001928E-02 0.  1.
</event>
<event>
 5   0  0.1967813E-02  0.5015980E+03  0.7818609E-02  0.1013363E+00
       -2   -1    0    0    0  501  0.00000000000E+00  0.00000000000E+00  0.12888192124E+03  0.12888192127E+03  0.25500000920E-02 0. -1.
        2   -1    0    0  501    0  0.00000000000E+00  0.00000000000E+00 -0.48804474391E+03  0.48804474392E+03  0.25500000920E-02 0.  1.
    10030    2    1    2    0    0  0.00000000000E+00  0.00000000000E+00 -0.35916282267E+03  0.61692666519E+03  0.50159802335E+03 0.  0.
        5    1    3    3  502    0 -0.21300338890E+03  0.10815883462E+03 -0.27332439470E+03  0.36303869205E+03  0.46999998093E+01 0.  1.
       -5    1    3    3    0  502  0.21300338890E+03 -0.10815883462E+03 -0.85838427970E+02  0.25388797314E+03  0.46999998093E+01 0. -1.
</event>
<event>
 5   0  0.1982847E-02  0.4993046E+03  0.7818609E-02  0.1013961E+00
        2   -1    0    0  501    0  0.00000000000E+00  0.00000000000E+00  0.11078605045E+04  0.11078605045E+04  0.25500000920E-02 0.  1.
       -2   -1    0    0    0  501  0.00000000000E+00  0.00000000000E+00 -0.56258224255E+02  0.56258224313E+02  0.25500000920E-02 0. -1.
    10030    2    1    2    0    0  0.00000000000E+00  0.00000000000E+00  0.10516022802E+04  0.11641187288E+04  0.49930457535E+03 0.  0.
        2    1    3    3  502    0  0.21954994428E+03  0.71544575231E+02  0.74705186003E+03  0.78192537103E+03  0.25500000920E-02 0.  1.
       -2    1    3    3    0  502 -0.21954994428E+03 -0.71544575231E+02  0.30455042021E+03  0.38219335779E+03  0.25500000920E-02 0. -1.
</event>
<event>
 5   0  0.8012875E-03  0.5006314E+03  0.7818609E-02  0.1013614E+00
        4   -1    0    0  501    0  0.00000000000E+00  0.00000000000E+00  0.19601271873E+03  0.19601683296E+03  0.12699999809E+01 0.  1.
       -4   -1    0    0    0  501  0.00000000000E+00  0.00000000000E+00 -0.31965398324E+03  0.31965650611E+03  0.12699999809E+01 0. -1.
    10030    2    1    2    0    0  0.00000000000E+00  0.00000000000E+00 -0.12364126451E+03  0.51567333907E+03  0.50063143163E+03 0.  0.
        1    1    3    3  502    0  0.99914071370E+02 -0.47603284851E+02  0.16944488311E+03  0.20238691367E+03  0.50400001928E-02 0.  1.
       -1    1    3    3    0  502 -0.99914071370E+02  0.47603284851E+02 -0.29308614762E+03  0.31328642540E+03  0.50400001928E-02 0. -1.
</event>
<event>
 5   0  0.1180937E-02  0.5030977E+03  0.7818609E-02  0.1012974E+00
        1   -1    0    0  501    0  0.00000000000E+00  0.00000000000E+00  0.77095100165E+03  0.77095100167E+03  0.50400001928E-02 0. -1.
       -1   -1    0    0    0  501  0.00000000000E+00  0.00000000000E+00 -0.82076338906E+02  0.82076339061E+02  0.50400001928E-02 0.  1.
    10030    2    1    2    0    0  0.00000000000E+00  0.00000000000E+00  0.68887466274E+03  0.85302734073E+03  0.50309774702E+03 0.  0.
        1    1    3    3  502    0  0.15757211952E+01  0.23433361233E+03  0.49948617876E+03  0.55172562707E+03  0.50400001928E-02 0. -1.
       -1    1    3    3    0  502 -0.15757211952E+01 -0.23433361233E+03  0.18938848398E+03  0.30130171366E+03  0.50400001928E-02 0.  1.
</event>
<event>
 5   0  0.1967813E-02  0.4967396E+03  0.7818609E-02  0.1014633E+00
        2   -1    0    0  501    0  0.00000000000E+00  0.00000000000E+00  0.13959642116E+04  0.13959642116E+04  0.25500000920E-02 0.  1.
       -2   -1    0    0    0  501  0.00000000000E+00  0.00000000000E+00 -0.44189923895E+02  0.44189923968E+02  0.25500000920E-02 0. -1.
    10030    2    1    2    0    0  0.00000000000E+00  0.00000000000E+00  0.13517742877E+04  0.14401541356E+04  0.49673957895E+03 0.  0.
        5    1    3    3  502    0 -0.97648835852E+02  0.19923620418E+03  0.99918653688E+03  0.10235361184E+04  0.46999998093E+01 0. -1.
       -5    1    3    3    0  502  0.97648835852E+02 -0.19923620418E+03  0.35258775084E+03  0.41661801718E+03  0.46999998093E+01 0.  1.
</event>
<event>
 5   0  0.1855407E-02  0.5000378E+03  0.7818609E-02  0.1013769E+00
       -2   -1    0    0    0  501  0.00000000000E+00  0.00000000000E+00  0.38647213178E+02  0.38647213262E+02  0.25500000920E-02 0.  1.
        2   -1    0    0  501    0  0.00000000000E+00  0.00000000000E+00 -0.16174373770E+04  0.16174373770E+04  0.25500000920E-02 0. -1.
    10030    2    1    2    0    0  0.00000000000E+00  0.00000000000E+00 -0.15787901638E+04  0.16560845902E+04  0.50003778729E+03 0.  0.
        1    1    3    3  502    0  0.24431150881E+03 -0.37746253233E+02 -0.66562702094E+03  0.71005086015E+03  0.50400001928E-02 0.  1.
       -1    1    3    3    0  502 -0.24431150881E+03  0.37746253233E+02 -0.91316314284E+03  0.94603373007E+03  0.50400001928E-02 0. -1.
</event>
<event>
 5   0  0.1227864E-02  0.4992819E+03  0.7818609E-02  0.1013967E+00
        1   -1    0    0  501    0  0.00000000000E+00  0.00000000000E+00  0.12087744422E+04  0.12087744422E+04  0.50400001928E-02 0. -1.
       -1   -1    0    0    0  501  0.00000000000E+00  0.00000000000E+00 -0.51556859994E+02  0.51556860240E+02  0.50400001928E-02 0.  1.
    10030    2    1    2    0    0  0.00000000000E+00  0.00000000000E+00  0.11572175822E+04  0.12603313025E+04  0.49928194377E+03 0.  0.
        5    1    3    3  502    0 -0.42632396023E+02  0.23325377052E+03  0.77533621017E+03  0.81079786103E+03  0.46999998093E+01 0. -1.
       -5    1    3    3    0  502  0.42632396023E+02 -0.23325377052E+03  0.38188137204E+03  0.44953344143E+03  0.46999998093E+01 0.  1.
</event>
<event>
 5   0  0.1180937E-02  0.4990911E+03  0.7818609E-02  0.1014016E+00
        1   -1    0    0  501    0  0.00000000000E+00  0.00000000000E+00  0.14095844697E+03  0.14095844706E+03  0.50400001928E-02 0.  1.
       -1   -1    0    0    0  501  0.00000000000E+00  0.00000000000E+00 -0.44178254710E+03  0.44178254713E+03  0.50400001928E-02 0. -1.
    10030    2    1    2    0    0  0.00000000000E+00  0.00000000000E+00 -0.30082410013E+03  0.58274099419E+03  0.49909110099E+03 0.  0.
        1    1    3    3  502    0  0.10891423860E+03 -0.18470207649E+03 -0.29946266245E+03  0.36831379917E+03  0.50400001928E-02 0. -1.
       -1    1    3    3    0  502 -0.10891423860E+03  0.18470207649E+03 -0.13614376808E+01  0.21442719502E+03  0.50400001928E-02 0.  1.
</event>
<event>
 5   0  0.1967813E-02  0.4996312E+03  0.7818609E-02  0.1013875E+00
       -2   -1    0    0    0  501  0.00000000000E+00  0.00000000000E+00  0.28030797548E+02  0.28030797664E+02  0.25500000920E-02 0.  1.
        2   -1    0    0  501    0  0.00000000000E+00  0.00000000000E+00 -0.22264019333E+04  0.22264019333E+04  0.25500000920E-02 0. -1.
    10030    2    1    2    0    0  0.00000000000E+00  0.00000000000E+00 -0.21983711358E+04  0.22544327310E+04  0.49963115189E+03 0.  0.
        5    1    3    3  502    0  0.17927006091E+03 -0.46080032304E+02 -0.34247288958E+03  0.38932106829E+03  0.46999998093E+01 0. -1.
       -5    1    3    3    0  502 -0.17927006091E+03  0.46080032304E+02 -0.18558982462E+04  0.18651116627E+04  0.46999998093E+01 0.  1.
</event>
<event>
 5   0  0.1180937E-02  0.4986228E+03  0.7818609E-02  0.1014139E+00
        1   -1    0    0  501    0  0.00000000000E+00  0.00000000000E+00  0.11765403564E+03  0.11765403575E+03  0.50400001928E-02 0.  1.
       -1   -1    0    0    0  501  0.00000000000E+00  0.00000000000E+00 -0.52829613497E+03  0.52829613499E+03  0.50400001928E-02 0. -1.
    10030    2    1    2    0    0  0.00000000000E+00  0.00000000000E+00 -0.41064209933E+03  0.64595017074E+03  0.49862279264E+03 0.  0.
        1    1    3    3  502    0 -0.35252155233E+02  0.50907171862E+02  0.10753372582E+03  0.12408769806E+03  0.50400001928E-02 0.  1.
       -1    1    3    3    0  502  0.35252155233E+02 -0.50907171862E+02 -0.51817582515E+03  0.52186247268E+03  0.50400001928E-02 0. -1.
</event>
<event>
 5   0  0.8012875E-03  0.4979165E+03  0.7818609E-02  0.1014324E+00
        3   -1    0    0  501    0  0.00000000000E+00  0.00000000000E+00  0.60019896812E+03  0.60019897662E+03  0.10100000352E+00 0.  1.
       -3   -1    0    0    0  501  0.00000000000E+00  0.00000000000E+00 -0.10326606759E+03  0.10326611698E+03  0.10100000352E+00 0. -1.
    10030    2    1    2    0    0  0.00000000000E+00  0.00000000000E+00  0.49693290053E+03  0.70346509360E+03  0.49791648926E+03 0.  0.
        5    1    3    3  502    0 -0.17617927504E+03  0.11567457878E+03  0.61363477537E+02  0.21956163486E+03  0.46999998093E+01 0. -1.
       -5    1    3    3    0  502  0.17617927504E+03 -0.11567457878E+03  0.43556942299E+03  0.48390345873E+03  0.46999998093E+01 0.  1.
</event>
<event>
 5   0  0.1923706E-02  0.4986626E+03  0.7818609E-02  0.1014129E+00
        2   -1    0    0  501    0  0.00000000000E+00  0.00000000000E+00  0.68403740897E+03  0.68403740898E+03  0.25500000920E-02 0.  1.
       -2   -1    0    0    0  501  0.00000000000E+00  0.00000000000E+00 -0.90881128941E+02  0.90881128977E+02  0.25500000920E-02 0. -1.
    10030    2    1    2    0    0  0.00000000000E+00  0.00000000000E+00  0.59315628003E+03  0.77491853795E+03  0.49866257923E+03 0.  0.
        3    1    3    3  502    0 -0.32003048085E+02 -0.21598734403E+03  0.10950830942E+03  0.24426790190E+03  0.10100000352E+00 0. -1.
       -3    1    3    3    0  502  0.32003048085E+02  0.21598734403E+03  0.48364797061E+03  0.53065063605E+03  0.10100000352E+00 0.  1.
</event>
<event>
 5   0  0.8012875E-03  0.5005063E+03  0.7818609E-02  0.1013647E+00
       -4   -1    0    0    0  501  0.00000000000E+00  0.00000000000E+00  0.45049043491E+03  0.45049222506E+03  0.12699999809E+01 0.  1.
        4   -1    0    0  501    0  0.00000000000E+00  0.00000000000E+00 -0.13901380634E+03  0.13901960744E+03  0.12699999809E+01 0. -1.
    10030    2    1    2    0    0  0.00000000000E+00  0.00000000000E+00  0.31147662857E+03  0.58951183250E+03  0.50050625422E+03 0.  0.
        5    1    3    3  502    0  0.20537120472E+03  0.14178891392E+03  0.17691012873E+03  0.30594233359E+03  0.46999998093E+01 0.  1.
       -5    1    3    3    0  502 -0.20537120472E+03 -0.14178891392E+03  0.13456649983E+03  0.28356949891E+03  0.46999998093E+01 0. -1.
</event>
<event>
 5   0  0.1855407E-02  0.5029571E+03  0.7818609E-02  0.1013010E+00
        2   -1    0    0  501    0  0.00000000000E+00  0.00000000000E+00  0.25972253968E+03  0.25972253970E+03  0.25500000920E-02 0. -1.
       -2   -1    0    0    0  501  0.00000000000E+00  0.00000000000E+00 -0.24349623766E+03  0.24349623768E+03  0.25500000920E-02 0.  1.
    10030    2    1    2    0    0  0.00000000000E+00  0.00000000000E+00  0.16226302022E+02  0.50321877737E+03  0.50295710058E+03 0.  0.
        1    1    3    3  502    0  0.19283282365E+03  0.62226943533E+01  0.16949878182E+03  0.25681327238E+03  0.50400001928E-02 0. -1.
       -1    1    3    3    0  502 -0.19283282365E+03 -0.62226943533E+01 -0.15327247980E+03  0.24640550500E+03  0.50400001928E-02 0.  1.
</event>
<event>
 5   0  0.8012875E-03  0.4999221E+03  0.7818609E-02  0.1013799E+00
       -3   -1    0    0    0  501  0.00000000000E+00  0.00000000000E+00  0.20886799359E+03  0.20886801801E+03  0.10100000352E+00 0.  1.
        3   -1    0    0  501    0  0.00000000000E+00  0.00000000000E+00 -0.29913873491E+03  0.29913875196E+03  0.10100000352E+00 0. -1.
    10030    2    1    2    0    0  0.00000000000E+00  0.00000000000E+00 -0.90270741327E+02  0.50800676997E+03  0.49992206552E+03 0.  0.
        5    1    3    3  502    0 -0.54581007170E+02 -0.16162715624E+03  0.14045447135E+03  0.22102482326E+03  0.46999998093E+01 0.  1.
       -5    1    3    3    0  502  0.54581007170E+02  0.16162715624E+03 -0.23072521267E+03  0.28698194671E+03  0.46999998093E+01 0. -1.
</event>
<event>
 5   0  0.8012875E-03  0.4999545E+03  0.7818609E-02  0.1013791E+00
       -4   -1    0    0    0  501  0.00000000000E+00  0.00000000000E+00  0.28425202803E+03  0.28425486511E+03  0.12699999809E+01 0. -1.
        4   -1    0    0  501    0  0.00000000000E+00  0.00000000000E+00 -0.21982955302E+03  0.21983322152E+03  0.12699999809E+01 0.  1.
    10030    2    1    2    0    0  0.00000000000E+00  0.00000000000E+00  0.64422475007E+02  0.50408808663E+03  0.49995454173E+03 0.  0.
        1    1    3    3  502    0 -0.10097056715E+03 -0.15904824870E+03 -0.13345559156E+03  0.23087181680E+03  0.50400001928E-02 0.  1.
       -1    1    3    3    0  502  0.10097056715E+03  0.15904824870E+03  0.19787806657E+03  0.27321626983E+03  0.50400001928E-02 0. -1.
</event>
<event>
 5   0  0.8012875E-03  0.5012765E+03  0.7818609E-02  0.1013446E+00
        3   -1    0    0  501    0  0.00000000000E+00  0.00000000000E+00  0.83233893859E+03  0.83233894471E+03  0.10100000352E+00 0. -1.
       -3   -1    0    0    0  501  0.00000000000E+00  0.00000000000E+00 -0.75473464406E+02  0.75473531986E+02  0.10100000352E+00 0.  1.
    10030    2    1    2    0    0  0.00000000000E+00  0.00000000000E+00  0.75686547418E+03  0.90781247670E+03  0.50127651735E+03 0.  0.
        4    1    3    3  502    0  0.75432826783E+02  0.15666314995E+03  0.51525814687E+02  0.18135593838E+03  0.12699999809E+01 0.  1.
       -4    1    3    3    0  502 -0.75432826783E+02 -0.15666314995E+03  0.70533965949E+03  0.72645653831E+03  0.12699999809E+01 0. -1.
</event>
<event>
 5   0  0.1941387E-02  0.4998055E+03  0.7818609E-02  0.1013830E+00
       -2   -1    0    0    0  501  0.00000000000E+00  0.00000000000E+00  0.16394488400E+03  0.16394488402E+03  0.25500000920E-02 0.  1.
        2   -1    0    0  501    0  0.00000000000E+00  0.00000000000E+00 -0.38092916798E+03  0.38092916799E+03  0.25500000920E-02 0. -1.
    10030    2    1    2    0    0  0.00000000000E+00  0.00000000000E+00 -0.21698428399E+03  0.54487405201E+03  0.49980551523E+03 0.  0.
        4    1    3    3  502    0 -0.12842670303E+03  0.74239338086E+02  0.11075141888E+03  0.18512802882E+03  0.12699999809E+01 0.  1.
       -4    1    3    3    0  502  0.12842670303E+03 -0.74239338086E+02 -0.32773570286E+03  0.35974602319E+03  0.12699999809E+01 0. -1.
</event>
<event>
 5   0  0.1217270E-02  0.5005994E+03  0.7818609E-02  0.1013623E+00
       -1   -1    0    0    0  501  0.00000000000E+00  0.00000000000E+00  0.59688076590E+02  0.59688076802E+02  0.50400001928E-02 0.  1.
        1   -1    0    0  501    0  0.00000000000E+00  0.00000000000E+00 -0.10496222121E+04  0.10496222121E+04  0.50400001928E-02 0. -1.
    10030    2    1    2    0    0  0.00000000000E+00  0.00000000000E+00 -0.98993413552E+03  0.11093102889E+04  0.50059936521E+03 0.  0.
        2    1    3    3  502    0  0.20449218939E+03 -0.14360495864E+03 -0.52711699272E+03  0.58334532113E+03  0.25500000920E-02 0. -1.
       -2    1    3    3    0  502 -0.20449218939E+03  0.14360495864E+03 -0.46281714280E+03  0.52596496779E+03  0.25500000920E-02 0.  1.
</event>
<event>
 5   0  0.1967813E-02  0.4989866E+03  0.7818609E-02  0.1014044E+00
       -2   -1    0    0    0  501  0.00000000000E+00  0.00000000000E+00  0.55581183066E+02  0.55581183124E+02  0.25500000920E-02 0.  1.
        2   -1    0    0  501    0  0.00000000000E+00  0.00000000000E+00 -0.11199277862E+04  0.11199277862E+04  0.25500000920E-02 0. -1.
    10030    2    1    2    0    0  0.00000000000E+00  0.00000000000E+00 -0.10643466031E+04  0.11755089693E+04  0.49898661842E+03 0.  0.
        5    1    3    3  502    0  0.41356776504E+02 -0.23600021760E+03 -0.69569883492E+03  0.73581617580E+03  0.46999998093E+01 0. -1.
       -5    1    3    3    0  502 -0.41356776504E+02  0.23600021760E+03 -0.36864776822E+03  0.43969279353E+03  0.46999998093E+01 0.  1.
</event>
<event>
 5   0  0.1225989E-02  0.4993326E+03  0.7818609E-02  0.1013953E+00
       -1   -1    0    0    0  501  0.00000000000E+00  0.00000000000E+00  0.40363867336E+02  0.40363867651E+02  0.50400001928E-02 0.  1.
        1   -1    0    0  501    0  0.00000000000E+00  0.00000000000E+00 -0.15442839733E+04  0.15442839733E+04  0.50400001928E-02 0. -1.
    10030    2    1    2    0    0  0.00000000000E+00  0.00000000000E+00 -0.15039201060E+04  0.15846478409E+04  0.49933264938E+03 0.  0.
        3    1    3    3  502    0 -0.34278619083E+02  0.23258172016E+03 -0.48523265486E+03  0.53918458790E+03  0.10100000352E+00 0.  1.
       -3    1    3    3    0  502  0.34278619083E+02 -0.23258172016E+03 -0.10186874511E+04  0.10454632531E+04  0.10100000352E+00 0. -1.
</event>
<event>
 5   0  0.1217270E-02  0.4998625E+03  0.7818609E-02  0.1013815E+00
        1   -1    0    0  501    0  0.00000000000E+00  0.00000000000E+00  0.10201118837E+04  0.10201118837E+04  0.50400001928E-02 0.  1.
       -1   -1    0    0    0  501  0.00000000000E+00  0.00000000000E+00 -0.61234088715E+02  0.61234088922E+02  0.50400001928E-02 0. -1.
    10030    2    1    2    0    0  0.00000000000E+00  0.00000000000E+00  0.95887779501E+03  0.10813459727E+04  0.49986246791E+03 0.  0.
        2    1    3    3  502    0 -0.83420669049E+02  0.21428057362E+03  0.69129140965E+03  0.72853207570E+03  0.25500000920E-02 0.  1.
       -2    1    3    3    0  502  0.83420669049E+02 -0.21428057362E+03  0.26758638535E+03  0.35281389696E+03  0.25500000920E-02 0. -1.
</event>
<event>
 5   0  0.1180937E-02  0.5003388E+03  0.7818609E-02  0.1013691E+00
       -1   -1    0    0    0  501  0.00000000000E+00  0.00000000000E+00  0.48422638559E+03  0.48422638562E+03  0.50400001928E-02 0.  1.
        1   -1    0    0  501    0  0.00000000000E+00  0.00000000000E+00 -0.12924684743E+03  0.12924684752E+03  0.50400001928E-02 0. -1.
    10030    2    1    2    0    0  0.00000000000E+00  0.00000000000E+00  0.35497953816E+03  0.61347323314E+03  0.50033882047E+03 0.  0.
        1    1    3    3  502    0  0.22500877600E+02 -0.17711071865E+02  0.48221036225E+03  0.48305983589E+03  0.50400001928E-02 0.  1.
       -1    1    3    3    0  502 -0.22500877600E+02  0.17711071865E+02 -0.12723082409E+03  0.13041339725E+03  0.50400001928E-02 0. -1.
</event>
<event>
 5   0  0.8012875E-03  0.4999313E+03  0.7818609E-02  0.1013797E+00
       -3   -1    0    0    0  501  0.00000000000E+00  0.00000000000E+00  0.14919890136E+04  0.14919890170E+04  0.10100000352E+00 0.  1.
        3   -1    0    0  501    0  0.00000000000E+00  0.00000000000E+00 -0.41878809509E+02  0.41878931301E+02  0.10100000352E+00 0. -1.
    10030    2    1    2    0    0  0.00000000000E+00  0.00000000000E+00  0.14501102041E+04  0.15338679483E+04  0.49993127415E+03 0.  0.
        3    1    3    3  502    0 -0.40950135543E+02  0.22525060145E+01 -0.31485764718E+02  0.51704457885E+02  0.10100000352E+00 0. -1.
       -3    1    3    3    0  502  0.40950135543E+02 -0.22525060145E+01  0.14815959688E+04  0.14821634905E+04  0.10100000352E+00 0.  1.
</event>
<event>
 5   0  0.1225989E-02  0.4991418E+03  0.7818609E-02  0.1014003E+00
       -1   -1    0    0    0  501  0.00000000000E+00  0.00000000000E+00  0.48080208540E+03  0.48080208542E+03  0.50400001928E-02 0. -1.
        1   -1    0    0  501    0  0.00000000000E+00  0.00000000000E+00 -0.12954524706E+03  0.12954524716E+03  0.50400001928E-02 0.  1.
    10030    2    1    2    0    0  0.00000000000E+00  0.00000000000E+00  0.35125683834E+03  0.61034733258E+03  0.49914176334E+03 0.  0.
        3    1    3    3  502    0  0.27612029877E+02  0.13722779259E+02  0.47846399121E+03  0.47945650476E+03  0.10100000352E+00 0. -1.
       -3    1    3    3    0  502 -0.27612029877E+02 -0.13722779259E+02 -0.12720715288E+03  0.13089082782E+03  0.10100000352E+00 0.  1.
</event>
<event>
 5   0  0.1227864E-02  0.4983445E+03  0.7818609E-02  0.1014212E+00
        1   -1    0    0  501    0  0.00000000000E+00  0.00000000000E+00  0.94264144102E+03  0.94264144103E+03  0.50400001928E-02 0. -1.
       -1   -1    0    0    0  501  0.00000000000E+00  0.00000000000E+00 -0.65864716847E+02  0.65864717040E+02  0.50400001928E-02 0.  1.
    10030    2    1    2    0    0  0.00000000000E+00  0.00000000000E+00  0.87677672417E+03  0.10085061581E+04  0.49834450616E+03 0.  0.
        5    1    3    3  502    0 -0.14573054981E+03  0.19957819977E+03  0.50225151640E+03  0.55977453202E+03  0.46999998093E+01 0.  1.
       -5    1    3    3    0  502  0.14573054981E+03 -0.19957819977E+03  0.37452520777E+03  0.44873162605E+03  0.46999998093E+01 0. -1.
</event>
<event>
 5   0  0.1227864E-02  0.5065180E+03  0.7818609E-02  0.1012091E+00
        1   -1    0    0  501    0  0.00000000000E+00  0.00000000000E+00  0.50056046459E+03  0.50056046461E+03  0.50400001928E-02 0.  1.
       -1   -1    0    0    0  501  0.00000000000E+00  0.00000000000E+00 -0.12813659641E+03  0.12813659651E+03  0.50400001928E-02 0. -1.
    10030    2    1    2    0    0  0.00000000000E+00  0.00000000000E+00  0.37242386818E+03  0.62869706112E+03  0.50651797310E+03 0.  0.
        5    1    3    3  502    0  0.15889209639E+03  0.16298093004E+03  0.32391698915E+03  0.39592144134E+03  0.46999998093E+01 0.  1.
       -5    1    3    3    0  502 -0.15889209639E+03 -0.16298093004E+03  0.48506879027E+02  0.23277561978E+03  0.46999998093E+01 0. -1.
</event>
<event>
 5   0  0.1941387E-02  0.4985380E+03  0.7818609E-02  0.1014161E+00
       -2   -1    0    0    0  501  0.00000000000E+00  0.00000000000E+00  0.53850159169E+02  0.53850159230E+02  0.25500000920E-02 0.  1.
        2   -1    0    0  501    0  0.00000000000E+00  0.00000000000E+00 -0.11538505469E+04  0.11538505469E+04  0.25500000920E-02 0. -1.
    10030    2    1    2    0    0  0.00000000000E+00  0.00000000000E+00 -0.11000003878E+04  0.12077007062E+04  0.49853800517E+03 0.  0.
        4    1    3    3  502    0  0.11442645138E+03 -0.15090038692E+03 -0.94263021798E+03  0.96146642182E+03  0.12699999809E+01 0. -1.
       -4    1    3    3    0  502 -0.11442645138E+03  0.15090038692E+03 -0.15737016980E+03  0.24623428436E+03  0.12699999809E+01 0.  1.
</event>
<event>
 5   0  0.8012875E-03  0.4996435E+03  0.7818609E-02  0.1013872E+00
        3   -1    0    0  501    0  0.00000000000E+00  0.00000000000E+00  0.20082987266E+04  0.20082987291E+04  0.10100000352E+00 0. -1.
       -3   -1    0    0    0  501  0.00000000000E+00  0.00000000000E+00 -0.31076426199E+02  0.31076590326E+02  0.10100000352E+00 0.  1.
    10030    2    1    2    0    0  0.00000000000E+00  0.00000000000E+00  0.19772223004E+04  0.20393753194E+04  0.49964354137E+03 0.  0.
        5    1    3    3  502    0  0.70775272704E+02  0.21708266675E+03  0.57527769684E+03  0.61895116278E+03  0.46999998093E+01 0.  1.
       -5    1    3    3    0  502 -0.70775272704E+02 -0.21708266675E+03  0.14019446035E+04  0.14204241567E+04  0.46999998093E+01 0. -1.
</event>
<event>
 5   0  0.1209831E-02  0.4995736E+03  0.7818609E-02  0.1013890E+00
        1   -1    0    0  501    0  0.00000000000E+00  0.00000000000E+00  0.11984913443E+04  0.11984913443E+04  0.50400001928E-02 0. -1.
       -1   -1    0    0    0  501  0.00000000000E+00  0.00000000000E+00 -0.52059998327E+02  0.52059998571E+02  0.50400001928E-02 0.  1.
    10030    2    1    2    0    0  0.00000000000E+00  0.00000000000E+00  0.11464313459E+04  0.12505513428E+04  0.49957364837E+03 0.  0.
        4    1    3    3  502    0  0.19884927367E+02 -0.10200452518E+03  0.46362619920E+01  0.10403576942E+03  0.12699999809E+01 0.  1.
       -4    1    3    3    0  502 -0.19884927367E+02  0.10200452518E+03  0.11417950839E+04  0.11465155734E+04  0.12699999809E+01 0. -1.
</event>
<event>
 5   0  0.1923706E-02  0.5002701E+03  0.7818609E-02  0.1013708E+00
       -2   -1    0    0    0  501  0.00000000000E+00  0.00000000000E+00  0.27400441281E+03  0.27400441282E+03  0.25500000920E-02 0.  1.
        2   -1    0    0  501    0  0.00000000000E+00  0.00000000000E+00 -0.22834500864E+03  0.22834500865E+03  0.25500000920E-02 0. -1.
    10030    2    1    2    0    0  0.00000000000E+00  0.00000000000E+00  0.45659404174E+02  0.50234942148E+03  0.50027008712E+03 0.  0.
        3    1    3    3  502    0 -0.15949086305E+03  0.82351815423E+02 -0.15210222351E+03  0.23527484671E+03  0.10100000352E+00 0. -1.
       -3    1    3    3    0  502  0.15949086305E+03 -0.82351815423E+02  0.19776162768E+03  0.26707457476E+03  0.10100000352E+00 0.  1.
</event>
<event>
 5   0  0.8012875E-03  0.5016837E+03  0.7818609E-02  0.1013340E+00
       -3   -1    0    0    0  501  0.00000000000E+00  0.00000000000E+00  0.29741692567E+03  0.29741694282E+03  0.10100000352E+00 0.  1.
        3   -1    0    0  501    0  0.00000000000E+00  0.00000000000E+00 -0.21156029627E+03  0.21156032038E+03  0.10100000352E+00 0. -1.
    10030    2    1    2    0    0  0.00000000000E+00  0.00000000000E+00  0.85856629400E+02  0.50897726320E+03  0.50168365894E+03 0.  0.
        1    1    3    3  502    0  0.14001136180E+03 -0.49392279471E+01  0.25402553469E+03  0.29009748310E+03  0.50400001928E-02 0.  1.
       -1    1    3    3    0  502 -0.14001136180E+03  0.49392279471E+01 -0.16816890529E+03  0.21887978010E+03  0.50400001928E-02 0. -1.
</event>
<event>
 5   0  0.1855407E-02  0.5004223E+03  0.7818609E-02  0.1013669E+00
       -2   -1    0    0    0  501  0.00000000000E+00  0.00000000000E+00  0.34374629682E+03  0.34374629683E+03  0.25500000920E-02 0. -1.
        2   -1    0    0  501    0  0.00000000000E+00  0.00000000000E+00 -0.18212742688E+03  0.18212742690E+03  0.25500000920E-02 0.  1.
    10030    2    1    2    0    0  0.00000000000E+00  0.00000000000E+00  0.16161886994E+03  0.52587372373E+03  0.50042233582E+03 0.  0.
        1    1    3    3  502    0 -0.44844216432E+02 -0.90959106694E+02 -0.15956212163E+03  0.18906251221E+03  0.50400001928E-02 0.  1.
       -1    1    3    3    0  502  0.44844216432E+02  0.90959106694E+02  0.32118099157E+03  0.33681121152E+03  0.50400001928E-02 0. -1.
</event>
<event>
 5   0  0.1217270E-02  0.5131901E+03  0.7818609E-02  0.1010392E+00
        1   -1    0    0  501    0  0.00000000000E+00  0.00000000000E+00  0.10510081758E+03  0.10510081770E+03  0.50400001928E-02 0.  1.
       -1   -1    0    0    0  501  0.00000000000E+00  0.00000000000E+00 -0.62645591851E+03  0.62645591853E+03  0.50400001928E-02 0. -1.
    10030    2    1    2    0    0  0.00000000000E+00  0.00000000000E+00 -0.52135510093E+03  0.73155673623E+03  0.51319013734E+03 0.  0.
        2    1    3    3  502    0 -0.97118459587E+02 -0.10455454639E+03 -0.56467324647E+03  0.58242555203E+03  0.25500000920E-02 0. -1.
       -2    1    3    3    0  502  0.97118459587E+02  0.10455454639E+03  0.43318145548E+02  0.14913118421E+03  0.25500000920E-02 0.  1.
</event>
<event>
 5   0  0.1855407E-02  0.4996580E+03  0.7818609E-02  0.1013868E+00
        2   -1    0    0  501    0  0.00000000000E+00  0.00000000000E+00  0.97295430625E+03  0.97295430625E+03  0.25500000920E-02 0.  1.
       -2   -1    0    0    0  501  0.00000000000E+00  0.00000000000E+00 -0.64149504046E+02  0.64149504097E+02  0.25500000920E-02 0. -1.
    10030    2    1    2    0    0  0.00000000000E+00  0.00000000000E+00  0.90880480220E+03  0.10371038103E+04  0.49965802799E+03 0.  0.
        1    1    3    3  502    0  0.13127906862E+03  0.21158452446E+03  0.41225483098E+03  0.48161836608E+03  0.50400001928E-02 0.  1.
       -1    1    3    3    0  502 -0.13127906862E+03 -0.21158452446E+03  0.49654997122E+03  0.55548544427E+03  0.50400001928E-02 0. -1.
</event>
<event>
 5   0  0.1855407E-02  0.5001321E+03  0.7818609E-02  0.1013744E+00
       -2   -1    0    0    0  501  0.00000000000E+00  0.00000000000E+00  0.95420270032E+02  0.95420270067E+02  0.25500000920E-02 0.  1.
        2   -1    0    0  501    0  0.00000000000E+00  0.00000000000E+00 -0.65534326766E+03  0.65534326767E+03  0.25500000920E-02 0. -1.
    10030    2    1    2    0    0  0.00000000000E+00  0.00000000000E+00 -0.55992299763E+03  0.75076353773E+03  0.50013210886E+03 0.  0.
        1    1    3    3  502    0 -0.10149995134E+02  0.17220528470E+03 -0.55172560608E+03  0.57806472554E+03  0.50400001928E-02 0. -1.
       -1    1    3    3    0  502  0.10149995134E+02 -0.17220528470E+03 -0.81973915496E+01  0.17269881220E+03  0.50400001928E-02 0.  1.
</event>
<event>
 5   0  0.1217270E-02  0.4998176E+03  0.7818609E-02  0.1013827E+00
        1   -1    0    0  501    0  0.00000000000E+00  0.00000000000E+00  0.36686885850E+03  0.36686885854E+03  0.50400001928E-02 0.  1.
       -1   -1    0    0    0  501  0.00000000000E+00  0.00000000000E+00 -0.17023632605E+03  0.17023632613E+03  0.50400001928E-02 0. -1.
    10030    2    1    2    0    0  0.00000000000E+00  0.00000000000E+00  0.19663253245E+03  0.53710518466E+03  0.49981759330E+03 0.  0.
        2    1    3    3  502    0 -0.56502259302E+02 -0.80161273378E+02  0.34532543010E+03  0.35898187661E+03  0.25500000920E-02 0.  1.
       -2    1    3    3    0  502  0.56502259302E+02  0.80161273378E+02 -0.14869289765E+03  0.17812330806E+03  0.25500000920E-02 0. -1.
</event>
<event>
 5   0  0.1855407E-02  0.4993039E+03  0.7818609E-02  0.1013961E+00
       -2   -1    0    0    0  501  0.00000000000E+00  0.00000000000E+00  0.10268612052E+03  0.10268612055E+03  0.25500000920E-02 0. -1.
        2   -1    0    0  501    0  0.00000000000E+00  0.00000000000E+00 -0.60695739864E+03  0.60695739864E+03  0.25500000920E-02 0.  1.
    10030    2    1    2    0    0  0.00000000000E+00  0.00000000000E+00 -0.50427127812E+03  0.70964351920E+03  0.49930391787E+03 0.  0.
        1    1    3    3  502    0 -0.84905373823E+02  0.15507514573E+02 -0.58507814286E+03  0.59141004286E+03  0.50400001928E-02 0.  1.
       -1    1    3    3    0  502  0.84905373823E+02 -0.15507514573E+02  0.80806864744E+02  0.11823347634E+03  0.50400001928E-02 0. -1.
</event>
<event>
 5   0  0.1209831E-02  0.5021393E+03  0.7818609E-02  0.1013222E+00
        1   -1    0    0  501    0  0.00000000000E+00  0.00000000000E+00  0.94578805754E+03  0.94578805755E+03  0.50400001928E-02 0. -1.
       -1   -1    0    0    0  501  0.00000000000E+00  0.00000000000E+00 -0.66649148295E+02  0.66649148485E+02  0.50400001928E-02 0.  1.
    10030    2    1    2    0    0  0.00000000000E+00  0.00000000000E+00  0.87913890925E+03  0.10124372060E+04  0.50213929783E+03 0.  0.
        4    1    3    3  502    0 -0.11871373322E+03  0.14344551454E+03  0.99996049959E+02  0.21135370591E+03  0.12699999809E+01 0.  1.
       -4    1    3    3    0  502  0.11871373322E+03 -0.14344551454E+03  0.77914285929E+03  0.80108350013E+03  0.12699999809E+01 0. -1.
</event>
<event>
 5   0  0.8012875E-03  0.4996171E+03  0.7818609E-02  0.1013879E+00
        4   -1    0    0  501    0  0.00000000000E+00  0.00000000000E+00  0.78691960033E+02  0.78702207554E+02  0.12699999809E+01 0. -1.
       -4   -1    0    0    0  501  0.00000000000E+00  0.00000000000E+00 -0.79295790127E+03  0.79295891829E+03  0.12699999809E+01 0.  1.
    10030    2    1    2    0    0  0.00000000000E+00  0.00000000000E+00 -0.71426594124E+03  0.87166112584E+03  0.49961713690E+03 0.  0.
        2    1    3    3  502    0  0.15868578372E+03  0.12799253435E+03 -0.10526659562E+03  0.22944350713E+03  0.25500000920E-02 0. -1.
       -2    1    3    3    0  502 -0.15868578372E+03 -0.12799253435E+03 -0.60899934562E+03  0.64221761871E+03  0.25500000920E-02 0.  1.
</event>
<event>
 5   0  0.1209831E-02  0.4992220E+03  0.7818609E-02  0.1013982E+00
        1   -1    0    0  501    0  0.00000000000E+00  0.00000000000E+00  0.81704924590E+03  0.81704924592E+03  0.50400001928E-02 0.  1.
       -1   -1    0    0    0  501  0.00000000000E+00  0.00000000000E+00 -0.76256904404E+02  0.76256904571E+02  0.50400001928E-02 0. -1.
    10030    2    1    2    0    0  0.00000000000E+00  0.00000000000E+00  0.74079234150E+03  0.89330615049E+03  0.49922197996E+03 0.  0.
        4    1    3    3  502    0 -0.28927520129E+02  0.18734006365E+03  0.79813728387E+02  0.20568165939E+03  0.12699999809E+01 0. -1.
       -4    1    3    3    0  502  0.28927520129E+02 -0.18734006365E+03  0.66097861311E+03  0.68762449110E+03  0.12699999809E+01 0.  1.
</event>
<event>
 5   0  0.1855407E-02  0.4999738E+03  0.7818609E-02  0.1013786E+00
        2   -1    0    0  501    0  0.00000000000E+00  0.00000000000E+00  0.49524768502E+03  0.49524768503E+03  0.25500000920E-02 0.  1.
       -2   -1    0    0    0  501  0.00000000000E+00  0.00000000000E+00 -0.12618623843E+03  0.12618623846E+03  0.25500000920E-02 0. -1.
    10030    2    1    2    0    0  0.00000000000E+00  0.00000000000E+00  0.36906144659E+03  0.62143392349E+03  0.49997376921E+03 0.  0.
        1    1    3    3  502    0 -0.21212774539E+03 -0.74704146084E+01  0.20390813070E+02  0.21323642452E+03  0.50400001928E-02 0. -1.
       -1    1    3    3    0  502  0.21212774539E+03  0.74704146084E+01  0.34867063352E+03  0.40819749897E+03  0.50400001928E-02 0.  1.
</event>
<event>
 5   0  0.1209831E-02  0.5039695E+03  0.7818609E-02  0.1012748E+00
       -1   -1    0    0    0  501  0.00000000000E+00  0.00000000000E+00  0.79175489894E+02  0.79175490054E+02  0.50400001928E-02 0. -1.
        1   -1    0    0  501    0  0.00000000000E+00  0.00000000000E+00 -0.80196927669E+03  0.80196927670E+03  0.50400001928E-02 0.  1.
    10030    2    1    2    0    0  0.00000000000E+00  0.00000000000E+00 -0.72279378679E+03  0.88114476676E+03  0.50396948495E+03 0.  0.
        4    1    3    3  502    0  0.98692569128E+02 -0.13668047933E+03 -0.68883482873E+03  0.70916627867E+03  0.12699999809E+01 0.  1.
       -4    1    3    3    0  502 -0.98692569128E+02  0.13668047933E+03 -0.33958958063E+02  0.17197848809E+03  0.12699999809E+01 0. -1.
</event>
<event>
 5   0  0.1217270E-02  0.4998010E+03  0.7818609E-02  0.1013831E+00
       -1   -1    0    0    0  501  0.00000000000E+00  0.00000000000E+00  0.73680783965E+02  0.73680784137E+02  0.50400001928E-02 0. -1.
        1   -1    0    0  501    0  0.00000000000E+00  0.00000000000E+00 -0.84757872197E+03  0.84757872198E+03  0.50400001928E-02 0.  1.
    10030    2    1    2    0    0  0.00000000000E+00  0.00000000000E+00 -0.77389793800E+03  0.92125950612E+03  0.49980101958E+03 0.  0.
        2    1    3    3  502    0  0.88511142981E+02 -0.13326178860E+03 -0.33076458225E+02  0.16336149739E+03  0.25500000920E-02 0. -1.
       -2    1    3    3    0  502 -0.88511142981E+02  0.13326178860E+03 -0.74082147978E+03  0.75789800873E+03  0.25500000920E-02 0.  1.
</event>
<event>
 5   0  0.1982847E-02  0.4998523E+03  0.7818609E-02  0.1013817E+00
        2   -1    0    0  501    0  0.00000000000E+00  0.00000000000E+00  0.45486056504E+03  0.45486056505E+03  0.25500000920E-02 0.  1.
       -2   -1    0    0    0  501  0.00000000000E+00  0.00000000000E+00 -0.13732358472E+03  0.13732358474E+03  0.25500000920E-02 0. -1.
    10030    2    1    2    0    0  0.00000000000E+00  0.00000000000E+00  0.31753698032E+03  0.59218414979E+03  0.49985231158E+03 0.  0.
        2    1    3    3  502    0  0.10994064753E+03  0.16272951233E+03 -0.24366277361E+02  0.19789278825E+03  0.25500000920E-02 0. -1.
       -2    1    3    3    0  502 -0.10994064753E+03 -0.16272951233E+03  0.34190325768E+03  0.39429136154E+03  0.25500000920E-02 0.  1.
</event>
<event>
 5   0  0.1982847E-02  0.4999343E+03  0.7818609E-02  0.1013796E+00
       -2   -1    0    0    0  501  0.00000000000E+00  0.00000000000E+00  0.51735482550E+02  0.51735482613E+02  0.25500000920E-02 0.  1.
        2   -1    0    0  501    0  0.00000000000E+00  0.00000000000E+00 -0.12077507079E+04  0.12077507079E+04  0.25500000920E-02 0. -1.
    10030    2    1    2    0    0  0.00000000000E+00  0.00000000000E+00 -0.11560152253E+04  0.12594861905E+04  0.49993425853E+03 0.  0.
        2    1    3    3  502    0  0.20103920710E+03  0.13996041913E+03 -0.45260083845E+03  0.51463890320E+03  0.25500000920E-02 0.  1.
       -2    1    3    3    0  502 -0.20103920710E+03 -0.13996041913E+03 -0.70341438688E+03  0.74484728729E+03  0.25500000920E-02 0. -1.
</event>
<event>
 5   0  0.1967813E-02  0.5003249E+03  0.7818609E-02  0.1013694E+00
        2   -1    0    0  501    0  0.00000000000E+00  0.00000000000E+00  0.49742300849E+03  0.49742300850E+03  0.25500000920E-02 0. -1.
       -2   -1    0    0    0  501  0.00000000000E+00  0.00000000000E+00 -0.12581095196E+03  0.12581095198E+03  0.25500000920E-02 0.  1.
    10030    2    1    2    0    0  0.00000000000E+00  0.00000000000E+00  0.37161205653E+03  0.62323396048E+03  0.50032494334E+03 0.  0.
        5    1    3    3  502    0  0.12937254118E+03  0.14943884273E+03 -0.51089501191E+01  0.19778122635E+03  0.46999998093E+01 0.  1.
       -5    1    3    3    0  502 -0.12937254118E+03 -0.14943884273E+03  0.37672100665E+03  0.42545273413E+03  0.46999998093E+01 0. -1.
</event>
<event>
 5   0  0.1855407E-02  0.4999628E+03  0.7818609E-02  0.1013789E+00
       -2   -1    0    0    0  501  0.00000000000E+00  0.00000000000E+00  0.23322193587E+03  0.23322193588E+03  0.25500000920E-02 0.  1.
        2   -1    0    0  501    0  0.00000000000E+00  0.00000000000E+00 -0.26794523992E+03  0.26794523994E+03  0.25500000920E-02 0. -1.
    10030    2    1    2    0    0  0.00000000000E+00  0.00000000000E+00 -0.34723304052E+02  0.50116717582E+03  0.49996282889E+03 0.  0.
        1    1    3    3  502    0 -0.52600538741E+02  0.45184970131E+02 -0.25811140234E+03  0.26726390375E+03  0.50400001928E-02 0. -1.
       -1    1    3    3    0  502  0.52600538741E+02 -0.45184970131E+02  0.22338809829E+03  0.23390327207E+03  0.50400001928E-02 0.  1.
</event>
<event>
 5   0  0.1180937E-02  0.5000744E+03  0.7818609E-02  0.1013759E+00
        1   -1    0    0  501    0  0.00000000000E+00  0.00000000000E+00  0.17913353994E+03  0.17913354001E+03  0.50400001928E-02 0.  1.
       -1   -1    0    0    0  501  0.00000000000E+00  0.00000000000E+00 -0.34900560823E+03  0.34900560827E+03  0.50400001928E-02 0. -1.
    10030    2    1    2    0    0  0.00000000000E+00  0.00000000000E+00 -0.16987206829E+03  0.52813914828E+03  0.50007443482E+03 0.  0.
        1    1    3    3  502    0 -0.23711469865E+03  0.11861768448E+02 -0.20824899349E+01  0.23742034171E+03  0.50400001928E-02 0.  1.
       -1    1    3    3    0  502  0.23711469865E+03 -0.11861768448E+02 -0.16778957835E+03  0.29071880657E+03  0.50400001928E-02 0. -1.
</event>
<event>
 5   0  0.1941387E-02  0.4960395E+03  0.7818609E-02  0.1014818E+00
       -2   -1    0    0    0  501  0.00000000000E+00  0.00000000000E+00  0.29562488098E+03  0.29562488099E+03  0.25500000920E-02 0. -1.
        2   -1    0    0  501    0  0.00000000000E+00  0.00000000000E+00 -0.20808061305E+03  0.20808061306E+03  0.25500000920E-02 0.  1.
    10030    2    1    2    0    0  0.00000000000E+00  0.00000000000E+00  0.87544267933E+02  0.50370549406E+03  0.49603954066E+03 0.  0.
        4    1    3    3  502    0 -0.18800272488E+03  0.89345330460E+02 -0.93162101004E+02  0.22805350819E+03  0.12699999809E+01 0.  1.
       -4    1    3    3    0  502  0.18800272488E+03 -0.89345330460E+02  0.18070636894E+03  0.27565198586E+03  0.12699999809E+01 0. -1.
</event>
<event>
 5   0  0.1967813E-02  0.5004620E+03  0.7818609E-02  0.1013658E+00
        2   -1    0    0  501    0  0.00000000000E+00  0.00000000000E+00  0.88697872273E+03  0.88697872273E+03  0.25500000920E-02 0.  1.
       -2   -1    0    0    0  501  0.00000000000E+00  0.00000000000E+00 -0.70594210186E+02  0.70594210232E+02  0.25500000920E-02 0. -1.
    10030    2    1    2    0    0  0.00000000000E+00  0.00000000000E+00  0.81638451254E+03  0.95757293296E+03  0.50046203615E+03 0.  0.
        5    1    3    3  502    0  0.61712826494E+02  0.10666938952E+02  0.87165333414E+03  0.87391297133E+03  0.46999998093E+01 0.  1.
       -5    1    3    3    0  502 -0.61712826494E+02 -0.10666938952E+02 -0.55268821603E+02  0.83659961631E+02  0.46999998093E+01 0. -1.
</event>
<event>
 5   0  0.1855407E-02  0.4998556E+03  0.7818609E-02  0.1013817E+00
       -2   -1    0    0    0  501  0.00000000000E+00  0.00000000000E+00  0.10969130878E+03  0.10969130881E+03  0.25500000920E-02 0. -1.
        2   -1    0    0  501    0  0.00000000000E+00  0.00000000000E+00 -0.56945165839E+03  0.56945165839E+03  0.25500000920E-02 0.  1.
    10030    2    1    2    0    0  0.00000000000E+00  0.00000000000E+00 -0.45976034960E+03  0.67914296721E+03  0.49985556998E+03 0.  0.
        1    1    3    3  502    0  0.12506846824E+03  0.13535694270E+03 -0.45925259104E+03  0.49485004404E+03  0.50400001928E-02 0.  1.
       -1    1    3    3    0  502 -0.12506846824E+03 -0.13535694270E+03 -0.50775856188E+00  0.18429292317E+03  0.50400001928E-02 0. -1.
</event>
<event>
 5   0  0.1180937E-02  0.4996564E+03  0.7818609E-02  0.1013869E+00
       -1   -1    0    0    0  501  0.00000000000E+00  0.00000000000E+00  0.39419691424E+03  0.39419691428E+03  0.50400001928E-02 0.  1.
        1   -1    0    0  501    0  0.00000000000E+00  0.00000000000E+00 -0.15833238770E+03  0.15833238778E+03  0.50400001928E-02 0. -1.
    10030    2    1    2    0    0  0.00000000000E+00  0.00000000000E+00  0.23586452655E+03  0.55252930205E+03  0.49965643671E+03 0.  0.
        1    1    3    3  502    0 -0.40133026600E+02  0.22142502430E+03  0.23792471074E+03  0.32748720466E+03  0.50400001928E-02 0.  1.
       -1    1    3    3    0  502  0.40133026600E+02 -0.22142502430E+03 -0.20601841919E+01  0.22504209739E+03  0.50400001928E-02 0. -1.
</event>
<event>
 5   0  0.8012875E-03  0.5001044E+03  0.7818609E-02  0.1013752E+00
        4   -1    0    0  501    0  0.00000000000E+00  0.00000000000E+00  0.83478225581E+02  0.83487885625E+02  0.12699999809E+01 0.  1.
       -4   -1    0    0    0  501  0.00000000000E+00  0.00000000000E+00 -0.74895747181E+03  0.74895854858E+03  0.12699999809E+01 0. -1.
    10030    2    1    2    0    0  0.00000000000E+00  0.00000000000E+00 -0.66547924623E+03  0.83244643420E+03  0.50010442774E+03 0.  0.
        2    1    3    3  502    0  0.27772003701E+02 -0.17747790485E+03 -0.62227681555E+03  0.64768674996E+03  0.25500000920E-02 0. -1.
       -2    1    3    3    0  502 -0.27772003701E+02  0.17747790485E+03 -0.43202430686E+02  0.18475968424E+03  0.25500000920E-02 0.  1.
</event>
<event>
 5   0  0.1217270E-02  0.4887065E+03  0.7818609E-02  0.1016769E+00
        1   -1    0    0  501    0  0.00000000000E+00  0.00000000000E+00  0.52703996699E+02  0.52703996940E+02  0.50400001928E-02 0.  1.
       -1   -1    0    0    0  501  0.00000000000E+00  0.00000000000E+00 -0.11329029921E+04  0.11329029921E+04  0.50400001928E-02 0. -1.
    10030    2    1    2    0    0  0.00000000000E+00  0.00000000000E+00 -0.10801989954E+04  0.11856069891E+04  0.48870652014E+03 0.  0.
        2    1    3    3  502    0 -0.77846127840E+02 -0.16988594400E+03 -0.15814916108E+03  0.24481096941E+03  0.25500000920E-02 0.  1.
       -2    1    3    3    0  502  0.77846127840E+02  0.16988594400E+03 -0.92204983436E+03  0.94079601968E+03  0.25500000920E-02 0. -1.
</event>
<event>
 5   0  0.1982847E-02  0.4992113E+03  0.7818609E-02  0.1013985E+00
        2   -1    0    0  501    0  0.00000000000E+00  0.00000000000E+00  0.12944542211E+04  0.12944542211E+04  0.25500000920E-02 0.  1.
       -2   -1    0    0    0  501  0.00000000000E+00  0.00000000000E+00 -0.48130700763E+02  0.48130700830E+02  0.25500000920E-02 0. -1.
    10030    2    1    2    0    0  0.00000000000E+00  0.00000000000E+00  0.12463235203E+04  0.13425849219E+04  0.49921133325E+03 0.  0.
        2    1    3    3  502    0  0.77907457424E+02 -0.42762416216E+02 -0.41391373225E+01  0.88968132650E+02  0.25500000920E-02 0. -1.
       -2    1    3    3    0  502 -0.77907457424E+02  0.42762416216E+02  0.12504626576E+04  0.12536167893E+04  0.25500000920E-02 0.  1.
</event>
<event>
 5   0  0.1941387E-02  0.4995272E+03  0.7818609E-02  0.1013902E+00
        2   -1    0    0  501    0  0.00000000000E+00  0.00000000000E+00  0.85715022432E+03  0.85715022433E+03  0.25500000920E-02 0.  1.
       -2   -1    0    0    0  501  0.00000000000E+00  0.00000000000E+00 -0.72778200752E+02  0.72778200797E+02  0.25500000920E-02 0. -1.
    10030    2    1    2    0    0  0.00000000000E+00  0.00000000000E+00  0.78437202357E+03  0.92992842513E+03  0.49952718093E+03 0.  0.
        4    1    3    3  502    0 -0.18490179264E+03  0.14913910394E+03  0.24859879526E+03  0.34385188548E+03  0.12699999809E+01 0.  1.
       -4    1    3    3    0  502  0.18490179264E+03 -0.14913910394E+03  0.53577322831E+03  0.58607653965E+03  0.12699999809E+01 0. -1.
</event>
<event>
 5   0  0.1967813E-02  0.5004178E+03  0.7818609E-02  0.1013670E+00
       -2   -1    0    0    0  501  0.00000000000E+00  0.00000000000E+00  0.45945631877E+02  0.45945631948E+02  0.25500000920E-02 0.  1.
        2   -1    0    0  501    0  0.00000000000E+00  0.00000000000E+00 -0.13625778166E+04  0.13625778166E+04  0.25500000920E-02 0. -1.
    10030    2    1    2    0    0  0.00000000000E+00  0.00000000000E+00 -0.13166321847E+04  0.14085234485E+04  0.50041782069E+03 0.  0.
        5    1    3    3  502    0  0.73328454327E+02  0.22640920305E+03 -0.44130660114E+03  0.50140980808E+03  0.46999998093E+01 0.  1.
       -5    1    3    3    0  502 -0.73328454327E+02 -0.22640920305E+03 -0.87532558357E+03  0.90711364045E+03  0.46999998093E+01 0. -1.
</event>
<event>
 5   0  0.1209831E-02  0.5002007E+03  0.7818609E-02  0.1013727E+00
        1   -1    0    0  501    0  0.00000000000E+00  0.00000000000E+00  0.66840232193E+03  0.66840232195E+03  0.50400001928E-02 0.  1.
       -1   -1    0    0    0  501  0.00000000000E+00  0.00000000000E+00 -0.93581635743E+02  0.93581635879E+02  0.50400001928E-02 0. -1.
    10030    2    1    2    0    0  0.00000000000E+00  0.00000000000E+00  0.57482068618E+03  0.76198395783E+03  0.50020069044E+03 0.  0.
        4    1    3    3  502    0  0.96386501034E+02  0.22213237911E+03  0.38273179025E+03  0.45289997527E+03  0.12699999809E+01 0.  1.
       -4    1    3    3    0  502 -0.96386501034E+02 -0.22213237911E+03  0.19208889593E+03  0.30908398256E+03  0.12699999809E+01 0. -1.
</event>
<event>
 5   0  0.1209831E-02  0.5014326E+03  0.7818609E-02  0.1013406E+00
       -1   -1    0    0    0  501  0.00000000000E+00  0.00000000000E+00  0.18895968682E+03  0.18895968689E+03  0.50400001928E-02 0.  1.
        1   -1    0    0  501    0  0.00000000000E+00  0.00000000000E+00 -0.33265648041E+03  0.33265648045E+03  0.50400001928E-02 0. -1.
    10030    2    1    2    0    0  0.00000000000E+00  0.00000000000E+00 -0.14369679359E+03  0.52161616733E+03  0.50143260518E+03 0.  0.
        4    1    3    3  502    0  0.24371957886E+02  0.71499261585E+02 -0.32053366938E+03  0.32931684264E+03  0.12699999809E+01 0. -1.
       -4    1    3    3    0  502 -0.24371957886E+02 -0.71499261585E+02  0.17683687579E+03  0.19229932470E+03  0.12699999809E+01 0.  1.
</event>
<event>
 5   0  0.1982847E-02  0.5035055E+03  0.7818609E-02  0.1012868E+00
       -2   -1    0    0    0  501  0.00000000000E+00  0.00000000000E+00  0.11917314843E+03  0.11917314845E+03  0.25500000920E-02 0. -1.
        2   -1    0    0  501    0  0.00000000000E+00  0.00000000000E+00 -0.53182652617E+03  0.53182652618E+03  0.25500000920E-02 0.  1.
    10030    2    1    2    0    0  0.00000000000E+00  0.00000000000E+00 -0.41265337775E+03  0.65099967463E+03  0.50350547783E+03 0.  0.
        2    1    3    3  502    0  0.38016724437E+02 -0.53680707141E+02 -0.52051925599E+03  0.52465911364E+03  0.25500000920E-02 0.  1.
       -2    1    3    3    0  502 -0.38016724437E+02  0.53680707141E+02  0.10786587825E+03  0.12634056099E+03  0.25500000920E-02 0. -1.
</event>
<event>
 5   0  0.1855407E-02  0.4994285E+03  0.7818609E-02  0.1013928E+00
        2   -1    0    0  501    0  0.00000000000E+00  0.00000000000E+00  0.16592302319E+04  0.16592302319E+04  0.25500000920E-02 0. -1.
       -2   -1    0    0    0  501  0.00000000000E+00  0.00000000000E+00 -0.37582016828E+02  0.37582016914E+02  0.25500000920E-02 0.  1.
    10030    2    1    2    0    0  0.00000000000E+00  0.00000000000E+00  0.16216482151E+04  0.16968122488E+04  0.49942854773E+03 0.  0.
        1    1    3    3  502    0 -0.76783134656E+02 -0.20915790547E+03  0.42772535089E+03  0.48227757050E+03  0.50400001928E-02 0.  1.
       -1    1    3    3    0  502  0.76783134656E+02  0.20915790547E+03  0.11939228642E+04  0.12145346783E+04  0.50400001928E-02 0. -1.
</event>
<event>
 5   0  0.1855407E-02  0.5005062E+03  0.7818609E-02  0.1013647E+00
       -2   -1    0    0    0  501  0.00000000000E+00  0.00000000000E+00  0.86360787350E+02  0.86360787388E+02  0.25500000920E-02 0.  1.
        2   -1    0    0  501    0  0.00000000000E+00  0.00000000000E+00 -0.72517412035E+03  0.72517412035E+03  0.25500000920E-02 0. -1.
    10030    2    1    2    0    0  0.00000000000E+00  0.00000000000E+00 -0.63881333300E+03  0.81153490774E+03  0.50050617585E+03 0.  0.
        1    1    3    3  502    0  0.71276021821E+02  0.12995646795E+01  0.69549116624E+02  0.99594376365E+02  0.50400001928E-02 0.  1.
       -1    1    3    3    0  502 -0.71276021821E+02 -0.12995646795E+01 -0.70836244962E+03  0.71194053137E+03  0.50400001928E-02 0. -1.
</event>
<event>
 5   0  0.8012875E-03  0.5006911E+03  0.7818609E-02  0.1013599E+00
        4   -1    0    0  501    0  0.00000000000E+00  0.00000000000E+00  0.31343486638E+03  0.31343743931E+03  0.12699999809E+01 0. -1.
       -4   -1    0    0    0  501  0.00000000000E+00  0.00000000000E+00 -0.19994968426E+03  0.19995371749E+03  0.12699999809E+01 0.  1.
    10030    2    1    2    0    0  0.00000000000E+00  0.00000000000E+00  0.11348518212E+03  0.51339115680E+03  0.50069111568E+03 0.  0.
        1    1    3    3  502    0  0.29905534149E+02  0.24460325182E+03  0.11489170973E+02  0.24669230399E+03  0.50400001928E-02 0. -1.
       -1    1    3    3    0  502 -0.29905534149E+02 -0.24460325182E+03  0.10199601114E+03  0.26669885281E+03  0.50400001928E-02 0.  1.
</event>
<event>
 5   0  0.1967813E-02  0.5003193E+03  0.7818609E-02  0.1013696E+00
        2   -1    0    0  501    0  0.00000000000E+00  0.00000000000E+00  0.68425686696E+03  0.68425686696E+03  0.25500000920E-02 0.  1.
       -2   -1    0    0    0  501  0.00000000000E+00  0.00000000000E+00 -0.91456677175E+02  0.91456677211E+02  0.25500000920E-02 0. -1.
    10030    2    1    2    0    0  0.00000000000E+00  0.00000000000E+00  0.59280018978E+03  0.77571354418E+03  0.50031933563E+03 0.  0.
        5    1    3    3  502    0 -0.96466255804E+02 -0.30266322751E+02 -0.58294254744E+02  0.11679939613E+03  0.46999998093E+01 0. -1.
       -5    1    3    3    0  502  0.96466255804E+02  0.30266322751E+02  0.65109444453E+03  0.65891414805E+03  0.46999998093E+01 0.  1.
</event>
<event>
 5   0  0.1209831E-02  0.5012087E+03  0.7818609E-02  0.1013464E+00
        1   -1    0    0  501    0  0.00000000000E+00  0.00000000000E+00  0.11700784745E+04  0.11700784745E+04  0.50400001928E-02 0. -1.
       -1   -1    0    0    0  501  0.00000000000E+00  0.00000000000E+00 -0.53673790095E+02  0.53673790332E+02  0.50400001928E-02 0.  1.
    10030    2    1    2    0    0  0.00000000000E+00  0.00000000000E+00  0.11164046844E+04  0.12237522649E+04  0.50120872534E+03 0.  0.
        4    1    3    3  502    0 -0.17056628354E+03 -0.66218095628E+02  0.97630301492E+03  0.99330100328E+03  0.12699999809E+01 0. -1.
       -4    1    3    3    0  502  0.17056628354E+03  0.66218095628E+02  0.14010166952E+03  0.23045126160E+03  0.12699999809E+01 0.  1.
</event>
<event>
 5   0  0.1180937E-02  0.5002916E+03  0.7818609E-02  0.1013703E+00
        1   -1    0    0  501    0  0.00000000000E+00  0.00000000000E+00  0.12318917195E+04  0.12318917195E+04  0.50400001928E-02 0.  1.
       -1   -1    0    0    0  501  0.00000000000E+00  0.00000000000E+00 -0.50794170518E+02  0.50794170768E+02  0.50400001928E-02 0. -1.
    10030    2    1    2    0    0  0.00000000000E+00  0.00000000000E+00  0.11810975490E+04  0.12826858903E+04  0.50029158789E+03 0.  0.
        1    1    3    3  502    0  0.15612549677E+03  0.98795476263E+02  0.15819371722E+03  0.24323027991E+03  0.50400001928E-02 0. -1.
       -1    1    3    3    0  502 -0.15612549677E+03 -0.98795476263E+02  0.10229038318E+04  0.10394556104E+04  0.50400001928E-02 0.  1.
</event>
<event>
 5   0  0.1180937E-02  0.4969948E+03  0.7818609E-02  0.1014566E+00
       -1   -1    0    0    0  501  0.00000000000E+00  0.00000000000E+00  0.60870217460E+02  0.60870217669E+02  0.50400001928E-02 0.  1.
        1   -1    0    0  501    0  0.00000000000E+00  0.00000000000E+00 -0.10144690017E+04  0.10144690017E+04  0.50400001928E-02 0. -1.
    10030    2    1    2    0    0  0.00000000000E+00  0.00000000000E+00 -0.95359878420E+03  0.10753392193E+04  0.49699476398E+03 0.  0.
        1    1    3    3  502    0  0.98194576292E+01  0.17990486533E+03 -0.84709129297E+03  0.86604032295E+03  0.50400001928E-02 0. -1.
       -1    1    3    3    0  502 -0.98194576292E+01 -0.17990486533E+03 -0.10650749123E+03  0.20929889640E+03  0.50400001928E-02 0.  1.
</event>
<event>
 5   0  0.8012875E-03  0.5018323E+03  0.7818609E-02  0.1013302E+00
       -4   -1    0    0    0  501  0.00000000000E+00  0.00000000000E+00  0.83320763199E+02  0.83330441496E+02  0.12699999809E+01 0. -1.
        4   -1    0    0  501    0  0.00000000000E+00  0.00000000000E+00 -0.75556698994E+03  0.75556805728E+03  0.12699999809E+01 0.  1.
    10030    2    1    2    0    0  0.00000000000E+00  0.00000000000E+00 -0.67224622674E+03  0.83889849878E+03  0.50183234440E+03 0.  0.
        4    1    3    3  502    0 -0.23431748036E+03 -0.49738496138E+02 -0.21126471016E+03  0.31939472485E+03  0.12699999809E+01 0.  1.
       -4    1    3    3    0  502  0.23431748036E+03  0.49738496138E+02 -0.46098151658E+03  0.51950377393E+03  0.12699999809E+01 0. -1.
</event>
<event>
 5   0  0.8012875E-03  0.4997233E+03  0.7818609E-02  0.1013851E+00
        3   -1    0    0  501    0  0.00000000000E+00  0.00000000000E+00  0.51568142355E+03  0.51568143344E+03  0.10100000352E+00 0.  1.
       -3   -1    0    0    0  501  0.00000000000E+00  0.00000000000E+00 -0.12106470045E+03  0.12106474258E+03  0.10100000352E+00 0. -1.
    10030    2    1    2    0    0  0.00000000000E+00  0.00000000000E+00  0.39461672310E+03  0.63674617602E+03  0.49972325795E+03 0.  0.
        2    1    3    3  502    0 -0.10328901779E+02  0.23069606925E+03  0.31888224522E+03  0.39371721947E+03  0.25500000920E-02 0.  1.
       -2    1    3    3    0  502  0.10328901779E+02 -0.23069606925E+03  0.75734477872E+02  0.24302895656E+03  0.25500000920E-02 0. -1.
</event>
<event>
 5   0  0.1180937E-02  0.4995437E+03  0.7818609E-02  0.1013898E+00
       -1   -1    0    0    0  501  0.00000000000E+00  0.00000000000E+00  0.33425645741E+03  0.33425645745E+03  0.50400001928E-02 0. -1.
        1   -1    0    0  501    0  0.00000000000E+00  0.00000000000E+00 -0.18664101688E+03  0.18664101695E+03  0.50400001928E-02 0.  1.
    10030    2    1    2    0    0  0.00000000000E+00  0.00000000000E+00  0.14761544053E+03  0.52089747440E+03  0.49954365230E+03 0.  0.
        1    1    3    3  502    0 -0.98385271385E+01  0.20549246574E+03  0.22150281870E+03  0.30230357062E+03  0.50400001928E-02 0. -1.
       -1    1    3    3    0  502  0.98385271385E+01 -0.20549246574E+03 -0.73887378170E+02  0.21859390378E+03  0.50400001928E-02 0.  1.
</event>
<event>
 5   0  0.1855407E-02  0.5001655E+03  0.7818609E-02  0.1013736E+00
       -2   -1    0    0    0  501  0.00000000000E+00  0.00000000000E+00  0.25241983542E+03  0.25241983544E+03  0.25500000920E-02 0.  1.
        2   -1    0    0  501    0  0.00000000000E+00  0.00000000000E+00 -0.24776733436E+03  0.24776733437E+03  0.25500000920E-02 0. -1.
    10030    2    1    2    0    0  0.00000000000E+00  0.00000000000E+00  0.46525010616E+01  0.50018716981E+03  0.50016553168E+03 0.  0.
        1    1    3    3  502    0 -0.82890151500E+02  0.42890853630E+02 -0.22969884503E+03  0.24793539879E+03  0.50400001928E-02 0. -1.
       -1    1    3    3    0  502  0.82890151500E+02 -0.42890853630E+02  0.23435134609E+03  0.25225177102E+03  0.50400001928E-02 0.  1.
</event>
<event>
 5   0  0.1180937E-02  0.5000554E+03  0.7818609E-02  0.1013764E+00
        1   -1    0    0  501    0  0.00000000000E+00  0.00000000000E+00  0.11757791463E+03  0.11757791474E+03  0.50400001928E-02 0. -1.
       -1   -1    0    0    0  501  0.00000000000E+00  0.00000000000E+00 -0.53168020367E+03  0.53168020370E+03  0.50400001928E-02 0.  1.
    10030    2    1    2    0    0  0.00000000000E+00  0.00000000000E+00 -0.41410228904E+03  0.64925811844E+03  0.50005539550E+03 0.  0.
        1    1    3    3  502    0 -0.22004091815E+03  0.65822813392E+02 -0.78760380742E+02  0.24280413099E+03  0.50400001928E-02 0.  1.
       -1    1    3    3    0  502  0.22004091815E+03 -0.65822813392E+02 -0.33534190830E+03  0.40645398745E+03  0.50400001928E-02 0. -1.
</event>
<event>
 5   0  0.1941387E-02  0.4997117E+03  0.7818609E-02  0.1013854E+00
        2   -1    0    0  501    0  0.00000000000E+00  0.00000000000E+00  0.51203415576E+03  0.51203415576E+03  0.25500000920E-02 0. -1.
       -2   -1    0    0    0  501  0.00000000000E+00  0.00000000000E+00 -0.12192146648E+03  0.12192146651E+03  0.25500000920E-02 0.  1.
    10030    2    1    2    0    0  0.00000000000E+00  0.00000000000E+00  0.39011268927E+03  0.63395562227E+03  0.49971173759E+03 0.  0.
        4    1    3    3  502    0 -0.43355613526E+02 -0.55267382451E+02  0.49924539722E+03  0.50416442985E+03  0.12699999809E+01 0. -1.
       -4    1    3    3    0  502  0.43355613526E+02  0.55267382451E+02 -0.10913270794E+03  0.12979119242E+03  0.12699999809E+01 0.  1.
</event>
<event>
 5   0  0.1923706E-02  0.5014574E+03  0.7818609E-02  0.1013399E+00
       -2   -1    0    0    0  501  0.00000000000E+00  0.00000000000E+00  0.71200129432E+03  0.71200129433E+03  0.25500000920E-02 0.  1.
        2   -1    0    0  501    0  0.00000000000E+00  0.00000000000E+00 -0.88293221540E+02  0.88293221577E+02  0.25500000920E-02 0. -1.
    10030    2    1    2    0    0  0.00000000000E+00  0.00000000000E+00  0.62370807278E+03  0.80029451591E+03  0.50145742804E+03 0.  0.
        3    1    3    3  502    0 -0.22745510642E+03 -0.55395242981E+02  0.45513701238E+03  0.51181458422E+03  0.10100000352E+00 0.  1.
       -3    1    3    3    0  502  0.22745510642E+03  0.55395242981E+02  0.16857106041E+03  0.28847993169E+03  0.10100000352E+00 0. -1.
</event>
<event>
 5   0  0.1982847E-02  0.4959107E+03  0.7818609E-02  0.1014852E+00
        2   -1    0    0  501    0  0.00000000000E+00  0.00000000000E+00  0.77044766074E+02  0.77044766116E+02  0.25500000920E-02 0.  1.
       -2   -1    0    0    0  501  0.00000000000E+00  0.00000000000E+00 -0.79800168219E+03  0.79800168219E+03  0.25500000920E-02 0. -1.
    10030    2    1    2    0    0  0.00000000000E+00  0.00000000000E+00 -0.72095691611E+03  0.87504644831E+03  0.49591068934E+03 0.  0.
        2    1    3    3  502    0  0.43875816271E+02  0.12725195557E+03 -0.72792217865E+03  0.74026268690E+03  0.25500000920E-02 0. -1.
       -2    1    3    3    0  502 -0.43875816271E+02 -0.12725195557E+03  0.69652625323E+01  0.13478376140E+03  0.25500000920E-02 0.  1.
</event>
<event>
 5   0  0.1227864E-02  0.4992210E+03  0.7818609E-02  0.1013982E+00
       -1   -1    0    0    0  501  0.00000000000E+00  0.00000000000E+00  0.81554862685E+02  0.81554862841E+02  0.50400001928E-02 0.  1.
        1   -1    0    0  501    0  0.00000000000E+00  0.00000000000E+00 -0.76396930622E+03  0.76396930623E+03  0.50400001928E-02 0. -1.
    10030    2    1    2    0    0  0.00000000000E+00  0.00000000000E+00 -0.68241444353E+03  0.84552416908E+03  0.49922104097E+03 0.  0.
        5    1    3    3  502    0 -0.11207089683E+03  0.19024030865E+03 -0.53822940080E+03  0.58177679469E+03  0.46999998093E+01 0.  1.
       -5    1    3    3    0  502  0.11207089683E+03 -0.19024030865E+03 -0.14418504273E+03  0.26374737439E+03  0.46999998093E+01 0. -1.
</event>
<event>
 5   0  0.1180937E-02  0.4993322E+03  0.7818609E-02  0.1013953E+00
        1   -1    0    0  501    0  0.00000000000E+00  0.00000000000E+00  0.37121765438E+03  0.37121765441E+03  0.50400001928E-02 0.  1.
       -1   -1    0    0    0  501  0.00000000000E+00  0.00000000000E+00 -0.16791541532E+03  0.16791541540E+03  0.50400001928E-02 0. -1.
    10030    2    1    2    0    0  0.00000000000E+00  0.00000000000E+00  0.20330223906E+03  0.53913306981E+03  0.49933222063E+03 0.  0.
        1    1    3    3  502    0 -0.19609986485E+03 -0.79379651390E+02  0.24479648173E+03  0.32354536550E+03  0.50400001928E-02 0.  1.
       -1    1    3    3    0  502  0.19609986485E+03  0.79379651390E+02 -0.41494242673E+02  0.21558770431E+03  0.50400001928E-02 0. -1.
</event>
<event>
 5   0  0.1941387E-02  0.5010904E+03  0.7818609E-02  0.1013495E+00
        2   -1    0    0  501    0  0.00000000000E+00  0.00000000000E+00  0.33176078139E+03  0.33176078140E+03  0.25500000920E-02 0. -1.
       -2   -1    0    0    0  501  0.00000000000E+00  0.00000000000E+00 -0.18921133547E+03  0.18921133548E+03  0.25500000920E-02 0.  1.
    10030    2    1    2    0    0  0.00000000000E+00  0.00000000000E+00  0.14254944592E+03  0.52097211688E+03  0.50109041303E+03 0.  0.
        4    1    3    3  502    0 -0.24415085682E+02  0.24792292257E+03  0.98966369087E+02  0.26806310275E+03  0.12699999809E+01 0. -1.
       -4    1    3    3    0  502  0.24415085682E+02 -0.24792292257E+03  0.43583076833E+02  0.25290901413E+03  0.12699999809E+01 0.  1.
</event>
<event>
 5   0  0.1941387E-02  0.4991844E+03  0.7818609E-02  0.1013992E+00
       -2   -1    0    0    0  501  0.00000000000E+00  0.00000000000E+00  0.59185642307E+02  0.59185642362E+02  0.25500000920E-02 0.  1.
        2   -1    0    0  501    0  0.00000000000E+00  0.00000000000E+00 -0.10525570741E+04  0.10525570741E+04  0.25500000920E-02 0. -1.
    10030    2    1    2    0    0  0.00000000000E+00  0.00000000000E+00 -0.99337143180E+03  0.11117427165E+04  0.49918440091E+03 0.  0.
        4    1    3    3  502    0  0.18881050592E+03  0.13539023989E+03 -0.29360562560E+03  0.37441394270E+03  0.12699999809E+01 0.  1.
       -4    1    3    3    0  502 -0.18881050592E+03 -0.13539023989E+03 -0.69976580621E+03  0.73732877378E+03  0.12699999809E+01 0. -1.
</event>
<event>
 5   0  0.1967813E-02  0.4999346E+03  0.7818609E-02  0.1013796E+00
       -2   -1    0    0    0  501  0.00000000000E+00  0.00000000000E+00  0.23987492047E+03  0.23987492048E+03  0.25500000920E-02 0. -1.
        2   -1    0    0  501    0  0.00000000000E+00  0.00000000000E+00 -0.26048433233E+03  0.26048433234E+03  0.25500000920E-02 0.  1.
    10030    2    1    2    0    0  0.00000000000E+00  0.00000000000E+00 -0.20609411858E+02  0.50035925282E+03  0.49993462976E+03 0.  0.
        5    1    3    3  502    0 -0.22896719358E+03  0.15274211213E+02 -0.10939531905E+03  0.25426109237E+03  0.46999998093E+01 0.  1.
       -5    1    3    3    0  502  0.22896719358E+03 -0.15274211213E+02  0.88785907189E+02  0.24609816045E+03  0.46999998093E+01 0. -1.
</event>
<event>
 5   0  0.1923706E-02  0.4957839E+03  0.7818609E-02  0.1014885E+00
        2   -1    0    0  501    0  0.00000000000E+00  0.00000000000E+00  0.10010386668E+04  0.10010386668E+04  0.25500000920E-02 0.  1.
       -2   -1    0    0    0  501  0.00000000000E+00  0.00000000000E+00 -0.61386657057E+02  0.61386657110E+02  0.25500000920E-02 0. -1.
    10030    2    1    2    0    0  0.00000000000E+00  0.00000000000E+00  0.93965200974E+03  0.10624253239E+04  0.49578389393E+03 0.  0.
        3    1    3    3  502    0 -0.93179796053E+02 -0.22743232979E+03  0.53901505930E+03  0.59240626548E+03  0.10100000352E+00 0. -1.
       -3    1    3    3    0  502  0.93179796053E+02  0.22743232979E+03  0.40063695044E+03  0.47001905843E+03  0.10100000352E+00 0.  1.
</event>
<event>
 5   0  0.8012875E-03  0.4982659E+03  0.7818609E-02  0.1014233E+00
       -3   -1    0    0    0  501  0.00000000000E+00  0.00000000000E+00  0.10491249251E+04  0.10491249300E+04  0.10100000352E+00 0.  1.
        3   -1    0    0  501    0  0.00000000000E+00  0.00000000000E+00 -0.59160892253E+02  0.59160978467E+02  0.10100000352E+00 0. -1.
    10030    2    1    2    0    0  0.00000000000E+00  0.00000000000E+00  0.98996403288E+03  0.11082859085E+04  0.49826586126E+03 0.  0.
        4    1    3    3  502    0 -0.97780590777E+02 -0.10601897093E+03  0.43147740797E+02  0.15054702443E+03  0.12699999809E+01 0. -1.
       -4    1    3    3    0  502  0.97780590777E+02  0.10601897093E+03  0.94681629209E+03  0.95773888403E+03  0.12699999809E+01 0.  1.
</event>
<event>
 5   0  0.1941387E-02  0.5001242E+03  0.7818609E-02  0.1013747E+00
       -2   -1    0    0    0  501  0.00000000000E+00  0.00000000000E+00  0.10603816887E+03  0.10603816890E+03  0.25500000920E-02 0. -1.
        2   -1    0    0  501    0  0.00000000000E+00  0.00000000000E+00 -0.58970321656E+03  0.58970321657E+03  0.25500000920E-02 0.  1.
    10030    2    1    2    0    0  0.00000000000E+00  0.00000000000E+00 -0.48366504769E+03  0.69574138547E+03  0.50012418167E+03 0.  0.
        4    1    3    3  502    0 -0.31538483772E+02 -0.49126723606E+02  0.96420793777E+02  0.11272396952E+03  0.12699999809E+01 0. -1.
       -4    1    3    3    0  502  0.31538483772E+02  0.49126723606E+02 -0.58008584147E+03  0.58301741595E+03  0.12699999809E+01 0.  1.
</event>
<event>
 5   0  0.8012875E-03  0.4990276E+03  0.7818609E-02  0.1014033E+00
        3   -1    0    0  501    0  0.00000000000E+00  0.00000000000E+00  0.95455463597E+02  0.95455517030E+02  0.10100000352E+00 0.  1.
       -3   -1    0    0    0  501  0.00000000000E+00  0.00000000000E+00 -0.65221101031E+03  0.65221101813E+03  0.10100000352E+00 0. -1.
    10030    2    1    2    0    0  0.00000000000E+00  0.00000000000E+00 -0.55675554671E+03  0.74766653516E+03  0.49902756337E+03 0.  0.
        2    1    3    3  502    0  0.66506454150E+02 -0.47813789366E+02  0.74737966056E+02  0.11088295845E+03  0.25500000920E-02 0.  1.
       -2    1    3    3    0  502 -0.66506454150E+02  0.47813789366E+02 -0.63149351277E+03  0.63678357671E+03  0.25500000920E-02 0. -1.
</event>
<event>
 5   0  0.1225989E-02  0.5047183E+03  0.7818609E-02  0.1012555E+00
       -1   -1    0    0    0  501  0.00000000000E+00  0.00000000000E+00  0.10171028174E+03  0.10171028186E+03  0.50400001928E-02 0.  1.
        1   -1    0    0  501    0  0.00000000000E+00  0.00000000000E+00 -0.62614271949E+03  0.62614271951E+03  0.50400001928E-02 0. -1.
    10030    2    1    2    0    0  0.00000000000E+00  0.00000000000E+00 -0.52443243775E+03  0.72785300137E+03  0.50471834704E+03 0.  0.
        3    1    3    3  502    0 -0.79329785179E+02  0.70102540494E+02  0.68139178890E+02  0.12589892335E+03  0.10100000352E+00 0.  1.
       -3    1    3    3    0  502  0.79329785179E+02 -0.70102540494E+02 -0.59257161664E+03  0.60195407802E+03  0.10100000352E+00 0. -1.
</event>
<event>
 5   0  0.1217270E-02  0.4997271E+03  0.7818609E-02  0.1013850E+00
        1   -1    0    0  501    0  0.00000000000E+00  0.00000000000E+00  0.98950232459E+02  0.98950232588E+02  0.50400001928E-02 0.  1.
       -1   -1    0    0    0  501  0.00000000000E+00  0.00000000000E+00 -0.63094144697E+03  0.63094144699E+03  0.50400001928E-02 0. -1.
    10030    2    1    2    0    0  0.00000000000E+00  0.00000000000E+00 -0.53199121452E+03  0.72989167958E+03  0.49972713715E+03 0.  0.
        2    1    3    3  502    0  0.14584952440E+02  0.13482170625E+03 -0.57251639285E+03  0.58835757274E+03  0.25500000920E-02 0. -1.
       -2    1    3    3    0  502 -0.14584952440E+02 -0.13482170625E+03  0.40525178337E+02  0.14153410684E+03  0.25500000920E-02 0.  1.
</event>
<event>
 5   0  0.1227864E-02  0.4992382E+03  0.7818609E-02  0.1013978E+00
        1   -1    0    0  501    0  0.00000000000E+00  0.00000000000E+00  0.59219812600E+03  0.59219812602E+03  0.50400001928E-02 0. -1.
       -1   -1    0    0    0  501  0.00000000000E+00  0.00000000000E+00 -0.10521766249E+03  0.10521766261E+03  0.50400001928E-02 0.  1.
    10030    2    1    2    0    0  0.00000000000E+00  0.00000000000E+00  0.48698046351E+03  0.69741578863E+03  0.49923823010E+03 0.  0.
        5    1    3    3  502    0  0.43273326892E+02  0.12700652012E+03 -0.50483958718E+02  0.14343624737E+03  0.46999998093E+01 0.  1.
       -5    1    3    3    0  502 -0.43273326892E+02 -0.12700652012E+03  0.53746442223E+03  0.55397954126E+03  0.46999998093E+01 0. -1.
</event>
<event>
 5   0  0.1941387E-02  0.4992947E+03  0.7818609E-02  0.1013963E+00
        2   -1    0    0  501    0  0.00000000000E+00  0.00000000000E+00  0.93237464631E+03  0.93237464631E+03  0.25500000920E-02 0.  1.
       -2   -1    0    0    0  501  0.00000000000E+00  0.00000000000E+00 -0.66844165150E+02  0.66844165198E+02  0.25500000920E-02 0. -1.
    10030    2    1    2    0    0  0.00000000000E+00  0.00000000000E+00  0.86553048116E+03  0.99921881151E+03  0.49929472204E+03 0.  0.
        4    1    3    3  502    0  0.10815489533E+03  0.22183424517E+03  0.35750405463E+03  0.43441762820E+03  0.12699999809E+01 0.  1.
       -4    1    3    3    0  502 -0.10815489533E+03 -0.22183424517E+03  0.50802642653E+03  0.56480118331E+03  0.12699999809E+01 0. -1.
</event>
<event>
 5   0  0.1923706E-02  0.5001967E+03  0.7818609E-02  0.1013728E+00
       -2   -1    0    0    0  501  0.00000000000E+00  0.00000000000E+00  0.46146584059E+02  0.46146584129E+02  0.25500000920E-02 0. -1.
        2   -1    0    0  501    0  0.00000000000E+00  0.00000000000E+00 -0.13554455691E+04  0.13554455691E+04  0.25500000920E-02 0.  1.
    10030    2    1    2    0    0  0.00000000000E+00  0.00000000000E+00 -0.13092989851E+04  0.14015921532E+04  0.50019669309E+03 0.  0.
        3    1    3    3  502    0 -0.16149240811E+02  0.24475949029E+03 -0.51791573796E+03  0.57306607637E+03  0.10100000352E+00 0.  1.
       -3    1    3    3    0  502  0.16149240811E+02 -0.24475949029E+03 -0.79138324710E+03  0.82852607687E+03  0.10100000352E+00 0. -1.
</event>
<event>
 5   0  0.1227864E-02  0.5002200E+03  0.7818609E-02  0.1013721E+00
        1   -1    0    0  501    0  0.00000000000E+00  0.00000000000E+00  0.65049033643E+02  0.65049033838E+02  0.50400001928E-02 0.  1.
       -1   -1    0    0    0  501  0.00000000000E+00  0.00000000000E+00 -0.96165952714E+03  0.96165952715E+03  0.50400001928E-02 0. -1.
    10030    2    1    2    0    0  0.00000000000E+00  0.00000000000E+00 -0.89661049349E+03  0.10267085610E+04  0.50022004374E+03 0.  0.
        5    1    3    3  502    0  0.14144067230E+03  0.17324515980E+03 -0.21870256950E+03  0.31284541402E+03  0.46999998093E+01 0.  1.
       -5    1    3    3    0  502 -0.14144067230E+03 -0.17324515980E+03 -0.67790792400E+03  0.71386314696E+03  0.46999998093E+01 0. -1.
</event>
<event>
 5   0  0.1982847E-02  0.5004481E+03  0.7818609E-02  0.1013662E+00
       -2   -1    0    0    0  501  0.00000000000E+00  0.00000000000E+00  0.13737755754E+03  0.13737755756E+03  0.25500000920E-02 0.  1.
        2   -1    0    0  501    0  0.00000000000E+00  0.00000000000E+00 -0.45576634897E+03  0.45576634897E+03  0.25500000920E-02 0. -1.
    10030    2    1    2    0    0  0.00000000000E+00  0.00000000000E+00 -0.31838879143E+03  0.59314390654E+03  0.50044807059E+03 0.  0.
        2    1    3    3  502    0  0.20052801003E+02 -0.11789750581E+03  0.10131306288E+03  0.15673631813E+03  0.25500000920E-02 0.  1.
       -2    1    3    3    0  502 -0.20052801003E+02  0.11789750581E+03 -0.41970185430E+03  0.43640758841E+03  0.25500000920E-02 0. -1.
</event>
<event>
 5   0  0.8012875E-03  0.5004952E+03  0.7818609E-02  0.1013650E+00
       -3   -1    0    0    0  501  0.00000000000E+00  0.00000000000E+00  0.67842312363E+03  0.67842313115E+03  0.10100000352E+00 0. -1.
        3   -1    0    0  501    0  0.00000000000E+00  0.00000000000E+00 -0.92307937136E+02  0.92307992392E+02  0.10100000352E+00 0.  1.
    10030    2    1    2    0    0  0.00000000000E+00  0.00000000000E+00  0.58611518650E+03  0.77073112354E+03  0.50049520773E+03 0.  0.
        4    1    3    3  502    0  0.16303196096E+03  0.11185606535E+03  0.52928138331E+03  0.56500583649E+03  0.12699999809E+01 0. -1.
       -4    1    3    3    0  502 -0.16303196096E+03 -0.11185606535E+03  0.56833803188E+02  0.20572528705E+03  0.12699999809E+01 0.  1.
</event>
<event>
 5   0  0.1941387E-02  0.5000834E+03  0.7818609E-02  0.1013757E+00
       -2   -1    0    0    0  501  0.00000000000E+00  0.00000000000E+00  0.23228900682E+03  0.23228900683E+03  0.25500000920E-02 0.  1.
        2   -1    0    0  501    0  0.00000000000E+00  0.00000000000E+00 -0.26915115100E+03  0.26915115102E+03  0.25500000920E-02 0. -1.
    10030    2    1    2    0    0  0.00000000000E+00  0.00000000000E+00 -0.36862144185E+02  0.50144015785E+03  0.50008340727E+03 0.  0.
        4    1    3    3  502    0  0.17423804122E+03 -0.12896081524E+03  0.10652424958E+03  0.24153429471E+03  0.12699999809E+01 0.  1.
       -4    1    3    3    0  502 -0.17423804122E+03  0.12896081524E+03 -0.14338639376E+03  0.25990586313E+03  0.12699999809E+01 0. -1.
</event>
<event>
 5   0  0.1209831E-02  0.4989239E+03  0.7818609E-02  0.1014060E+00
        1   -1    0    0  501    0  0.00000000000E+00  0.00000000000E+00  0.22477214473E+04  0.22477214473E+04  0.50400001928E-02 0.  1.
       -1   -1    0    0    0  501  0.00000000000E+00  0.00000000000E+00 -0.27686375698E+02  0.27686376157E+02  0.50400001928E-02 0. -1.
    10030    2    1    2    0    0  0.00000000000E+00  0.00000000000E+00  0.22200350716E+04  0.22754078235E+04  0.49892388591E+03 0.  0.
        4    1    3    3  502    0 -0.51537513709E+02  0.20787768136E+03  0.52667728930E+03  0.56855943022E+03  0.12699999809E+01 0. -1.
       -4    1    3    3    0  502  0.51537513709E+02 -0.20787768136E+03  0.16933577823E+04  0.17068483933E+04  0.12699999809E+01 0.  1.
</event>
<event>
 5   0  0.1982847E-02  0.5020496E+03  0.7818609E-02  0.1013245E+00
       -2   -1    0    0    0  501  0.00000000000E+00  0.00000000000E+00  0.69204261134E+02  0.69204261181E+02  0.25500000920E-02 0.  1.
        2   -1    0    0  501    0  0.00000000000E+00  0.00000000000E+00 -0.91054284947E+03  0.91054284947E+03  0.25500000920E-02 0. -1.
    10030    2    1    2    0    0  0.00000000000E+00  0.00000000000E+00 -0.84133858833E+03  0.97974711065E+03  0.50204957983E+03 0.  0.
        2    1    3    3  502    0 -0.86539040922E+01 -0.23332160619E+03 -0.24075478122E+03  0.33537550098E+03  0.25500000920E-02 0. -1.
       -2    1    3    3    0  502  0.86539040922E+01  0.23332160619E+03 -0.60058380712E+03  0.64437160967E+03  0.25500000920E-02 0.  1.
</event>
<event>
 5   0  0.1225989E-02  0.4992129E+03  0.7818609E-02  0.1013985E+00
        1   -1    0    0  501    0  0.00000000000E+00  0.00000000000E+00  0.17948977530E+04  0.17948977530E+04  0.50400001928E-02 0.  1.
       -1   -1    0    0    0  501  0.00000000000E+00  0.00000000000E+00 -0.34711384515E+02  0.34711384881E+02  0.50400001928E-02 0. -1.
    10030    2    1    2    0    0  0.00000000000E+00  0.00000000000E+00  0.17601863685E+04  0.18296091379E+04  0.49921292616E+03 0.  0.
        3    1    3    3  502    0  0.61532842216E+02 -0.20942484671E+03  0.13238188859E+04  0.13416935231E+04  0.10100000352E+00 0.  1.
       -3    1    3    3    0  502 -0.61532842216E+02  0.20942484671E+03  0.43636748263E+03  0.48791561482E+03  0.10100000352E+00 0. -1.
</event>
<event>
 5   0  0.1227864E-02  0.5009302E+03  0.7818609E-02  0.1013536E+00
        1   -1    0    0  501    0  0.00000000000E+00  0.00000000000E+00  0.34679977812E+03  0.34679977816E+03  0.50400001928E-02 0. -1.
       -1   -1    0    0    0  501  0.00000000000E+00  0.00000000000E+00 -0.18089047101E+03  0.18089047108E+03  0.50400001928E-02 0.  1.
    10030    2    1    2    0    0  0.00000000000E+00  0.00000000000E+00  0.16590930711E+03  0.52769024924E+03  0.50093023561E+03 0.  0.
        5    1    3    3  502    0  0.94813758002E+02  0.60798429533E+02 -0.15265527160E+03  0.18976780466E+03  0.46999998093E+01 0.  1.
       -5    1    3    3    0  502 -0.94813758002E+02 -0.60798429533E+02  0.31856457871E+03  0.33792244458E+03  0.46999998093E+01 0. -1.
</event>
<event>
 5   0  0.1180937E-02  0.4995372E+03  0.7818609E-02  0.1013900E+00
        1   -1    0    0  501    0  0.00000000000E+00  0.00000000000E+00  0.68524106715E+03  0.68524106717E+03  0.50400001928E-02 0.  1.
       -1   -1    0    0    0  501  0.00000000000E+00  0.00000000000E+00 -0.91040013884E+02  0.91040014023E+02  0.50400001928E-02 0. -1.
    10030    2    1    2    0    0  0.00000000000E+00  0.00000000000E+00  0.59420105326E+03  0.77628108119E+03  0.49953721114E+03 0.  0.
        1    1    3    3  502    0 -0.22364354510E+03 -0.29551112369E+02  0.46370976767E+03  0.51567087581E+03  0.50400001928E-02 0.  1.
       -1    1    3    3    0  502  0.22364354510E+03  0.29551112369E+02  0.13049128560E+03  0.26061020538E+03  0.50400001928E-02 0. -1.
</event>
<event>
 5   0  0.1967813E-02  0.5000225E+03  0.7818609E-02  0.1013773E+00
       -2   -1    0    0    0  501  0.00000000000E+00  0.00000000000E+00  0.34265588763E+02  0.34265588858E+02  0.25500000920E-02 0. -1.
        2   -1    0    0  501    0  0.00000000000E+00  0.00000000000E+00 -0.18241518304E+04  0.18241518304E+04  0.25500000920E-02 0.  1.
    10030    2    1    2    0    0  0.00000000000E+00  0.00000000000E+00 -0.17898862416E+04  0.18584174193E+04  0.50002254570E+03 0.  0.
        5    1    3    3  502    0  0.21681972450E+03 -0.11676614094E+03 -0.10543020046E+04  0.10826910601E+04  0.46999998093E+01 0.  1.
       -5    1    3    3    0  502 -0.21681972450E+03  0.11676614094E+03 -0.73558423701E+03  0.77572635919E+03  0.46999998093E+01 0. -1.
</event>
<event>
 5   0  0.1227864E-02  0.5005730E+03  0.7818609E-02  0.1013629E+00
        1   -1    0    0  501    0  0.00000000000E+00  0.00000000000E+00  0.15541009375E+03  0.15541009383E+03  0.50400001928E-02 0.  1.
       -1   -1    0    0    0  501  0.00000000000E+00  0.00000000000E+00 -0.40308408144E+03  0.40308408147E+03  0.50400001928E-02 0. -1.
    10030    2    1    2    0    0  0.00000000000E+00  0.00000000000E+00 -0.24767398769E+03  0.55849417531E+03  0.50057301133E+03 0.  0.
        5    1    3    3  502    0  0.23146711965E+03 -0.93352734582E+02 -0.10358496035E+03  0.27026597000E+03  0.46999998093E+01 0. -1.
       -5    1    3    3    0  502 -0.23146711965E+03  0.93352734582E+02 -0.14408902734E+03  0.28822820530E+03  0.46999998093E+01 0.  1.
</event>
<event>
 5   0  0.1923706E-02  0.5004713E+03  0.7818609E-02  0.1013656E+00
       -2   -1    0    0    0  501  0.00000000000E+00  0.00000000000E+00  0.10348881005E+03  0.10348881008E+03  0.25500000920E-02 0. -1.
        2   -1    0    0  501    0  0.00000000000E+00  0.00000000000E+00 -0.60506921410E+03  0.60506921410E+03  0.25500000920E-02 0.  1.
    10030    2    1    2    0    0  0.00000000000E+00  0.00000000000E+00 -0.50158040405E+03  0.70855802418E+03  0.50047134974E+03 0.  0.
        3    1    3    3  502    0 -0.15899847690E+03  0.15832320357E+03 -0.93956828484E+02  0.24325839814E+03  0.10100000352E+00 0.  1.
       -3    1    3    3    0  502  0.15899847690E+03 -0.15832320357E+03 -0.40762357556E+03  0.46529962605E+03  0.10100000352E+00 0. -1.
</event>
<event>
 5   0  0.1209831E-02  0.5001839E+03  0.7818609E-02  0.1013731E+00
       -1   -1    0    0    0  501  0.00000000000E+00  0.00000000000E+00  0.16731896247E+03  0.16731896255E+03  0.50400001928E-02 0.  1.
        1   -1    0    0  501    0  0.00000000000E+00  0.00000000000E+00 -0.37381295266E+03  0.37381295269E+03  0.50400001928E-02 0. -1.
    10030    2    1    2    0    0  0.00000000000E+00  0.00000000000E+00 -0.20649399018E+03  0.54113191524E+03  0.50018394788E+03 0.  0.
        4    1    3    3  502    0 -0.24788758141E+03 -0.32774400963E+02 -0.98176268943E+02  0.26863098678E+03  0.12699999809E+01 0. -1.
       -4    1    3    3    0  502  0.24788758141E+03  0.32774400963E+02 -0.10831772124E+03  0.27250092846E+03  0.12699999809E+01 0.  1.
</event>
<event>
 5   0  0.1225989E-02  0.4998912E+03  0.7818609E-02  0.1013807E+00
       -1   -1    0    0    0  501  0.00000000000E+00  0.00000000000E+00  0.82116334730E+02  0.82116334885E+02  0.50400001928E-02 0.  1.
        1   -1    0    0  501    0  0.00000000000E+00  0.00000000000E+00 -0.76078423436E+03  0.76078423437E+03  0.50400001928E-02 0. -1.
    10030    2    1    2    0    0  0.00000000000E+00  0.00000000000E+00 -0.67866789963E+03  0.84290056926E+03  0.49989123984E+03 0.  0.
        3    1    3    3  502    0 -0.84520594806E+02 -0.58251797117E+02  0.44934062047E+02  0.11205392874E+03  0.10100000352E+00 0.  1.
       -3    1    3    3    0  502  0.84520594806E+02  0.58251797117E+02 -0.72360196167E+03  0.73084664052E+03  0.10100000352E+00 0. -1.
</event>
<event>
 5   0  0.1923706E-02  0.5146421E+03  0.7818609E-02  0.1010026E+00
       -2   -1    0    0    0  501  0.00000000000E+00  0.00000000000E+00  0.35685973585E+02  0.35685973677E+02  0.25500000920E-02 0. -1.
        2   -1    0    0  501    0  0.00000000000E+00  0.00000000000E+00 -0.18554662605E+04  0.18554662605E+04  0.25500000920E-02 0.  1.
    10030    2    1    2    0    0  0.00000000000E+00  0.00000000000E+00 -0.18197802869E+04  0.18911522342E+04  0.51464208941E+03 0.  0.
        3    1    3    3  502    0  0.21867079142E+02 -0.16673330735E+03 -0.19416439471E+03  0.25686180585E+03  0.10100000352E+00 0. -1.
       -3    1    3    3    0  502 -0.21867079142E+02  0.16673330735E+03 -0.16256158922E+04  0.16342904283E+04  0.10100000352E+00 0.  1.
</event>
<event>
 5   0  0.1967813E-02  0.5000676E+03  0.7818609E-02  0.1013761E+00
        2   -1    0    0  501    0  0.00000000000E+00  0.00000000000E+00  0.47374451199E+03  0.47374451199E+03  0.25500000920E-02 0. -1.
       -2   -1    0    0    0  501  0.00000000000E+00  0.00000000000E+00 -0.13196334238E+03  0.13196334240E+03  0.25500000920E-02 0.  1.
    10030    2    1    2    0    0  0.00000000000E+00  0.00000000000E+00  0.34178116961E+03  0.60570785440E+03  0.50006763240E+03 0.  0.
        5    1    3    3  502    0 -0.12400394504E+03 -0.21696965811E+03  0.17874117150E+03  0.30728375700E+03  0.46999998093E+01 0. -1.
       -5    1    3    3    0  502  0.12400394504E+03  0.21696965811E+03  0.16303999811E+03  0.29842409740E+03  0.46999998093E+01 0.  1.
</event>
<event>
 5   0  0.1967813E-02  0.4988318E+03  0.7818609E-02  0.1014084E+00
        2   -1    0    0  501    0  0.00000000000E+00  0.00000000000E+00  0.92724405590E+02  0.92724405625E+02  0.25500000920E-02 0.  1.
       -2   -1    0    0    0  501  0.00000000000E+00  0.00000000000E+00 -0.67089453829E+03  0.67089453829E+03  0.25500000920E-02 0. -1.
    10030    2    1    2    0    0  0.00000000000E+00  0.00000000000E+00 -0.57817013270E+03  0.76361894392E+03  0.49883182453E+03 0.  0.
        5    1    3    3  502    0 -0.11957687824E+02  0.23963850013E+03 -0.39309723385E+03  0.46056174646E+03  0.46999998093E+01 0. -1.
       -5    1    3    3    0  502  0.11957687824E+02 -0.23963850013E+03 -0.18507289885E+03  0.30305719746E+03  0.46999998093E+01 0.  1.
</event>
<event>
 5   0  0.1209831E-02  0.5008569E+03  0.7818609E-02  0.1013555E+00
       -1   -1    0    0    0  501  0.00000000000E+00  0.00000000000E+00  0.75931320787E+02  0.75931320954E+02  0.50400001928E-02 0. -1.
        1   -1    0    0  501    0  0.00000000000E+00  0.00000000000E+00 -0.82593604961E+03  0.82593604963E+03  0.50400001928E-02 0.  1.
    10030    2    1    2    0    0  0.00000000000E+00  0.00000000000E+00 -0.75000472882E+03  0.90186737058E+03  0.50085692654E+03 0.  0.
        4    1    3    3  502    0  0.52075099292E+02  0.10766231562E+03  0.21180501256E+02  0.12146282026E+03  0.12699999809E+01 0. -1.
       -4    1    3    3    0  502 -0.52075099292E+02 -0.10766231562E+03 -0.77118523008E+03  0.78040455032E+03  0.12699999809E+01 0.  1.
</event>
<event>
 5   0  0.1227864E-02  0.5009035E+03  0.7818609E-02  0.1013543E+00
       -1   -1    0    0    0  501  0.00000000000E+00  0.00000000000E+00  0.83733786339E+02  0.83733786491E+02  0.50400001928E-02 0.  1.
        1   -1    0    0  501    0  0.00000000000E+00  0.00000000000E+00 -0.74911315833E+03  0.74911315835E+03  0.50400001928E-02 0. -1.
    10030    2    1    2    0    0  0.00000000000E+00  0.00000000000E+00 -0.66537937199E+03  0.83284694484E+03  0.50090350853E+03 0.  0.
        5    1    3    3  502    0  0.23116567208E+03 -0.95353021983E+02 -0.35463620748E+03  0.43395702138E+03  0.46999998093E+01 0.  1.
       -5    1    3    3    0  502 -0.23116567208E+03  0.95353021983E+02 -0.31074316451E+03  0.39888992346E+03  0.46999998093E+01 0. -1.
</event>
<event>
 5   0  0.1217270E-02  0.5001381E+03  0.7818609E-02  0.1013743E+00
       -1   -1    0    0    0  501  0.00000000000E+00  0.00000000000E+00  0.90136306170E+02  0.90136306311E+02  0.50400001928E-02 0. -1.
        1   -1    0    0  501    0  0.00000000000E+00  0.00000000000E+00 -0.69377750397E+03  0.69377750398E+03  0.50400001928E-02 0.  1.
    10030    2    1    2    0    0  0.00000000000E+00  0.00000000000E+00 -0.60364119780E+03  0.78391381030E+03  0.50013814721E+03 0.  0.
        2    1    3    3  502    0 -0.47660198627E+02  0.18005638142E+03 -0.40282855869E+02  0.19056364686E+03  0.25500000920E-02 0. -1.
       -2    1    3    3    0  502  0.47660198627E+02 -0.18005638142E+03 -0.56335834193E+03  0.59335016343E+03  0.25500000920E-02 0.  1.
</event>
<event>
 5   0  0.1180937E-02  0.5001779E+03  0.7818609E-02  0.1013733E+00
        1   -1    0    0  501    0  0.00000000000E+00  0.00000000000E+00  0.42727626213E+03  0.42727626216E+03  0.50400001928E-02 0.  1.
       -1   -1    0    0    0  501  0.00000000000E+00  0.00000000000E+00 -0.14637946467E+03  0.14637946476E+03  0.50400001928E-02 0. -1.
    10030    2    1    2    0    0  0.00000000000E+00  0.00000000000E+00  0.28089679746E+03  0.57365572692E+03  0.50017785057E+03 0.  0.
        1    1    3    3  502    0 -0.11712569191E+03 -0.37561675954E+02 -0.10929010368E+03  0.16454067580E+03  0.50400001928E-02 0. -1.
       -1    1    3    3    0  502  0.11712569191E+03  0.37561675954E+02  0.39018690113E+03  0.40911505111E+03  0.50400001928E-02 0.  1.
</event>
<event>
 5   0  0.8012875E-03  0.5001370E+03  0.7818609E-02  0.1013743E+00
        3   -1    0    0  501    0  0.00000000000E+00  0.00000000000E+00  0.11933479102E+03  0.11933483376E+03  0.10100000352E+00 0.  1.
       -3   -1    0    0    0  501  0.00000000000E+00  0.00000000000E+00 -0.52402347156E+03  0.52402348130E+03  0.10100000352E+00 0. -1.
    10030    2    1    2    0    0  0.00000000000E+00  0.00000000000E+00 -0.40468868054E+03  0.64335831506E+03  0.50013697463E+03 0.  0.
        2    1    3    3  502    0  0.16766891745E+02  0.33414251893E+02 -0.52040841867E+03  0.52174952143E+03  0.25500000920E-02 0. -1.
       -2    1    3    3    0  502 -0.16766891745E+02 -0.33414251893E+02  0.11571973812E+03  0.12160879362E+03  0.25500000920E-02 0.  1.
</event>
<event>
 5   0  0.1209831E-02  0.5001262E+03  0.7818609E-02  0.1013746E+00
        1   -1    0    0  501    0  0.00000000000E+00  0.00000000000E+00  0.11350379268E+04  0.11350379268E+04  0.50400001928E-02 0. -1.
       -1   -1    0    0    0  501  0.00000000000E+00  0.00000000000E+00 -0.55092034902E+02  0.55092035132E+02  0.50400001928E-02 0.  1.
    10030    2    1    2    0    0  0.00000000000E+00  0.00000000000E+00  0.10799458919E+04  0.11901299619E+04  0.50012618096E+03 0.  0.
        4    1    3    3  502    0  0.17050777922E+03 -0.13908885538E+03  0.25729060541E+03  0.33855380813E+03  0.12699999809E+01 0.  1.
       -4    1    3    3    0  502 -0.17050777922E+03  0.13908885538E+03  0.82265528648E+03  0.85157615381E+03  0.12699999809E+01 0. -1.
</event>
<event>
 5   0  0.1923706E-02  0.4994342E+03  0.7818609E-02  0.1013927E+00
        2   -1    0    0  501    0  0.00000000000E+00  0.00000000000E+00  0.64020724358E+03  0.64020724358E+03  0.25500000920E-02 0.  1.
       -2   -1    0    0    0  501  0.00000000000E+00  0.00000000000E+00 -0.97403799776E+02  0.97403799809E+02  0.25500000920E-02 0. -1.
    10030    2    1    2    0    0  0.00000000000E+00  0.00000000000E+00  0.54280344380E+03  0.73761104339E+03  0.49943415255E+03 0.  0.
        3    1    3    3  502    0 -0.19448521881E+03 -0.48958852633E+02  0.49114212313E+03  0.53051113551E+03  0.10100000352E+00 0.  1.
       -3    1    3    3    0  502  0.19448521881E+03  0.48958852633E+02  0.51661320669E+02  0.20709990788E+03  0.10100000352E+00 0. -1.
</event>
<event>
 5   0  0.8012875E-03  0.5004363E+03  0.7818609E-02  0.1013665E+00
        3   -1    0    0  501    0  0.00000000000E+00  0.00000000000E+00  0.30606007173E+03  0.30606008840E+03  0.10100000352E+00 0. -1.
       -3   -1    0    0    0  501  0.00000000000E+00  0.00000000000E+00 -0.20456480505E+03  0.20456482999E+03  0.10100000352E+00 0.  1.
    10030    2    1    2    0    0  0.00000000000E+00  0.00000000000E+00  0.10149526668E+03  0.51062491838E+03  0.50043632773E+03 0.  0.
        3    1    3    3  502    0 -0.15154376421E+03 -0.13223411250E+03 -0.10113774564E+03  0.22512269271E+03  0.10100000352E+00 0. -1.
       -3    1    3    3    0  502  0.15154376421E+03  0.13223411250E+03  0.20263301232E+03  0.28550222567E+03  0.10100000352E+00 0.  1.
</event>
<event>
 5   0  0.1967813E-02  0.5001589E+03  0.7818609E-02  0.1013737E+00
        2   -1    0    0  501    0  0.00000000000E+00  0.00000000000E+00  0.20056177267E+03  0.20056177269E+03  0.25500000920E-02 0.  1.
       -2   -1    0    0    0  501  0.00000000000E+00  0.00000000000E+00 -0.31182275000E+03  0.31182275001E+03  0.25500000920E-02 0. -1.
    10030    2    1    2    0    0  0.00000000000E+00  0.00000000000E+00 -0.11126097733E+03  0.51238452270E+03  0.50015886878E+03 0.  0.
        5    1    3    3  502    0 -0.53425848566E+02 -0.14602617596E+03 -0.25622183968E+03  0.29974937279E+03  0.46999998093E+01 0. -1.
       -5    1    3    3    0  502  0.53425848566E+02  0.14602617596E+03  0.14496086235E+03  0.21263514990E+03  0.46999998093E+01 0.  1.
</event>
<event>
 5   0  0.1967813E-02  0.4991756E+03  0.7818609E-02  0.1013994E+00
       -2   -1    0    0    0  501  0.00000000000E+00  0.00000000000E+00  0.65873225477E+02  0.65873225527E+02  0.25500000920E-02 0. -1.
        2   -1    0    0  501    0  0.00000000000E+00  0.00000000000E+00 -0.94566588809E+03  0.94566588809E+03  0.25500000920E-02 0.  1.
    10030    2    1    2    0    0  0.00000000000E+00  0.00000000000E+00 -0.87979266261E+03  0.10115391136E+04  0.49917556951E+03 0.  0.
        5    1    3    3  502    0  0.17906953277E+03  0.59502767543E+02 -0.10899067821E+03  0.21796223261E+03  0.46999998093E+01 0. -1.
       -5    1    3    3    0  502 -0.17906953277E+03 -0.59502767543E+02 -0.77080198440E+03  0.79357688100E+03  0.46999998093E+01 0.  1.
</event>
<event>
 5   0  0.1180937E-02  0.4993537E+03  0.7818609E-02  0.1013948E+00
       -1   -1    0    0    0  501  0.00000000000E+00  0.00000000000E+00  0.41196830504E+03  0.41196830507E+03  0.50400001928E-02 0. -1.
        1   -1    0    0  501    0  0.00000000000E+00  0.00000000000E+00 -0.15131875164E+03  0.15131875173E+03  0.50400001928E-02 0.  1.
    10030    2    1    2    0    0  0.00000000000E+00  0.00000000000E+00  0.26064955340E+03  0.56328705680E+03  0.49935370097E+03 0.  0.
        1    1    3    3  502    0 -0.11177929247E+03 -0.16248725639E+03  0.30303461538E+03  0.36156147037E+03  0.50400001928E-02 0. -1.
       -1    1    3    3    0  502  0.11177929247E+03  0.16248725639E+03 -0.42385061981E+02  0.20172558643E+03  0.50400001928E-02 0.  1.
</event>
<event>
 5   0  0.1855407E-02  0.4998268E+03  0.7818609E-02  0.1013824E+00
        2   -1    0    0  501    0  0.00000000000E+00  0.00000000000E+00  0.13073745781E+04  0.13073745781E+04  0.25500000920E-02 0. -1.
       -2   -1    0    0    0  501  0.00000000000E+00  0.00000000000E+00 -0.47772617314E+02  0.47772617382E+02  0.25500000920E-02 0.  1.
    10030    2    1    2    0    0  0.00000000000E+00  0.00000000000E+00  0.12596019608E+04  0.13551471955E+04  0.49982679181E+03 0.  0.
        1    1    3    3  502    0 -0.19381314036E+03  0.31416084488E+02  0.21060005888E+03  0.28792861714E+03  0.50400001928E-02 0.  1.
       -1    1    3    3    0  502  0.19381314036E+03 -0.31416084488E+02  0.10490019019E+04  0.10672185783E+04  0.50400001928E-02 0. -1.
</event>
<event>
 5   0  0.1855407E-02  0.4992845E+03  0.7818609E-02  0.1013966E+00
        2   -1    0    0  501    0  0.00000000000E+00  0.00000000000E+00  0.65364515901E+03  0.65364515901E+03  0.25500000920E-02 0. -1.
       -2   -1    0    0    0  501  0.00000000000E+00  0.00000000000E+00 -0.95344174827E+02  0.95344174861E+02  0.25500000920E-02 0.  1.
    10030    2    1    2    0    0  0.00000000000E+00  0.00000000000E+00  0.55830098418E+03  0.74898933388E+03  0.49928452141E+03 0.  0.
        1    1    3    3  502    0  0.10047439693E+03  0.65788702080E+02  0.60746208854E+03  0.61922003101E+03  0.50400001928E-02 0. -1.
       -1    1    3    3    0  502 -0.10047439693E+03 -0.65788702080E+02 -0.49161104359E+02  0.12976930287E+03  0.50400001928E-02 0.  1.
</event>
<event>
 5   0  0.1180937E-02  0.4965219E+03  0.7818609E-02  0.1014691E+00
       -1   -1    0    0    0  501  0.00000000000E+00  0.00000000000E+00  0.25255399240E+03  0.25255399245E+03  0.50400001928E-02 0. -1.
        1   -1    0    0  501    0  0.00000000000E+00  0.00000000000E+00 -0.24404084650E+03  0.24404084656E+03  0.50400001928E-02 0.  1.
    10030    2    1    2    0    0  0.00000000000E+00  0.00000000000E+00  0.85131458930E+01  0.49659483900E+03  0.49652186303E+03 0.  0.
        1    1    3    3  502    0 -0.19894572605E+03  0.12741361520E+03  0.80555784644E+02  0.24960542005E+03  0.50400001928E-02 0.  1.
       -1    1    3    3    0  502  0.19894572605E+03 -0.12741361520E+03 -0.72042638751E+02  0.24698941895E+03  0.50400001928E-02 0. -1.
</event>
<event>
 5   0  0.1941387E-02  0.5009472E+03  0.7818609E-02  0.1013532E+00
       -2   -1    0    0    0  501  0.00000000000E+00  0.00000000000E+00  0.30306368682E+02  0.30306368789E+02  0.25500000920E-02 0.  1.
        2   -1    0    0  501    0  0.00000000000E+00  0.00000000000E+00 -0.20700938884E+04  0.20700938884E+04  0.25500000920E-02 0. -1.
    10030    2    1    2    0    0  0.00000000000E+00  0.00000000000E+00 -0.20397875197E+04  0.21004002571E+04  0.50094721758E+03 0.  0.
        4    1    3    3  502    0  0.50683851673E+02  0.13965519071E+03 -0.17440127338E+03  0.22910661747E+03  0.12699999809E+01 0.  1.
       -4    1    3    3    0  502 -0.50683851673E+02 -0.13965519071E+03 -0.18653862463E+04  0.18712936397E+04  0.12699999809E+01 0. -1.
</event>
<event>
 5   0  0.1217270E-02  0.4993407E+03  0.7818609E-02  0.1013951E+00
       -1   -1    0    0    0  501  0.00000000000E+00  0.00000000000E+00  0.63091402473E+02  0.63091402675E+02  0.50400001928E-02 0.  1.
        1   -1    0    0  501    0  0.00000000000E+00  0.00000000000E+00 -0.98801546156E+03  0.98801546158E+03  0.50400001928E-02 0. -1.
    10030    2    1    2    0    0  0.00000000000E+00  0.00000000000E+00 -0.92492405909E+03  0.10511068643E+04  0.49934069030E+03 0.  0.
        2    1    3    3  502    0  0.43033003286E+02  0.71524590623E+02  0.32849067013E+02  0.89703219818E+02  0.25500000920E-02 0.  1.
       -2    1    3    3    0  502 -0.43033003286E+02 -0.71524590623E+02 -0.95777312610E+03  0.96140364443E+03  0.25500000920E-02 0. -1.
</event>
<event>
 5   0  0.1982847E-02  0.4971773E+03  0.7818609E-02  0.1014518E+00
        2   -1    0    0  501    0  0.00000000000E+00  0.00000000000E+00  0.10210754919E+04  0.10210754919E+04  0.25500000920E-02 0. -1.
       -2   -1    0    0    0  501  0.00000000000E+00  0.00000000000E+00 -0.60520803410E+02  0.60520803464E+02  0.25500000920E-02 0.  1.
    10030    2    1    2    0    0  0.00000000000E+00  0.00000000000E+00  0.96055468850E+03  0.10815962954E+04  0.49717726876E+03 0.  0.
        2    1    3    3  502    0 -0.23158770702E+01 -0.13730764692E+03  0.29489094702E+02  0.14045768011E+03  0.25500000920E-02 0.  1.
       -2    1    3    3    0  502  0.23158770702E+01  0.13730764692E+03  0.93106559380E+03  0.94113861527E+03  0.25500000920E-02 0. -1.
</event>
<event>
 5   0  0.1180937E-02  0.4997086E+03  0.7818609E-02  0.1013855E+00
        1   -1    0    0  501    0  0.00000000000E+00  0.00000000000E+00  0.17152995945E+03  0.17152995953E+03  0.50400001928E-02 0.  1.
       -1   -1    0    0    0  501  0.00000000000E+00  0.00000000000E+00 -0.36394321122E+03  0.36394321125E+03  0.50400001928E-02 0. -1.
    10030    2    1    2    0    0  0.00000000000E+00  0.00000000000E+00 -0.19241325177E+03  0.53547317078E+03  0.49970857224E+03 0.  0.
        1    1    3    3  502    0 -0.11024765262E+01 -0.87685946316E+02 -0.34691099483E+03  0.35782297159E+03  0.50400001928E-02 0. -1.
       -1    1    3    3    0  502  0.11024765262E+01  0.87685946316E+02  0.15449774307E+03  0.17765019919E+03  0.50400001928E-02 0.  1.
</event>
<event>
 5   0  0.1982847E-02  0.5000016E+03  0.7818609E-02  0.1013779E+00
        2   -1    0    0  501    0  0.00000000000E+00  0.00000000000E+00  0.15305384919E+03  0.15305384921E+03  0.25500000920E-02 0.  1.
       -2   -1    0    0    0  501  0.00000000000E+00  0.00000000000E+00 -0.40835559914E+03  0.40835559915E+03  0.25500000920E-02 0. -1.
    10030    2    1    2    0    0  0.00000000000E+00  0.00000000000E+00 -0.25530174995E+03  0.56140944836E+03  0.50000158517E+03 0.  0.
        2    1    3    3  502    0  0.46113798115E+01  0.15165798948E+03 -0.35074664154E+03  0.38215784325E+03  0.25500000920E-02 0. -1.
       -2    1    3    3    0  502 -0.46113798115E+01 -0.15165798948E+03  0.95444891590E+02  0.17925160511E+03  0.25500000920E-02 0.  1.
</event>
<event>
 5   0  0.1967813E-02  0.4989914E+03  0.7818609E-02  0.1014043E+00
        2   -1    0    0  501    0  0.00000000000E+00  0.00000000000E+00  0.30276622756E+03  0.30276622757E+03  0.25500000920E-02 0. -1.
       -2   -1    0    0    0  501  0.00000000000E+00  0.00000000000E+00 -0.20559792591E+03  0.20559792593E+03  0.25500000920E-02 0.  1.
    10030    2    1    2    0    0  0.00000000000E+00  0.00000000000E+00  0.97168301648E+02  0.50836415349E+03  0.49899141647E+03 0.  0.
        5    1    3    3  502    0 -0.17844707447E+03 -0.23377566724E+02  0.22456006540E+03  0.28781796675E+03  0.46999998093E+01 0. -1.
       -5    1    3    3    0  502  0.17844707447E+03  0.23377566724E+02 -0.12739176376E+03  0.22054618674E+03  0.46999998093E+01 0.  1.
</event>
<event>
 5   0  0.1967813E-02  0.5014152E+03  0.7818609E-02  0.1013410E+00
       -2   -1    0    0    0  501  0.00000000000E+00  0.00000000000E+00  0.41684719085E+03  0.41684719086E+03  0.25500000920E-02 0. -1.
        2   -1    0    0  501    0  0.00000000000E+00  0.00000000000E+00 -0.15078497696E+03  0.15078497698E+03  0.25500000920E-02 0.  1.
    10030    2    1    2    0    0  0.00000000000E+00  0.00000000000E+00  0.26606221389E+03  0.56763216784E+03  0.50141517358E+03 0.  0.
        5    1    3    3  502    0  0.72092348428E+02  0.12291048486E+03  0.36648791716E+03  0.39324264445E+03  0.46999998093E+01 0. -1.
       -5    1    3    3    0  502 -0.72092348428E+02 -0.12291048486E+03 -0.10042570327E+03  0.17438952338E+03  0.46999998093E+01 0.  1.
</event>
<event>
 5   0  0.1967813E-02  0.5011629E+03  0.7818609E-02  0.1013476E+00
        2   -1    0    0  501    0  0.00000000000E+00  0.00000000000E+00  0.16217761039E+04  0.16217761039E+04  0.25500000920E-02 0. -1.
       -2   -1    0    0    0  501  0.00000000000E+00  0.00000000000E+00 -0.38717467560E+02  0.38717467644E+02  0.25500000920E-02 0.  1.
    10030    2    1    2    0    0  0.00000000000E+00  0.00000000000E+00  0.15830586363E+04  0.16604935715E+04  0.50116290271E+03 0.  0.
        5    1    3    3  502    0  0.24602289865E+03 -0.32304249157E+02  0.90621588082E+03  0.93958509132E+03  0.46999998093E+01 0. -1.
       -5    1    3    3    0  502 -0.24602289865E+03  0.32304249157E+02  0.67684275552E+03  0.72090848023E+03  0.46999998093E+01 0.  1.
</event>
<event>
 5   0  0.1180937E-02  0.4986994E+03  0.7818609E-02  0.1014119E+00
       -1   -1    0    0    0  501  0.00000000000E+00  0.00000000000E+00  0.49492156769E+02  0.49492157026E+02  0.50400001928E-02 0. -1.
        1   -1    0    0  501    0  0.00000000000E+00  0.00000000000E+00 -0.12562651385E+04  0.12562651385E+04  0.50400001928E-02 0.  1.
    10030    2    1    2    0    0  0.00000000000E+00  0.00000000000E+00 -0.12067729817E+04  0.13057572955E+04  0.49869939383E+03 0.  0.
        1    1    3    3  502    0 -0.23352605875E+03  0.84060460860E+02 -0.54061817301E+03  0.59486854868E+03  0.50400001928E-02 0.  1.
       -1    1    3    3    0  502  0.23352605875E+03 -0.84060460860E+02 -0.66615480873E+03  0.71088874687E+03  0.50400001928E-02 0. -1.
</event>
<event>
 5   0  0.8012875E-03  0.4996952E+03  0.7818609E-02  0.1013859E+00
       -3   -1    0    0    0  501  0.00000000000E+00  0.00000000000E+00  0.76821084564E+03  0.76821085228E+03  0.10100000352E+00 0.  1.
        3   -1    0    0  501    0  0.00000000000E+00  0.00000000000E+00 -0.81258662020E+02  0.81258724789E+02  0.10100000352E+00 0. -1.
    10030    2    1    2    0    0  0.00000000000E+00  0.00000000000E+00  0.68695218362E+03  0.84946957707E+03  0.49969516686E+03 0.  0.
        1    1    3    3  502    0 -0.47371349228E+02 -0.40420583521E+02 -0.67854581988E+02  0.92098385556E+02  0.50400001928E-02 0. -1.
       -1    1    3    3    0  502  0.47371349228E+02  0.40420583521E+02  0.75480676561E+03  0.75737119151E+03  0.50400001928E-02 0.  1.
</event>
<event>
 5   0  0.1180937E-02  0.4994610E+03  0.7818609E-02  0.1013920E+00
       -1   -1    0    0    0  501  0.00000000000E+00  0.00000000000E+00  0.72343312847E+02  0.72343313022E+02  0.50400001928E-02 0. -1.
        1   -1    0    0  501    0  0.00000000000E+00  0.00000000000E+00 -0.86207450668E+03  0.86207450670E+03  0.50400001928E-02 0.  1.
    10030    2    1    2    0    0  0.00000000000E+00  0.00000000000E+00 -0.78973119384E+03  0.93441781972E+03  0.49946101279E+03 0.  0.
        1    1    3    3  502    0  0.22592532582E+03  0.64434099628E+01 -0.59357755784E+03  0.63515201927E+03  0.50400001928E-02 0.  1.
       -1    1    3    3    0  502 -0.22592532582E+03 -0.64434099628E+01 -0.19615363599E+03  0.29926580045E+03  0.50400001928E-02 0. -1.
</event>
<event>
 5   0  0.1225989E-02  0.5003643E+03  0.7818609E-02  0.1013684E+00
        1   -1    0    0  501    0  0.00000000000E+00  0.00000000000E+00  0.60704051223E+03  0.60704051225E+03  0.50400001928E-02 0. -1.
       -1   -1    0    0    0  501  0.00000000000E+00  0.00000000000E+00 -0.10310860467E+03  0.10310860479E+03  0.50400001928E-02 0.  1.
    10030    2    1    2    0    0  0.00000000000E+00  0.00000000000E+00  0.50393190757E+03  0.71014911704E+03  0.50036426828E+03 0.  0.
        3    1    3    3  502    0  0.19396239769E+03 -0.29720402268E+02  0.47223272908E+03  0.51137899316E+03  0.10100000352E+00 0. -1.
       -3    1    3    3    0  502 -0.19396239769E+03  0.29720402268E+02  0.31699178482E+02  0.19877012388E+03  0.10100000352E+00 0.  1.
</event>
<event>
 5   0  0.1855407E-02  0.5025189E+03  0.7818609E-02  0.1013124E+00
       -2   -1    0    0    0  501  0.00000000000E+00  0.00000000000E+00  0.90019135037E+02  0.90019135073E+02  0.25500000920E-02 0. -1.
        2   -1    0    0  501    0  0.00000000000E+00  0.00000000000E+00 -0.70130988250E+03  0.70130988251E+03  0.25500000920E-02 0.  1.
    10030    2    1    2    0    0  0.00000000000E+00  0.00000000000E+00 -0.61129074747E+03  0.79132901758E+03  0.50251889132E+03 0.  0.
        1    1    3    3  502    0 -0.22537691808E+03 -0.10391553773E+03 -0.24388654130E+03  0.34795666287E+03  0.50400001928E-02 0.  1.
       -1    1    3    3    0  502  0.22537691808E+03  0.10391553773E+03 -0.36740420616E+03  0.44337235471E+03  0.50400001928E-02 0. -1.
</event>
<event>
 5   0  0.1225989E-02  0.5026712E+03  0.7818609E-02  0.1013084E+00
        1   -1    0    0  501    0  0.00000000000E+00  0.00000000000E+00  0.41445994625E+03  0.41445994628E+03  0.50400001928E-02 0.  1.
       -1   -1    0    0    0  501  0.00000000000E+00  0.00000000000E+00 -0.15241419968E+03  0.15241419976E+03  0.50400001928E-02 0. -1.
    10030    2    1    2    0    0  0.00000000000E+00  0.00000000000E+00  0.26204574657E+03  0.56687414605E+03  0.50267118891E+03 0.  0.
        3    1    3    3  502    0  0.39798518421E+02 -0.14321394127E+03 -0.97533660173E+02  0.17778352036E+03  0.10100000352E+00 0. -1.
       -3    1    3    3    0  502 -0.39798518421E+02  0.14321394127E+03  0.35957940674E+03  0.38909062569E+03  0.10100000352E+00 0.  1.
</event>
<event>
 5   0  0.1855407E-02  0.5007450E+03  0.7818609E-02  0.1013585E+00
        2   -1    0    0  501    0  0.00000000000E+00  0.00000000000E+00  0.97798642181E+03  0.97798642182E+03  0.25500000920E-02 0. -1.
       -2   -1    0    0    0  501  0.00000000000E+00  0.00000000000E+00 -0.64097391507E+02  0.64097391558E+02  0.25500000920E-02 0.  1.
    10030    2    1    2    0    0  0.00000000000E+00  0.00000000000E+00  0.91388903031E+03  0.10420838134E+04  0.50074495942E+03 0.  0.
        1    1    3    3  502    0 -0.12763561585E+03  0.21080438086E+03  0.54900771008E+03  0.60177969654E+03  0.50400001928E-02 0. -1.
       -1    1    3    3    0  502  0.12763561585E+03 -0.21080438086E+03  0.36488132023E+03  0.44030411683E+03  0.50400001928E-02 0.  1.
</event>
<event>
 5   0  0.1923706E-02  0.4998196E+03  0.7818609E-02  0.1013826E+00
       -2   -1    0    0    0  501  0.00000000000E+00  0.00000000000E+00  0.13476711018E+03  0.13476711021E+03  0.25500000920E-02 0.  1.
        2   -1    0    0  501    0  0.00000000000E+00  0.00000000000E+00 -0.46342838303E+03  0.46342838304E+03  0.25500000920E-02 0. -1.
    10030    2    1    2    0    0  0.00000000000E+00  0.00000000000E+00 -0.32866127285E+03  0.59819549325E+03  0.49981958332E+03 0.  0.
        3    1    3    3  502    0 -0.60068734663E+02 -0.13625234343E+03 -0.40453730313E+03  0.43107237652E+03  0.10100000352E+00 0. -1.
       -3    1    3    3    0  502  0.60068734663E+02  0.13625234343E+03  0.75876030276E+02  0.16712311673E+03  0.10100000352E+00 0.  1.
</event>
<event>
 5   0  0.1982847E-02  0.5002490E+03  0.7818609E-02  0.1013714E+00
        2   -1    0    0  501    0  0.00000000000E+00  0.00000000000E+00  0.96222239321E+03  0.96222239322E+03  0.25500000920E-02 0. -1.
       -2   -1    0    0    0  501  0.00000000000E+00  0.00000000000E+00 -0.65018511204E+02  0.65018511254E+02  0.25500000920E-02 0.  1.
    10030    2    1    2    0    0  0.00000000000E+00  0.00000000000E+00  0.89720388201E+03  0.10272409045E+04  0.50024900792E+03 0.  0.
        2    1    3    3  502    0  0.63024054413E+02 -0.31470749027E+02 -0.44227520055E+02  0.83177599243E+02  0.25500000920E-02 0.  1.
       -2    1    3    3    0  502 -0.63024054413E+02  0.31470749027E+02  0.94143140207E+03  0.94406330523E+03  0.25500000920E-02 0. -1.
</event>
<event>
 5   0  0.1217270E-02  0.5037804E+03  0.7818609E-02  0.1012797E+00
        1   -1    0    0  501    0  0.00000000000E+00  0.00000000000E+00  0.23040768515E+03  0.23040768520E+03  0.50400001928E-02 0. -1.
       -1   -1    0    0    0  501  0.00000000000E+00  0.00000000000E+00 -0.27537564625E+03  0.27537564629E+03  0.50400001928E-02 0.  1.
    10030    2    1    2    0    0  0.00000000000E+00  0.00000000000E+00 -0.44967961099E+02  0.50578333149E+03  0.50378036969E+03 0.  0.
        2    1    3    3  502    0 -0.16793798542E+03  0.69655838033E+01 -0.21083846558E+03  0.26963780313E+03  0.25500000920E-02 0.  1.
       -2    1    3    3    0  502  0.16793798542E+03 -0.69655838033E+01  0.16587050448E+03  0.23614552836E+03  0.25500000920E-02 0. -1.
</event>
<event>
 5   0  0.1967813E-02  0.5002620E+03  0.7818609E-02  0.1013711E+00
        2   -1    0    0  501    0  0.00000000000E+00  0.00000000000E+00  0.13168720267E+04  0.13168720267E+04  0.25500000920E-02 0.  1.
       -2   -1    0    0    0  501  0.00000000000E+00  0.00000000000E+00 -0.47510704614E+02  0.47510704682E+02  0.25500000920E-02 0. -1.
    10030    2    1    2    0    0  0.00000000000E+00  0.00000000000E+00  0.12693613221E+04  0.13643827314E+04  0.50026200305E+03 0.  0.
        5    1    3    3  502    0  0.18500499867E+03  0.17828355301E+02  0.17832037027E+03  0.25761394418E+03  0.46999998093E+01 0. -1.
       -5    1    3    3    0  502 -0.18500499867E+03 -0.17828355301E+02  0.10910409519E+04  0.11067687872E+04  0.46999998093E+01 0.  1.
</event>
<event>
 5   0  0.1227864E-02  0.5009296E+03  0.7818609E-02  0.1013537E+00
        1   -1    0    0  501    0  0.00000000000E+00  0.00000000000E+00  0.88854222193E+03  0.88854222195E+03  0.50400001928E-02 0. -1.
       -1   -1    0    0    0  501  0.00000000000E+00  0.00000000000E+00 -0.70601731099E+02  0.70601731279E+02  0.50400001928E-02 0.  1.
    10030    2    1    2    0    0  0.00000000000E+00  0.00000000000E+00  0.81794049083E+03  0.95914395323E+03  0.50092961229E+03 0.  0.
        5    1    3    3  502    0 -0.36985772773E+02  0.50027788046E+01 -0.65162006609E+02  0.75240629230E+02  0.46999998093E+01 0.  1.
       -5    1    3    3    0  502  0.36985772773E+02 -0.50027788046E+01  0.88310249744E+03  0.88390332400E+03  0.46999998093E+01 0. -1.
</event>
<event>
 5   0  0.1967813E-02  0.5004251E+03  0.7818609E-02  0.1013668E+00
        2   -1    0    0  501    0  0.00000000000E+00  0.00000000000E+00  0.74711447638E+03  0.74711447638E+03  0.25500000920E-02 0.  1.
       -2   -1    0    0    0  501  0.00000000000E+00  0.00000000000E+00 -0.83797498007E+02  0.83797498045E+02  0.25500000920E-02 0. -1.
    10030    2    1    2    0    0  0.00000000000E+00  0.00000000000E+00  0.66331697837E+03  0.83091197443E+03  0.50042511473E+03 0.  0.
        5    1    3    3  502    0  0.14219173699E+03 -0.86979311628E+02  0.64140589903E+03  0.66272732555E+03  0.46999998093E+01 0.  1.
       -5    1    3    3    0  502 -0.14219173699E+03  0.86979311628E+02  0.21911079335E+02  0.16818464887E+03  0.46999998093E+01 0. -1.
</event>
<event>
 5   0  0.1855407E-02  0.5000555E+03  0.7818609E-02  0.1013764E+00
        2   -1    0    0  501    0  0.00000000000E+00  0.00000000000E+00  0.16433559583E+04  0.16433559583E+04  0.25500000920E-02 0. -1.
       -2   -1    0    0    0  501  0.00000000000E+00  0.00000000000E+00 -0.38040372119E+02  0.38040372205E+02  0.25500000920E-02 0.  1.
    10030    2    1    2    0    0  0.00000000000E+00  0.00000000000E+00  0.16053155862E+04  0.16813963305E+04  0.50005548593E+03 0.  0.
        1    1    3    3  502    0 -0.88316832790E+02  0.22864332872E+03  0.63669462693E+03  0.68224459156E+03  0.50400001928E-02 0.  1.
       -1    1    3    3    0  502  0.88316832790E+02 -0.22864332872E+03  0.96862095925E+03  0.99915173895E+03  0.50400001928E-02 0. -1.
</event>
<event>
 5   0  0.1941387E-02  0.5002998E+03  0.7818609E-02  0.1013701E+00
        2   -1    0    0  501    0  0.00000000000E+00  0.00000000000E+00  0.24087154548E+03  0.24087154550E+03  0.25500000920E-02 0.  1.
       -2   -1    0    0    0  501  0.00000000000E+00  0.00000000000E+00 -0.25978564690E+03  0.25978564691E+03  0.25500000920E-02 0. -1.
    10030    2    1    2    0    0  0.00000000000E+00  0.00000000000E+00 -0.18914101417E+02  0.50065719241E+03  0.50029979121E+03 0.  0.
        4    1    3    3  502    0  0.12528949575E+03 -0.18433400732E+02  0.20641935257E+03  0.24217309930E+03  0.12699999809E+01 0.  1.
       -4    1    3    3    0  502 -0.12528949575E+03  0.18433400732E+02 -0.22533345399E+03  0.25848409311E+03  0.12699999809E+01 0. -1.
</event>
<event>
 5   0  0.8012875E-03  0.5005397E+03  0.7818609E-02  0.1013638E+00
       -3   -1    0    0    0  501  0.00000000000E+00  0.00000000000E+00  0.57847176883E+03  0.57847177765E+03  0.10100000352E+00 0.  1.
        3   -1    0    0  501    0  0.00000000000E+00  0.00000000000E+00 -0.10827662066E+03  0.10827666777E+03  0.10100000352E+00 0. -1.
    10030    2    1    2    0    0  0.00000000000E+00  0.00000000000E+00  0.47019514817E+03  0.68674844542E+03  0.50053965869E+03 0.  0.
        1    1    3    3  502    0 -0.21001911378E+03  0.88223216557E+02  0.37730902893E+03  0.44074195106E+03  0.50400001928E-02 0.  1.
       -1    1    3    3    0  502  0.21001911378E+03 -0.88223216557E+02  0.92886119245E+02  0.24600649436E+03  0.50400001928E-02 0. -1.
</event>
<event>
 5   0  0.1217270E-02  0.4990520E+03  0.7818609E-02  0.1014027E+00
       -1   -1    0    0    0  501  0.00000000000E+00  0.00000000000E+00  0.18948346840E+03  0.18948346847E+03  0.50400001928E-02 0. -1.
        1   -1    0    0  501    0  0.00000000000E+00  0.00000000000E+00 -0.32859448605E+03  0.32859448609E+03  0.50400001928E-02 0.  1.
    10030    2    1    2    0    0  0.00000000000E+00  0.00000000000E+00 -0.13911101765E+03  0.51807795456E+03  0.49905199305E+03 0.  0.
        2    1    3    3  502    0  0.32353150407E+02  0.22284643118E+03  0.42041465884E+02  0.22907366302E+03  0.25500000920E-02 0. -1.
       -2    1    3    3    0  502 -0.32353150407E+02 -0.22284643118E+03 -0.18115248353E+03  0.28900429154E+03  0.25500000920E-02 0.  1.
</event>
<event>
 5   0  0.1217270E-02  0.5003109E+03  0.7818609E-02  0.1013698E+00
       -1   -1    0    0    0  501  0.00000000000E+00  0.00000000000E+00  0.10224636242E+03  0.10224636254E+03  0.50400001928E-02 0. -1.
        1   -1    0    0  501    0  0.00000000000E+00  0.00000000000E+00 -0.61202919566E+03  0.61202919568E+03  0.50400001928E-02 0.  1.
    10030    2    1    2    0    0  0.00000000000E+00  0.00000000000E+00 -0.50978283324E+03  0.71427555823E+03  0.50031093933E+03 0.  0.
        2    1    3    3  502    0  0.18394417082E+03  0.36004211617E+02 -0.49141001802E+03  0.52594255109E+03  0.25500000920E-02 0.  1.
       -2    1    3    3    0  502 -0.18394417082E+03 -0.36004211617E+02 -0.18372815222E+02  0.18833300714E+03  0.25500000920E-02 0. -1.
</event>
<event>
 5   0  0.1967813E-02  0.5007989E+03  0.7818609E-02  0.1013571E+00
       -2   -1    0    0    0  501  0.00000000000E+00  0.00000000000E+00  0.92490895655E+02  0.92490895690E+02  0.25500000920E-02 0.  1.
        2   -1    0    0  501    0  0.00000000000E+00  0.00000000000E+00 -0.67790320780E+03  0.67790320780E+03  0.25500000920E-02 0. -1.
    10030    2    1    2    0    0  0.00000000000E+00  0.00000000000E+00 -0.58541231214E+03  0.77039410349E+03  0.50079886131E+03 0.  0.
        5    1    3    3  502    0 -0.31184145008E+02 -0.15750972604E+03  0.27815244110E+01  0.16065986298E+03  0.46999998093E+01 0.  1.
       -5    1    3    3    0  502  0.31184145008E+02  0.15750972604E+03 -0.58819383655E+03  0.60973424051E+03  0.46999998093E+01 0. -1.
</event>
<event>
 5   0  0.1923706E-02  0.5000614E+03  0.7818609E-02  0.1013763E+00
        2   -1    0    0  501    0  0.00000000000E+00  0.00000000000E+00  0.11005683973E+04  0.11005683973E+04  0.25500000920E-02 0.  1.
       -2   -1    0    0    0  501  0.00000000000E+00  0.00000000000E+00 -0.56802784078E+02  0.56802784136E+02  0.25500000920E-02 0. -1.
    10030    2    1    2    0    0  0.00000000000E+00  0.00000000000E+00  0.10437656133E+04  0.11573711815E+04  0.50006139252E+03 0.  0.
        3    1    3    3  502    0  0.15736660219E+03 -0.99320207368E+02  0.13538500600E+03  0.23012575068E+03  0.10100000352E+00 0. -1.
       -3    1    3    3    0  502 -0.15736660219E+03  0.99320207368E+02  0.90838060725E+03  0.92724543079E+03  0.10100000352E+00 0.  1.
</event>
<event>
 5   0  0.8012875E-03  0.4998429E+03  0.7818609E-02  0.1013820E+00
       -4   -1    0    0    0  501  0.00000000000E+00  0.00000000000E+00  0.46417310717E+03  0.46417484456E+03  0.12699999809E+01 0. -1.
        4   -1    0    0  501    0  0.00000000000E+00  0.00000000000E+00 -0.13455844834E+03  0.13456444151E+03  0.12699999809E+01 0.  1.
    10030    2    1    2    0    0  0.00000000000E+00  0.00000000000E+00  0.32961465883E+03  0.59873928607E+03  0.49984288468E+03 0.  0.
        1    1    3    3  502    0 -0.19275313197E+03  0.15856442437E+03  0.18016048277E+03  0.30782177658E+03  0.50400001928E-02 0.  1.
       -1    1    3    3    0  502  0.19275313197E+03 -0.15856442437E+03  0.14945417606E+03  0.29091750949E+03  0.50400001928E-02 0. -1.
</event>
<event>
 5   0  0.1941387E-02  0.5006668E+03  0.7818609E-02  0.1013605E+00
        2   -1    0    0  501    0  0.00000000000E+00  0.00000000000E+00  0.47728504741E+03  0.47728504742E+03  0.25500000920E-02 0. -1.
       -2   -1    0    0    0  501  0.00000000000E+00  0.00000000000E+00 -0.13129850923E+03  0.13129850925E+03  0.25500000920E-02 0.  1.
    10030    2    1    2    0    0  0.00000000000E+00  0.00000000000E+00  0.34598653819E+03  0.60858355667E+03  0.50066681620E+03 0.  0.
        4    1    3    3  502    0  0.21544118095E+03  0.65035224522E+02  0.39721968288E+02  0.22852555774E+03  0.12699999809E+01 0.  1.
       -4    1    3    3    0  502 -0.21544118095E+03 -0.65035224522E+02  0.30626456990E+03  0.38005799893E+03  0.12699999809E+01 0. -1.
</event>
<event>
 5   0  0.1217270E-02  0.5005685E+03  0.7818609E-02  0.1013631E+00
       -1   -1    0    0    0  501  0.00000000000E+00  0.00000000000E+00  0.10714995626E+03  0.10714995638E+03  0.50400001928E-02 0. -1.
        1   -1    0    0  501    0  0.00000000000E+00  0.00000000000E+00 -0.58462195385E+03  0.58462195387E+03  0.50400001928E-02 0.  1.
    10030    2    1    2    0    0  0.00000000000E+00  0.00000000000E+00 -0.47747199759E+03  0.69177191025E+03  0.50056854408E+03 0.  0.
        2    1    3    3  502    0 -0.14711893617E+03  0.17886277920E+03 -0.10758440353E+03  0.25536303384E+03  0.25500000920E-02 0.  1.
       -2    1    3    3    0  502  0.14711893617E+03 -0.17886277920E+03 -0.36988759406E+03  0.43640887641E+03  0.25500000920E-02 0. -1.
</event>
<event>
 5   0  0.8012875E-03  0.4997004E+03  0.7818609E-02  0.1013857E+00
        3   -1    0    0  501    0  0.00000000000E+00  0.00000000000E+00  0.22336440065E+03  0.22336442348E+03  0.10100000352E+00 0.  1.
       -3   -1    0    0    0  501  0.00000000000E+00  0.00000000000E+00 -0.27947658715E+03  0.27947660540E+03  0.10100000352E+00 0. -1.
    10030    2    1    2    0    0  0.00000000000E+00  0.00000000000E+00 -0.56112186503E+02  0.50284102888E+03  0.49970043311E+03 0.  0.
        4    1    3    3  502    0  0.15470280725E+03 -0.19585263974E+03 -0.39630677891E+02  0.25271212593E+03  0.12699999809E+01 0.  1.
       -4    1    3    3    0  502 -0.15470280725E+03  0.19585263974E+03 -0.16481508612E+02  0.25012890295E+03  0.12699999809E+01 0. -1.
</event>
<event>
 5   0  0.1225989E-02  0.5005434E+03  0.7818609E-02  0.1013637E+00
        1   -1    0    0  501    0  0.00000000000E+00  0.00000000000E+00  0.15083851385E+04  0.15083851385E+04  0.50400001928E-02 0. -1.
       -1   -1    0    0    0  501  0.00000000000E+00  0.00000000000E+00 -0.41525148713E+02  0.41525149019E+02  0.50400001928E-02 0.  1.
    10030    2    1    2    0    0  0.00000000000E+00  0.00000000000E+00  0.14668599898E+04  0.15499102876E+04  0.50054337449E+03 0.  0.
        3    1    3    3  502    0  0.18384264849E+03  0.90286146373E+02  0.11787838328E+04  0.11964451689E+04  0.10100000352E+00 0. -1.
       -3    1    3    3    0  502 -0.18384264849E+03 -0.90286146373E+02  0.28807615702E+03  0.35346511861E+03  0.10100000352E+00 0.  1.
</event>
<event>
 5   0  0.1855407E-02  0.4995869E+03  0.7818609E-02  0.1013887E+00
        2   -1    0    0  501    0  0.00000000000E+00  0.00000000000E+00  0.34537793190E+03  0.34537793191E+03  0.25500000920E-02 0. -1.
       -2   -1    0    0    0  501  0.00000000000E+00  0.00000000000E+00 -0.18066228703E+03  0.18066228705E+03  0.25500000920E-02 0.  1.
    10030    2    1    2    0    0  0.00000000000E+00  0.00000000000E+00  0.16471564487E+03  0.52604021895E+03  0.49958689764E+03 0.  0.
        1    1    3    3  502    0 -0.83439826982E+02 -0.55539052673E+02 -0.15855846014E+03  0.18758351848E+03  0.50400001928E-02 0.  1.
       -1    1    3    3    0  502  0.83439826982E+02  0.55539052673E+02  0.32327410501E+03  0.33845670047E+03  0.50400001928E-02 0. -1.
</event>
<event>
 5   0  0.1217270E-02  0.5010462E+03  0.7818609E-02  0.1013506E+00
       -1   -1    0    0    0  501  0.00000000000E+00  0.00000000000E+00  0.16493297658E+03  0.16493297665E+03  0.50400001928E-02 0.  1.
        1   -1    0    0  501    0  0.00000000000E+00  0.00000000000E+00 -0.38052931606E+03  0.38052931609E+03  0.50400001928E-02 0. -1.
    10030    2    1    2    0    0  0.00000000000E+00  0.00000000000E+00 -0.21559633948E+03  0.54546229275E+03  0.50104623660E+03 0.  0.
        2    1    3    3  502    0  0.12285992983E+03  0.72451971872E+02 -0.33201175950E+03  0.36135254121E+03  0.25500000920E-02 0. -1.
       -2    1    3    3    0  502 -0.12285992983E+03 -0.72451971872E+02  0.11641542002E+03  0.18410975154E+03  0.25500000920E-02 0.  1.
</event>
<event>
 5   0  0.1855407E-02  0.5009926E+03  0.7818609E-02  0.1013520E+00
       -2   -1    0    0    0  501  0.00000000000E+00  0.00000000000E+00  0.11311842266E+03  0.11311842269E+03  0.25500000920E-02 0. -1.
        2   -1    0    0  501    0  0.00000000000E+00  0.00000000000E+00 -0.55471430956E+03  0.55471430956E+03  0.25500000920E-02 0.  1.
    10030    2    1    2    0    0  0.00000000000E+00  0.00000000000E+00 -0.44159588690E+03  0.66783273225E+03  0.50099264560E+03 0.  0.
        1    1    3    3  502    0  0.17802718625E+03  0.16764759929E+03 -0.29318727318E+03  0.38178288826E+03  0.50400001928E-02 0. -1.
       -1    1    3    3    0  502 -0.17802718625E+03 -0.16764759929E+03 -0.14840861372E+03  0.28604984399E+03  0.50400001928E-02 0.  1.
</event>
<event>
 5   0  0.8012875E-03  0.4998813E+03  0.7818609E-02  0.1013810E+00
       -3   -1    0    0    0  501  0.00000000000E+00  0.00000000000E+00  0.23737830679E+03  0.23737832827E+03  0.10100000352E+00 0.  1.
        3   -1    0    0  501    0  0.00000000000E+00  0.00000000000E+00 -0.26316777132E+03  0.26316779070E+03  0.10100000352E+00 0. -1.
    10030    2    1    2    0    0  0.00000000000E+00  0.00000000000E+00 -0.25789464536E+02  0.50054611898E+03  0.49988130665E+03 0.  0.
        4    1    3    3  502    0  0.22111835166E+03 -0.11503119450E+03 -0.31445464298E+02  0.25122884244E+03  0.12699999809E+01 0. -1.
       -4    1    3    3    0  502 -0.22111835166E+03  0.11503119450E+03  0.56559997620E+01  0.24931727654E+03  0.12699999809E+01 0.  1.
</event>
<event>
 5   0  0.1923706E-02  0.5003302E+03  0.7818609E-02  0.1013693E+00
        2   -1    0    0  501    0  0.00000000000E+00  0.00000000000E+00  0.11637153849E+04  0.11637153849E+04  0.25500000920E-02 0.  1.
       -2   -1    0    0    0  501  0.00000000000E+00  0.00000000000E+00 -0.53778256994E+02  0.53778257054E+02  0.25500000920E-02 0. -1.
    10030    2    1    2    0    0  0.00000000000E+00  0.00000000000E+00  0.11099371279E+04  0.12174936420E+04  0.50033023125E+03 0.  0.
        3    1    3    3  502    0  0.19114120146E+03 -0.14119805385E+03  0.36474848963E+03  0.43533127638E+03  0.10100000352E+00 0. -1.
       -3    1    3    3    0  502 -0.19114120146E+03  0.14119805385E+03  0.74518863829E+03  0.78216236559E+03  0.10100000352E+00 0.  1.
</event>
<event>
 5   0  0.1180937E-02  0.5006995E+03  0.7818609E-02  0.1013597E+00
        1   -1    0    0  501    0  0.00000000000E+00  0.00000000000E+00  0.76810914148E+03  0.76810914150E+03  0.50400001928E-02 0.  1.
       -1   -1    0    0    0  501  0.00000000000E+00  0.00000000000E+00 -0.81596464555E+02  0.81596464711E+02  0.50400001928E-02 0. -1.
    10030    2    1    2    0    0  0.00000000000E+00  0.00000000000E+00  0.68651267692E+03  0.84970560621E+03  0.50069947238E+03 0.  0.
        1    1    3    3  502    0 -0.89230120531E+02 -0.17810008095E+03  0.60058748413E+03  0.63276139212E+03  0.50400001928E-02 0.  1.
       -1    1    3    3    0  502  0.89230120531E+02  0.17810008095E+03  0.85925192796E+02  0.21694421409E+03  0.50400001928E-02 0. -1.
</event>
<event>
 5   0  0.1209831E-02  0.4999182E+03  0.7818609E-02  0.1013800E+00
        1   -1    0    0  501    0  0.00000000000E+00  0.00000000000E+00  0.10976872475E+03  0.10976872487E+03  0.50400001928E-02 0. -1.
       -1   -1    0    0    0  501  0.00000000000E+00  0.00000000000E+00 -0.56919267322E+03  0.56919267324E+03  0.50400001928E-02 0.  1.
    10030    2    1    2    0    0  0.00000000000E+00  0.00000000000E+00 -0.45942394846E+03  0.67896139811E+03  0.49991820901E+03 0.  0.
        4    1    3    3  502    0  0.14494378940E+02  0.10570851201E+03  0.77281559984E+02  0.13175139068E+03  0.12699999809E+01 0. -1.
       -4    1    3    3    0  502 -0.14494378940E+02 -0.10570851201E+03 -0.53670550845E+03  0.54721000743E+03  0.12699999809E+01 0.  1.
</event>
<event>
 5   0  0.1855407E-02  0.5002697E+03  0.7818609E-02  0.1013709E+00
       -2   -1    0    0    0  501  0.00000000000E+00  0.00000000000E+00  0.58193626534E+03  0.58193626534E+03  0.25500000920E-02 0. -1.
        2   -1    0    0  501    0  0.00000000000E+00  0.00000000000E+00 -0.10751597482E+03  0.10751597485E+03  0.25500000920E-02 0.  1.
    10030    2    1    2    0    0  0.00000000000E+00  0.00000000000E+00  0.47442029052E+03  0.68945224019E+03  0.50026970670E+03 0.  0.
        1    1    3    3  502    0 -0.17125980982E+03 -0.17428324914E+03  0.16347052361E+03  0.29398500898E+03  0.50400001928E-02 0. -1.
       -1    1    3    3    0  502  0.17125980982E+03  0.17428324914E+03  0.31094976692E+03  0.39546723121E+03  0.50400001928E-02 0.  1.
</event>
<event>
 5   0  0.8012875E-03  0.4995887E+03  0.7818609E-02  0.1013886E+00
        4   -1    0    0  501    0  0.00000000000E+00  0.00000000000E+00  0.42084320898E+02  0.42103479255E+02  0.12699999809E+01 0. -1.
       -4   -1    0    0    0  501  0.00000000000E+00  0.00000000000E+00 -0.14823143439E+04  0.14823148880E+04  0.12699999809E+01 0.  1.
    10030    2    1    2    0    0  0.00000000000E+00  0.00000000000E+00 -0.14402300230E+04  0.15244183672E+04  0.49958866992E+03 0.  0.
        4    1    3    3  502    0 -0.87595040869E+02 -0.21793614514E+02 -0.14308086589E+04  0.14336536834E+04  0.12699999809E+01 0.  1.
       -4    1    3    3    0  502  0.87595040869E+02  0.21793614514E+02 -0.94213641345E+01  0.90764683774E+02  0.12699999809E+01 0. -1.
</event>
<event>
 5   0  0.1180937E-02  0.4989474E+03  0.7818609E-02  0.1014054E+00
       -1   -1    0    0    0  501  0.00000000000E+00  0.00000000000E+00  0.46291931173E+02  0.46291931447E+02  0.50400001928E-02 0.  1.
        1   -1    0    0  501    0  0.00000000000E+00  0.00000000000E+00 -0.13444488440E+04  0.13444488440E+04  0.50400001928E-02 0. -1.
    10030    2    1    2    0    0  0.00000000000E+00  0.00000000000E+00 -0.12981569128E+04  0.13907407754E+04  0.49894742628E+03 0.  0.
        1    1    3    3  502    0  0.15214499909E+03  0.97214315524E+02 -0.11289432072E+04  0.11432897660E+04  0.50400001928E-02 0. -1.
       -1    1    3    3    0  502 -0.15214499909E+03 -0.97214315524E+02 -0.16921370561E+03  0.24745100946E+03  0.50400001928E-02 0.  1.
</event>
<event>
 5   0  0.1923706E-02  0.5008119E+03  0.7818609E-02  0.1013567E+00
       -2   -1    0    0    0  501  0.00000000000E+00  0.00000000000E+00  0.12487114154E+03  0.12487114156E+03  0.25500000920E-02 0.  1.
        2   -1    0    0  501    0  0.00000000000E+00  0.00000000000E+00 -0.50214284812E+03  0.50214284813E+03  0.25500000920E-02 0. -1.
    10030    2    1    2    0    0  0.00000000000E+00  0.00000000000E+00 -0.37727170658E+03  0.62701398969E+03  0.50081194343E+03 0.  0.
        3    1    3    3  502    0 -0.15491455376E+02  0.17787488936E+03  0.31172802317E+02  0.18124904209E+03  0.10100000352E+00 0.  1.
       -3    1    3    3    0  502  0.15491455376E+02 -0.17787488936E+03 -0.40844450890E+03  0.44576494760E+03  0.10100000352E+00 0. -1.
</event>
<event>
 5   0  0.1209831E-02  0.4998042E+03  0.7818609E-02  0.1013830E+00
       -1   -1    0    0    0  501  0.00000000000E+00  0.00000000000E+00  0.88186096631E+02  0.88186096775E+02  0.50400001928E-02 0. -1.
        1   -1    0    0  501    0  0.00000000000E+00  0.00000000000E+00 -0.70817362892E+03  0.70817362894E+03  0.50400001928E-02 0.  1.
    10030    2    1    2    0    0  0.00000000000E+00  0.00000000000E+00 -0.61998753229E+03  0.79635972571E+03  0.49980423422E+03 0.  0.
        4    1    3    3  502    0  0.13946547385E+03  0.17114127999E+03 -0.12343307098E+03  0.25293732825E+03  0.12699999809E+01 0. -1.
       -4    1    3    3    0  502 -0.13946547385E+03 -0.17114127999E+03 -0.49655446131E+03  0.54342239746E+03  0.12699999809E+01 0.  1.
</event>
<event>
 5   0  0.1209831E-02  0.5010070E+03  0.7818609E-02  0.1013516E+00
       -1   -1    0    0    0  501  0.00000000000E+00  0.00000000000E+00  0.15023527127E+03  0.15023527136E+03  0.50400001928E-02 0.  1.
        1   -1    0    0  501    0  0.00000000000E+00  0.00000000000E+00 -0.41769152397E+03  0.41769152400E+03  0.50400001928E-02 0. -1.
    10030    2    1    2    0    0  0.00000000000E+00  0.00000000000E+00 -0.26745625270E+03  0.56792679536E+03  0.50100698376E+03 0.  0.
        4    1    3    3  502    0 -0.14226979772E+03  0.20483575972E+03 -0.16036107164E+03  0.29650576723E+03  0.12699999809E+01 0.  1.
       -4    1    3    3    0  502  0.14226979772E+03 -0.20483575972E+03 -0.10709518106E+03  0.27142102813E+03  0.12699999809E+01 0. -1.
</event>
<event>
 5   0  0.1209831E-02  0.4996457E+03  0.7818609E-02  0.1013871E+00
        1   -1    0    0  501    0  0.00000000000E+00  0.00000000000E+00  0.73837585323E+02  0.73837585495E+02  0.50400001928E-02 0. -1.
       -1   -1    0    0    0  501  0.00000000000E+00  0.00000000000E+00 -0.84525321466E+03  0.84525321467E+03  0.50400001928E-02 0.  1.
    10030    2    1    2    0    0  0.00000000000E+00  0.00000000000E+00 -0.77141562933E+03  0.91909080017E+03  0.49964570024E+03 0.  0.
        4    1    3    3  502    0  0.17574744083E+03 -0.24609571828E+02 -0.62266654857E+02  0.18807323890E+03  0.12699999809E+01 0. -1.
       -4    1    3    3    0  502 -0.17574744083E+03  0.24609571828E+02 -0.70914897448E+03  0.73101756127E+03  0.12699999809E+01 0.  1.
</event>
<event>
 5   0  0.1982847E-02  0.4996744E+03  0.7818609E-02  0.1013864E+00
       -2   -1    0    0    0  501  0.00000000000E+00  0.00000000000E+00  0.39216131337E+02  0.39216131420E+02  0.25500000920E-02 0. -1.
        2   -1    0    0  501    0  0.00000000000E+00  0.00000000000E+00 -0.15916568904E+04  0.15916568904E+04  0.25500000920E-02 0.  1.
    10030    2    1    2    0    0  0.00000000000E+00  0.00000000000E+00 -0.15524407591E+04  0.16308730218E+04  0.49967439689E+03 0.  0.
        2    1    3    3  502    0  0.27292316915E+02 -0.23339801892E+03 -0.10531521331E+04  0.10790500087E+04  0.25500000920E-02 0. -1.
       -2    1    3    3    0  502 -0.27292316915E+02  0.23339801892E+03 -0.49928862597E+03  0.55182301314E+03  0.25500000920E-02 0.  1.
</event>
<event>
 5   0  0.1941387E-02  0.4998771E+03  0.7818609E-02  0.1013811E+00
        2   -1    0    0  501    0  0.00000000000E+00  0.00000000000E+00  0.83368588856E+03  0.83368588856E+03  0.25500000920E-02 0. -1.
       -2   -1    0    0    0  501  0.00000000000E+00  0.00000000000E+00 -0.74931440526E+02  0.74931440570E+02  0.25500000920E-02 0.  1.
    10030    2    1    2    0    0  0.00000000000E+00  0.00000000000E+00  0.75875444803E+03  0.90861732913E+03  0.49987712329E+03 0.  0.
        4    1    3    3  502    0 -0.17904900072E+03  0.16746773865E+03  0.46774876338E+03  0.52810463612E+03  0.12699999809E+01 0. -1.
       -4    1    3    3    0  502  0.17904900072E+03 -0.16746773865E+03  0.29100568465E+03  0.38051269301E+03  0.12699999809E+01 0.  1.
</event>
<event>
 5   0  0.1923706E-02  0.5011997E+03  0.7818609E-02  0.1013466E+00
       -2   -1    0    0    0  501  0.00000000000E+00  0.00000000000E+00  0.35286743694E+02  0.35286743787E+02  0.25500000920E-02 0.  1.
        2   -1    0    0  501    0  0.00000000000E+00  0.00000000000E+00 -0.17797131486E+04  0.17797131486E+04  0.25500000920E-02 0. -1.
    10030    2    1    2    0    0  0.00000000000E+00  0.00000000000E+00 -0.17444264049E+04  0.18149998924E+04  0.50119968798E+03 0.  0.
        3    1    3    3  502    0  0.65845309592E+02 -0.21184857203E+03 -0.12942916970E+04  0.13131665657E+04  0.10100000352E+00 0.  1.
       -3    1    3    3    0  502 -0.65845309592E+02  0.21184857203E+03 -0.45013470789E+03  0.50183332662E+03  0.10100000352E+00 0. -1.
</event>
<event>
 5   0  0.1225989E-02  0.4994488E+03  0.7818609E-02  0.1013923E+00
       -1   -1    0    0    0  501  0.00000000000E+00  0.00000000000E+00  0.14314717170E+03  0.14314717179E+03  0.50400001928E-02 0. -1.
        1   -1    0    0  501    0  0.00000000000E+00  0.00000000000E+00 -0.43565139719E+03  0.43565139722E+03  0.50400001928E-02 0.  1.
    10030    2    1    2    0    0  0.00000000000E+00  0.00000000000E+00 -0.29250422549E+03  0.57879856901E+03  0.49944875770E+03 0.  0.
        3    1    3    3  502    0 -0.22005284876E+03  0.54655917700E+02 -0.26752895144E+03  0.35068828844E+03  0.10100000352E+00 0.  1.
       -3    1    3    3    0  502  0.22005284876E+03 -0.54655917700E+02 -0.24975274046E+02  0.22811028057E+03  0.10100000352E+00 0. -1.
</event>
<event>
 5   0  0.1923706E-02  0.5000426E+03  0.7818609E-02  0.1013768E+00
        2   -1    0    0  501    0  0.00000000000E+00  0.00000000000E+00  0.45575866202E+03  0.45575866203E+03  0.25500000920E-02 0.  1.
       -2   -1    0    0    0  501  0.00000000000E+00  0.00000000000E+00 -0.13715732364E+03  0.13715732366E+03  0.25500000920E-02 0. -1.
    10030    2    1    2    0    0  0.00000000000E+00  0.00000000000E+00  0.31860133838E+03  0.59291598569E+03  0.50004255146E+03 0.  0.
        3    1    3    3  502    0  0.24081230480E+03  0.40634014063E+02  0.22281136118E+03  0.33058524183E+03  0.10100000352E+00 0.  1.
       -3    1    3    3    0  502 -0.24081230480E+03 -0.40634014063E+02  0.95789977196E+02  0.26233074386E+03  0.10100000352E+00 0. -1.
</event>
<event>
 5   0  0.8012875E-03  0.5002879E+03  0.7818609E-02  0.1013704E+00
        3   -1    0    0  501    0  0.00000000000E+00  0.00000000000E+00  0.36540922939E+03  0.36540924334E+03  0.10100000352E+00 0. -1.
       -3   -1    0    0    0  501  0.00000000000E+00  0.00000000000E+00 -0.17123808929E+03  0.17123811907E+03  0.10100000352E+00 0.  1.
    10030    2    1    2    0    0  0.00000000000E+00  0.00000000000E+00  0.19417114010E+03  0.53664736242E+03  0.50028787707E+03 0.  0.
        2    1    3    3  502    0 -0.12143173132E+02  0.16342195845E+03 -0.10564131678E+03  0.19497251338E+03  0.25500000920E-02 0.  1.
       -2    1    3    3    0  502  0.12143173132E+02 -0.16342195845E+03  0.29981245688E+03  0.34167484904E+03  0.25500000920E-02 0. -1.
</event>
<event>
 5   0  0.8012875E-03  0.5000844E+03  0.7818609E-02  0.1013757E+00
       -3   -1    0    0    0  501  0.00000000000E+00  0.00000000000E+00  0.20246851804E+03  0.20246854324E+03  0.10100000352E+00 0.  1.
        3   -1    0    0  501    0  0.00000000000E+00  0.00000000000E+00 -0.30879418217E+03  0.30879419869E+03  0.10100000352E+00 0. -1.
    10030    2    1    2    0    0  0.00000000000E+00  0.00000000000E+00 -0.10632566412E+03  0.51126274192E+03  0.50008443730E+03 0.  0.
        3    1    3    3  502    0 -0.18920242372E+03 -0.13260999006E+03 -0.15089320894E+03  0.27595604236E+03  0.10100000352E+00 0. -1.
       -3    1    3    3    0  502  0.18920242372E+03  0.13260999006E+03  0.44567544817E+02  0.23530669956E+03  0.10100000352E+00 0.  1.
</event>
<event>
 5   0  0.1982847E-02  0.4987431E+03  0.7818609E-02  0.1014107E+00
        2   -1    0    0  501    0  0.00000000000E+00  0.00000000000E+00  0.77926279638E+03  0.77926279639E+03  0.25500000920E-02 0.  1.
       -2   -1    0    0    0  501  0.00000000000E+00  0.00000000000E+00 -0.79801294724E+02  0.79801294765E+02  0.25500000920E-02 0. -1.
    10030    2    1    2    0    0  0.00000000000E+00  0.00000000000E+00  0.69946150166E+03  0.85906409115E+03  0.49874314071E+03 0.  0.
        2    1    3    3  502    0  0.11370896611E+03 -0.20890267817E+03  0.22064838888E+03  0.32443145569E+03  0.25500000920E-02 0.  1.
       -2    1    3    3    0  502 -0.11370896611E+03  0.20890267817E+03  0.47881311278E+03  0.53463263546E+03  0.25500000920E-02 0. -1.
</event>
<event>
 5   0  0.1225989E-02  0.4996240E+03  0.7818609E-02  0.1013877E+00
       -1   -1    0    0    0  501  0.00000000000E+00  0.00000000000E+00  0.48051710139E+03  0.48051710142E+03  0.50400001928E-02 0. -1.
        1   -1    0    0  501    0  0.00000000000E+00  0.00000000000E+00 -0.12987266419E+03  0.12987266429E+03  0.50400001928E-02 0.  1.
    10030    2    1    2    0    0  0.00000000000E+00  0.00000000000E+00  0.35064443720E+03  0.61038976570E+03  0.49962400336E+03 0.  0.
        3    1    3    3  502    0 -0.13781315404E+03 -0.13270725494E+03  0.37156493086E+03  0.41792844960E+03  0.10100000352E+00 0. -1.
       -3    1    3    3    0  502  0.13781315404E+03  0.13270725494E+03 -0.20920493655E+02  0.19246131610E+03  0.10100000352E+00 0.  1.
</event>
<event>
 5   0  0.1967813E-02  0.5018474E+03  0.7818609E-02  0.1013298E+00
       -2   -1    0    0    0  501  0.00000000000E+00  0.00000000000E+00  0.43011951085E+02  0.43011951161E+02  0.25500000920E-02 0. -1.
        2   -1    0    0  501    0  0.00000000000E+00  0.00000000000E+00 -0.14638420231E+04  0.14638420231E+04  0.25500000920E-02 0.  1.
    10030    2    1    2    0    0  0.00000000000E+00  0.00000000000E+00 -0.14208300720E+04  0.15068539742E+04  0.50184739335E+03 0.  0.
        5    1    3    3  502    0 -0.16973928732E+03 -0.16795605560E+03 -0.94143977491E+03  0.97126289029E+03  0.46999998093E+01 0. -1.
       -5    1    3    3    0  502  0.16973928732E+03  0.16795605560E+03 -0.47939029708E+03  0.53559108395E+03  0.46999998093E+01 0.  1.
</event>
<event>
 5   0  0.1227864E-02  0.4996702E+03  0.7818609E-02  0.1013865E+00
       -1   -1    0    0    0  501  0.00000000000E+00  0.00000000000E+00  0.90413970914E+02  0.90413971055E+02  0.50400001928E-02 0.  1.
        1   -1    0    0  501    0  0.00000000000E+00  0.00000000000E+00 -0.69035332882E+03  0.69035332884E+03  0.50400001928E-02 0. -1.
    10030    2    1    2    0    0  0.00000000000E+00  0.00000000000E+00 -0.59993935790E+03  0.78076729989E+03  0.49967023467E+03 0.  0.
        5    1    3    3  502    0 -0.11436453438E+03 -0.65407338029E+02 -0.63158020543E+03  0.64519222909E+03  0.46999998093E+01 0. -1.
       -5    1    3    3    0  502  0.11436453438E+03  0.65407338029E+02  0.31640847526E+02  0.13557507080E+03  0.46999998093E+01 0.  1.
</event>
<event>
 5   0  0.1967813E-02  0.5000376E+03  0.7818609E-02  0.1013769E+00
        2   -1    0    0  501    0  0.00000000000E+00  0.00000000000E+00  0.43926072630E+03  0.43926072631E+03  0.25500000920E-02 0. -1.
       -2   -1    0    0    0  501  0.00000000000E+00  0.00000000000E+00 -0.14230591233E+03  0.14230591236E+03  0.25500000920E-02 0.  1.
    10030    2    1    2    0    0  0.00000000000E+00  0.00000000000E+00  0.29695481397E+03  0.58156663866E+03  0.50003759225E+03 0.  0.
        5    1    3    3  502    0 -0.20774150558E+03  0.13693548065E+03  0.17647396209E+03  0.30507869197E+03  0.46999998093E+01 0.  1.
       -5    1    3    3    0  502  0.20774150558E+03 -0.13693548065E+03  0.12048085188E+03  0.27648794669E+03  0.46999998093E+01 0. -1.
</event>
<event>
 5   0  0.1855407E-02  0.5002482E+03  0.7818609E-02  0.1013714E+00
       -2   -1    0    0    0  501  0.00000000000E+00  0.00000000000E+00  0.24500113672E+03  0.24500113673E+03  0.25500000920E-02 0.  1.
        2   -1    0    0  501    0  0.00000000000E+00  0.00000000000E+00 -0.25535419281E+03  0.25535419282E+03  0.25500000920E-02 0. -1.
    10030    2    1    2    0    0  0.00000000000E+00  0.00000000000E+00 -0.10353056092E+02  0.50035532956E+03  0.50024820844E+03 0.  0.
        1    1    3    3  502    0 -0.17999370166E+03 -0.13159285283E+03 -0.11854830060E+03  0.25252348634E+03  0.50400001928E-02 0. -1.
       -1    1    3    3    0  502  0.17999370166E+03  0.13159285283E+03  0.10819524451E+03  0.24783184322E+03  0.50400001928E-02 0.  1.
</event>
<event>
 5   0  0.1941387E-02  0.4996083E+03  0.7818609E-02  0.1013881E+00
       -2   -1    0    0    0  501  0.00000000000E+00  0.00000000000E+00  0.96661218502E+02  0.96661218535E+02  0.25500000920E-02 0.  1.
        2   -1    0    0  501    0  0.00000000000E+00  0.00000000000E+00 -0.64557554198E+03  0.64557554199E+03  0.25500000920E-02 0. -1.
    10030    2    1    2    0    0  0.00000000000E+00  0.00000000000E+00 -0.54891432348E+03  0.74223676052E+03  0.49960832074E+03 0.  0.
        4    1    3    3  502    0 -0.61926734301E+02 -0.17369086304E+03 -0.52480829273E+03  0.55626324105E+03  0.12699999809E+01 0. -1.
       -4    1    3    3    0  502  0.61926734301E+02  0.17369086304E+03 -0.24106030749E+02  0.18597351947E+03  0.12699999809E+01 0.  1.
</event>
<event>
 5   0  0.1225989E-02  0.4996936E+03  0.7818609E-02  0.1013859E+00
       -1   -1    0    0    0  501  0.00000000000E+00  0.00000000000E+00  0.90538432265E+02  0.90538432405E+02  0.50400001928E-02 0. -1.
        1   -1    0    0  501    0  0.00000000000E+00  0.00000000000E+00 -0.68946870337E+03  0.68946870339E+03  0.50400001928E-02 0.  1.
    10030    2    1    2    0    0  0.00000000000E+00  0.00000000000E+00 -0.59893027110E+03  0.78000713579E+03  0.49969356834E+03 0.  0.
        3    1    3    3  502    0  0.85567419584E+02  0.21429164876E+03 -0.14989909994E+03  0.27515894386E+03  0.10100000352E+00 0. -1.
       -3    1    3    3    0  502 -0.85567419584E+02 -0.21429164876E+03 -0.44903117116E+03  0.50484819193E+03  0.10100000352E+00 0.  1.
</event>
<event>
 5   0  0.1209831E-02  0.4993088E+03  0.7818609E-02  0.1013959E+00
        1   -1    0    0  501    0  0.00000000000E+00  0.00000000000E+00  0.11001752827E+04  0.11001752828E+04  0.50400001928E-02 0. -1.
       -1   -1    0    0    0  501  0.00000000000E+00  0.00000000000E+00 -0.56652165338E+02  0.56652165562E+02  0.50400001928E-02 0.  1.
    10030    2    1    2    0    0  0.00000000000E+00  0.00000000000E+00  0.10435231174E+04  0.11568274483E+04  0.49930877082E+03 0.  0.
        4    1    3    3  502    0  0.42076458192E+02  0.18321651360E+03  0.90236835055E+03  0.92174235671E+03  0.12699999809E+01 0. -1.
       -4    1    3    3    0  502 -0.42076458192E+02 -0.18321651360E+03  0.14115476687E+03  0.23508509161E+03  0.12699999809E+01 0.  1.
</event>
<event>
 5   0  0.1855407E-02  0.5014145E+03  0.7818609E-02  0.1013410E+00
       -2   -1    0    0    0  501  0.00000000000E+00  0.00000000000E+00  0.57173110164E+02  0.57173110221E+02  0.25500000920E-02 0.  1.
        2   -1    0    0  501    0  0.00000000000E+00  0.00000000000E+00 -0.10993649471E+04  0.10993649471E+04  0.25500000920E-02 0. -1.
    10030    2    1    2    0    0  0.00000000000E+00  0.00000000000E+00 -0.10421918370E+04  0.11565380574E+04  0.50141445239E+03 0.  0.
        1    1    3    3  502    0  0.14531400150E+02  0.24497180935E+03 -0.40276817718E+03  0.47164027981E+03  0.50400001928E-02 0. -1.
       -1    1    3    3    0  502 -0.14531400150E+02 -0.24497180935E+03 -0.63942365979E+03  0.68489777755E+03  0.50400001928E-02 0.  1.
</event>
<event>
 5   0  0.1209831E-02  0.5032036E+03  0.7818609E-02  0.1012946E+00
       -1   -1    0    0    0  501  0.00000000000E+00  0.00000000000E+00  0.16832016078E+03  0.16832016086E+03  0.50400001928E-02 0.  1.
        1   -1    0    0  501    0  0.00000000000E+00  0.00000000000E+00 -0.37608962454E+03  0.37608962457E+03  0.50400001928E-02 0. -1.
    10030    2    1    2    0    0  0.00000000000E+00  0.00000000000E+00 -0.20776946376E+03  0.54440978543E+03  0.50320360134E+03 0.  0.
        4    1    3    3  502    0 -0.17258409646E+03 -0.81067454725E+02  0.73705249052E+02  0.20442915448E+03  0.12699999809E+01 0.  1.
       -4    1    3    3    0  502  0.17258409646E+03  0.81067454725E+02 -0.28147471281E+03  0.33998063094E+03  0.12699999809E+01 0. -1.
</event>
<event>
 5   0  0.1941387E-02  0.4998066E+03  0.7818609E-02  0.1013829E+00
        2   -1    0    0  501    0  0.00000000000E+00  0.00000000000E+00  0.77066460038E+03  0.77066460039E+03  0.25500000920E-02 0.  1.
       -2   -1    0    0    0  501  0.00000000000E+00  0.00000000000E+00 -0.81036109867E+02  0.81036109907E+02  0.25500000920E-02 0. -1.
    10030    2    1    2    0    0  0.00000000000E+00  0.00000000000E+00  0.68962849052E+03  0.85170071029E+03  0.49980660758E+03 0.  0.
        4    1    3    3  502    0 -0.19502540927E+03  0.15009001498E+03  0.27076844289E+03  0.36589491035E+03  0.12699999809E+01 0. -1.
       -4    1    3    3    0  502  0.19502540927E+03 -0.15009001498E+03  0.41886004763E+03  0.48580579994E+03  0.12699999809E+01 0.  1.
</event>
<event>
 5   0  0.1923706E-02  0.5021230E+03  0.7818609E-02  0.1013226E+00
        2   -1    0    0  501    0  0.00000000000E+00  0.00000000000E+00  0.28897284631E+03  0.28897284632E+03  0.25500000920E-02 0.  1.
       -2   -1    0    0    0  501  0.00000000000E+00  0.00000000000E+00 -0.21812390842E+03  0.21812390844E+03  0.25500000920E-02 0. -1.
    10030    2    1    2    0    0  0.00000000000E+00  0.00000000000E+00  0.70848937882E+02  0.50709675476E+03  0.50212303939E+03 0.  0.
        3    1    3    3  502    0  0.99028395501E+02  0.42834528378E+02  0.26436459634E+03  0.28553470881E+03  0.10100000352E+00 0.  1.
       -3    1    3    3    0  502 -0.99028395501E+02 -0.42834528378E+02 -0.19351565846E+03  0.22156204595E+03  0.10100000352E+00 0. -1.
</event>
<event>
 5   0  0.1967813E-02  0.4992306E+03  0.7818609E-02  0.1013980E+00
       -2   -1    0    0    0  501  0.00000000000E+00  0.00000000000E+00  0.80171150304E+02  0.80171150345E+02  0.25500000920E-02 0.  1.
        2   -1    0    0  501    0  0.00000000000E+00  0.00000000000E+00 -0.77718471161E+03  0.77718471161E+03  0.25500000920E-02 0. -1.
    10030    2    1    2    0    0  0.00000000000E+00  0.00000000000E+00 -0.69701356130E+03  0.85735586196E+03  0.49923057738E+03 0.  0.
        5    1    3    3  502    0 -0.14261472436E+03  0.19378763517E+03 -0.23467979073E+03  0.33613881258E+03  0.46999998093E+01 0.  1.
       -5    1    3    3    0  502  0.14261472436E+03 -0.19378763517E+03 -0.46233377057E+03  0.52121704938E+03  0.46999998093E+01 0. -1.
</event>
<event>
 5   0  0.1217270E-02  0.5042309E+03  0.7818609E-02  0.1012680E+00
       -1   -1    0    0    0  501  0.00000000000E+00  0.00000000000E+00  0.12005183724E+03  0.12005183735E+03  0.50400001928E-02 0. -1.
        1   -1    0    0  501    0  0.00000000000E+00  0.00000000000E+00 -0.52945626715E+03  0.52945626717E+03  0.50400001928E-02 0.  1.
    10030    2    1    2    0    0  0.00000000000E+00  0.00000000000E+00 -0.40940442991E+03  0.64950810452E+03  0.50423089017E+03 0.  0.
        2    1    3    3  502    0  0.11755985313E+03  0.35592426727E+02 -0.48830748328E+03  0.50351895510E+03  0.25500000920E-02 0.  1.
       -2    1    3    3    0  502 -0.11755985313E+03 -0.35592426727E+02  0.78903053375E+02  0.14598914942E+03  0.25500000920E-02 0. -1.
</event>
<event>
 5   0  0.1217270E-02  0.5013003E+03  0.7818609E-02  0.1013440E+00
       -1   -1    0    0    0  501  0.00000000000E+00  0.00000000000E+00  0.28213392876E+03  0.28213392880E+03  0.50400001928E-02 0.  1.
        1   -1    0    0  501    0  0.00000000000E+00  0.00000000000E+00 -0.22267973945E+03  0.22267973951E+03  0.50400001928E-02 0. -1.
    10030    2    1    2    0    0  0.00000000000E+00  0.00000000000E+00  0.59454189308E+02  0.50481366831E+03  0.50130034818E+03 0.  0.
        2    1    3    3  502    0  0.13932777692E+03  0.14898898597E+03 -0.11694934972E+03  0.23513208579E+03  0.25500000920E-02 0. -1.
       -2    1    3    3    0  502 -0.13932777692E+03 -0.14898898597E+03  0.17640353903E+03  0.26968158252E+03  0.25500000920E-02 0.  1.
</event>
<event>
 5   0  0.1227864E-02  0.5003949E+03  0.7818609E-02  0.1013676E+00
       -1   -1    0    0    0  501  0.00000000000E+00  0.00000000000E+00  0.77934924802E+03  0.77934924804E+03  0.50400001928E-02 0. -1.
        1   -1    0    0  501    0  0.00000000000E+00  0.00000000000E+00 -0.80321847301E+02  0.80321847459E+02  0.50400001928E-02 0.  1.
    10030    2    1    2    0    0  0.00000000000E+00  0.00000000000E+00  0.69902740072E+03  0.85967109550E+03  0.50039492951E+03 0.  0.
        5    1    3    3  502    0 -0.20718808820E+02  0.20674919356E+03  0.58881481747E+03  0.62441931212E+03  0.46999998093E+01 0. -1.
       -5    1    3    3    0  502  0.20718808820E+02 -0.20674919356E+03  0.11021258325E+03  0.23525178338E+03  0.46999998093E+01 0.  1.
</event>
<event>
 5   0  0.1180937E-02  0.5028770E+03  0.7818609E-02  0.1013031E+00
       -1   -1    0    0    0  501  0.00000000000E+00  0.00000000000E+00  0.99042765243E+02  0.99042765372E+02  0.50400001928E-02 0.  1.
        1   -1    0    0  501    0  0.00000000000E+00  0.00000000000E+00 -0.63832342180E+03  0.63832342182E+03  0.50400001928E-02 0. -1.
    10030    2    1    2    0    0  0.00000000000E+00  0.00000000000E+00 -0.53928065656E+03  0.73736618719E+03  0.50287699040E+03 0.  0.
        1    1    3    3  502    0  0.10024686031E+03 -0.20723520894E+03 -0.41791354573E+03  0.47712429886E+03  0.50400001928E-02 0.  1.
       -1    1    3    3    0  502 -0.10024686031E+03  0.20723520894E+03 -0.12136711083E+03  0.26024188833E+03  0.50400001928E-02 0. -1.
</event>
<event>
 5   0  0.1967813E-02  0.5021191E+03  0.7818609E-02  0.1013227E+00
        2   -1    0    0  501    0  0.00000000000E+00  0.00000000000E+00  0.44968204525E+03  0.44968204526E+03  0.25500000920E-02 0. -1.
       -2   -1    0    0    0  501  0.00000000000E+00  0.00000000000E+00 -0.14016772079E+03  0.14016772081E+03  0.25500000920E-02 0.  1.
    10030    2    1    2    0    0  0.00000000000E+00  0.00000000000E+00  0.30951432446E+03  0.58984976607E+03  0.50211913874E+03 0.  0.
        5    1    3    3  502    0 -0.22749830211E+03 -0.10459557678E+03  0.17554358685E+03  0.30583223020E+03  0.46999998093E+01 0.  1.
       -5    1    3    3    0  502  0.22749830211E+03  0.10459557678E+03  0.13397073761E+03  0.28401753587E+03  0.46999998093E+01 0. -1.
</event>
<event>
 5   0  0.1941387E-02  0.5055164E+03  0.7818609E-02  0.1012349E+00
        2   -1    0    0  501    0  0.00000000000E+00  0.00000000000E+00  0.37053840368E+03  0.37053840369E+03  0.25500000920E-02 0. -1.
       -2   -1    0    0    0  501  0.00000000000E+00  0.00000000000E+00 -0.17241591035E+03  0.17241591037E+03  0.25500000920E-02 0.  1.
    10030    2    1    2    0    0  0.00000000000E+00  0.00000000000E+00  0.19812249333E+03  0.54295431406E+03  0.50551643375E+03 0.  0.
        4    1    3    3  502    0 -0.50338106665E+02  0.32971963939E+02 -0.16460654840E+03  0.17526552446E+03  0.12699999809E+01 0.  1.
       -4    1    3    3    0  502  0.50338106665E+02 -0.32971963939E+02  0.36272904172E+03  0.36768878960E+03  0.12699999809E+01 0. -1.
</event>
<event>
 5   0  0.1855407E-02  0.5007287E+03  0.7818609E-02  0.1013589E+00
       -2   -1    0    0    0  501  0.00000000000E+00  0.00000000000E+00  0.16898514189E+03  0.16898514191E+03  0.25500000920E-02 0.  1.
        2   -1    0    0  501    0  0.00000000000E+00  0.00000000000E+00 -0.37093384477E+03  0.37093384478E+03  0.25500000920E-02 0. -1.
    10030    2    1    2    0    0  0.00000000000E+00  0.00000000000E+00 -0.20194870288E+03  0.53991898668E+03  0.50072870258E+03 0.  0.
        1    1    3    3  502    0  0.40228474712E+02 -0.20807388017E+03  0.42759983150E+02  0.21619779363E+03  0.50400001928E-02 0.  1.
       -1    1    3    3    0  502 -0.40228474712E+02  0.20807388017E+03 -0.24470868603E+03  0.32372119305E+03  0.50400001928E-02 0. -1.
</event>
<event>
 5   0  0.1855407E-02  0.4993847E+03  0.7818609E-02  0.1013940E+00
        2   -1    0    0  501    0  0.00000000000E+00  0.00000000000E+00  0.93728422531E+03  0.93728422532E+03  0.25500000920E-02 0.  1.
       -2   -1    0    0    0  501  0.00000000000E+00  0.00000000000E+00 -0.66517996252E+02  0.66517996301E+02  0.25500000920E-02 0. -1.
    10030    2    1    2    0    0  0.00000000000E+00  0.00000000000E+00  0.87076622906E+03  0.10038022216E+04  0.49938469585E+03 0.  0.
        1    1    3    3  502    0  0.10668563996E+03 -0.81907055264E+02  0.85824390628E+03  0.86871928387E+03  0.50400001928E-02 0.  1.
       -1    1    3    3    0  502 -0.10668563996E+03  0.81907055264E+02  0.12522322778E+02  0.13508293774E+03  0.50400001928E-02 0. -1.
</event>
<event>
 5   0  0.1217270E-02  0.5005739E+03  0.7818609E-02  0.1013629E+00
       -1   -1    0    0    0  501  0.00000000000E+00  0.00000000000E+00  0.11581557057E+03  0.11581557068E+03  0.50400001928E-02 0. -1.
        1   -1    0    0  501    0  0.00000000000E+00  0.00000000000E+00 -0.54089072910E+03  0.54089072912E+03  0.50400001928E-02 0.  1.
    10030    2    1    2    0    0  0.00000000000E+00  0.00000000000E+00 -0.42507515852E+03  0.65670629980E+03  0.50057394440E+03 0.  0.
        2    1    3    3  502    0  0.87112490313E+02  0.12937755391E+03 -0.46933784411E+03  0.49457572661E+03  0.25500000920E-02 0.  1.
       -2    1    3    3    0  502 -0.87112490313E+02 -0.12937755391E+03  0.44262685590E+02  0.16213057320E+03  0.25500000920E-02 0. -1.
</event>
<event>
 5   0  0.1227864E-02  0.5000055E+03  0.7818609E-02  0.1013777E+00
       -1   -1    0    0    0  501  0.00000000000E+00  0.00000000000E+00  0.32069107359E+03  0.32069107363E+03  0.50400001928E-02 0.  1.
        1   -1    0    0  501    0  0.00000000000E+00  0.00000000000E+00 -0.19489592810E+03  0.19489592817E+03  0.50400001928E-02 0. -1.
    10030    2    1    2    0    0  0.00000000000E+00  0.00000000000E+00  0.12579514549E+03  0.51558700180E+03  0.50000553777E+03 0.  0.
        5    1    3    3  502    0 -0.16176453540E+03  0.55543666515E+02  0.25085911097E+03  0.30365316952E+03  0.46999998093E+01 0.  1.
       -5    1    3    3    0  502  0.16176453540E+03 -0.55543666515E+02 -0.12506396549E+03  0.21193383228E+03  0.46999998093E+01 0. -1.
</event>
<event>
 5   0  0.1967813E-02  0.4996695E+03  0.7818609E-02  0.1013865E+00
       -2   -1    0    0    0  501  0.00000000000E+00  0.00000000000E+00  0.95763549014E+02  0.95763549048E+02  0.25500000920E-02 0. -1.
        2   -1    0    0  501    0  0.00000000000E+00  0.00000000000E+00 -0.65178671915E+03  0.65178671915E+03  0.25500000920E-02 0.  1.
    10030    2    1    2    0    0  0.00000000000E+00  0.00000000000E+00 -0.55602317013E+03  0.74755026820E+03  0.49966952855E+03 0.  0.
        5    1    3    3  502    0 -0.18411746127E+03  0.14772404918E+03 -0.15579211559E+03  0.28286906428E+03  0.46999998093E+01 0.  1.
       -5    1    3    3    0  502  0.18411746127E+03 -0.14772404918E+03 -0.40023105454E+03  0.46468120391E+03  0.46999998093E+01 0. -1.
</event>
<event>
 5   0  0.1217270E-02  0.5001506E+03  0.7818609E-02  0.1013740E+00
        1   -1    0    0  501    0  0.00000000000E+00  0.00000000000E+00  0.44271873641E+03  0.44271873644E+03  0.50400001928E-02 0. -1.
       -1   -1    0    0    0  501  0.00000000000E+00  0.00000000000E+00 -0.14125820955E+03  0.14125820964E+03  0.50400001928E-02 0.  1.
    10030    2    1    2    0    0  0.00000000000E+00  0.00000000000E+00  0.30146052686E+03  0.58397694608E+03  0.50015060162E+03 0.  0.
        2    1    3    3  502    0 -0.37055988992E+02 -0.17762497856E+02 -0.13728907066E+03  0.14330715816E+03  0.25500000920E-02 0.  1.
       -2    1    3    3    0  502  0.37055988992E+02  0.17762497856E+02  0.43874959752E+03  0.44066978792E+03  0.25500000920E-02 0. -1.
</event>
<event>
 5   0  0.1982847E-02  0.5000286E+03  0.7818609E-02  0.1013771E+00
       -2   -1    0    0    0  501  0.00000000000E+00  0.00000000000E+00  0.31503631468E+02  0.31503631571E+02  0.25500000920E-02 0.  1.
        2   -1    0    0  501    0  0.00000000000E+00  0.00000000000E+00 -0.19841256180E+04  0.19841256180E+04  0.25500000920E-02 0. -1.
    10030    2    1    2    0    0  0.00000000000E+00  0.00000000000E+00 -0.19526219865E+04  0.20156292495E+04  0.50002864862E+03 0.  0.
        2    1    3    3  502    0 -0.12556919592E+03 -0.12936661450E+03 -0.27807211180E+03  0.33140223789E+03  0.25500000920E-02 0.  1.
       -2    1    3    3    0  502  0.12556919592E+03  0.12936661450E+03 -0.16745498747E+04  0.16842270117E+04  0.25500000920E-02 0. -1.
</event>
<event>
 5   0  0.1180937E-02  0.4996458E+03  0.7818609E-02  0.1013871E+00
       -1   -1    0    0    0  501  0.00000000000E+00  0.00000000000E+00  0.32025796033E+02  0.32025796429E+02  0.50400001928E-02 0. -1.
        1   -1    0    0  501    0  0.00000000000E+00  0.00000000000E+00 -0.19487877439E+04  0.19487877439E+04  0.50400001928E-02 0.  1.
    10030    2    1    2    0    0  0.00000000000E+00  0.00000000000E+00 -0.19167619479E+04  0.19808135404E+04  0.49964579133E+03 0.  0.
        1    1    3    3  502    0  0.18186651715E+03  0.59092949820E+02 -0.32105467914E+03  0.37368906032E+03  0.50400001928E-02 0. -1.
       -1    1    3    3    0  502 -0.18186651715E+03 -0.59092949820E+02 -0.15957072688E+04  0.16071244800E+04  0.50400001928E-02 0.  1.
</event>
<event>
 5   0  0.1923706E-02  0.5001347E+03  0.7818609E-02  0.1013744E+00
        2   -1    0    0  501    0  0.00000000000E+00  0.00000000000E+00  0.23731694532E+03  0.23731694534E+03  0.25500000920E-02 0.  1.
       -2   -1    0    0    0  501  0.00000000000E+00  0.00000000000E+00 -0.26350282672E+03  0.26350282674E+03  0.25500000920E-02 0. -1.
    10030    2    1    2    0    0  0.00000000000E+00  0.00000000000E+00 -0.26185881399E+02  0.50081977207E+03  0.50013472556E+03 0.  0.
        3    1    3    3  502    0  0.64504456693E+02 -0.13043709274E+03  0.19055477987E+03  0.23976195368E+03  0.10100000352E+00 0.  1.
       -3    1    3    3    0  502 -0.64504456693E+02  0.13043709274E+03 -0.21674066127E+03  0.26105781840E+03  0.10100000352E+00 0. -1.
</event>
<event>
 5   0  0.1967813E-02  0.4994202E+03  0.7818609E-02  0.1013930E+00
        2   -1    0    0  501    0  0.00000000000E+00  0.00000000000E+00  0.14486504955E+04  0.14486504955E+04  0.25500000920E-02 0.  1.
       -2   -1    0    0    0  501  0.00000000000E+00  0.00000000000E+00 -0.43043607161E+02  0.43043607236E+02  0.25500000920E-02 0. -1.
    10030    2    1    2    0    0  0.00000000000E+00  0.00000000000E+00  0.14056068883E+04  0.14916941027E+04  0.49942023547E+03 0.  0.
        5    1    3    3  502    0 -0.47770001938E+02  0.17960118694E+03  0.12007617946E+04  0.12150677087E+04  0.46999998093E+01 0.  1.
       -5    1    3    3    0  502  0.47770001938E+02 -0.17960118694E+03  0.20484509376E+03  0.27662639402E+03  0.46999998093E+01 0. -1.
</event>
<event>
 5   0  0.1180937E-02  0.5001621E+03  0.7818609E-02  0.1013737E+00
        1   -1    0    0  501    0  0.00000000000E+00  0.00000000000E+00  0.66497393828E+03  0.66497393830E+03  0.50400001928E-02 0. -1.
       -1   -1    0    0    0  501  0.00000000000E+00  0.00000000000E+00 -0.94049589149E+02  0.94049589284E+02  0.50400001928E-02 0.  1.
    10030    2    1    2    0    0  0.00000000000E+00  0.00000000000E+00  0.57092434913E+03  0.75902352758E+03  0.50016207673E+03 0.  0.
        1    1    3    3  502    0  0.18399314580E+03  0.11080544426E+03  0.47985856785E+03  0.52573336336E+03  0.50400001928E-02 0. -1.
       -1    1    3    3    0  502 -0.18399314580E+03 -0.11080544426E+03  0.91065781279E+02  0.23329016423E+03  0.50400001928E-02 0.  1.
</event>
<event>
 5   0  0.1209831E-02  0.5000049E+03  0.7818609E-02  0.1013778E+00
       -1   -1    0    0    0  501  0.00000000000E+00  0.00000000000E+00  0.18049019281E+03  0.18049019288E+03  0.50400001928E-02 0.  1.
        1   -1    0    0  501    0  0.00000000000E+00  0.00000000000E+00 -0.34628602830E+03  0.34628602834E+03  0.50400001928E-02 0. -1.
    10030    2    1    2    0    0  0.00000000000E+00  0.00000000000E+00 -0.16579583549E+03  0.52677622122E+03  0.50000492815E+03 0.  0.
        4    1    3    3  502    0  0.64285352088E+02 -0.34864692269E+02 -0.33476160948E+03  0.34265887022E+03  0.12699999809E+01 0. -1.
       -4    1    3    3    0  502 -0.64285352088E+02  0.34864692269E+02  0.16896577399E+03  0.18411735100E+03  0.12699999809E+01 0.  1.
</event>
<event>
 5   0  0.1227864E-02  0.5001425E+03  0.7818609E-02  0.1013742E+00
        1   -1    0    0  501    0  0.00000000000E+00  0.00000000000E+00  0.48226080193E+03  0.48226080196E+03  0.50400001928E-02 0.  1.
       -1   -1    0    0    0  501  0.00000000000E+00  0.00000000000E+00 -0.12967179842E+03  0.12967179852E+03  0.50400001928E-02 0. -1.
    10030    2    1    2    0    0  0.00000000000E+00  0.00000000000E+00  0.35258900351E+03  0.61193260048E+03  0.50014248183E+03 0.  0.
        5    1    3    3  502    0 -0.11790573089E+03  0.17782693690E+03  0.33577158618E+03  0.39785528643E+03  0.46999998093E+01 0.  1.
       -5    1    3    3    0  502  0.11790573089E+03 -0.17782693690E+03  0.16817417334E+02  0.21407731404E+03  0.46999998093E+01 0. -1.
</event>
<event>
 5   0  0.1227864E-02  0.4998135E+03  0.7818609E-02  0.1013828E+00
       -1   -1    0    0    0  501  0.00000000000E+00  0.00000000000E+00  0.35040510100E+03  0.35040510104E+03  0.50400001928E-02 0.  1.
        1   -1    0    0  501    0  0.00000000000E+00  0.00000000000E+00 -0.17823193027E+03  0.17823193034E+03  0.50400001928E-02 0. -1.
    10030    2    1    2    0    0  0.00000000000E+00  0.00000000000E+00  0.17217317073E+03  0.52863703137E+03  0.49981347543E+03 0.  0.
        5    1    3    3  502    0 -0.45541717868E+02 -0.15706106382E+03 -0.11372339942E+03  0.19924188166E+03  0.46999998093E+01 0. -1.
       -5    1    3    3    0  502  0.45541717868E+02  0.15706106382E+03  0.28589657015E+03  0.32939514972E+03  0.46999998093E+01 0.  1.
</event>
<event>
 5   0  0.1967813E-02  0.4993226E+03  0.7818609E-02  0.1013956E+00
       -2   -1    0    0    0  501  0.00000000000E+00  0.00000000000E+00  0.24615435912E+02  0.24615436044E+02  0.25500000920E-02 0. -1.
        2   -1    0    0  501    0  0.00000000000E+00  0.00000000000E+00 -0.25321818753E+04  0.25321818753E+04  0.25500000920E-02 0.  1.
    10030    2    1    2    0    0  0.00000000000E+00  0.00000000000E+00 -0.25075664393E+04  0.25567973113E+04  0.49932258446E+03 0.  0.
        5    1    3    3  502    0 -0.99731419498E+02 -0.16060015249E+03 -0.20884441763E+04  0.20969883005E+04  0.46999998093E+01 0.  1.
       -5    1    3    3    0  502  0.99731419498E+02  0.16060015249E+03 -0.41912226305E+03  0.45980901079E+03  0.46999998093E+01 0. -1.
</event>
<event>
 5   0  0.1967813E-02  0.5000506E+03  0.7818609E-02  0.1013766E+00
        2   -1    0    0  501    0  0.00000000000E+00  0.00000000000E+00  0.42488614307E+03  0.42488614308E+03  0.25500000920E-02 0. -1.
       -2   -1    0    0    0  501  0.00000000000E+00  0.00000000000E+00 -0.14712802595E+03  0.14712802597E+03  0.25500000920E-02 0.  1.
    10030    2    1    2    0    0  0.00000000000E+00  0.00000000000E+00  0.27775811712E+03  0.57201416905E+03  0.50005063540E+03 0.  0.
        5    1    3    3  502    0  0.99789031836E+02  0.10245438889E+03  0.37341129696E+03  0.39989103438E+03  0.46999998093E+01 0. -1.
       -5    1    3    3    0  502 -0.99789031836E+02 -0.10245438889E+03 -0.95653179840E+02  0.17212313467E+03  0.46999998093E+01 0.  1.
</event>
<event>
 5   0  0.1923706E-02  0.5002041E+03  0.7818609E-02  0.1013726E+00
        2   -1    0    0  501    0  0.00000000000E+00  0.00000000000E+00  0.37950045778E+03  0.37950045779E+03  0.25500000920E-02 0.  1.
       -2   -1    0    0    0  501  0.00000000000E+00  0.00000000000E+00 -0.16482468597E+03  0.16482468599E+03  0.25500000920E-02 0. -1.
    10030    2    1    2    0    0  0.00000000000E+00  0.00000000000E+00  0.21467577181E+03  0.54432514378E+03  0.50020413348E+03 0.  0.
        3    1    3    3  502    0 -0.22611583682E+03 -0.10592915488E+03  0.91883978546E+02  0.26606772302E+03  0.10100000352E+00 0.  1.
       -3    1    3    3    0  502  0.22611583682E+03  0.10592915488E+03  0.12279179327E+03  0.27825742077E+03  0.10100000352E+00 0. -1.
</event>
<event>
 5   0  0.1967813E-02  0.4945604E+03  0.7818609E-02  0.1015209E+00
       -2   -1    0    0    0  501  0.00000000000E+00  0.00000000000E+00  0.49444504756E+03  0.49444504756E+03  0.25500000920E-02 0.  1.
        2   -1    0    0  501    0  0.00000000000E+00  0.00000000000E+00 -0.12366893117E+03  0.12366893120E+03  0.25500000920E-02 0. -1.
    10030    2    1    2    0    0  0.00000000000E+00  0.00000000000E+00  0.37077611639E+03  0.61811397876E+03  0.49456037272E+03 0.  0.
        5    1    3    3  502    0 -0.24409988221E+03 -0.12749032976E+02  0.23178520012E+03  0.33688834846E+03  0.46999998093E+01 0.  1.
       -5    1    3    3    0  502  0.24409988221E+03  0.12749032976E+02  0.13899091626E+03  0.28122563030E+03  0.46999998093E+01 0. -1.
</event>
<event>
 5   0  0.1217270E-02  0.4991093E+03  0.7818609E-02  0.1014012E+00
        1   -1    0    0  501    0  0.00000000000E+00  0.00000000000E+00  0.14373500677E+03  0.14373500686E+03  0.50400001928E-02 0.  1.
       -1   -1    0    0    0  501  0.00000000000E+00  0.00000000000E+00 -0.43328021562E+03  0.43328021565E+03  0.50400001928E-02 0. -1.
    10030    2    1    2    0    0  0.00000000000E+00  0.00000000000E+00 -0.28954520885E+03  0.57701522251E+03  0.49910934577E+03 0.  0.
        2    1    3    3  502    0 -0.14449866271E+03 -0.14718168300E+03  0.17637330451E+02  0.20701059579E+03  0.25500000920E-02 0.  1.
       -2    1    3    3    0  502  0.14449866271E+03  0.14718168300E+03 -0.30718253930E+03  0.37000462672E+03  0.25500000920E-02 0. -1.
</event>
<event>
 5   0  0.1923706E-02  0.4995714E+03  0.7818609E-02  0.1013891E+00
       -2   -1    0    0    0  501  0.00000000000E+00  0.00000000000E+00  0.47886099808E+03  0.47886099809E+03  0.25500000920E-02 0.  1.
        2   -1    0    0  501    0  0.00000000000E+00  0.00000000000E+00 -0.13029436537E+03  0.13029436539E+03  0.25500000920E-02 0. -1.
    10030    2    1    2    0    0  0.00000000000E+00  0.00000000000E+00  0.34856663271E+03  0.60915536348E+03  0.49957137570E+03 0.  0.
        3    1    3    3  502    0  0.19996222468E+03 -0.10047861975E+02 -0.78340621932E+01  0.20036774581E+03  0.10100000352E+00 0. -1.
       -3    1    3    3    0  502 -0.19996222468E+03  0.10047861975E+02  0.35640069491E+03  0.40878761767E+03  0.10100000352E+00 0.  1.
</event>
<event>
 5   0  0.1941387E-02  0.5001653E+03  0.7818609E-02  0.1013736E+00
       -2   -1    0    0    0  501  0.00000000000E+00  0.00000000000E+00  0.10624974078E+03  0.10624974081E+03  0.25500000920E-02 0. -1.
        2   -1    0    0  501    0  0.00000000000E+00  0.00000000000E+00 -0.58862565577E+03  0.58862565578E+03  0.25500000920E-02 0.  1.
    10030    2    1    2    0    0  0.00000000000E+00  0.00000000000E+00 -0.48237591499E+03  0.69487539659E+03  0.50016526610E+03 0.  0.
        4    1    3    3  502    0 -0.60052479943E+02  0.14156413720E+03  0.32798537497E+02  0.15723887003E+03  0.12699999809E+01 0. -1.
       -4    1    3    3    0  502  0.60052479943E+02 -0.14156413720E+03 -0.51517445249E+03  0.53763652655E+03  0.12699999809E+01 0.  1.
</event>
<event>
 5   0  0.1923706E-02  0.5013034E+03  0.7818609E-02  0.1013439E+00
        2   -1    0    0  501    0  0.00000000000E+00  0.00000000000E+00  0.49771011675E+03  0.49771011676E+03  0.25500000920E-02 0.  1.
       -2   -1    0    0    0  501  0.00000000000E+00  0.00000000000E+00 -0.12623064114E+03  0.12623064117E+03  0.25500000920E-02 0. -1.
    10030    2    1    2    0    0  0.00000000000E+00  0.00000000000E+00  0.37147947561E+03  0.62394075793E+03  0.50130336983E+03 0.  0.
        3    1    3    3  502    0  0.19438786997E+03  0.87339996659E+02  0.21507350986E+02  0.21419032507E+03  0.10100000352E+00 0. -1.
       -3    1    3    3    0  502 -0.19438786997E+03 -0.87339996659E+02  0.34997212463E+03  0.40975043285E+03  0.10100000352E+00 0.  1.
</event>
<event>
 5   0  0.8012875E-03  0.4990003E+03  0.7818609E-02  0.1014040E+00
       -4   -1    0    0    0  501  0.00000000000E+00  0.00000000000E+00  0.14862193543E+03  0.14862736152E+03  0.12699999809E+01 0. -1.
        4   -1    0    0  501    0  0.00000000000E+00  0.00000000000E+00 -0.41883619854E+03  0.41883812399E+03  0.12699999809E+01 0.  1.
    10030    2    1    2    0    0  0.00000000000E+00  0.00000000000E+00 -0.27021426311E+03  0.56746548551E+03  0.49900032991E+03 0.  0.
        4    1    3    3  502    0  0.29548197027E+02  0.75966911953E+02 -0.40326724566E+03  0.41142453984E+03  0.12699999809E+01 0.  1.
       -4    1    3    3    0  502 -0.29548197027E+02 -0.75966911953E+02  0.13305298255E+03  0.15604094567E+03  0.12699999809E+01 0. -1.
</event>
<event>
 5   0  0.1982847E-02  0.4978769E+03  0.7818609E-02  0.1014335E+00
        2   -1    0    0  501    0  0.00000000000E+00  0.00000000000E+00  0.32016822629E+03  0.32016822630E+03  0.25500000920E-02 0. -1.
       -2   -1    0    0    0  501  0.00000000000E+00  0.00000000000E+00 -0.19355558233E+03  0.19355558235E+03  0.25500000920E-02 0.  1.
    10030    2    1    2    0    0  0.00000000000E+00  0.00000000000E+00  0.12661264396E+03  0.51372380865E+03  0.49787688234E+03 0.  0.
        2    1    3    3  502    0  0.41252750845E+01 -0.29428042088E+02  0.31833162263E+03  0.31971557598E+03  0.25500000920E-02 0. -1.
       -2    1    3    3    0  502 -0.41252750845E+01  0.29428042088E+02 -0.19171897867E+03  0.19400823267E+03  0.25500000920E-02 0.  1.
</event>
<event>
 5   0  0.1217270E-02  0.4987649E+03  0.7818609E-02  0.1014102E+00
       -1   -1    0    0    0  501  0.00000000000E+00  0.00000000000E+00  0.20777728784E+03  0.20777728790E+03  0.50400001928E-02 0.  1.
        1   -1    0    0  501    0  0.00000000000E+00  0.00000000000E+00 -0.29931858221E+03  0.29931858225E+03  0.50400001928E-02 0. -1.
    10030    2    1    2    0    0  0.00000000000E+00  0.00000000000E+00 -0.91541294369E+02  0.50709587016E+03  0.49876488745E+03 0.  0.
        2    1    3    3  502    0 -0.17415257926E+03 -0.13514780839E+03  0.72785634486E+02  0.23214607378E+03  0.25500000920E-02 0.  1.
       -2    1    3    3    0  502  0.17415257926E+03  0.13514780839E+03 -0.16432692886E+03  0.27494979638E+03  0.25500000920E-02 0. -1.
</event>
<event>
 5   0  0.1217270E-02  0.4993355E+03  0.7818609E-02  0.1013952E+00
        1   -1    0    0  501    0  0.00000000000E+00  0.00000000000E+00  0.14142043361E+03  0.14142043370E+03  0.50400001928E-02 0.  1.
       -1   -1    0    0    0  501  0.00000000000E+00  0.00000000000E+00 -0.44077078024E+03  0.44077078027E+03  0.50400001928E-02 0. -1.
    10030    2    1    2    0    0  0.00000000000E+00  0.00000000000E+00 -0.29935034663E+03  0.58219121397E+03  0.49933553809E+03 0.  0.
        2    1    3    3  502    0  0.20503736594E+02  0.67798281034E+02 -0.42881052282E+03  0.43462107014E+03  0.25500000920E-02 0. -1.
       -2    1    3    3    0  502 -0.20503736594E+02 -0.67798281034E+02  0.12946017619E+03  0.14757014383E+03  0.25500000920E-02 0.  1.
</event>
<event>
 5   0  0.8012875E-03  0.4993454E+03  0.7818609E-02  0.1013950E+00
       -3   -1    0    0    0  501  0.00000000000E+00  0.00000000000E+00  0.56611830921E+03  0.56611831822E+03  0.10100000352E+00 0. -1.
        3   -1    0    0  501    0  0.00000000000E+00  0.00000000000E+00 -0.11011202225E+03  0.11011206857E+03  0.10100000352E+00 0.  1.
    10030    2    1    2    0    0  0.00000000000E+00  0.00000000000E+00  0.45600628696E+03  0.67623038680E+03  0.49934537374E+03 0.  0.
        3    1    3    3  502    0 -0.75354119647E+02  0.21338499884E+03  0.37084136306E+03  0.43443610328E+03  0.10100000352E+00 0. -1.
       -3    1    3    3    0  502  0.75354119647E+02 -0.21338499884E+03  0.85164923901E+02  0.24179428351E+03  0.10100000352E+00 0.  1.
</event>
<event>
 5   0  0.1941387E-02  0.4865152E+03  0.7818609E-02  0.1017360E+00
        2   -1    0    0  501    0  0.00000000000E+00  0.00000000000E+00  0.11729379173E+04  0.11729379173E+04  0.25500000920E-02 0.  1.
       -2   -1    0    0    0  501  0.00000000000E+00  0.00000000000E+00 -0.50449604796E+02  0.50449604861E+02  0.25500000920E-02 0. -1.
    10030    2    1    2    0    0  0.00000000000E+00  0.00000000000E+00  0.11224883125E+04  0.12233875222E+04  0.48651517723E+03 0.  0.
        4    1    3    3  502    0  0.20585286436E+03 -0.11537788296E+03  0.70969425882E+03  0.74790040215E+03  0.12699999809E+01 0.  1.
       -4    1    3    3    0  502 -0.20585286436E+03  0.11537788296E+03  0.41279405369E+03  0.47548712002E+03  0.12699999809E+01 0. -1.
</event>
<event>
 5   0  0.8012875E-03  0.5006252E+03  0.7818609E-02  0.1013616E+00
       -3   -1    0    0    0  501  0.00000000000E+00  0.00000000000E+00  0.60055306825E+03  0.60055307675E+03  0.10100000352E+00 0. -1.
        3   -1    0    0  501    0  0.00000000000E+00  0.00000000000E+00 -0.10433114543E+03  0.10433119432E+03  0.10100000352E+00 0.  1.
    10030    2    1    2    0    0  0.00000000000E+00  0.00000000000E+00  0.49622192282E+03  0.70488427107E+03  0.50062524798E+03 0.  0.
        1    1    3    3  502    0 -0.21530839046E+03  0.94245436035E+02  0.36936737056E+03  0.43780379130E+03  0.50400001928E-02 0. -1.
       -1    1    3    3    0  502  0.21530839046E+03 -0.94245436035E+02  0.12685455226E+03  0.26708047976E+03  0.50400001928E-02 0.  1.
</event>
<event>
 5   0  0.1225989E-02  0.5001310E+03  0.7818609E-02  0.1013745E+00
        1   -1    0    0  501    0  0.00000000000E+00  0.00000000000E+00  0.49637887668E+03  0.49637887671E+03  0.50400001928E-02 0.  1.
       -1   -1    0    0    0  501  0.00000000000E+00  0.00000000000E+00 -0.12597785846E+03  0.12597785856E+03  0.50400001928E-02 0. -1.
    10030    2    1    2    0    0  0.00000000000E+00  0.00000000000E+00  0.37040101822E+03  0.62235673526E+03  0.50013097447E+03 0.  0.
        3    1    3    3  502    0  0.26771107344E+02  0.67290935831E+02  0.48304349626E+03  0.48844220919E+03  0.10100000352E+00 0.  1.
       -3    1    3    3    0  502 -0.26771107344E+02 -0.67290935831E+02 -0.11264247804E+03  0.13391452607E+03  0.10100000352E+00 0. -1.
</event>
<event>
 5   0  0.8012875E-03  0.5073545E+03  0.7818609E-02  0.1011877E+00
       -4   -1    0    0    0  501  0.00000000000E+00  0.00000000000E+00  0.74924823128E+02  0.74935585811E+02  0.12699999809E+01 0. -1.
        4   -1    0    0  501    0  0.00000000000E+00  0.00000000000E+00 -0.85881655841E+03  0.85881749743E+03  0.12699999809E+01 0.  1.
    10030    2    1    2    0    0  0.00000000000E+00  0.00000000000E+00 -0.78389173528E+03  0.93375308325E+03  0.50735447946E+03 0.  0.
        2    1    3    3  502    0  0.19760225450E+03  0.14394543902E+03 -0.26732241903E+03  0.36225435280E+03  0.25500000920E-02 0. -1.
       -2    1    3    3    0  502 -0.19760225450E+03 -0.14394543902E+03 -0.51656931625E+03  0.57149873045E+03  0.25500000920E-02 0.  1.
</event>
<event>
 5   0  0.1855407E-02  0.5026696E+03  0.7818609E-02  0.1013084E+00
       -2   -1    0    0    0  501  0.00000000000E+00  0.00000000000E+00  0.20122991471E+03  0.20122991473E+03  0.25500000920E-02 0. -1.
        2   -1    0    0  501    0  0.00000000000E+00  0.00000000000E+00 -0.31391544593E+03  0.31391544594E+03  0.25500000920E-02 0.  1.
    10030    2    1    2    0    0  0.00000000000E+00  0.00000000000E+00 -0.11268553122E+03  0.51514536068E+03  0.50266958698E+03 0.  0.
        1    1    3    3  502    0 -0.24324965136E+03  0.38811231136E+02 -0.10750652974E+03  0.26876450381E+03  0.50400001928E-02 0.  1.
       -1    1    3    3    0  502  0.24324965136E+03 -0.38811231136E+02 -0.51790014767E+01  0.24638085686E+03  0.50400001928E-02 0. -1.
</event>
<event>
 5   0  0.1923706E-02  0.5129394E+03  0.7818609E-02  0.1010456E+00
        2   -1    0    0  501    0  0.00000000000E+00  0.00000000000E+00  0.10521807827E+04  0.10521807827E+04  0.25500000920E-02 0.  1.
       -2   -1    0    0    0  501  0.00000000000E+00  0.00000000000E+00 -0.62514635180E+02  0.62514635232E+02  0.25500000920E-02 0. -1.
    10030    2    1    2    0    0  0.00000000000E+00  0.00000000000E+00  0.98966614750E+03  0.11146954179E+04  0.51293936407E+03 0.  0.
        3    1    3    3  502    0 -0.47487474704E+02 -0.17730093810E+03  0.88410045036E+03  0.90295309924E+03  0.10100000352E+00 0.  1.
       -3    1    3    3    0  502  0.47487474704E+02  0.17730093810E+03  0.10556569714E+03  0.21174231867E+03  0.10100000352E+00 0. -1.
</event>
<event>
 5   0  0.1941387E-02  0.5008321E+03  0.7818609E-02  0.1013562E+00
        2   -1    0    0  501    0  0.00000000000E+00  0.00000000000E+00  0.53654892243E+03  0.53654892244E+03  0.25500000920E-02 0. -1.
       -2   -1    0    0    0  501  0.00000000000E+00  0.00000000000E+00 -0.11687323798E+03  0.11687323801E+03  0.25500000920E-02 0.  1.
    10030    2    1    2    0    0  0.00000000000E+00  0.00000000000E+00  0.41967568445E+03  0.65342216045E+03  0.50083214718E+03 0.  0.
        4    1    3    3  502    0 -0.11512397591E+03 -0.76005765047E+02 -0.62823795805E+02  0.15158775798E+03  0.12699999809E+01 0.  1.
       -4    1    3    3    0  502  0.11512397591E+03  0.76005765047E+02  0.48249948026E+03  0.50183440247E+03  0.12699999809E+01 0. -1.
</event>
<event>
 5   0  0.1180937E-02  0.5000523E+03  0.7818609E-02  0.1013765E+00
        1   -1    0    0  501    0  0.00000000000E+00  0.00000000000E+00  0.92451497301E+03  0.92451497302E+03  0.50400001928E-02 0. -1.
       -1   -1    0    0    0  501  0.00000000000E+00  0.00000000000E+00 -0.67617155205E+02  0.67617155393E+02  0.50400001928E-02 0.  1.
    10030    2    1    2    0    0  0.00000000000E+00  0.00000000000E+00  0.85689781780E+03  0.99213212841E+03  0.50005228734E+03 0.  0.
        1    1    3    3  502    0  0.18196146025E+03  0.82697778727E+02  0.13041625973E+03  0.23865727822E+03  0.50400001928E-02 0.  1.
       -1    1    3    3    0  502 -0.18196146025E+03 -0.82697778727E+02  0.72648155807E+03  0.75347485019E+03  0.50400001928E-02 0. -1.
</event>
<event>
 5   0  0.1941387E-02  0.4998173E+03  0.7818609E-02  0.1013827E+00
       -2   -1    0    0    0  501  0.00000000000E+00  0.00000000000E+00  0.63883320304E+02  0.63883320354E+02  0.25500000920E-02 0. -1.
        2   -1    0    0  501    0  0.00000000000E+00  0.00000000000E+00 -0.97763139033E+03  0.97763139034E+03  0.25500000920E-02 0.  1.
    10030    2    1    2    0    0  0.00000000000E+00  0.00000000000E+00 -0.91374807003E+03  0.10415147107E+04  0.49981732373E+03 0.  0.
        4    1    3    3  502    0  0.16386617140E+03 -0.14874941256E+03 -0.21499074647E+03  0.30854682600E+03  0.12699999809E+01 0.  1.
       -4    1    3    3    0  502 -0.16386617140E+03  0.14874941256E+03 -0.69875732356E+03  0.73296788469E+03  0.12699999809E+01 0. -1.
</event>
<event>
 5   0  0.1180937E-02  0.5000216E+03  0.7818609E-02  0.1013773E+00
       -1   -1    0    0    0  501  0.00000000000E+00  0.00000000000E+00  0.17929889226E+03  0.17929889233E+03  0.50400001928E-02 0.  1.
        1   -1    0    0  501    0  0.00000000000E+00  0.00000000000E+00 -0.34861013639E+03  0.34861013643E+03  0.50400001928E-02 0. -1.
    10030    2    1    2    0    0  0.00000000000E+00  0.00000000000E+00 -0.16931124413E+03  0.52790902876E+03  0.50002164479E+03 0.  0.
        1    1    3    3  502    0  0.55776566833E+02  0.32305903133E+02 -0.33968685740E+03  0.34574825799E+03  0.50400001928E-02 0. -1.
       -1    1    3    3    0  502 -0.55776566833E+02 -0.32305903133E+02  0.17037561327E+03  0.18216077077E+03  0.50400001928E-02 0.  1.
</event>
<event>
 5   0  0.1923706E-02  0.4984291E+03  0.7818609E-02  0.1014190E+00
       -2   -1    0    0    0  501  0.00000000000E+00  0.00000000000E+00  0.10915922373E+03  0.10915922376E+03  0.25500000920E-02 0.  1.
        2   -1    0    0  501    0  0.00000000000E+00  0.00000000000E+00 -0.56896600631E+03  0.56896600632E+03  0.25500000920E-02 0. -1.
    10030    2    1    2    0    0  0.00000000000E+00  0.00000000000E+00 -0.45980678258E+03  0.67812523008E+03  0.49842908259E+03 0.  0.
        3    1    3    3  502    0  0.79930124119E+02 -0.11369878046E+03 -0.51134350238E+03  0.52989473016E+03  0.10100000352E+00 0. -1.
       -3    1    3    3    0  502 -0.79930124119E+02  0.11369878046E+03  0.51536719803E+02  0.14823049992E+03  0.10100000352E+00 0.  1.
</event>
<event>
 5   0  0.1923706E-02  0.4998101E+03  0.7818609E-02  0.1013828E+00
       -2   -1    0    0    0  501  0.00000000000E+00  0.00000000000E+00  0.11071557173E+03  0.11071557176E+03  0.25500000920E-02 0. -1.
        2   -1    0    0  501    0  0.00000000000E+00  0.00000000000E+00 -0.56408082543E+03  0.56408082543E+03  0.25500000920E-02 0.  1.
    10030    2    1    2    0    0  0.00000000000E+00  0.00000000000E+00 -0.45336525369E+03  0.67479639719E+03  0.49981008834E+03 0.  0.
        3    1    3    3  502    0 -0.17073448393E+03  0.11422280859E+02  0.19213778790E+02  0.17219149805E+03  0.10100000352E+00 0. -1.
       -3    1    3    3    0  502  0.17073448393E+03 -0.11422280859E+02 -0.47257903248E+03  0.50260489915E+03  0.10100000352E+00 0.  1.
</event>
<event>
 5   0  0.1209831E-02  0.4999675E+03  0.7818609E-02  0.1013787E+00
       -1   -1    0    0    0  501  0.00000000000E+00  0.00000000000E+00  0.10492676620E+03  0.10492676632E+03  0.50400001928E-02 0.  1.
        1   -1    0    0  501    0  0.00000000000E+00  0.00000000000E+00 -0.59557606472E+03  0.59557606474E+03  0.50400001928E-02 0. -1.
    10030    2    1    2    0    0  0.00000000000E+00  0.00000000000E+00 -0.49064929852E+03  0.70050283106E+03  0.49996748113E+03 0.  0.
        4    1    3    3  502    0  0.45121961347E+02  0.20943541226E+03 -0.64854494153E+02  0.22384570940E+03  0.12699999809E+01 0.  1.
       -4    1    3    3    0  502 -0.45121961347E+02 -0.20943541226E+03 -0.42579480436E+03  0.47665712166E+03  0.12699999809E+01 0. -1.
</event>
<event>
 5   0  0.1180937E-02  0.5000367E+03  0.7818609E-02  0.1013769E+00
        1   -1    0    0  501    0  0.00000000000E+00  0.00000000000E+00  0.31139829729E+03  0.31139829733E+03  0.50400001928E-02 0.  1.
       -1   -1    0    0    0  501  0.00000000000E+00  0.00000000000E+00 -0.20073703761E+03  0.20073703768E+03  0.50400001928E-02 0. -1.
    10030    2    1    2    0    0  0.00000000000E+00  0.00000000000E+00  0.11066125967E+03  0.51213533501E+03  0.50003668562E+03 0.  0.
        1    1    3    3  502    0 -0.23951092110E+03 -0.21185612140E+02 -0.14846274557E+02  0.24090397129E+03  0.50400001928E-02 0. -1.
       -1    1    3    3    0  502  0.23951092110E+03  0.21185612140E+02  0.12550753423E+03  0.27123136372E+03  0.50400001928E-02 0.  1.
</event>
<event>
 5   0  0.1855407E-02  0.4999482E+03  0.7818609E-02  0.1013792E+00
       -2   -1    0    0    0  501  0.00000000000E+00  0.00000000000E+00  0.49794005481E+03  0.49794005482E+03  0.25500000920E-02 0. -1.
        2   -1    0    0  501    0  0.00000000000E+00  0.00000000000E+00 -0.12549111027E+03  0.12549111030E+03  0.25500000920E-02 0.  1.
    10030    2    1    2    0    0  0.00000000000E+00  0.00000000000E+00  0.37244894454E+03  0.62343116511E+03  0.49994819866E+03 0.  0.
        1    1    3    3  502    0  0.80877839641E+02 -0.19885051552E+03  0.34593822850E+03  0.40713144122E+03  0.50400001928E-02 0. -1.
       -1    1    3    3    0  502 -0.80877839641E+02  0.19885051552E+03  0.26510716039E+02  0.21629972389E+03  0.50400001928E-02 0.  1.
</event>
<event>
 5   0  0.1217270E-02  0.5008502E+03  0.7818609E-02  0.1013557E+00
        1   -1    0    0  501    0  0.00000000000E+00  0.00000000000E+00  0.71302576946E+03  0.71302576948E+03  0.50400001928E-02 0.  1.
       -1   -1    0    0    0  501  0.00000000000E+00  0.00000000000E+00 -0.87952956974E+02  0.87952957119E+02  0.50400001928E-02 0. -1.
    10030    2    1    2    0    0  0.00000000000E+00  0.00000000000E+00  0.62507281249E+03  0.80097872660E+03  0.50085017675E+03 0.  0.
        2    1    3    3  502    0  0.44883814001E+02  0.27099369155E+02  0.70414994344E+03  0.70609919659E+03  0.25500000920E-02 0.  1.
       -2    1    3    3    0  502 -0.44883814001E+02 -0.27099369155E+02 -0.79077130955E+02  0.94879530008E+02  0.25500000920E-02 0. -1.
</event>
<event>
 5   0  0.1967813E-02  0.5005809E+03  0.7818609E-02  0.1013627E+00
       -2   -1    0    0    0  501  0.00000000000E+00  0.00000000000E+00  0.40491526004E+03  0.40491526005E+03  0.25500000920E-02 0.  1.
        2   -1    0    0  501    0  0.00000000000E+00  0.00000000000E+00 -0.15471215670E+03  0.15471215672E+03  0.25500000920E-02 0. -1.
    10030    2    1    2    0    0  0.00000000000E+00  0.00000000000E+00  0.25020310335E+03  0.55962741677E+03  0.50058091521E+03 0.  0.
        5    1    3    3  502    0 -0.56138090578E+02  0.18626364606E+03 -0.50874773616E+02  0.20113667902E+03  0.46999998093E+01 0. -1.
       -5    1    3    3    0  502  0.56138090578E+02 -0.18626364606E+03  0.30107787696E+03  0.35849073775E+03  0.46999998093E+01 0.  1.
</event>
<event>
 5   0  0.1217270E-02  0.4994193E+03  0.7818609E-02  0.1013931E+00
       -1   -1    0    0    0  501  0.00000000000E+00  0.00000000000E+00  0.13018361899E+03  0.13018361908E+03  0.50400001928E-02 0.  1.
        1   -1    0    0  501    0  0.00000000000E+00  0.00000000000E+00 -0.47897667987E+03  0.47897667990E+03  0.50400001928E-02 0. -1.
    10030    2    1    2    0    0  0.00000000000E+00  0.00000000000E+00 -0.34879306088E+03  0.60916029898E+03  0.49941933336E+03 0.  0.
        2    1    3    3  502    0 -0.16676894225E+02 -0.11085054870E+02  0.12920267961E+03  0.13074528545E+03  0.25500000920E-02 0.  1.
       -2    1    3    3    0  502  0.16676894225E+02  0.11085054870E+02 -0.47799574049E+03  0.47841501353E+03  0.25500000920E-02 0. -1.
</event>
<event>
 5   0  0.1227864E-02  0.4991831E+03  0.7818609E-02  0.1013992E+00
       -1   -1    0    0    0  501  0.00000000000E+00  0.00000000000E+00  0.13550241275E+03  0.13550241284E+03  0.50400001928E-02 0. -1.
        1   -1    0    0  501    0  0.00000000000E+00  0.00000000000E+00 -0.45974053571E+03  0.45974053574E+03  0.50400001928E-02 0.  1.
    10030    2    1    2    0    0  0.00000000000E+00  0.00000000000E+00 -0.32423812296E+03  0.59524294858E+03  0.49918314019E+03 0.  0.
        5    1    3    3  502    0 -0.33582257090E+02 -0.23014033424E+03 -0.54261310527E+02  0.23886967421E+03  0.46999998093E+01 0. -1.
       -5    1    3    3    0  502  0.33582257090E+02  0.23014033424E+03 -0.26997681244E+03  0.35637327438E+03  0.46999998093E+01 0.  1.
</event>
<event>
 5   0  0.1180937E-02  0.5014215E+03  0.7818609E-02  0.1013409E+00
        1   -1    0    0  501    0  0.00000000000E+00  0.00000000000E+00  0.50893902734E+03  0.50893902736E+03  0.50400001928E-02 0.  1.
       -1   -1    0    0    0  501  0.00000000000E+00  0.00000000000E+00 -0.12350375153E+03  0.12350375164E+03  0.50400001928E-02 0. -1.
    10030    2    1    2    0    0  0.00000000000E+00  0.00000000000E+00  0.38543527580E+03  0.63244277900E+03  0.50142149622E+03 0.  0.
        1    1    3    3  502    0 -0.60502694792E+02 -0.75249112693E+02 -0.99111445037E+02  0.13836937378E+03  0.50400001928E-02 0. -1.
       -1    1    3    3    0  502  0.60502694792E+02  0.75249112693E+02  0.48454672084E+03  0.49407340522E+03  0.50400001928E-02 0.  1.
</event>
<event>
 5   0  0.1967813E-02  0.5001952E+03  0.7818609E-02  0.1013728E+00
       -2   -1    0    0    0  501  0.00000000000E+00  0.00000000000E+00  0.13393233776E+03  0.13393233778E+03  0.25500000920E-02 0.  1.
        2   -1    0    0  501    0  0.00000000000E+00  0.00000000000E+00 -0.46701797967E+03  0.46701797967E+03  0.25500000920E-02 0. -1.
    10030    2    1    2    0    0  0.00000000000E+00  0.00000000000E+00 -0.33308564191E+03  0.60095031746E+03  0.50019520110E+03 0.  0.
        5    1    3    3  502    0  0.16685886397E+03 -0.18211286295E+03 -0.21337931016E+03  0.32643497873E+03  0.46999998093E+01 0. -1.
       -5    1    3    3    0  502 -0.16685886397E+03  0.18211286295E+03 -0.11970633175E+03  0.27451533873E+03  0.46999998093E+01 0.  1.
</event>
<event>
 5   0  0.1217270E-02  0.4989146E+03  0.7818609E-02  0.1014063E+00
       -1   -1    0    0    0  501  0.00000000000E+00  0.00000000000E+00  0.12534968484E+03  0.12534968494E+03  0.50400001928E-02 0.  1.
        1   -1    0    0  501    0  0.00000000000E+00  0.00000000000E+00 -0.49644275654E+03  0.49644275656E+03  0.50400001928E-02 0. -1.
    10030    2    1    2    0    0  0.00000000000E+00  0.00000000000E+00 -0.37109307170E+03  0.62179244150E+03  0.49891459434E+03 0.  0.
        2    1    3    3  502    0 -0.18359537711E+03  0.43713118836E+02 -0.38885176708E+03  0.43223118354E+03  0.25500000920E-02 0. -1.
       -2    1    3    3    0  502  0.18359537711E+03 -0.43713118836E+02  0.17758695381E+02  0.18956125796E+03  0.25500000920E-02 0.  1.
</event>
<event>
 5   0  0.1180937E-02  0.5007210E+03  0.7818609E-02  0.1013591E+00
        1   -1    0    0  501    0  0.00000000000E+00  0.00000000000E+00  0.68054425325E+02  0.68054425511E+02  0.50400001928E-02 0. -1.
       -1   -1    0    0    0  501  0.00000000000E+00  0.00000000000E+00 -0.92103295000E+03  0.92103295001E+03  0.50400001928E-02 0.  1.
    10030    2    1    2    0    0  0.00000000000E+00  0.00000000000E+00 -0.85297852467E+03  0.98908737552E+03  0.50072095309E+03 0.  0.
        1    1    3    3  502    0  0.65941370596E+02  0.20107725379E+03 -0.16220827749E+03  0.26663055275E+03  0.50400001928E-02 0. -1.
       -1    1    3    3    0  502 -0.65941370596E+02 -0.20107725379E+03 -0.69077024718E+03  0.72245682277E+03  0.50400001928E-02 0.  1.
</event>
<event>
 5   0  0.1923706E-02  0.5053095E+03  0.7818609E-02  0.1012402E+00
        2   -1    0    0  501    0  0.00000000000E+00  0.00000000000E+00  0.13920158733E+04  0.13920158733E+04  0.25500000920E-02 0.  1.
       -2   -1    0    0    0  501  0.00000000000E+00  0.00000000000E+00 -0.45857537023E+02  0.45857537094E+02  0.25500000920E-02 0. -1.
    10030    2    1    2    0    0  0.00000000000E+00  0.00000000000E+00  0.13461583363E+04  0.14378734104E+04  0.50530948735E+03 0.  0.
        3    1    3    3  502    0 -0.16094809743E+03  0.79960524315E+02  0.11784026626E+04  0.11920280286E+04  0.10100000352E+00 0.  1.
       -3    1    3    3    0  502  0.16094809743E+03 -0.79960524315E+02  0.16775567374E+03  0.24584538187E+03  0.10100000352E+00 0. -1.
</event>
<event>
 5   0  0.1967813E-02  0.4981300E+03  0.7818609E-02  0.1014268E+00
        2   -1    0    0  501    0  0.00000000000E+00  0.00000000000E+00  0.81224074373E+02  0.81224074413E+02  0.25500000920E-02 0. -1.
       -2   -1    0    0    0  501  0.00000000000E+00  0.00000000000E+00 -0.76373131115E+03  0.76373131115E+03  0.25500000920E-02 0.  1.
    10030    2    1    2    0    0  0.00000000000E+00  0.00000000000E+00 -0.68250723678E+03  0.84495538557E+03  0.49812997837E+03 0.  0.
        5    1    3    3  502    0  0.11801120881E+02  0.16872444715E+03 -0.65127440466E+03  0.67289497374E+03  0.46999998093E+01 0.  1.
       -5    1    3    3    0  502 -0.11801120881E+02 -0.16872444715E+03 -0.31232832119E+02  0.17206041183E+03  0.46999998093E+01 0. -1.
</event>
<event>
 5   0  0.1855407E-02  0.4984571E+03  0.7818609E-02  0.1014182E+00
       -2   -1    0    0    0  501  0.00000000000E+00  0.00000000000E+00  0.42471641362E+02  0.42471641438E+02  0.25500000920E-02 0.  1.
        2   -1    0    0  501    0  0.00000000000E+00  0.00000000000E+00 -0.14625019568E+04  0.14625019568E+04  0.25500000920E-02 0. -1.
    10030    2    1    2    0    0  0.00000000000E+00  0.00000000000E+00 -0.14200303155E+04  0.15049735983E+04  0.49845705396E+03 0.  0.
        1    1    3    3  502    0  0.19384282198E+01  0.12709501467E+03 -0.62751089490E+02  0.14175542147E+03  0.50400001928E-02 0.  1.
       -1    1    3    3    0  502 -0.19384282198E+01 -0.12709501467E+03 -0.13572792260E+04  0.13632181768E+04  0.50400001928E-02 0. -1.
</event>
<event>
 5   0  0.1217270E-02  0.5031863E+03  0.7818609E-02  0.1012951E+00
        1   -1    0    0  501    0  0.00000000000E+00  0.00000000000E+00  0.12060792331E+04  0.12060792331E+04  0.50400001928E-02 0.  1.
       -1   -1    0    0    0  501  0.00000000000E+00  0.00000000000E+00 -0.52483374075E+02  0.52483374317E+02  0.50400001928E-02 0. -1.
    10030    2    1    2    0    0  0.00000000000E+00  0.00000000000E+00  0.11535958590E+04  0.12585626074E+04  0.50318627848E+03 0.  0.
        2    1    3    3  502    0 -0.61749050073E+02  0.96512942445E+02  0.16557808282E+02  0.11576637796E+03  0.25500000920E-02 0. -1.
       -2    1    3    3    0  502  0.61749050073E+02 -0.96512942445E+02  0.11370380507E+04  0.11427962294E+04  0.25500000920E-02 0.  1.
</event>
<event>
 5   0  0.1225989E-02  0.4998127E+03  0.7818609E-02  0.1013828E+00
       -1   -1    0    0    0  501  0.00000000000E+00  0.00000000000E+00  0.57457507359E+02  0.57457507580E+02  0.50400001928E-02 0. -1.
        1   -1    0    0  501    0  0.00000000000E+00  0.00000000000E+00 -0.10869454069E+04  0.10869454069E+04  0.50400001928E-02 0.  1.
    10030    2    1    2    0    0  0.00000000000E+00  0.00000000000E+00 -0.10294878996E+04  0.11444029145E+04  0.49981266030E+03 0.  0.
        3    1    3    3  502    0  0.21990307028E+02  0.96730096254E+02 -0.10399355049E+04  0.10446559958E+04  0.10100000352E+00 0.  1.
       -3    1    3    3    0  502 -0.21990307028E+02 -0.96730096254E+02  0.10447605332E+02  0.99746918663E+02  0.10100000352E+00 0. -1.
</event>
<event>
 5   0  0.1180937E-02  0.5000651E+03  0.7818609E-02  0.1013762E+00
       -1   -1    0    0    0  501  0.00000000000E+00  0.00000000000E+00  0.20038866277E+03  0.20038866283E+03  0.50400001928E-02 0.  1.
        1   -1    0    0  501    0  0.00000000000E+00  0.00000000000E+00 -0.31197511784E+03  0.31197511788E+03  0.50400001928E-02 0. -1.
    10030    2    1    2    0    0  0.00000000000E+00  0.00000000000E+00 -0.11158645508E+03  0.51236378071E+03  0.50006510259E+03 0.  0.
        1    1    3    3  502    0  0.59552617429E+02  0.31216812601E+02  0.19095166529E+03  0.20244392343E+03  0.50400001928E-02 0.  1.
       -1    1    3    3    0  502 -0.59552617429E+02 -0.31216812601E+02 -0.30253812037E+03  0.30991985728E+03  0.50400001928E-02 0. -1.
</event>
<event>
 5   0  0.1982847E-02  0.5008825E+03  0.7818609E-02  0.1013549E+00
       -2   -1    0    0    0  501  0.00000000000E+00  0.00000000000E+00  0.81947216263E+02  0.81947216303E+02  0.25500000920E-02 0.  1.
        2   -1    0    0  501    0  0.00000000000E+00  0.00000000000E+00 -0.76538061668E+03  0.76538061669E+03  0.25500000920E-02 0. -1.
    10030    2    1    2    0    0  0.00000000000E+00  0.00000000000E+00 -0.68343340042E+03  0.84732783299E+03  0.50088246501E+03 0.  0.
        2    1    3    3  502    0  0.13178940825E+03  0.17559594622E+03 -0.13788326720E+03  0.25925697645E+03  0.25500000920E-02 0.  1.
       -2    1    3    3    0  502 -0.13178940825E+03 -0.17559594622E+03 -0.54555013322E+03  0.58807085655E+03  0.25500000920E-02 0. -1.
</event>
<event>
 5   0  0.1180937E-02  0.4997577E+03  0.7818609E-02  0.1013842E+00
       -1   -1    0    0    0  501  0.00000000000E+00  0.00000000000E+00  0.31643028362E+03  0.31643028366E+03  0.50400001928E-02 0. -1.
        1   -1    0    0  501    0  0.00000000000E+00  0.00000000000E+00 -0.19732450002E+03  0.19732450008E+03  0.50400001928E-02 0.  1.
    10030    2    1    2    0    0  0.00000000000E+00  0.00000000000E+00  0.11910578360E+03  0.51375478375E+03  0.49975773144E+03 0.  0.
        1    1    3    3  502    0  0.41095986942E+02  0.18369434917E+03  0.22849353960E+03  0.29604356390E+03  0.50400001928E-02 0. -1.
       -1    1    3    3    0  502 -0.41095986942E+02 -0.18369434917E+03 -0.10938775600E+03  0.21771121985E+03  0.50400001928E-02 0.  1.
</event>
<event>
 5   0  0.1967813E-02  0.4990828E+03  0.7818609E-02  0.1014019E+00
       -2   -1    0    0    0  501  0.00000000000E+00  0.00000000000E+00  0.16229703393E+03  0.16229703395E+03  0.25500000920E-02 0. -1.
        2   -1    0    0  501    0  0.00000000000E+00  0.00000000000E+00 -0.38368487591E+03  0.38368487592E+03  0.25500000920E-02 0.  1.
    10030    2    1    2    0    0  0.00000000000E+00  0.00000000000E+00 -0.22138784199E+03  0.54598190987E+03  0.49908282812E+03 0.  0.
        5    1    3    3  502    0  0.16648213081E+03  0.13605436483E+03  0.27777589211E+02  0.21684274147E+03  0.46999998093E+01 0. -1.
       -5    1    3    3    0  502 -0.16648213081E+03 -0.13605436483E+03 -0.24916543120E+03  0.32913916839E+03  0.46999998093E+01 0.  1.
</event>
<event>
 5   0  0.1209831E-02  0.5009436E+03  0.7818609E-02  0.1013533E+00
        1   -1    0    0  501    0  0.00000000000E+00  0.00000000000E+00  0.15465440024E+04  0.15465440024E+04  0.50400001928E-02 0. -1.
       -1   -1    0    0    0  501  0.00000000000E+00  0.00000000000E+00 -0.40565372093E+02  0.40565372406E+02  0.50400001928E-02 0.  1.
    10030    2    1    2    0    0  0.00000000000E+00  0.00000000000E+00  0.15059786303E+04  0.15871093748E+04  0.50094364222E+03 0.  0.
        4    1    3    3  502    0 -0.14996585770E+03 -0.16457352719E+03  0.38953389842E+03  0.44867858791E+03  0.12699999809E+01 0.  1.
       -4    1    3    3    0  502  0.14996585770E+03  0.16457352719E+03  0.11164447319E+04  0.11384307869E+04  0.12699999809E+01 0. -1.
</event>
<event>
 5   0  0.1855407E-02  0.5021054E+03  0.7818609E-02  0.1013231E+00
        2   -1    0    0  501    0  0.00000000000E+00  0.00000000000E+00  0.15123135896E+03  0.15123135898E+03  0.25500000920E-02 0. -1.
       -2   -1    0    0    0  501  0.00000000000E+00  0.00000000000E+00 -0.41676185478E+03  0.41676185479E+03  0.25500000920E-02 0.  1.
    10030    2    1    2    0    0  0.00000000000E+00  0.00000000000E+00 -0.26553049582E+03  0.56799321377E+03  0.50210541391E+03 0.  0.
        1    1    3    3  502    0  0.96939482646E+02  0.22995260756E+03 -0.16378627610E+03  0.29849859176E+03  0.50400001928E-02 0. -1.
       -1    1    3    3    0  502 -0.96939482646E+02 -0.22995260756E+03 -0.10174421973E+03  0.26949462201E+03  0.50400001928E-02 0.  1.
</event>
<event>
 5   0  0.1923706E-02  0.4940746E+03  0.7818609E-02  0.1015337E+00
        2   -1    0    0  501    0  0.00000000000E+00  0.00000000000E+00  0.11449824493E+04  0.11449824493E+04  0.25500000920E-02 0. -1.
       -2   -1    0    0    0  501  0.00000000000E+00  0.00000000000E+00 -0.53299885043E+02  0.53299885104E+02  0.25500000920E-02 0.  1.
    10030    2    1    2    0    0  0.00000000000E+00  0.00000000000E+00  0.10916825642E+04  0.11982823344E+04  0.49407462174E+03 0.  0.
        3    1    3    3  502    0  0.20021926689E+03 -0.68126125184E+02  0.85546941578E+03  0.88122463385E+03  0.10100000352E+00 0. -1.
       -3    1    3    3    0  502 -0.20021926689E+03  0.68126125184E+02  0.23621314846E+03  0.31705770054E+03  0.10100000352E+00 0.  1.
</event>
<event>
 5   0  0.8012875E-03  0.4949585E+03  0.7818609E-02  0.1015103E+00
       -4   -1    0    0    0  501  0.00000000000E+00  0.00000000000E+00  0.63143004629E+03  0.63143132347E+03  0.12699999809E+01 0. -1.
        4   -1    0    0  501    0  0.00000000000E+00  0.00000000000E+00 -0.96990144961E+02  0.96998459366E+02  0.12699999809E+01 0.  1.
    10030    2    1    2    0    0  0.00000000000E+00  0.00000000000E+00  0.53443990133E+03  0.72842978284E+03  0.49495852391E+03 0.  0.
        1    1    3    3  502    0 -0.41244759637E+02 -0.17608895369E+03  0.51583482988E+03  0.54662054623E+03  0.50400001928E-02 0. -1.
       -1    1    3    3    0  502  0.41244759637E+02  0.17608895369E+03  0.18605071448E+02  0.18180923661E+03  0.50400001928E-02 0.  1.
</event>
<event>
 5   0  0.1227864E-02  0.4997650E+03  0.7818609E-02  0.1013840E+00
        1   -1    0    0  501    0  0.00000000000E+00  0.00000000000E+00  0.15900849724E+03  0.15900849732E+03  0.50400001928E-02 0.  1.
       -1   -1    0    0    0  501  0.00000000000E+00  0.00000000000E+00 -0.39269136385E+03  0.39269136388E+03  0.50400001928E-02 0. -1.
    10030    2    1    2    0    0  0.00000000000E+00  0.00000000000E+00 -0.23368286661E+03  0.55169986120E+03  0.49976499948E+03 0.  0.
        5    1    3    3  502    0  0.38132681735E+02  0.43643073916E+02 -0.38511943415E+03  0.38948413045E+03  0.46999998093E+01 0. -1.
       -5    1    3    3    0  502 -0.38132681735E+02 -0.43643073916E+02  0.15143656754E+03  0.16221573075E+03  0.46999998093E+01 0.  1.
</event>
<event>
 5   0  0.1227864E-02  0.5000720E+03  0.7818609E-02  0.1013760E+00
       -1   -1    0    0    0  501  0.00000000000E+00  0.00000000000E+00  0.45728166829E+02  0.45728167107E+02  0.50400001928E-02 0. -1.
        1   -1    0    0  501    0  0.00000000000E+00  0.00000000000E+00 -0.13671659545E+04  0.13671659546E+04  0.50400001928E-02 0.  1.
    10030    2    1    2    0    0  0.00000000000E+00  0.00000000000E+00 -0.13214377877E+04  0.14128941217E+04  0.50007196704E+03 0.  0.
        5    1    3    3  502    0  0.16520566632E+03  0.15142287736E+03 -0.34769896254E+03  0.41368884263E+03  0.46999998093E+01 0. -1.
       -5    1    3    3    0  502 -0.16520566632E+03 -0.15142287736E+03 -0.97373882518E+03  0.99920527903E+03  0.46999998093E+01 0.  1.
</event>
<event>
 5   0  0.1967813E-02  0.4995316E+03  0.7818609E-02  0.1013901E+00
       -2   -1    0    0    0  501  0.00000000000E+00  0.00000000000E+00  0.16045982950E+03  0.16045982952E+03  0.25500000920E-02 0.  1.
        2   -1    0    0  501    0  0.00000000000E+00  0.00000000000E+00 -0.38877614695E+03  0.38877614695E+03  0.25500000920E-02 0. -1.
    10030    2    1    2    0    0  0.00000000000E+00  0.00000000000E+00 -0.22831631744E+03  0.54923597648E+03  0.49953159764E+03 0.  0.
        5    1    3    3  502    0 -0.14912769811E+03  0.54136884150E+02 -0.32619674105E+03  0.36276201075E+03  0.46999998093E+01 0. -1.
       -5    1    3    3    0  502  0.14912769811E+03 -0.54136884150E+02  0.97880423612E+02  0.18647396573E+03  0.46999998093E+01 0.  1.
</event>
<event>
 5   0  0.1855407E-02  0.5004070E+03  0.7818609E-02  0.1013673E+00
        2   -1    0    0  501    0  0.00000000000E+00  0.00000000000E+00  0.46651553256E+02  0.46651553326E+02  0.25500000920E-02 0. -1.
       -2   -1    0    0    0  501  0.00000000000E+00  0.00000000000E+00 -0.13419016127E+04  0.13419016127E+04  0.25500000920E-02 0.  1.
    10030    2    1    2    0    0  0.00000000000E+00  0.00000000000E+00 -0.12952500595E+04  0.13885531661E+04  0.50040701274E+03 0.  0.
        1    1    3    3  502    0 -0.10300389610E+03 -0.15955420892E+03 -0.10996309687E+04  0.11159102185E+04  0.50400001928E-02 0.  1.
       -1    1    3    3    0  502  0.10300389610E+03  0.15955420892E+03 -0.19561909073E+03  0.27264294760E+03  0.50400001928E-02 0. -1.
</event>
<event>
 5   0  0.1227864E-02  0.4987036E+03  0.7818609E-02  0.1014118E+00
        1   -1    0    0  501    0  0.00000000000E+00  0.00000000000E+00  0.49594290146E+03  0.49594290149E+03  0.50400001928E-02 0.  1.
       -1   -1    0    0    0  501  0.00000000000E+00  0.00000000000E+00 -0.12536991366E+03  0.12536991376E+03  0.50400001928E-02 0. -1.
    10030    2    1    2    0    0  0.00000000000E+00  0.00000000000E+00  0.37057298780E+03  0.62131281525E+03  0.49870359444E+03 0.  0.
        5    1    3    3  502    0  0.23677156363E+03 -0.73858461797E+02  0.21676459228E+03  0.32943106136E+03  0.46999998093E+01 0.  1.
       -5    1    3    3    0  502 -0.23677156363E+03  0.73858461797E+02  0.15380839552E+03  0.29188175389E+03  0.46999998093E+01 0. -1.
</event>
<event>
 5   0  0.1217270E-02  0.4994199E+03  0.7818609E-02  0.1013930E+00
        1   -1    0    0  501    0  0.00000000000E+00  0.00000000000E+00  0.20750803664E+04  0.20750803664E+04  0.50400001928E-02 0. -1.
       -1   -1    0    0    0  501  0.00000000000E+00  0.00000000000E+00 -0.30049468939E+02  0.30049469361E+02  0.50400001928E-02 0.  1.
    10030    2    1    2    0    0  0.00000000000E+00  0.00000000000E+00  0.20450308974E+04  0.21051298358E+04  0.49941991737E+03 0.  0.
        2    1    3    3  502    0 -0.10918488482E+03  0.19337780824E+03  0.54119870668E+03  0.58498919298E+03  0.25500000920E-02 0.  1.
       -2    1    3    3    0  502  0.10918488482E+03 -0.19337780824E+03  0.15038321908E+04  0.15201406428E+04  0.25500000920E-02 0. -1.
</event>
<event>
 5   0  0.1941387E-02  0.5007724E+03  0.7818609E-02  0.1013577E+00
        2   -1    0    0  501    0  0.00000000000E+00  0.00000000000E+00  0.35955649468E+03  0.35955649469E+03  0.25500000920E-02 0. -1.
       -2   -1    0    0    0  501  0.00000000000E+00  0.00000000000E+00 -0.17436275655E+03  0.17436275657E+03  0.25500000920E-02 0.  1.
    10030    2    1    2    0    0  0.00000000000E+00  0.00000000000E+00  0.18519373814E+03  0.53391925126E+03  0.50077244954E+03 0.  0.
        4    1    3    3  502    0 -0.12268979555E+03  0.12193890505E+03 -0.10040958135E+03  0.20001394807E+03  0.12699999809E+01 0.  1.
       -4    1    3    3    0  502  0.12268979555E+03 -0.12193890505E+03  0.28560331948E+03  0.33390530319E+03  0.12699999809E+01 0. -1.
</event>
<event>
 5   0  0.1855407E-02  0.5006518E+03  0.7818609E-02  0.1013609E+00
        2   -1    0    0  501    0  0.00000000000E+00  0.00000000000E+00  0.44783164343E+03  0.44783164344E+03  0.25500000920E-02 0. -1.
       -2   -1    0    0    0  501  0.00000000000E+00  0.00000000000E+00 -0.13992549625E+03  0.13992549627E+03  0.25500000920E-02 0.  1.
    10030    2    1    2    0    0  0.00000000000E+00  0.00000000000E+00  0.30790614718E+03  0.58775713971E+03  0.50065183491E+03 0.  0.
        1    1    3    3  502    0 -0.11695231253E+03 -0.37956387216E+02 -0.10203067797E+03  0.15977731381E+03  0.50400001928E-02 0.  1.
       -1    1    3    3    0  502  0.11695231253E+03  0.37956387216E+02  0.40993682515E+03  0.42797982590E+03  0.50400001928E-02 0. -1.
</event>
<event>
 5   0  0.1967813E-02  0.5002094E+03  0.7818609E-02  0.1013724E+00
        2   -1    0    0  501    0  0.00000000000E+00  0.00000000000E+00  0.50848187601E+03  0.50848187602E+03  0.25500000920E-02 0. -1.
       -2   -1    0    0    0  501  0.00000000000E+00  0.00000000000E+00 -0.12301787775E+03  0.12301787777E+03  0.25500000920E-02 0.  1.
    10030    2    1    2    0    0  0.00000000000E+00  0.00000000000E+00  0.38546399826E+03  0.63149975379E+03  0.50020940123E+03 0.  0.
        5    1    3    3  502    0  0.11062762329E+03 -0.22207673355E+03  0.15333715206E+03  0.29170347756E+03  0.46999998093E+01 0.  1.
       -5    1    3    3    0  502 -0.11062762329E+03  0.22207673355E+03  0.23212684620E+03  0.33979627624E+03  0.46999998093E+01 0. -1.
</event>
<event>
 5   0  0.1967813E-02  0.4999547E+03  0.7818609E-02  0.1013791E+00
        2   -1    0    0  501    0  0.00000000000E+00  0.00000000000E+00  0.10000508025E+04  0.10000508025E+04  0.25500000920E-02 0.  1.
       -2   -1    0    0    0  501  0.00000000000E+00  0.00000000000E+00 -0.62485509340E+02  0.62485509392E+02  0.25500000920E-02 0. -1.
    10030    2    1    2    0    0  0.00000000000E+00  0.00000000000E+00  0.93756529313E+03  0.10625363119E+04  0.49995473310E+03 0.  0.
        5    1    3    3  502    0 -0.24126636760E+03 -0.63115422759E+02  0.43363041173E+03  0.50025037801E+03  0.46999998093E+01 0.  1.
       -5    1    3    3    0  502  0.24126636760E+03  0.63115422759E+02  0.50393488140E+03  0.56228593386E+03  0.46999998093E+01 0. -1.
</event>
<event>
 5   0  0.1967813E-02  0.4997433E+03  0.7818609E-02  0.1013846E+00
       -2   -1    0    0    0  501  0.00000000000E+00  0.00000000000E+00  0.11427985366E+03  0.11427985369E+03  0.25500000920E-02 0.  1.
        2   -1    0    0  501    0  0.00000000000E+00  0.00000000000E+00 -0.54634158455E+03  0.54634158456E+03  0.25500000920E-02 0. -1.
    10030    2    1    2    0    0  0.00000000000E+00  0.00000000000E+00 -0.43206173089E+03  0.66062143825E+03  0.49974327947E+03 0.  0.
        5    1    3    3  502    0  0.31591851623E+02  0.24598603745E+03 -0.25583301480E+03  0.35634224724E+03  0.46999998093E+01 0. -1.
       -5    1    3    3    0  502 -0.31591851623E+02 -0.24598603745E+03 -0.17622871609E+03  0.30427919101E+03  0.46999998093E+01 0.  1.
</event>
<event>
 5   0  0.1227864E-02  0.5007598E+03  0.7818609E-02  0.1013581E+00
       -1   -1    0    0    0  501  0.00000000000E+00  0.00000000000E+00  0.85554597333E+03  0.85554597335E+03  0.50400001928E-02 0. -1.
        1   -1    0    0  501    0  0.00000000000E+00  0.00000000000E+00 -0.73274958319E+02  0.73274958493E+02  0.50400001928E-02 0.  1.
    10030    2    1    2    0    0  0.00000000000E+00  0.00000000000E+00  0.78227101501E+03  0.92882093184E+03  0.50075980519E+03 0.  0.
        5    1    3    3  502    0 -0.20658702530E+03  0.13536592825E+03  0.46684029694E+03  0.52817050883E+03  0.46999998093E+01 0. -1.
       -5    1    3    3    0  502  0.20658702530E+03 -0.13536592825E+03  0.31543071807E+03  0.40065042301E+03  0.46999998093E+01 0.  1.
</event>
<event>
 5   0  0.1855407E-02  0.4990451E+03  0.7818609E-02  0.1014028E+00
       -2   -1    0    0    0  501  0.00000000000E+00  0.00000000000E+00  0.54546243552E+02  0.54546243611E+02  0.25500000920E-02 0. -1.
        2   -1    0    0  501    0  0.00000000000E+00  0.00000000000E+00 -0.11414445624E+04  0.11414445624E+04  0.25500000920E-02 0.  1.
    10030    2    1    2    0    0  0.00000000000E+00  0.00000000000E+00 -0.10868983189E+04  0.11959908060E+04  0.49904514080E+03 0.  0.
        1    1    3    3  502    0  0.16159660656E+03  0.18763902477E+03 -0.46998589864E+03  0.53123310497E+03  0.50400001928E-02 0. -1.
       -1    1    3    3    0  502 -0.16159660656E+03 -0.18763902477E+03 -0.61691242021E+03  0.66475770105E+03  0.50400001928E-02 0.  1.
</event>
<event>
 5   0  0.8012875E-03  0.5000519E+03  0.7818609E-02  0.1013765E+00
        4   -1    0    0  501    0  0.00000000000E+00  0.00000000000E+00  0.33179343244E+03  0.33179586301E+03  0.12699999809E+01 0. -1.
       -4   -1    0    0    0  501  0.00000000000E+00  0.00000000000E+00 -0.18840404826E+03  0.18840832864E+03  0.12699999809E+01 0.  1.
    10030    2    1    2    0    0  0.00000000000E+00  0.00000000000E+00  0.14338938418E+03  0.52020419165E+03  0.50005188282E+03 0.  0.
        1    1    3    3  502    0 -0.65736088380E+02  0.22628151332E+03  0.15866041607E+03  0.28407337827E+03  0.50400001928E-02 0.  1.
       -1    1    3    3    0  502  0.65736088380E+02 -0.22628151332E+03 -0.15271031883E+02  0.23613081338E+03  0.50400001928E-02 0. -1.
</event>
<event>
 5   0  0.1217270E-02  0.4995224E+03  0.7818609E-02  0.1013904E+00
        1   -1    0    0  501    0  0.00000000000E+00  0.00000000000E+00  0.22880649735E+03  0.22880649741E+03  0.50400001928E-02 0.  1.
       -1   -1    0    0    0  501  0.00000000000E+00  0.00000000000E+00 -0.27263504376E+03  0.27263504380E+03  0.50400001928E-02 0. -1.
    10030    2    1    2    0    0  0.00000000000E+00  0.00000000000E+00 -0.43828546402E+02  0.50144154121E+03  0.49952244972E+03 0.  0.
        2    1    3    3  502    0  0.50556154691E+02 -0.19624428717E+03 -0.16846460996E+03  0.26353001696E+03  0.25500000920E-02 0. -1.
       -2    1    3    3    0  502 -0.50556154691E+02  0.19624428717E+03  0.12463606356E+03  0.23791152425E+03  0.25500000920E-02 0.  1.
</event>
<event>
 5   0  0.1180937E-02  0.4999902E+03  0.7818609E-02  0.1013781E+00
        1   -1    0    0  501    0  0.00000000000E+00  0.00000000000E+00  0.45387469993E+03  0.45387469996E+03  0.50400001928E-02 0.  1.
       -1   -1    0    0    0  501  0.00000000000E+00  0.00000000000E+00 -0.13769777818E+03  0.13769777827E+03  0.50400001928E-02 0. -1.
    10030    2    1    2    0    0  0.00000000000E+00  0.00000000000E+00  0.31617692175E+03  0.59157247823E+03  0.49999015106E+03 0.  0.
        1    1    3    3  502    0 -0.58678739740E+02 -0.22806616487E+03  0.58813891046E+02  0.24272709750E+03  0.50400001928E-02 0. -1.
       -1    1    3    3    0  502  0.58678739740E+02  0.22806616487E+03  0.25736303070E+03  0.34884538073E+03  0.50400001928E-02 0.  1.
</event>
<event>
 5   0  0.1855407E-02  0.4996416E+03  0.7818609E-02  0.1013873E+00
       -2   -1    0    0    0  501  0.00000000000E+00  0.00000000000E+00  0.11068104667E+04  0.11068104667E+04  0.25500000920E-02 0.  1.
        2   -1    0    0  501    0  0.00000000000E+00  0.00000000000E+00 -0.56387639293E+02  0.56387639350E+02  0.25500000920E-02 0. -1.
    10030    2    1    2    0    0  0.00000000000E+00  0.00000000000E+00  0.10504228274E+04  0.11631981060E+04  0.49964158913E+03 0.  0.
        1    1    3    3  502    0  0.19262056068E+02  0.37732301006E+02  0.10983868655E+04  0.10992035569E+04  0.50400001928E-02 0.  1.
       -1    1    3    3    0  502 -0.19262056068E+02 -0.37732301006E+02 -0.47964038060E+02  0.63994549108E+02  0.50400001928E-02 0. -1.
</event>
<event>
 5   0  0.1217270E-02  0.4994866E+03  0.7818609E-02  0.1013913E+00
        1   -1    0    0  501    0  0.00000000000E+00  0.00000000000E+00  0.20484544975E+03  0.20484544981E+03  0.50400001928E-02 0.  1.
       -1   -1    0    0    0  501  0.00000000000E+00  0.00000000000E+00 -0.30448178765E+03  0.30448178769E+03  0.50400001928E-02 0. -1.
    10030    2    1    2    0    0  0.00000000000E+00  0.00000000000E+00 -0.99636337902E+02  0.50932723750E+03  0.49948657142E+03 0.  0.
        2    1    3    3  502    0  0.21364494788E+03  0.12931888352E+03 -0.51900798646E+02  0.25507102990E+03  0.25500000920E-02 0. -1.
       -2    1    3    3    0  502 -0.21364494788E+03 -0.12931888352E+03 -0.47735539256E+02  0.25425620760E+03  0.25500000920E-02 0.  1.
</event>
<event>
 5   0  0.1209831E-02  0.5002347E+03  0.7818609E-02  0.1013718E+00
        1   -1    0    0  501    0  0.00000000000E+00  0.00000000000E+00  0.61009010569E+02  0.61009010777E+02  0.50400001928E-02 0.  1.
       -1   -1    0    0    0  501  0.00000000000E+00  0.00000000000E+00 -0.10254009831E+04  0.10254009831E+04  0.50400001928E-02 0. -1.
    10030    2    1    2    0    0  0.00000000000E+00  0.00000000000E+00 -0.96439197252E+03  0.10864099939E+04  0.50023474303E+03 0.  0.
        4    1    3    3  502    0  0.98897168013E+02 -0.10285576879E+03 -0.36066071884E+02  0.14718129452E+03  0.12699999809E+01 0.  1.
       -4    1    3    3    0  502 -0.98897168013E+02  0.10285576879E+03 -0.92832590064E+03  0.93922869937E+03  0.12699999809E+01 0. -1.
</event>
<event>
 5   0  0.1225989E-02  0.5005208E+03  0.7818609E-02  0.1013643E+00
        1   -1    0    0  501    0  0.00000000000E+00  0.00000000000E+00  0.28381355249E+03  0.28381355254E+03  0.50400001928E-02 0. -1.
       -1   -1    0    0    0  501  0.00000000000E+00  0.00000000000E+00 -0.22067395935E+03  0.22067395941E+03  0.50400001928E-02 0.  1.
    10030    2    1    2    0    0  0.00000000000E+00  0.00000000000E+00  0.63139593142E+02  0.50448751195E+03  0.50052077029E+03 0.  0.
        3    1    3    3  502    0  0.14316058996E+02 -0.22378731262E+03  0.14355631936E+03  0.26625953103E+03  0.10100000352E+00 0. -1.
       -3    1    3    3    0  502 -0.14316058996E+02  0.22378731262E+03 -0.80416726214E+02  0.23822798092E+03  0.10100000352E+00 0.  1.
</event>
<event>
 5   0  0.1982847E-02  0.5003790E+03  0.7818609E-02  0.1013680E+00
        2   -1    0    0  501    0  0.00000000000E+00  0.00000000000E+00  0.59060104109E+02  0.59060104165E+02  0.25500000920E-02 0.  1.
       -2   -1    0    0    0  501  0.00000000000E+00  0.00000000000E+00 -0.10598487200E+04  0.10598487200E+04  0.25500000920E-02 0. -1.
    10030    2    1    2    0    0  0.00000000000E+00  0.00000000000E+00 -0.10007886159E+04  0.11189088242E+04  0.50037895949E+03 0.  0.
        2    1    3    3  502    0 -0.11948541441E+03  0.20449946106E+03 -0.68064830722E+03  0.72067947935E+03  0.25500000920E-02 0. -1.
       -2    1    3    3    0  502  0.11948541441E+03 -0.20449946106E+03 -0.32014030866E+03  0.39822934480E+03  0.25500000920E-02 0.  1.
</event>
<event>
 5   0  0.1941387E-02  0.5016408E+03  0.7818609E-02  0.1013352E+00
       -2   -1    0    0    0  501  0.00000000000E+00  0.00000000000E+00  0.35671745518E+03  0.35671745519E+03  0.25500000920E-02 0. -1.
        2   -1    0    0  501    0  0.00000000000E+00  0.00000000000E+00 -0.17636051865E+03  0.17636051867E+03  0.25500000920E-02 0.  1.
    10030    2    1    2    0    0  0.00000000000E+00  0.00000000000E+00  0.18035693653E+03  0.53307797386E+03  0.50164080940E+03 0.  0.
        4    1    3    3  502    0 -0.10204874862E+03 -0.15739468285E+03 -0.86755799711E+02  0.20667659511E+03  0.12699999809E+01 0.  1.
       -4    1    3    3    0  502  0.10204874862E+03  0.15739468285E+03  0.26711273624E+03  0.32640137875E+03  0.12699999809E+01 0. -1.
</event>
<event>
 5   0  0.1967813E-02  0.4997757E+03  0.7818609E-02  0.1013837E+00
        2   -1    0    0  501    0  0.00000000000E+00  0.00000000000E+00  0.85267949554E+03  0.85267949554E+03  0.25500000920E-02 0. -1.
       -2   -1    0    0    0  501  0.00000000000E+00  0.00000000000E+00 -0.73232598983E+02  0.73232599027E+02  0.25500000920E-02 0.  1.
    10030    2    1    2    0    0  0.00000000000E+00  0.00000000000E+00  0.77944689655E+03  0.92591209457E+03  0.49977569201E+03 0.  0.
        5    1    3    3  502    0 -0.12741146595E+02  0.19454939478E+03  0.10026989248E+03  0.21928963760E+03  0.46999998093E+01 0.  1.
       -5    1    3    3    0  502  0.12741146595E+02 -0.19454939478E+03  0.67917700407E+03  0.70662245696E+03  0.46999998093E+01 0. -1.
</event>
<event>
 5   0  0.1923706E-02  0.4999894E+03  0.7818609E-02  0.1013782E+00
       -2   -1    0    0    0  501  0.00000000000E+00  0.00000000000E+00  0.71323130886E+02  0.71323130931E+02  0.25500000920E-02 0.  1.
        2   -1    0    0  501    0  0.00000000000E+00  0.00000000000E+00 -0.87625653202E+03  0.87625653202E+03  0.25500000920E-02 0. -1.
    10030    2    1    2    0    0  0.00000000000E+00  0.00000000000E+00 -0.80493340113E+03  0.94757966295E+03  0.49998943727E+03 0.  0.
        3    1    3    3  502    0  0.18066059173E+03 -0.39975412447E+02 -0.83864205601E+02  0.20314895567E+03  0.10100000352E+00 0.  1.
       -3    1    3    3    0  502 -0.18066059173E+03  0.39975412447E+02 -0.72106919553E+03  0.74443070729E+03  0.10100000352E+00 0. -1.
</event>
<event>
 5   0  0.1967813E-02  0.5001122E+03  0.7818609E-02  0.1013750E+00
        2   -1    0    0  501    0  0.00000000000E+00  0.00000000000E+00  0.24167713939E+03  0.24167713941E+03  0.25500000920E-02 0.  1.
       -2   -1    0    0    0  501  0.00000000000E+00  0.00000000000E+00 -0.25872560719E+03  0.25872560720E+03  0.25500000920E-02 0. -1.
    10030    2    1    2    0    0  0.00000000000E+00  0.00000000000E+00 -0.17048467795E+02  0.50040274661E+03  0.50011224596E+03 0.  0.
        5    1    3    3  502    0  0.16834048436E+03  0.13248892636E+03  0.12044648876E+03  0.24580740619E+03  0.46999998093E+01 0.  1.
       -5    1    3    3    0  502 -0.16834048436E+03 -0.13248892636E+03 -0.13749495656E+03  0.25459534042E+03  0.46999998093E+01 0. -1.
</event>
<event>
 5   0  0.1982847E-02  0.4976226E+03  0.7818609E-02  0.1014401E+00
        2   -1    0    0  501    0  0.00000000000E+00  0.00000000000E+00  0.38189608963E+04  0.38189608963E+04  0.25500000920E-02 0. -1.
       -2   -1    0    0    0  501  0.00000000000E+00  0.00000000000E+00 -0.16210444022E+02  0.16210444223E+02  0.25500000920E-02 0.  1.
    10030    2    1    2    0    0  0.00000000000E+00  0.00000000000E+00  0.38027504523E+04  0.38351713405E+04  0.49762255663E+03 0.  0.
        2    1    3    3  502    0  0.20360290806E+03 -0.13976123903E+03  0.21351021676E+04  0.21493367847E+04  0.25500000920E-02 0.  1.
       -2    1    3    3    0  502 -0.20360290806E+03  0.13976123903E+03  0.16676482847E+04  0.16858345558E+04  0.25500000920E-02 0. -1.
</event>
<event>
 5   0  0.1180937E-02  0.4998922E+03  0.7818609E-02  0.1013807E+00
        1   -1    0    0  501    0  0.00000000000E+00  0.00000000000E+00  0.16938873335E+03  0.16938873342E+03  0.50400001928E-02 0.  1.
       -1   -1    0    0    0  501  0.00000000000E+00  0.00000000000E+00 -0.36881473159E+03  0.36881473162E+03  0.50400001928E-02 0. -1.
    10030    2    1    2    0    0  0.00000000000E+00  0.00000000000E+00 -0.19942599824E+03  0.53820346504E+03  0.49989222939E+03 0.  0.
        1    1    3    3  502    0 -0.20924508799E+02 -0.18694207893E+03  0.77484523742E+02  0.20344293398E+03  0.50400001928E-02 0.  1.
       -1    1    3    3    0  502  0.20924508799E+02  0.18694207893E+03 -0.27691052198E+03  0.33476053106E+03  0.50400001928E-02 0. -1.
</event>
<event>
 5   0  0.1217270E-02  0.5007824E+03  0.7818609E-02  0.1013575E+00
       -1   -1    0    0    0  501  0.00000000000E+00  0.00000000000E+00  0.10147338444E+03  0.10147338457E+03  0.50400001928E-02 0.  1.
        1   -1    0    0  501    0  0.00000000000E+00  0.00000000000E+00 -0.61785408619E+03  0.61785408621E+03  0.50400001928E-02 0. -1.
    10030    2    1    2    0    0  0.00000000000E+00  0.00000000000E+00 -0.51638070175E+03  0.71932747078E+03  0.50078236898E+03 0.  0.
        2    1    3    3  502    0  0.15798851460E+03  0.15524282656E+03 -0.42591844539E+03  0.48007002413E+03  0.25500000920E-02 0. -1.
       -2    1    3    3    0  502 -0.15798851460E+03 -0.15524282656E+03 -0.90462256360E+02  0.23925744665E+03  0.25500000920E-02 0.  1.
</event>
<event>
 5   0  0.1941387E-02  0.5001756E+03  0.7818609E-02  0.1013733E+00
       -2   -1    0    0    0  501  0.00000000000E+00  0.00000000000E+00  0.42985789232E+03  0.42985789233E+03  0.25500000920E-02 0. -1.
        2   -1    0    0  501    0  0.00000000000E+00  0.00000000000E+00 -0.14549901714E+03  0.14549901716E+03  0.25500000920E-02 0.  1.
    10030    2    1    2    0    0  0.00000000000E+00  0.00000000000E+00  0.28435887519E+03  0.57535690949E+03  0.50017557258E+03 0.  0.
        4    1    3    3  502    0  0.42238524991E+02  0.19203472597E+02 -0.14050069735E+03  0.14796933875E+03  0.12699999809E+01 0.  1.
       -4    1    3    3    0  502 -0.42238524991E+02 -0.19203472597E+02  0.42485957254E+03  0.42738757075E+03  0.12699999809E+01 0. -1.
</event>
<event>
 5   0  0.1941387E-02  0.4997656E+03  0.7818609E-02  0.1013840E+00
        2   -1    0    0  501    0  0.00000000000E+00  0.00000000000E+00  0.13857533140E+04  0.13857533140E+04  0.25500000920E-02 0. -1.
       -2   -1    0    0    0  501  0.00000000000E+00  0.00000000000E+00 -0.45059548442E+02  0.45059548514E+02  0.25500000920E-02 0.  1.
    10030    2    1    2    0    0  0.00000000000E+00  0.00000000000E+00  0.13406937655E+04  0.14308128625E+04  0.49976561959E+03 0.  0.
        4    1    3    3  502    0 -0.51707142372E+02 -0.30744489453E+02 -0.24009591852E+02  0.64783683168E+02  0.12699999809E+01 0.  1.
       -4    1    3    3    0  502  0.51707142372E+02  0.30744489453E+02  0.13647033574E+04  0.13660291793E+04  0.12699999809E+01 0. -1.
</event>
<event>
 5   0  0.8012875E-03  0.5008718E+03  0.7818609E-02  0.1013552E+00
       -4   -1    0    0    0  501  0.00000000000E+00  0.00000000000E+00  0.58681775495E+02  0.58695516653E+02  0.12699999809E+01 0.  1.
        4   -1    0    0  501    0  0.00000000000E+00  0.00000000000E+00 -0.10686446657E+04  0.10686454204E+04  0.12699999809E+01 0. -1.
    10030    2    1    2    0    0  0.00000000000E+00  0.00000000000E+00 -0.10099628902E+04  0.11273409370E+04  0.50087178863E+03 0.  0.
        5    1    3    3  502    0  0.66892300012E+02 -0.23009117452E+03 -0.66852215400E+03  0.71018341911E+03  0.46999998093E+01 0. -1.
       -5    1    3    3    0  502 -0.66892300012E+02  0.23009117452E+03 -0.34144073622E+03  0.41715751791E+03  0.46999998093E+01 0.  1.
</event>
<event>
 5   0  0.8012875E-03  0.4999576E+03  0.7818609E-02  0.1013790E+00
        4   -1    0    0  501    0  0.00000000000E+00  0.00000000000E+00  0.63650123068E+03  0.63650249769E+03  0.12699999809E+01 0. -1.
       -4   -1    0    0    0  501  0.00000000000E+00  0.00000000000E+00 -0.98170933417E+02  0.98179147827E+02  0.12699999809E+01 0.  1.
    10030    2    1    2    0    0  0.00000000000E+00  0.00000000000E+00  0.53833029727E+03  0.73468164551E+03  0.49995760950E+03 0.  0.
        4    1    3    3  502    0 -0.90589798623E+02  0.66318731137E+02  0.59736829715E+03  0.60782824964E+03  0.12699999809E+01 0. -1.
       -4    1    3    3    0  502  0.90589798623E+02 -0.66318731137E+02 -0.59037999888E+02  0.12685339587E+03  0.12699999809E+01 0.  1.
</event>
<event>
 5   0  0.1982847E-02  0.5009059E+03  0.7818609E-02  0.1013543E+00
        2   -1    0    0  501    0  0.00000000000E+00  0.00000000000E+00  0.15026065443E+04  0.15026065443E+04  0.25500000920E-02 0. -1.
       -2   -1    0    0    0  501  0.00000000000E+00  0.00000000000E+00 -0.41745254287E+02  0.41745254365E+02  0.25500000920E-02 0.  1.
    10030    2    1    2    0    0  0.00000000000E+00  0.00000000000E+00  0.14608612900E+04  0.15443517987E+04  0.50090594865E+03 0.  0.
        2    1    3    3  502    0 -0.33468773084E+02 -0.15919791679E+03  0.14332093872E+03  0.21680642740E+03  0.25500000920E-02 0.  1.
       -2    1    3    3    0  502  0.33468773084E+02  0.15919791679E+03  0.13175403513E+04  0.13275453713E+04  0.25500000920E-02 0. -1.
</event>
<event>
 5   0  0.1923706E-02  0.5001320E+03  0.7818609E-02  0.1013744E+00
        2   -1    0    0  501    0  0.00000000000E+00  0.00000000000E+00  0.38695132856E+02  0.38695132940E+02  0.25500000920E-02 0. -1.
       -2   -1    0    0    0  501  0.00000000000E+00  0.00000000000E+00 -0.16160434251E+04  0.16160434251E+04  0.25500000920E-02 0.  1.
    10030    2    1    2    0    0  0.00000000000E+00  0.00000000000E+00 -0.15773482923E+04  0.16547385581E+04  0.50013204299E+03 0.  0.
        3    1    3    3  502    0 -0.14608126904E+03 -0.82915967193E+02 -0.17574959028E+03  0.24311051698E+03  0.10100000352E+00 0. -1.
       -3    1    3    3    0  502  0.14608126904E+03  0.82915967193E+02 -0.14015987020E+04  0.14116280411E+04  0.10100000352E+00 0.  1.
</event>
<event>
 5   0  0.8012875E-03  0.5014221E+03  0.7818609E-02  0.1013408E+00
        3   -1    0    0  501    0  0.00000000000E+00  0.00000000000E+00  0.37829370746E+03  0.37829372094E+03  0.10100000352E+00 0.  1.
       -3   -1    0    0    0  501  0.00000000000E+00  0.00000000000E+00 -0.16615665411E+03  0.16615668481E+03  0.10100000352E+00 0. -1.
    10030    2    1    2    0    0  0.00000000000E+00  0.00000000000E+00  0.21213705335E+03  0.54445040575E+03  0.50142209257E+03 0.  0.
        1    1    3    3  502    0 -0.68142737896E+02  0.88776670015E+02  0.34966664526E+03  0.36713960928E+03  0.50400001928E-02 0.  1.
       -1    1    3    3    0  502  0.68142737896E+02 -0.88776670015E+02 -0.13752959192E+03  0.17731079647E+03  0.50400001928E-02 0. -1.
</event>
<event>
 5   0  0.8012875E-03  0.4993478E+03  0.7818609E-02  0.1013949E+00
       -3   -1    0    0    0  501  0.00000000000E+00  0.00000000000E+00  0.51110903679E+02  0.51111003471E+02  0.10100000352E+00 0.  1.
        3   -1    0    0  501    0  0.00000000000E+00  0.00000000000E+00 -0.12196415041E+04  0.12196415083E+04  0.10100000352E+00 0. -1.
    10030    2    1    2    0    0  0.00000000000E+00  0.00000000000E+00 -0.11685306005E+04  0.12707525118E+04  0.49934775659E+03 0.  0.
        2    1    3    3  502    0  0.81208993028E+01  0.18741118932E+03 -0.10035682665E+04  0.10209496405E+04  0.25500000920E-02 0. -1.
       -2    1    3    3    0  502 -0.81208993028E+01 -0.18741118932E+03 -0.16496233401E+03  0.24980287135E+03  0.25500000920E-02 0.  1.
</event>
<event>
 5   0  0.1982847E-02  0.4962072E+03  0.7818609E-02  0.1014774E+00
        2   -1    0    0  501    0  0.00000000000E+00  0.00000000000E+00  0.13904358535E+03  0.13904358537E+03  0.25500000920E-02 0.  1.
       -2   -1    0    0    0  501  0.00000000000E+00  0.00000000000E+00 -0.44270581588E+03  0.44270581589E+03  0.25500000920E-02 0. -1.
    10030    2    1    2    0    0  0.00000000000E+00  0.00000000000E+00 -0.30366223053E+03  0.58174940126E+03  0.49620723052E+03 0.  0.
        2    1    3    3  502    0 -0.49602557755E+02  0.19352762318E+03  0.20642253821E+02  0.20084685041E+03  0.25500000920E-02 0.  1.
       -2    1    3    3    0  502  0.49602557755E+02 -0.19352762318E+03 -0.32430448435E+03  0.38090255085E+03  0.25500000920E-02 0. -1.
</event>
<event>
 5   0  0.1855407E-02  0.5006410E+03  0.7818609E-02  0.1013612E+00
       -2   -1    0    0    0  501  0.00000000000E+00  0.00000000000E+00  0.48754536430E+02  0.48754536497E+02  0.25500000920E-02 0. -1.
        2   -1    0    0  501    0  0.00000000000E+00  0.00000000000E+00 -0.12852211602E+04  0.12852211602E+04  0.25500000920E-02 0.  1.
    10030    2    1    2    0    0  0.00000000000E+00  0.00000000000E+00 -0.12364666237E+04  0.13339756967E+04  0.50064103675E+03 0.  0.
        1    1    3    3  502    0  0.12827021391E+03 -0.19041025102E+01 -0.45491543734E+02  0.13611154970E+03  0.50400001928E-02 0. -1.
       -1    1    3    3    0  502 -0.12827021391E+03  0.19041025102E+01 -0.11909750800E+04  0.11978641470E+04  0.50400001928E-02 0.  1.
</event>
<event>
 5   0  0.1225989E-02  0.4996917E+03  0.7818609E-02  0.1013859E+00
       -1   -1    0    0    0  501  0.00000000000E+00  0.00000000000E+00  0.87038651895E+02  0.87038652041E+02  0.50400001928E-02 0. -1.
        1   -1    0    0  501    0  0.00000000000E+00  0.00000000000E+00 -0.71718656061E+03  0.71718656062E+03  0.50400001928E-02 0.  1.
    10030    2    1    2    0    0  0.00000000000E+00  0.00000000000E+00 -0.63014790871E+03  0.80422521267E+03  0.49969171079E+03 0.  0.
        3    1    3    3  502    0 -0.85029542754E+02  0.22774667540E+03 -0.40787015897E+03  0.47482275438E+03  0.10100000352E+00 0.  1.
       -3    1    3    3    0  502  0.85029542754E+02 -0.22774667540E+03 -0.22227774974E+03  0.32940245829E+03  0.10100000352E+00 0. -1.
</event>
<event>
 5   0  0.1967813E-02  0.4997338E+03  0.7818609E-02  0.1013848E+00
        2   -1    0    0  501    0  0.00000000000E+00  0.00000000000E+00  0.39551386424E+03  0.39551386425E+03  0.25500000920E-02 0.  1.
       -2   -1    0    0    0  501  0.00000000000E+00  0.00000000000E+00 -0.15785406690E+03  0.15785406692E+03  0.25500000920E-02 0. -1.
    10030    2    1    2    0    0  0.00000000000E+00  0.00000000000E+00  0.23765979734E+03  0.55336793117E+03  0.49973381712E+03 0.  0.
        5    1    3    3  502    0 -0.27459926849E+02  0.15570801708E+03  0.33301178035E+03  0.36867054400E+03  0.46999998093E+01 0.  1.
       -5    1    3    3    0  502  0.27459926849E+02 -0.15570801708E+03 -0.95351983003E+02  0.18469738717E+03  0.46999998093E+01 0. -1.
</event>
<event>
 5   0  0.1941387E-02  0.5003893E+03  0.7818609E-02  0.1013677E+00
        2   -1    0    0  501    0  0.00000000000E+00  0.00000000000E+00  0.39213364439E+03  0.39213364440E+03  0.25500000920E-02 0. -1.
       -2   -1    0    0    0  501  0.00000000000E+00  0.00000000000E+00 -0.15963274964E+03  0.15963274966E+03  0.25500000920E-02 0.  1.
    10030    2    1    2    0    0  0.00000000000E+00  0.00000000000E+00  0.23250089476E+03  0.55176639406E+03  0.50038933597E+03 0.  0.
        4    1    3    3  502    0  0.14774721046E+03  0.14360753605E+03 -0.40249267087E+02  0.20993803612E+03  0.12699999809E+01 0.  1.
       -4    1    3    3    0  502 -0.14774721046E+03 -0.14360753605E+03  0.27275016184E+03  0.34182835794E+03  0.12699999809E+01 0. -1.
</event>
<event>
 5   0  0.1982847E-02  0.5001095E+03  0.7818609E-02  0.1013750E+00
       -2   -1    0    0    0  501  0.00000000000E+00  0.00000000000E+00  0.50614159862E+02  0.50614159927E+02  0.25500000920E-02 0. -1.
        2   -1    0    0  501    0  0.00000000000E+00  0.00000000000E+00 -0.12353730067E+04  0.12353730067E+04  0.25500000920E-02 0.  1.
    10030    2    1    2    0    0  0.00000000000E+00  0.00000000000E+00 -0.11847588468E+04  0.12859871666E+04  0.50010945560E+03 0.  0.
        2    1    3    3  502    0 -0.86025924218E+02  0.19364579373E+03 -0.25096982750E+03  0.32845853222E+03  0.25500000920E-02 0. -1.
       -2    1    3    3    0  502  0.86025924218E+02 -0.19364579373E+03 -0.93378901934E+03  0.95752863441E+03  0.25500000920E-02 0.  1.
</event>
<event>
 5   0  0.1225989E-02  0.5004019E+03  0.7818609E-02  0.1013674E+00
        1   -1    0    0  501    0  0.00000000000E+00  0.00000000000E+00  0.28453987274E+03  0.28453987279E+03  0.50400001928E-02 0.  1.
       -1   -1    0    0    0  501  0.00000000000E+00  0.00000000000E+00 -0.22000614293E+03  0.22000614299E+03  0.50400001928E-02 0. -1.
    10030    2    1    2    0    0  0.00000000000E+00  0.00000000000E+00  0.64533729814E+02  0.50454601577E+03  0.50040191821E+03 0.  0.
        3    1    3    3  502    0  0.21427263471E+03  0.10652766385E+03 -0.41410886657E+02  0.24284928842E+03  0.10100000352E+00 0.  1.
       -3    1    3    3    0  502 -0.21427263471E+03 -0.10652766385E+03  0.10594461647E+03  0.26169672736E+03  0.10100000352E+00 0. -1.
</event>
<event>
 5   0  0.1227864E-02  0.5018136E+03  0.7818609E-02  0.1013307E+00
       -1   -1    0    0    0  501  0.00000000000E+00  0.00000000000E+00  0.13483624792E+03  0.13483624801E+03  0.50400001928E-02 0. -1.
        1   -1    0    0  501    0  0.00000000000E+00  0.00000000000E+00 -0.46689396462E+03  0.46689396464E+03  0.50400001928E-02 0.  1.
    10030    2    1    2    0    0  0.00000000000E+00  0.00000000000E+00 -0.33205771670E+03  0.60173021266E+03  0.50181363234E+03 0.  0.
        5    1    3    3  502    0 -0.23685945825E+03  0.80850248152E+02 -0.18655344919E+03  0.31219135957E+03  0.46999998093E+01 0.  1.
       -5    1    3    3    0  502  0.23685945825E+03 -0.80850248152E+02 -0.14550426751E+03  0.28953885309E+03  0.46999998093E+01 0. -1.
</event>
<event>
 5   0  0.1855407E-02  0.4992236E+03  0.7818609E-02  0.1013982E+00
       -2   -1    0    0    0  501  0.00000000000E+00  0.00000000000E+00  0.45320588740E+02  0.45320588812E+02  0.25500000920E-02 0.  1.
        2   -1    0    0  501    0  0.00000000000E+00  0.00000000000E+00 -0.13747844074E+04  0.13747844074E+04  0.25500000920E-02 0. -1.
    10030    2    1    2    0    0  0.00000000000E+00  0.00000000000E+00 -0.13294638187E+04  0.14201049962E+04  0.49922355228E+03 0.  0.
        1    1    3    3  502    0  0.11357501798E+03  0.16886808844E+03 -0.25358411561E+03  0.32514707398E+03  0.50400001928E-02 0.  1.
       -1    1    3    3    0  502 -0.11357501798E+03 -0.16886808844E+03 -0.10758797031E+04  0.10949579223E+04  0.50400001928E-02 0. -1.
</event>
<event>
 5   0  0.1967813E-02  0.4959661E+03  0.7818609E-02  0.1014837E+00
       -2   -1    0    0    0  501  0.00000000000E+00  0.00000000000E+00  0.10593598285E+03  0.10593598288E+03  0.25500000920E-02 0.  1.
        2   -1    0    0  501    0  0.00000000000E+00  0.00000000000E+00 -0.58049764308E+03  0.58049764309E+03  0.25500000920E-02 0. -1.
    10030    2    1    2    0    0  0.00000000000E+00  0.00000000000E+00 -0.47456166023E+03  0.68643362597E+03  0.49596608100E+03 0.  0.
        5    1    3    3  502    0  0.17298776645E+03 -0.19916476417E+02  0.70003412843E+01  0.17433452943E+03  0.46999998093E+01 0.  1.
       -5    1    3    3    0  502 -0.17298776645E+03  0.19916476417E+02 -0.48156200152E+03  0.51209909654E+03  0.46999998093E+01 0. -1.
</event>
<event>
 5   0  0.1967813E-02  0.5002152E+03  0.7818609E-02  0.1013723E+00
       -2   -1    0    0    0  501  0.00000000000E+00  0.00000000000E+00  0.24422031526E+02  0.24422031659E+02  0.25500000920E-02 0.  1.
        2   -1    0    0  501    0  0.00000000000E+00  0.00000000000E+00 -0.25613681378E+04  0.25613681378E+04  0.25500000920E-02 0. -1.
    10030    2    1    2    0    0  0.00000000000E+00  0.00000000000E+00 -0.25369461062E+04  0.25857901694E+04  0.50021520802E+03 0.  0.
        5    1    3    3  502    0  0.17104678392E+03  0.16212383368E+03 -0.83626474265E+03  0.86885093632E+03  0.46999998093E+01 0.  1.
       -5    1    3    3    0  502 -0.17104678392E+03 -0.16212383368E+03 -0.17006813636E+04  0.17169392331E+04  0.46999998093E+01 0. -1.
</event>
<event>
 5   0  0.1217270E-02  0.5002925E+03  0.7818609E-02  0.1013703E+00
        1   -1    0    0  501    0  0.00000000000E+00  0.00000000000E+00  0.16313572273E+04  0.16313572274E+04  0.50400001928E-02 0. -1.
       -1   -1    0    0    0  501  0.00000000000E+00  0.00000000000E+00 -0.38356488854E+02  0.38356489185E+02  0.50400001928E-02 0.  1.
    10030    2    1    2    0    0  0.00000000000E+00  0.00000000000E+00  0.15930007385E+04  0.16697137165E+04  0.50029245683E+03 0.  0.
        2    1    3    3  502    0 -0.24370671656E+02  0.48481722285E+02 -0.18477535554E+02  0.57322128008E+02  0.25500000920E-02 0.  1.
       -2    1    3    3    0  502  0.24370671656E+02 -0.48481722285E+02  0.16114782740E+04  0.16123915885E+04  0.25500000920E-02 0. -1.
</event>
<event>
 5   0  0.1217270E-02  0.4999380E+03  0.7818609E-02  0.1013795E+00
       -1   -1    0    0    0  501  0.00000000000E+00  0.00000000000E+00  0.63487389466E+02  0.63487389666E+02  0.50400001928E-02 0.  1.
        1   -1    0    0  501    0  0.00000000000E+00  0.00000000000E+00 -0.98420315907E+03  0.98420315908E+03  0.50400001928E-02 0. -1.
    10030    2    1    2    0    0  0.00000000000E+00  0.00000000000E+00 -0.92071576960E+03  0.10476905487E+04  0.49993795369E+03 0.  0.
        2    1    3    3  502    0 -0.86808622230E+02  0.14996445291E+03 -0.83791900372E+03  0.85564790120E+03  0.25500000920E-02 0. -1.
       -2    1    3    3    0  502  0.86808622230E+02 -0.14996445291E+03 -0.82796765880E+02  0.19204264754E+03  0.25500000920E-02 0.  1.
</event>
<event>
 5   0  0.1217270E-02  0.4893359E+03  0.7818609E-02  0.1016601E+00
       -1   -1    0    0    0  501  0.00000000000E+00  0.00000000000E+00  0.54621451263E+02  0.54621451495E+02  0.50400001928E-02 0.  1.
        1   -1    0    0  501    0  0.00000000000E+00  0.00000000000E+00 -0.10959503083E+04  0.10959503083E+04  0.50400001928E-02 0. -1.
    10030    2    1    2    0    0  0.00000000000E+00  0.00000000000E+00 -0.10413288570E+04  0.11505717598E+04  0.48933586212E+03 0.  0.
        2    1    3    3  502    0 -0.96061428681E+02  0.22259302673E+03 -0.44314509665E+03  0.50512674678E+03  0.25500000920E-02 0. -1.
       -2    1    3    3    0  502  0.96061428681E+02 -0.22259302673E+03 -0.59818376035E+03  0.64544501298E+03  0.25500000920E-02 0.  1.
</event>
<event>
 5   0  0.1855407E-02  0.4995344E+03  0.7818609E-02  0.1013901E+00
        2   -1    0    0  501    0  0.00000000000E+00  0.00000000000E+00  0.22894395251E+03  0.22894395253E+03  0.25500000920E-02 0. -1.
       -2   -1    0    0    0  501  0.00000000000E+00  0.00000000000E+00 -0.27248439016E+03  0.27248439017E+03  0.25500000920E-02 0.  1.
    10030    2    1    2    0    0  0.00000000000E+00  0.00000000000E+00 -0.43540437648E+02  0.50142834270E+03  0.49953439636E+03 0.  0.
        1    1    3    3  502    0  0.68495207238E+02 -0.89820990045E+01  0.21916352346E+03  0.22979321477E+03  0.50400001928E-02 0. -1.
       -1    1    3    3    0  502 -0.68495207238E+02  0.89820990045E+01 -0.26270396110E+03  0.27163512792E+03  0.50400001928E-02 0.  1.
</event>
<event>
 5   0  0.1967813E-02  0.5001709E+03  0.7818609E-02  0.1013734E+00
        2   -1    0    0  501    0  0.00000000000E+00  0.00000000000E+00  0.52499908148E+03  0.52499908148E+03  0.25500000920E-02 0. -1.
       -2   -1    0    0    0  501  0.00000000000E+00  0.00000000000E+00 -0.11912920315E+03  0.11912920318E+03  0.25500000920E-02 0.  1.
    10030    2    1    2    0    0  0.00000000000E+00  0.00000000000E+00  0.40586987833E+03  0.64412828466E+03  0.50017085977E+03 0.  0.
        5    1    3    3  502    0 -0.65376504995E+01 -0.23011091761E+03  0.32863306622E+03  0.40126743886E+03  0.46999998093E+01 0. -1.
       -5    1    3    3    0  502  0.65376504995E+01  0.23011091761E+03  0.77236812105E+02  0.24286084580E+03  0.46999998093E+01 0.  1.
</event>
<event>
 5   0  0.1923706E-02  0.5033325E+03  0.7818609E-02  0.1012913E+00
       -2   -1    0    0    0  501  0.00000000000E+00  0.00000000000E+00  0.94752437104E+02  0.94752437139E+02  0.25500000920E-02 0. -1.
        2   -1    0    0  501    0  0.00000000000E+00  0.00000000000E+00 -0.66843552474E+03  0.66843552475E+03  0.25500000920E-02 0.  1.
    10030    2    1    2    0    0  0.00000000000E+00  0.00000000000E+00 -0.57368308764E+03  0.76318796189E+03  0.50333247474E+03 0.  0.
        3    1    3    3  502    0  0.98422197068E+01 -0.56373506759E+02  0.84756137600E+02  0.10226658601E+03  0.10100000352E+00 0. -1.
       -3    1    3    3    0  502 -0.98422197068E+01  0.56373506759E+02 -0.65843922524E+03  0.66092137587E+03  0.10100000352E+00 0.  1.
</event>
<event>
 5   0  0.1209831E-02  0.4998393E+03  0.7818609E-02  0.1013821E+00
       -1   -1    0    0    0  501  0.00000000000E+00  0.00000000000E+00  0.60065858523E+02  0.60065858735E+02  0.50400001928E-02 0.  1.
        1   -1    0    0  501    0  0.00000000000E+00  0.00000000000E+00 -0.10398559176E+04  0.10398559176E+04  0.50400001928E-02 0. -1.
    10030    2    1    2    0    0  0.00000000000E+00  0.00000000000E+00 -0.97979005906E+03  0.10999217763E+04  0.49983932840E+03 0.  0.
        4    1    3    3  502    0  0.13505130742E+03  0.20352670447E+03 -0.37353082096E+03  0.44630579447E+03  0.12699999809E+01 0.  1.
       -4    1    3    3    0  502 -0.13505130742E+03 -0.20352670447E+03 -0.60625923809E+03  0.65361598186E+03  0.12699999809E+01 0. -1.
</event>
<event>
 5   0  0.1855407E-02  0.5007770E+03  0.7818609E-02  0.1013576E+00
        2   -1    0    0  501    0  0.00000000000E+00  0.00000000000E+00  0.42182493212E+03  0.42182493212E+03  0.25500000920E-02 0.  1.
       -2   -1    0    0    0  501  0.00000000000E+00  0.00000000000E+00 -0.14862660466E+03  0.14862660469E+03  0.25500000920E-02 0. -1.
    10030    2    1    2    0    0  0.00000000000E+00  0.00000000000E+00  0.27319832745E+03  0.57045153681E+03  0.50077702596E+03 0.  0.
        1    1    3    3  502    0 -0.19820215067E+03 -0.38699490633E+02  0.30522415902E+03  0.36598296460E+03  0.50400001928E-02 0.  1.
       -1    1    3    3    0  502  0.19820215067E+03  0.38699490633E+02 -0.32025831564E+02  0.20446857221E+03  0.50400001928E-02 0. -1.
</event>
<event>
 5   0  0.1209831E-02  0.5120988E+03  0.7818609E-02  0.1010668E+00
        1   -1    0    0  501    0  0.00000000000E+00  0.00000000000E+00  0.18016000918E+03  0.18016000926E+03  0.50400001928E-02 0. -1.
       -1   -1    0    0    0  501  0.00000000000E+00  0.00000000000E+00 -0.36390596700E+03  0.36390596703E+03  0.50400001928E-02 0.  1.
    10030    2    1    2    0    0  0.00000000000E+00  0.00000000000E+00 -0.18374595781E+03  0.54406597629E+03  0.51209882790E+03 0.  0.
        4    1    3    3  502    0  0.57952612477E+02  0.21314673778E+03 -0.22945440784E+03  0.31849799889E+03  0.12699999809E+01 0.  1.
       -4    1    3    3    0  502 -0.57952612477E+02 -0.21314673778E+03  0.45708450031E+02  0.22556797739E+03  0.12699999809E+01 0. -1.
</event>
<event>
 5   0  0.1923706E-02  0.4999358E+03  0.7818609E-02  0.1013796E+00
        2   -1    0    0  501    0  0.00000000000E+00  0.00000000000E+00  0.10796874364E+03  0.10796874367E+03  0.25500000920E-02 0.  1.
       -2   -1    0    0    0  501  0.00000000000E+00  0.00000000000E+00 -0.57872267866E+03  0.57872267866E+03  0.25500000920E-02 0. -1.
    10030    2    1    2    0    0  0.00000000000E+00  0.00000000000E+00 -0.47075393502E+03  0.68669142233E+03  0.49993583806E+03 0.  0.
        3    1    3    3  502    0  0.21700831162E+03  0.10625677566E+03 -0.14741725536E+03  0.28304587448E+03  0.10100000352E+00 0.  1.
       -3    1    3    3    0  502 -0.21700831162E+03 -0.10625677566E+03 -0.32333667966E+03  0.40364554785E+03  0.10100000352E+00 0. -1.
</event>
<event>
 5   0  0.1941387E-02  0.4998624E+03  0.7818609E-02  0.1013815E+00
       -2   -1    0    0    0  501  0.00000000000E+00  0.00000000000E+00  0.69479010960E+02  0.69479011007E+02  0.25500000920E-02 0.  1.
        2   -1    0    0  501    0  0.00000000000E+00  0.00000000000E+00 -0.89905727136E+03  0.89905727137E+03  0.25500000920E-02 0. -1.
    10030    2    1    2    0    0  0.00000000000E+00  0.00000000000E+00 -0.82957826040E+03  0.96853628237E+03  0.49986242121E+03 0.  0.
        4    1    3    3  502    0 -0.24526178411E+03 -0.45842075033E+02 -0.44281139385E+03  0.50826998928E+03  0.12699999809E+01 0. -1.
       -4    1    3    3    0  502  0.24526178411E+03  0.45842075033E+02 -0.38676686656E+03  0.46026629309E+03  0.12699999809E+01 0.  1.
</event>
<event>
 5   0  0.1180937E-02  0.5001539E+03  0.7818609E-02  0.1013739E+00
       -1   -1    0    0    0  501  0.00000000000E+00  0.00000000000E+00  0.10371306655E+03  0.10371306667E+03  0.50400001928E-02 0.  1.
        1   -1    0    0  501    0  0.00000000000E+00  0.00000000000E+00 -0.60299520610E+03  0.60299520612E+03  0.50400001928E-02 0. -1.
    10030    2    1    2    0    0  0.00000000000E+00  0.00000000000E+00 -0.49928213955E+03  0.70670827279E+03  0.50015390427E+03 0.  0.
        1    1    3    3  502    0  0.16686632847E+03  0.22145455580E+02 -0.51096127317E+03  0.53797417734E+03  0.50400001928E-02 0. -1.
       -1    1    3    3    0  502 -0.16686632847E+03 -0.22145455580E+02  0.11679133619E+02  0.16873409545E+03  0.50400001928E-02 0.  1.
</event>
<event>
 5   0  0.1855407E-02  0.5002390E+03  0.7818609E-02  0.1013717E+00
       -2   -1    0    0    0  501  0.00000000000E+00  0.00000000000E+00  0.97429507334E+02  0.97429507368E+02  0.25500000920E-02 0. -1.
        2   -1    0    0  501    0  0.00000000000E+00  0.00000000000E+00 -0.64210291791E+03  0.64210291792E+03  0.25500000920E-02 0.  1.
    10030    2    1    2    0    0  0.00000000000E+00  0.00000000000E+00 -0.54467341058E+03  0.73953242528E+03  0.50023902672E+03 0.  0.
        1    1    3    3  502    0 -0.10397916038E+03  0.13446663796E+03 -0.54359357943E+03  0.56954975388E+03  0.50400001928E-02 0.  1.
       -1    1    3    3    0  502  0.10397916038E+03 -0.13446663796E+03 -0.10798311466E+01  0.16998267141E+03  0.50400001928E-02 0. -1.
</event>
<event>
 5   0  0.1225989E-02  0.4998828E+03  0.7818609E-02  0.1013810E+00
        1   -1    0    0  501    0  0.00000000000E+00  0.00000000000E+00  0.33871924577E+03  0.33871924580E+03  0.50400001928E-02 0.  1.
       -1   -1    0    0    0  501  0.00000000000E+00  0.00000000000E+00 -0.18443211775E+03  0.18443211781E+03  0.50400001928E-02 0. -1.
    10030    2    1    2    0    0  0.00000000000E+00  0.00000000000E+00  0.15428712802E+03  0.52315136362E+03  0.49988281765E+03 0.  0.
        3    1    3    3  502    0  0.94041218020E+02 -0.18829614634E+03 -0.63932924144E+02  0.21996958518E+03  0.10100000352E+00 0.  1.
       -3    1    3    3    0  502 -0.94041218020E+02  0.18829614634E+03  0.21822005216E+03  0.30318177844E+03  0.10100000352E+00 0. -1.
</event>
<event>
 5   0  0.1227864E-02  0.5032096E+03  0.7818609E-02  0.1012945E+00
       -1   -1    0    0    0  501  0.00000000000E+00  0.00000000000E+00  0.83869755323E+02  0.83869755475E+02  0.50400001928E-02 0.  1.
        1   -1    0    0  501    0  0.00000000000E+00  0.00000000000E+00 -0.75480100629E+03  0.75480100631E+03  0.50400001928E-02 0. -1.
    10030    2    1    2    0    0  0.00000000000E+00  0.00000000000E+00 -0.67093125097E+03  0.83867076178E+03  0.50320960160E+03 0.  0.
        5    1    3    3  502    0  0.18317912135E+03 -0.17235705130E+03 -0.34316511134E+03  0.42549492038E+03  0.46999998093E+01 0. -1.
       -5    1    3    3    0  502 -0.18317912135E+03  0.17235705130E+03 -0.32776613963E+03  0.41317584140E+03  0.46999998093E+01 0.  1.
</event>
<event>
 5   0  0.1209831E-02  0.5002414E+03  0.7818609E-02  0.1013716E+00
        1   -1    0    0  501    0  0.00000000000E+00  0.00000000000E+00  0.70087948406E+03  0.70087948408E+03  0.50400001928E-02 0.  1.
       -1   -1    0    0    0  501  0.00000000000E+00  0.00000000000E+00 -0.89259793128E+02  0.89259793270E+02  0.50400001928E-02 0. -1.
    10030    2    1    2    0    0  0.00000000000E+00  0.00000000000E+00  0.61161969094E+03  0.79013927735E+03  0.50024137301E+03 0.  0.
        4    1    3    3  502    0  0.72024780048E+02  0.22680981002E+03  0.42742730986E+03  0.48920954301E+03  0.12699999809E+01 0.  1.
       -4    1    3    3    0  502 -0.72024780048E+02 -0.22680981002E+03  0.18419238108E+03  0.30092973434E+03  0.12699999809E+01 0. -1.
</event>
<event>
 5   0  0.1225989E-02  0.5005855E+03  0.7818609E-02  0.1013626E+00
       -1   -1    0    0    0  501  0.00000000000E+00  0.00000000000E+00  0.66082930343E+02  0.66082930535E+02  0.50400001928E-02 0. -1.
        1   -1    0    0  501    0  0.00000000000E+00  0.00000000000E+00 -0.94799754240E+03  0.94799754242E+03  0.50400001928E-02 0.  1.
    10030    2    1    2    0    0  0.00000000000E+00  0.00000000000E+00 -0.88191461206E+03  0.10140804730E+04  0.50058547987E+03 0.  0.
        3    1    3    3  502    0  0.33776846332E+02  0.23527735509E+03 -0.28208926436E+03  0.36887758462E+03  0.10100000352E+00 0. -1.
       -3    1    3    3    0  502 -0.33776846332E+02 -0.23527735509E+03 -0.59982534770E+03  0.64520288833E+03  0.10100000352E+00 0.  1.
</event>
<event>
 5   0  0.1225989E-02  0.4990540E+03  0.7818609E-02  0.1014026E+00
        1   -1    0    0  501    0  0.00000000000E+00  0.00000000000E+00  0.84747560287E+03  0.84747560289E+03  0.50400001928E-02 0.  1.
       -1   -1    0    0    0  501  0.00000000000E+00  0.00000000000E+00 -0.73469639889E+02  0.73469640062E+02  0.50400001928E-02 0. -1.
    10030    2    1    2    0    0  0.00000000000E+00  0.00000000000E+00  0.77400596299E+03  0.92094524295E+03  0.49905401489E+03 0.  0.
        3    1    3    3  502    0  0.15847747067E+03  0.14127230650E+02  0.32281266705E+02  0.16234770629E+03  0.10100000352E+00 0. -1.
       -3    1    3    3    0  502 -0.15847747067E+03 -0.14127230650E+02  0.74172469628E+03  0.75859753666E+03  0.10100000352E+00 0.  1.
</event>
<event>
 5   0  0.1209831E-02  0.5010765E+03  0.7818609E-02  0.1013498E+00
        1   -1    0    0  501    0  0.00000000000E+00  0.00000000000E+00  0.15586636568E+04  0.15586636568E+04  0.50400001928E-02 0.  1.
       -1   -1    0    0    0  501  0.00000000000E+00  0.00000000000E+00 -0.40271296548E+02  0.40271296863E+02  0.50400001928E-02 0. -1.
    10030    2    1    2    0    0  0.00000000000E+00  0.00000000000E+00  0.15183923603E+04  0.15989349537E+04  0.50107646762E+03 0.  0.
        4    1    3    3  502    0 -0.67485987900E+02  0.70224977163E+02  0.14957705297E+04  0.14989386233E+04  0.12699999809E+01 0.  1.
       -4    1    3    3    0  502  0.67485987900E+02 -0.70224977163E+02  0.22621830609E+02  0.99996330435E+02  0.12699999809E+01 0. -1.
</event>
<event>
 5   0  0.1180937E-02  0.4996235E+03  0.7818609E-02  0.1013877E+00
        1   -1    0    0  501    0  0.00000000000E+00  0.00000000000E+00  0.12661754262E+04  0.12661754262E+04  0.50400001928E-02 0.  1.
       -1   -1    0    0    0  501  0.00000000000E+00  0.00000000000E+00 -0.49286940751E+02  0.49286941008E+02  0.50400001928E-02 0. -1.
    10030    2    1    2    0    0  0.00000000000E+00  0.00000000000E+00  0.12168884855E+04  0.13154623673E+04  0.49962351181E+03 0.  0.
        1    1    3    3  502    0  0.23788739888E+02  0.41204444929E+02  0.12541359764E+04  0.12550381500E+04  0.50400001928E-02 0.  1.
       -1    1    3    3    0  502 -0.23788739888E+02 -0.41204444929E+02 -0.37247490957E+02  0.60424217292E+02  0.50400001928E-02 0. -1.
</event>
<event>
 5   0  0.1180937E-02  0.5000582E+03  0.7818609E-02  0.1013764E+00
        1   -1    0    0  501    0  0.00000000000E+00  0.00000000000E+00  0.18437604525E+04  0.18437604525E+04  0.50400001928E-02 0. -1.
       -1   -1    0    0    0  501  0.00000000000E+00  0.00000000000E+00 -0.33906010472E+02  0.33906010847E+02  0.50400001928E-02 0.  1.
    10030    2    1    2    0    0  0.00000000000E+00  0.00000000000E+00  0.18098544420E+04  0.18776664633E+04  0.50005824288E+03 0.  0.
        1    1    3    3  502    0  0.10139215483E+03 -0.12096833272E+03  0.16330367569E+04  0.16406470540E+04  0.50400001928E-02 0. -1.
       -1    1    3    3    0  502 -0.10139215483E+03  0.12096833272E+03  0.17681768514E+03  0.23701940930E+03  0.50400001928E-02 0.  1.
</event>
<event>
 5   0  0.1225989E-02  0.4997993E+03  0.7818609E-02  0.1013831E+00
       -1   -1    0    0    0  501  0.00000000000E+00  0.00000000000E+00  0.69287062126E+02  0.69287062309E+02  0.50400001928E-02 0.  1.
        1   -1    0    0  501    0  0.00000000000E+00  0.00000000000E+00 -0.90132015668E+03  0.90132015669E+03  0.50400001928E-02 0. -1.
    10030    2    1    2    0    0  0.00000000000E+00  0.00000000000E+00 -0.83203309455E+03  0.97060721900E+03  0.49979926285E+03 0.  0.
        3    1    3    3  502    0 -0.16931487655E+03 -0.16576238838E+03 -0.57022015747E+03  0.61749148578E+03  0.10100000352E+00 0. -1.
       -3    1    3    3    0  502  0.16931487655E+03  0.16576238838E+03 -0.26181293708E+03  0.35311573322E+03  0.10100000352E+00 0.  1.
</event>
<event>
 5   0  0.1923706E-02  0.5000565E+03  0.7818609E-02  0.1013764E+00
        2   -1    0    0  501    0  0.00000000000E+00  0.00000000000E+00  0.72770625196E+03  0.72770625196E+03  0.25500000920E-02 0.  1.
       -2   -1    0    0    0  501  0.00000000000E+00  0.00000000000E+00 -0.85905700110E+02  0.85905700148E+02  0.25500000920E-02 0. -1.
    10030    2    1    2    0    0  0.00000000000E+00  0.00000000000E+00  0.64180055185E+03  0.81361195211E+03  0.50005645708E+03 0.  0.
        3    1    3    3  502    0  0.11486766712E+03  0.21390570319E+03  0.41803163257E+03  0.48342598899E+03  0.10100000352E+00 0.  1.
       -3    1    3    3    0  502 -0.11486766712E+03 -0.21390570319E+03  0.22376891928E+03  0.33018596312E+03  0.10100000352E+00 0. -1.
</event>
<event>
 5   0  0.1982847E-02  0.4999054E+03  0.7818609E-02  0.1013804E+00
       -2   -1    0    0    0  501  0.00000000000E+00  0.00000000000E+00  0.14416926470E+03  0.14416926473E+03  0.25500000920E-02 0.  1.
        2   -1    0    0  501    0  0.00000000000E+00  0.00000000000E+00 -0.43335417993E+03  0.43335417993E+03  0.25500000920E-02 0. -1.
    10030    2    1    2    0    0  0.00000000000E+00  0.00000000000E+00 -0.28918491522E+03  0.57752344466E+03  0.49990540499E+03 0.  0.
        2    1    3    3  502    0  0.18051535405E+03 -0.92230715494E+02  0.24345338308E+02  0.20416903152E+03  0.25500000920E-02 0.  1.
       -2    1    3    3    0  502 -0.18051535405E+03  0.92230715494E+02 -0.31353025353E+03  0.37335441314E+03  0.25500000920E-02 0. -1.
</event>
<event>
 5   0  0.1227864E-02  0.5003316E+03  0.7818609E-02  0.1013692E+00
        1   -1    0    0  501    0  0.00000000000E+00  0.00000000000E+00  0.13517647887E+04  0.13517647888E+04  0.50400001928E-02 0.  1.
       -1   -1    0    0    0  501  0.00000000000E+00  0.00000000000E+00 -0.46297204476E+02  0.46297204751E+02  0.50400001928E-02 0. -1.
    10030    2    1    2    0    0  0.00000000000E+00  0.00000000000E+00  0.13054675843E+04  0.13980619935E+04  0.50033161414E+03 0.  0.
        5    1    3    3  502    0 -0.12745654768E+03  0.17187714142E+03  0.10146314219E+04  0.10369599489E+04  0.46999998093E+01 0.  1.
       -5    1    3    3    0  502  0.12745654768E+03 -0.17187714142E+03  0.29083616238E+03  0.36110204463E+03  0.46999998093E+01 0. -1.
</event>
<event>
 5   0  0.1923706E-02  0.5000860E+03  0.7818609E-02  0.1013756E+00
       -2   -1    0    0    0  501  0.00000000000E+00  0.00000000000E+00  0.12490748424E+03  0.12490748427E+03  0.25500000920E-02 0.  1.
        2   -1    0    0  501    0  0.00000000000E+00  0.00000000000E+00 -0.50054250679E+03  0.50054250680E+03  0.25500000920E-02 0. -1.
    10030    2    1    2    0    0  0.00000000000E+00  0.00000000000E+00 -0.37563502255E+03  0.62544999106E+03  0.50008601376E+03 0.  0.
        3    1    3    3  502    0 -0.11910536327E+03  0.20809376279E+03 -0.99094724424E+02  0.25943954263E+03  0.10100000352E+00 0.  1.
       -3    1    3    3    0  502  0.11910536327E+03 -0.20809376279E+03 -0.27654029813E+03  0.36601044843E+03  0.10100000352E+00 0. -1.
</event>
<event>
 5   0  0.1855407E-02  0.4988484E+03  0.7818609E-02  0.1014080E+00
       -2   -1    0    0    0  501  0.00000000000E+00  0.00000000000E+00  0.48573236003E+02  0.48573236070E+02  0.25500000920E-02 0.  1.
        2   -1    0    0  501    0  0.00000000000E+00  0.00000000000E+00 -0.12807963566E+04  0.12807963566E+04  0.25500000920E-02 0. -1.
    10030    2    1    2    0    0  0.00000000000E+00  0.00000000000E+00 -0.12322231206E+04  0.13293695927E+04  0.49884836873E+03 0.  0.
        1    1    3    3  502    0  0.15573427662E+03 -0.91870287439E+02 -0.10739674523E+04  0.10890819084E+04  0.50400001928E-02 0. -1.
       -1    1    3    3    0  502 -0.15573427662E+03  0.91870287439E+02 -0.15825566830E+03  0.24028768425E+03  0.50400001928E-02 0.  1.
</event>
<event>
 5   0  0.1941387E-02  0.4995647E+03  0.7818609E-02  0.1013893E+00
       -2   -1    0    0    0  501  0.00000000000E+00  0.00000000000E+00  0.17059671331E+03  0.17059671332E+03  0.25500000920E-02 0. -1.
        2   -1    0    0  501    0  0.00000000000E+00  0.00000000000E+00 -0.36572349265E+03  0.36572349266E+03  0.25500000920E-02 0.  1.
    10030    2    1    2    0    0  0.00000000000E+00  0.00000000000E+00 -0.19512677935E+03  0.53632020599E+03  0.49956471386E+03 0.  0.
        4    1    3    3  502    0 -0.11605230801E+03 -0.54419998030E+02  0.13259251655E+03  0.18442359591E+03  0.12699999809E+01 0. -1.
       -4    1    3    3    0  502  0.11605230801E+03  0.54419998030E+02 -0.32771929590E+03  0.35189661008E+03  0.12699999809E+01 0.  1.
</event>
<event>
 5   0  0.1982847E-02  0.4997087E+03  0.7818609E-02  0.1013855E+00
       -2   -1    0    0    0  501  0.00000000000E+00  0.00000000000E+00  0.54860375856E+02  0.54860375915E+02  0.25500000920E-02 0. -1.
        2   -1    0    0  501    0  0.00000000000E+00  0.00000000000E+00 -0.11379285050E+04  0.11379285050E+04  0.25500000920E-02 0.  1.
    10030    2    1    2    0    0  0.00000000000E+00  0.00000000000E+00 -0.10830681291E+04  0.11927888809E+04  0.49970865719E+03 0.  0.
        2    1    3    3  502    0  0.13313592169E+03  0.14891115615E+03 -0.89979793183E+03  0.92170278518E+03  0.25500000920E-02 0.  1.
       -2    1    3    3    0  502 -0.13313592169E+03 -0.14891115615E+03 -0.18327019729E+03  0.27108609572E+03  0.25500000920E-02 0. -1.
</event>
<event>
 5   0  0.1225989E-02  0.5006021E+03  0.7818609E-02  0.1013622E+00
        1   -1    0    0  501    0  0.00000000000E+00  0.00000000000E+00  0.26092258738E+03  0.26092258743E+03  0.50400001928E-02 0. -1.
       -1   -1    0    0    0  501  0.00000000000E+00  0.00000000000E+00 -0.24011190633E+03  0.24011190638E+03  0.50400001928E-02 0.  1.
    10030    2    1    2    0    0  0.00000000000E+00  0.00000000000E+00  0.20810681056E+02  0.50103449381E+03  0.50060211700E+03 0.  0.
        3    1    3    3  502    0  0.11554227315E+03  0.12771934208E+03 -0.17137852030E+03  0.24296677684E+03  0.10100000352E+00 0.  1.
       -3    1    3    3    0  502 -0.11554227315E+03 -0.12771934208E+03  0.19218920135E+03  0.25806771697E+03  0.10100000352E+00 0. -1.
</event>
<event>
 5   0  0.1982847E-02  0.4990741E+03  0.7818609E-02  0.1014021E+00
        2   -1    0    0  501    0  0.00000000000E+00  0.00000000000E+00  0.44271505382E+03  0.44271505382E+03  0.25500000920E-02 0.  1.
       -2   -1    0    0    0  501  0.00000000000E+00  0.00000000000E+00 -0.14065195236E+03  0.14065195239E+03  0.25500000920E-02 0. -1.
    10030    2    1    2    0    0  0.00000000000E+00  0.00000000000E+00  0.30206310145E+03  0.58336700621E+03  0.49907408936E+03 0.  0.
        2    1    3    3  502    0 -0.14298357334E+03  0.97169572977E+02  0.36137649788E+03  0.40059855390E+03  0.25500000920E-02 0. -1.
       -2    1    3    3    0  502  0.14298357334E+03 -0.97169572977E+02 -0.59313396433E+02  0.18276845231E+03  0.25500000920E-02 0.  1.
</event>
<event>
 5   0  0.1227864E-02  0.4998291E+03  0.7818609E-02  0.1013824E+00
        1   -1    0    0  501    0  0.00000000000E+00  0.00000000000E+00  0.11663814305E+04  0.11663814305E+04  0.50400001928E-02 0.  1.
       -1   -1    0    0    0  501  0.00000000000E+00  0.00000000000E+00 -0.53547907947E+02  0.53547908184E+02  0.50400001928E-02 0. -1.
    10030    2    1    2    0    0  0.00000000000E+00  0.00000000000E+00  0.11128335226E+04  0.12199293387E+04  0.49982911329E+03 0.  0.
        5    1    3    3  502    0 -0.16174526032E+03 -0.92936743995E+02  0.15067091519E+03  0.23983865890E+03  0.46999998093E+01 0. -1.
       -5    1    3    3    0  502  0.16174526032E+03  0.92936743995E+02  0.96216260738E+03  0.98009067981E+03  0.46999998093E+01 0.  1.
</event>
<event>
 5   0  0.1217270E-02  0.4998380E+03  0.7818609E-02  0.1013821E+00
        1   -1    0    0  501    0  0.00000000000E+00  0.00000000000E+00  0.78014516357E+03  0.78014516359E+03  0.50400001928E-02 0. -1.
       -1   -1    0    0    0  501  0.00000000000E+00  0.00000000000E+00 -0.80061395223E+02  0.80061395381E+02  0.50400001928E-02 0.  1.
    10030    2    1    2    0    0  0.00000000000E+00  0.00000000000E+00  0.70008376835E+03  0.86020655897E+03  0.49983801515E+03 0.  0.
        2    1    3    3  502    0  0.16665815447E+03 -0.18041500179E+03  0.42956110258E+03  0.49482042620E+03  0.25500000920E-02 0. -1.
       -2    1    3    3    0  502 -0.16665815447E+03  0.18041500179E+03  0.27052266576E+03  0.36538613277E+03  0.25500000920E-02 0.  1.
</event>
<event>
 5   0  0.8012875E-03  0.4989843E+03  0.7818609E-02  0.1014044E+00
       -4   -1    0    0    0  501  0.00000000000E+00  0.00000000000E+00  0.12877359322E+03  0.12877985560E+03  0.12699999809E+01 0.  1.
        4   -1    0    0  501    0  0.00000000000E+00  0.00000000000E+00 -0.48335916084E+03  0.48336082927E+03  0.12699999809E+01 0. -1.
    10030    2    1    2    0    0  0.00000000000E+00  0.00000000000E+00 -0.35458556763E+03  0.61214068487E+03  0.49898426158E+03 0.  0.
        5    1    3    3  502    0 -0.19151078708E+03  0.15587756675E+03 -0.22066640159E+03  0.33119472848E+03  0.46999998093E+01 0.  1.
       -5    1    3    3    0  502  0.19151078708E+03 -0.15587756675E+03 -0.13391916603E+03  0.28094595639E+03  0.46999998093E+01 0. -1.
</event>
<event>
 5   0  0.1217270E-02  0.4988116E+03  0.7818609E-02  0.1014090E+00
        1   -1    0    0  501    0  0.00000000000E+00  0.00000000000E+00  0.19403142470E+03  0.19403142477E+03  0.50400001928E-02 0.  1.
       -1   -1    0    0    0  501  0.00000000000E+00  0.00000000000E+00 -0.32058333718E+03  0.32058333722E+03  0.50400001928E-02 0. -1.
    10030    2    1    2    0    0  0.00000000000E+00  0.00000000000E+00 -0.12655191248E+03  0.51461476199E+03  0.49881155430E+03 0.  0.
        2    1    3    3  502    0  0.23642460495E+03  0.46345882328E+02 -0.12980708607E+03  0.27366843851E+03  0.25500000920E-02 0. -1.
       -2    1    3    3    0  502 -0.23642460495E+03 -0.46345882328E+02  0.32551735884E+01  0.24094632348E+03  0.25500000920E-02 0.  1.
</event>
<event>
 5   0  0.1855407E-02  0.4941479E+03  0.7818609E-02  0.1015318E+00
       -2   -1    0    0    0  501  0.00000000000E+00  0.00000000000E+00  0.71279090544E+02  0.71279090590E+02  0.25500000920E-02 0. -1.
        2   -1    0    0  501    0  0.00000000000E+00  0.00000000000E+00 -0.85642961961E+03  0.85642961961E+03  0.25500000920E-02 0.  1.
    10030    2    1    2    0    0  0.00000000000E+00  0.00000000000E+00 -0.78515052906E+03  0.92770871020E+03  0.49414785003E+03 0.  0.
        1    1    3    3  502    0 -0.75405750389E+01  0.15558425827E+03 -0.32516331048E+02  0.15912458485E+03  0.50400001928E-02 0. -1.
       -1    1    3    3    0  502  0.75405750389E+01 -0.15558425827E+03 -0.75263419801E+03  0.76858412535E+03  0.50400001928E-02 0.  1.
</event>
<event>
 5   0  0.1941387E-02  0.4999574E+03  0.7818609E-02  0.1013790E+00
       -2   -1    0    0    0  501  0.00000000000E+00  0.00000000000E+00  0.26342475647E+03  0.26342475649E+03  0.25500000920E-02 0.  1.
        2   -1    0    0  501    0  0.00000000000E+00  0.00000000000E+00 -0.23721898514E+03  0.23721898515E+03  0.25500000920E-02 0. -1.
    10030    2    1    2    0    0  0.00000000000E+00  0.00000000000E+00  0.26205771338E+02  0.50064374164E+03  0.49995741177E+03 0.  0.
        4    1    3    3  502    0  0.88401547613E+02  0.17342754861E+03 -0.14394286458E+03  0.24210144444E+03  0.12699999809E+01 0. -1.
       -4    1    3    3    0  502 -0.88401547613E+02 -0.17342754861E+03  0.17014863592E+03  0.25854229720E+03  0.12699999809E+01 0.  1.
</event>
<event>
 5   0  0.8012875E-03  0.4979725E+03  0.7818609E-02  0.1014309E+00
        3   -1    0    0  501    0  0.00000000000E+00  0.00000000000E+00  0.71982364760E+03  0.71982365468E+03  0.10100000352E+00 0. -1.
       -3   -1    0    0    0  501  0.00000000000E+00  0.00000000000E+00 -0.86124059201E+02  0.86124118423E+02  0.10100000352E+00 0.  1.
    10030    2    1    2    0    0  0.00000000000E+00  0.00000000000E+00  0.63369958839E+03  0.80594777310E+03  0.49797253402E+03 0.  0.
        1    1    3    3  502    0  0.22806597810E+02 -0.14593451811E+02  0.71743391799E+03  0.71794466113E+03  0.50400001928E-02 0. -1.
       -1    1    3    3    0  502 -0.22806597810E+02  0.14593451811E+02 -0.83734329593E+02  0.88003111975E+02  0.50400001928E-02 0.  1.
</event>
<event>
 5   0  0.1225989E-02  0.4999623E+03  0.7818609E-02  0.1013789E+00
       -1   -1    0    0    0  501  0.00000000000E+00  0.00000000000E+00  0.94498071125E+02  0.94498071259E+02  0.50400001928E-02 0. -1.
        1   -1    0    0  501    0  0.00000000000E+00  0.00000000000E+00 -0.66128934280E+03  0.66128934282E+03  0.50400001928E-02 0.  1.
    10030    2    1    2    0    0  0.00000000000E+00  0.00000000000E+00 -0.56679127167E+03  0.75578741408E+03  0.49996226821E+03 0.  0.
        3    1    3    3  502    0 -0.10313505210E+03  0.19633349249E+03 -0.45777717747E+03  0.50866849092E+03  0.10100000352E+00 0.  1.
       -3    1    3    3    0  502  0.10313505210E+03 -0.19633349249E+03 -0.10901409420E+03  0.24711892315E+03  0.10100000352E+00 0. -1.
</event>
<event>
 5   0  0.1923706E-02  0.4978683E+03  0.7818609E-02  0.1014337E+00
       -2   -1    0    0    0  501  0.00000000000E+00  0.00000000000E+00  0.39015737935E+03  0.39015737936E+03  0.25500000920E-02 0. -1.
        2   -1    0    0  501    0  0.00000000000E+00  0.00000000000E+00 -0.15882876918E+03  0.15882876920E+03  0.25500000920E-02 0.  1.
    10030    2    1    2    0    0  0.00000000000E+00  0.00000000000E+00  0.23132861017E+03  0.54898614856E+03  0.49786832138E+03 0.  0.
        3    1    3    3  502    0  0.17838341117E+02  0.24744285723E+03  0.13831698879E+03  0.28403833121E+03  0.10100000352E+00 0. -1.
       -3    1    3    3    0  502 -0.17838341117E+02 -0.24744285723E+03  0.93011621376E+02  0.26494781735E+03  0.10100000352E+00 0.  1.
</event>
<event>
 5   0  0.1225989E-02  0.5000057E+03  0.7818609E-02  0.1013777E+00
        1   -1    0    0  501    0  0.00000000000E+00  0.00000000000E+00  0.28323804901E+03  0.28323804905E+03  0.50400001928E-02 0. -1.
       -1   -1    0    0    0  501  0.00000000000E+00  0.00000000000E+00 -0.22066748870E+03  0.22066748876E+03  0.50400001928E-02 0.  1.
    10030    2    1    2    0    0  0.00000000000E+00  0.00000000000E+00  0.62570560304E+02  0.50390553781E+03  0.50000571599E+03 0.  0.
        3    1    3    3  502    0 -0.66641062675E+02  0.48137332383E+02 -0.20665614088E+03  0.22240729477E+03  0.10100000352E+00 0.  1.
       -3    1    3    3    0  502  0.66641062675E+02 -0.48137332383E+02  0.26922670118E+03  0.28149824304E+03  0.10100000352E+00 0. -1.
</event>
<event>
 5   0  0.1217270E-02  0.4996095E+03  0.7818609E-02  0.1013881E+00
       -1   -1    0    0    0  501  0.00000000000E+00  0.00000000000E+00  0.44311355234E+03  0.44311355236E+03  0.50400001928E-02 0. -1.
        1   -1    0    0  501    0  0.00000000000E+00  0.00000000000E+00 -0.14082713313E+03  0.14082713322E+03  0.50400001928E-02 0.  1.
    10030    2    1    2    0    0  0.00000000000E+00  0.00000000000E+00  0.30228641920E+03  0.58394068559E+03  0.49960949255E+03 0.  0.
        2    1    3    3  502    0 -0.19753780760E+03  0.10604199505E+03  0.22383027137E+02  0.22531553443E+03  0.25500000920E-02 0.  1.
       -2    1    3    3    0  502  0.19753780760E+03 -0.10604199505E+03  0.27990339207E+03  0.35862515116E+03  0.25500000920E-02 0. -1.
</event>
<event>
 5   0  0.1982847E-02  0.5001134E+03  0.7818609E-02  0.1013749E+00
       -2   -1    0    0    0  501  0.00000000000E+00  0.00000000000E+00  0.19405030012E+03  0.19405030013E+03  0.25500000920E-02 0. -1.
        2   -1    0    0  501    0  0.00000000000E+00  0.00000000000E+00 -0.32222749636E+03  0.32222749638E+03  0.25500000920E-02 0.  1.
    10030    2    1    2    0    0  0.00000000000E+00  0.00000000000E+00 -0.12817719625E+03  0.51627779651E+03  0.50011335668E+03 0.  0.
        2    1    3    3  502    0  0.10046026975E+03 -0.61609360337E+02 -0.29176257797E+03  0.31466391752E+03  0.25500000920E-02 0.  1.
       -2    1    3    3    0  502 -0.10046026975E+03  0.61609360337E+02  0.16358538173E+03  0.20161387898E+03  0.25500000920E-02 0. -1.
</event>
<event>
 5   0  0.1227864E-02  0.4969439E+03  0.7818609E-02  0.1014580E+00
       -1   -1    0    0    0  501  0.00000000000E+00  0.00000000000E+00  0.63106712385E+03  0.63106712387E+03  0.50400001928E-02 0.  1.
        1   -1    0    0  501    0  0.00000000000E+00  0.00000000000E+00 -0.97831605389E+02  0.97831605518E+02  0.50400001928E-02 0. -1.
    10030    2    1    2    0    0  0.00000000000E+00  0.00000000000E+00  0.53323551846E+03  0.72889872939E+03  0.49694389981E+03 0.  0.
        5    1    3    3  502    0  0.32303117912E+02 -0.13691402154E+03  0.56695429663E+03  0.58416453606E+03  0.46999998093E+01 0.  1.
       -5    1    3    3    0  502 -0.32303117912E+02  0.13691402154E+03 -0.33718778170E+02  0.14473419333E+03  0.46999998093E+01 0. -1.
</event>
<event>
 5   0  0.1209831E-02  0.4984223E+03  0.7818609E-02  0.1014192E+00
        1   -1    0    0  501    0  0.00000000000E+00  0.00000000000E+00  0.70675680609E+03  0.70675680611E+03  0.50400001928E-02 0.  1.
       -1   -1    0    0    0  501  0.00000000000E+00  0.00000000000E+00 -0.87874910377E+02  0.87874910522E+02  0.50400001928E-02 0. -1.
    10030    2    1    2    0    0  0.00000000000E+00  0.00000000000E+00  0.61888189572E+03  0.79463171663E+03  0.49842227502E+03 0.  0.
        4    1    3    3  502    0 -0.96430588776E+02  0.12682088619E+03  0.39258375328E+01  0.15937195715E+03  0.12699999809E+01 0. -1.
       -4    1    3    3    0  502  0.96430588776E+02 -0.12682088619E+03  0.61495605818E+03  0.63525975948E+03  0.12699999809E+01 0.  1.
</event>
<event>
 5   0  0.1941387E-02  0.4997088E+03  0.7818609E-02  0.1013855E+00
       -2   -1    0    0    0  501  0.00000000000E+00  0.00000000000E+00  0.29951733451E+02  0.29951733560E+02  0.25500000920E-02 0. -1.
        2   -1    0    0  501    0  0.00000000000E+00  0.00000000000E+00 -0.20842608941E+04  0.20842608941E+04  0.25500000920E-02 0.  1.
    10030    2    1    2    0    0  0.00000000000E+00  0.00000000000E+00 -0.20543091606E+04  0.21142126277E+04  0.49970882265E+03 0.  0.
        4    1    3    3  502    0 -0.11846629760E+03  0.90631178211E+02 -0.18752060955E+04  0.18811293915E+04  0.12699999809E+01 0.  1.
       -4    1    3    3    0  502  0.11846629760E+03 -0.90631178211E+02 -0.17910306519E+03  0.23308323619E+03  0.12699999809E+01 0. -1.
</event>
<event>
 5   0  0.1209831E-02  0.5002001E+03  0.7818609E-02  0.1013727E+00
       -1   -1    0    0    0  501  0.00000000000E+00  0.00000000000E+00  0.16055870536E+03  0.16055870544E+03  0.50400001928E-02 0.  1.
        1   -1    0    0  501    0  0.00000000000E+00  0.00000000000E+00 -0.38957735167E+03  0.38957735170E+03  0.50400001928E-02 0. -1.
    10030    2    1    2    0    0  0.00000000000E+00  0.00000000000E+00 -0.22901864631E+03  0.55013605714E+03  0.50020010097E+03 0.  0.
        4    1    3    3  502    0 -0.61730238334E+02  0.18377893929E+03 -0.28827964550E+03  0.34740766797E+03  0.12699999809E+01 0. -1.
       -4    1    3    3    0  502  0.61730238334E+02 -0.18377893929E+03  0.59260999190E+02  0.20272838917E+03  0.12699999809E+01 0.  1.
</event>
<event>
 5   0  0.1941387E-02  0.5011396E+03  0.7818609E-02  0.1013482E+00
        2   -1    0    0  501    0  0.00000000000E+00  0.00000000000E+00  0.12487230528E+04  0.12487230528E+04  0.25500000920E-02 0. -1.
       -2   -1    0    0    0  501  0.00000000000E+00  0.00000000000E+00 -0.50279552779E+02  0.50279552844E+02  0.25500000920E-02 0.  1.
    10030    2    1    2    0    0  0.00000000000E+00  0.00000000000E+00  0.11984435000E+04  0.12990026056E+04  0.50113964794E+03 0.  0.
        4    1    3    3  502    0 -0.58382092593E+02 -0.20731498610E+03  0.93112812883E+03  0.95571396213E+03  0.12699999809E+01 0. -1.
       -4    1    3    3    0  502  0.58382092593E+02  0.20731498610E+03  0.26731537118E+03  0.34328864352E+03  0.12699999809E+01 0.  1.
</event>
<event>
 5   0  0.1967813E-02  0.4990504E+03  0.7818609E-02  0.1014027E+00
       -2   -1    0    0    0  501  0.00000000000E+00  0.00000000000E+00  0.14470256911E+03  0.14470256913E+03  0.25500000920E-02 0.  1.
        2   -1    0    0  501    0  0.00000000000E+00  0.00000000000E+00 -0.43028144752E+03  0.43028144753E+03  0.25500000920E-02 0. -1.
    10030    2    1    2    0    0  0.00000000000E+00  0.00000000000E+00 -0.28557887842E+03  0.57498401666E+03  0.49905042192E+03 0.  0.
        5    1    3    3  502    0  0.44949829704E+02  0.24018785965E+03 -0.20074238762E+03  0.31627565714E+03  0.46999998093E+01 0. -1.
       -5    1    3    3    0  502 -0.44949829704E+02 -0.24018785965E+03 -0.84836490796E+02  0.25870835952E+03  0.46999998093E+01 0.  1.
</event>
<event>
 5   0  0.1209831E-02  0.4993555E+03  0.7818609E-02  0.1013947E+00
       -1   -1    0    0    0  501  0.00000000000E+00  0.00000000000E+00  0.27796716393E+03  0.27796716398E+03  0.50400001928E-02 0.  1.
        1   -1    0    0  501    0  0.00000000000E+00  0.00000000000E+00 -0.22426740547E+03  0.22426740553E+03  0.50400001928E-02 0. -1.
    10030    2    1    2    0    0  0.00000000000E+00  0.00000000000E+00  0.53699758465E+02  0.50223456951E+03  0.49935548335E+03 0.  0.
        4    1    3    3  502    0  0.91528577642E+02  0.94630541419E+02  0.24021669796E+03  0.27393082115E+03  0.12699999809E+01 0.  1.
       -4    1    3    3    0  502 -0.91528577642E+02 -0.94630541419E+02 -0.18651693950E+03  0.22830374836E+03  0.12699999809E+01 0. -1.
</event>
<event>
 5   0  0.1967813E-02  0.5008280E+03  0.7818609E-02  0.1013563E+00
        2   -1    0    0  501    0  0.00000000000E+00  0.00000000000E+00  0.17979539386E+04  0.17979539386E+04  0.25500000920E-02 0.  1.
       -2   -1    0    0    0  501  0.00000000000E+00  0.00000000000E+00 -0.34876958610E+02  0.34876958703E+02  0.25500000920E-02 0. -1.
    10030    2    1    2    0    0  0.00000000000E+00  0.00000000000E+00  0.17630769799E+04  0.18328308973E+04  0.50082797520E+03 0.  0.
        5    1    3    3  502    0 -0.13471909276E+03 -0.86209880791E+02  0.15864626803E+04  0.15945116191E+04  0.46999998093E+01 0.  1.
       -5    1    3    3    0  502  0.13471909276E+03  0.86209880791E+02  0.17661429966E+03  0.23831927816E+03  0.46999998093E+01 0. -1.
</event>
<event>
 5   0  0.8012875E-03  0.5002221E+03  0.7818609E-02  0.1013721E+00
        4   -1    0    0  501    0  0.00000000000E+00  0.00000000000E+00  0.23392807849E+03  0.23393152589E+03  0.12699999809E+01 0.  1.
       -4   -1    0    0    0  501  0.00000000000E+00  0.00000000000E+00 -0.26740657799E+03  0.26740959380E+03  0.12699999809E+01 0. -1.
    10030    2    1    2    0    0  0.00000000000E+00  0.00000000000E+00 -0.33478499505E+02  0.50134111969E+03  0.50022205905E+03 0.  0.
        2    1    3    3  502    0 -0.70347234173E+02 -0.89394129286E+02  0.20650439302E+03  0.23576282160E+03  0.25500000920E-02 0.  1.
       -2    1    3    3    0  502  0.70347234173E+02  0.89394129286E+02 -0.23998289252E+03  0.26557829809E+03  0.25500000920E-02 0. -1.
</event>
<event>
 5   0  0.8012875E-03  0.4995063E+03  0.7818609E-02  0.1013908E+00
       -3   -1    0    0    0  501  0.00000000000E+00  0.00000000000E+00  0.90581178999E+02  0.90581235308E+02  0.10100000352E+00 0.  1.
        3   -1    0    0  501    0  0.00000000000E+00  0.00000000000E+00 -0.68862673992E+03  0.68862674733E+03  0.10100000352E+00 0. -1.
    10030    2    1    2    0    0  0.00000000000E+00  0.00000000000E+00 -0.59804556092E+03  0.77920798264E+03  0.49950634357E+03 0.  0.
        4    1    3    3  502    0 -0.21737858859E+03 -0.32707528646E+02 -0.11410512609E+03  0.24767887659E+03  0.12699999809E+01 0.  1.
       -4    1    3    3    0  502  0.21737858859E+03  0.32707528646E+02 -0.48394043484E+03  0.53152910605E+03  0.12699999809E+01 0. -1.
</event>
<event>
 5   0  0.1982847E-02  0.5002834E+03  0.7818609E-02  0.1013705E+00
       -2   -1    0    0    0  501  0.00000000000E+00  0.00000000000E+00  0.75946485001E+02  0.75946485044E+02  0.25500000920E-02 0. -1.
        2   -1    0    0  501    0  0.00000000000E+00  0.00000000000E+00 -0.82388101845E+03  0.82388101845E+03  0.25500000920E-02 0.  1.
    10030    2    1    2    0    0  0.00000000000E+00  0.00000000000E+00 -0.74793453345E+03  0.89982750350E+03  0.50028338942E+03 0.  0.
        2    1    3    3  502    0 -0.14378301398E+03 -0.19061090042E+03 -0.50814110424E+03  0.56143873423E+03  0.25500000920E-02 0. -1.
       -2    1    3    3    0  502  0.14378301398E+03  0.19061090042E+03 -0.23979342920E+03  0.33838876926E+03  0.25500000920E-02 0.  1.
</event>
<event>
 5   0  0.1225989E-02  0.4997179E+03  0.7818609E-02  0.1013853E+00
       -1   -1    0    0    0  501  0.00000000000E+00  0.00000000000E+00  0.12620373406E+03  0.12620373416E+03  0.50400001928E-02 0. -1.
        1   -1    0    0  501    0  0.00000000000E+00  0.00000000000E+00 -0.49467239703E+03  0.49467239706E+03  0.50400001928E-02 0.  1.
    10030    2    1    2    0    0  0.00000000000E+00  0.00000000000E+00 -0.36846866297E+03  0.62087613122E+03  0.49971793517E+03 0.  0.
        3    1    3    3  502    0 -0.17218051693E+03  0.32738394523E+02  0.37018498854E+02  0.17913210863E+03  0.10100000352E+00 0. -1.
       -3    1    3    3    0  502  0.17218051693E+03 -0.32738394523E+02 -0.40548716182E+03  0.44174402258E+03  0.10100000352E+00 0.  1.
</event>
</LesHouchesEvents>
